   1   1   0   0
  0.4928368E+02  0.4115343E-09  0.4115343E-09  0.4115343E-09  0.1000000E-15
  1.000000000000000E-004
  CAR 
 Og_FCC                                  
     15.31575390    -20.25912830  301     -3.95397396      1.00000000
    -20.259  0.0000E+00  0.0000E+00
    -20.141  0.0000E+00  0.0000E+00
    -20.022  0.0000E+00  0.0000E+00
    -19.903  0.0000E+00  0.0000E+00
    -19.785  0.0000E+00  0.0000E+00
    -19.666  0.0000E+00  0.0000E+00
    -19.548  0.0000E+00  0.0000E+00
    -19.429  0.0000E+00  0.0000E+00
    -19.310  0.0000E+00  0.0000E+00
    -19.192  0.0000E+00  0.0000E+00
    -19.073  0.0000E+00  0.0000E+00
    -18.955  0.0000E+00  0.0000E+00
    -18.836  0.0000E+00  0.0000E+00
    -18.718  0.0000E+00  0.0000E+00
    -18.599  0.0000E+00  0.3125E-01
    -18.480  0.6325E+01  0.1719E+01
    -18.362  0.0000E+00  0.2000E+01
    -18.243  0.0000E+00  0.2000E+01
    -18.125  0.0000E+00  0.2000E+01
    -18.006  0.0000E+00  0.2000E+01
    -17.887  0.0000E+00  0.2000E+01
    -17.769  0.0000E+00  0.2000E+01
    -17.650  0.0000E+00  0.2000E+01
    -17.532  0.0000E+00  0.2000E+01
    -17.413  0.0000E+00  0.2000E+01
    -17.295  0.0000E+00  0.2000E+01
    -17.176  0.0000E+00  0.2000E+01
    -17.057  0.0000E+00  0.2000E+01
    -16.939  0.0000E+00  0.2000E+01
    -16.820  0.0000E+00  0.2000E+01
    -16.702  0.0000E+00  0.2000E+01
    -16.583  0.0000E+00  0.2000E+01
    -16.464  0.0000E+00  0.2000E+01
    -16.346  0.0000E+00  0.2000E+01
    -16.227  0.0000E+00  0.2000E+01
    -16.109  0.0000E+00  0.2000E+01
    -15.990  0.0000E+00  0.2000E+01
    -15.872  0.0000E+00  0.2000E+01
    -15.753  0.0000E+00  0.2000E+01
    -15.634  0.0000E+00  0.2000E+01
    -15.516  0.0000E+00  0.2000E+01
    -15.397  0.0000E+00  0.2000E+01
    -15.279  0.0000E+00  0.2000E+01
    -15.160  0.0000E+00  0.2000E+01
    -15.041  0.0000E+00  0.2000E+01
    -14.923  0.0000E+00  0.2000E+01
    -14.804  0.0000E+00  0.2000E+01
    -14.686  0.0000E+00  0.2000E+01
    -14.567  0.0000E+00  0.2000E+01
    -14.449  0.0000E+00  0.2000E+01
    -14.330  0.0000E+00  0.2000E+01
    -14.211  0.0000E+00  0.2000E+01
    -14.093  0.0000E+00  0.2000E+01
    -13.974  0.0000E+00  0.2000E+01
    -13.856  0.0000E+00  0.2000E+01
    -13.737  0.0000E+00  0.2000E+01
    -13.618  0.0000E+00  0.2000E+01
    -13.500  0.0000E+00  0.2000E+01
    -13.381  0.0000E+00  0.2000E+01
    -13.263  0.0000E+00  0.2000E+01
    -13.144  0.0000E+00  0.2000E+01
    -13.026  0.0000E+00  0.2000E+01
    -12.907  0.0000E+00  0.2000E+01
    -12.788  0.0000E+00  0.2000E+01
    -12.670  0.0000E+00  0.2000E+01
    -12.551  0.0000E+00  0.2000E+01
    -12.433  0.0000E+00  0.2000E+01
    -12.314  0.0000E+00  0.2000E+01
    -12.195  0.0000E+00  0.2000E+01
    -12.077  0.0000E+00  0.2000E+01
    -11.958  0.0000E+00  0.2000E+01
    -11.840  0.0000E+00  0.2000E+01
    -11.721  0.0000E+00  0.2000E+01
    -11.603  0.0000E+00  0.2000E+01
    -11.484  0.0000E+00  0.2000E+01
    -11.365  0.0000E+00  0.2000E+01
    -11.247  0.0000E+00  0.2000E+01
    -11.128  0.0000E+00  0.2000E+01
    -11.010  0.0000E+00  0.2000E+01
    -10.891  0.0000E+00  0.2000E+01
    -10.772  0.0000E+00  0.2000E+01
    -10.654  0.0000E+00  0.2000E+01
    -10.535  0.0000E+00  0.2000E+01
    -10.417  0.0000E+00  0.2000E+01
    -10.298  0.0000E+00  0.2000E+01
    -10.180  0.0000E+00  0.2000E+01
    -10.061  0.0000E+00  0.2000E+01
     -9.942  0.0000E+00  0.2000E+01
     -9.824  0.0000E+00  0.2000E+01
     -9.705  0.0000E+00  0.2000E+01
     -9.587  0.0000E+00  0.2000E+01
     -9.468  0.0000E+00  0.2000E+01
     -9.349  0.0000E+00  0.2000E+01
     -9.231  0.0000E+00  0.2000E+01
     -9.112  0.0000E+00  0.2000E+01
     -8.994  0.0000E+00  0.2000E+01
     -8.875  0.0000E+00  0.2000E+01
     -8.757  0.0000E+00  0.2000E+01
     -8.638  0.0000E+00  0.2000E+01
     -8.519  0.0000E+00  0.2000E+01
     -8.401  0.0000E+00  0.2000E+01
     -8.282  0.0000E+00  0.2000E+01
     -8.164  0.0000E+00  0.2000E+01
     -8.045  0.0000E+00  0.2000E+01
     -7.927  0.0000E+00  0.2000E+01
     -7.808  0.0000E+00  0.2000E+01
     -7.689  0.0000E+00  0.2000E+01
     -7.571  0.0000E+00  0.2000E+01
     -7.452  0.0000E+00  0.2000E+01
     -7.334  0.0000E+00  0.2000E+01
     -7.215  0.0000E+00  0.2000E+01
     -7.096  0.0000E+00  0.2000E+01
     -6.978  0.0000E+00  0.2000E+01
     -6.859  0.0000E+00  0.2000E+01
     -6.741  0.0000E+00  0.2000E+01
     -6.622  0.0000E+00  0.2000E+01
     -6.504  0.0000E+00  0.2000E+01
     -6.385  0.0000E+00  0.2000E+01
     -6.266  0.0000E+00  0.2000E+01
     -6.148  0.0000E+00  0.2000E+01
     -6.029  0.0000E+00  0.2000E+01
     -5.911  0.0000E+00  0.2000E+01
     -5.792  0.0000E+00  0.2000E+01
     -5.673  0.0000E+00  0.2000E+01
     -5.555  0.0000E+00  0.2000E+01
     -5.436  0.0000E+00  0.2219E+01
     -5.318  0.0000E+00  0.3156E+01
     -5.199  0.0000E+00  0.3531E+01
     -5.081  0.0000E+00  0.3531E+01
     -4.962  0.0000E+00  0.3969E+01
     -4.843  0.0000E+00  0.3969E+01
     -4.725  0.0000E+00  0.4156E+01
     -4.606  0.0000E+00  0.5406E+01
     -4.488  0.0000E+00  0.5719E+01
     -4.369  0.0000E+00  0.6000E+01
     -4.250  0.5819E+00  0.7069E+01
     -4.132  0.1054E+01  0.7687E+01
     -4.013  0.0000E+00  0.7938E+01
     -3.895  0.0000E+00  0.8000E+01
     -3.776  0.0000E+00  0.8000E+01
     -3.658  0.0000E+00  0.8000E+01
     -3.539  0.0000E+00  0.8000E+01
     -3.420  0.0000E+00  0.8000E+01
     -3.302  0.0000E+00  0.8000E+01
     -3.183  0.0000E+00  0.8000E+01
     -3.065  0.0000E+00  0.8000E+01
     -2.946  0.0000E+00  0.8000E+01
     -2.827  0.0000E+00  0.8000E+01
     -2.709  0.0000E+00  0.8000E+01
     -2.590  0.0000E+00  0.8000E+01
     -2.472  0.0000E+00  0.8000E+01
     -2.353  0.0000E+00  0.8000E+01
     -2.235  0.0000E+00  0.8000E+01
     -2.116  0.0000E+00  0.8000E+01
     -1.997  0.0000E+00  0.8000E+01
     -1.879  0.0000E+00  0.8000E+01
     -1.760  0.0000E+00  0.8000E+01
     -1.642  0.0000E+00  0.8000E+01
     -1.523  0.0000E+00  0.8000E+01
     -1.404  0.0000E+00  0.8000E+01
     -1.286  0.0000E+00  0.8000E+01
     -1.167  0.0000E+00  0.8000E+01
     -1.049  0.0000E+00  0.8000E+01
     -0.930  0.0000E+00  0.8000E+01
     -0.812  0.0000E+00  0.8000E+01
     -0.693  0.0000E+00  0.8000E+01
     -0.574  0.0000E+00  0.8000E+01
     -0.456  0.0000E+00  0.8000E+01
     -0.337  0.0000E+00  0.8000E+01
     -0.219  0.0000E+00  0.8000E+01
     -0.100  0.0000E+00  0.8000E+01
      0.019  0.0000E+00  0.8000E+01
      0.137  0.0000E+00  0.8000E+01
      0.256  0.0000E+00  0.8000E+01
      0.374  0.0000E+00  0.8000E+01
      0.493  0.0000E+00  0.8000E+01
      0.611  0.0000E+00  0.8000E+01
      0.730  0.0000E+00  0.8000E+01
      0.849  0.0000E+00  0.8000E+01
      0.967  0.0000E+00  0.8000E+01
      1.086  0.0000E+00  0.8000E+01
      1.204  0.0000E+00  0.8000E+01
      1.323  0.0000E+00  0.8000E+01
      1.442  0.0000E+00  0.8000E+01
      1.560  0.0000E+00  0.8000E+01
      1.679  0.0000E+00  0.8000E+01
      1.797  0.0000E+00  0.8000E+01
      1.916  0.0000E+00  0.8000E+01
      2.034  0.0000E+00  0.8000E+01
      2.153  0.0000E+00  0.8000E+01
      2.272  0.0000E+00  0.8000E+01
      2.390  0.0000E+00  0.8000E+01
      2.509  0.0000E+00  0.8000E+01
      2.627  0.0000E+00  0.8000E+01
      2.746  0.0000E+00  0.8000E+01
      2.865  0.0000E+00  0.8000E+01
      2.983  0.0000E+00  0.8000E+01
      3.102  0.0000E+00  0.8031E+01
      3.220  0.0000E+00  0.8031E+01
      3.339  0.0000E+00  0.8031E+01
      3.457  0.0000E+00  0.8031E+01
      3.576  0.0000E+00  0.8031E+01
      3.695  0.0000E+00  0.8031E+01
      3.813  0.0000E+00  0.8031E+01
      3.932  0.0000E+00  0.8031E+01
      4.050  0.0000E+00  0.8031E+01
      4.169  0.0000E+00  0.8031E+01
      4.288  0.0000E+00  0.8031E+01
      4.406  0.0000E+00  0.8281E+01
      4.525  0.0000E+00  0.8281E+01
      4.643  0.0000E+00  0.8281E+01
      4.762  0.0000E+00  0.8469E+01
      4.880  0.0000E+00  0.8469E+01
      4.999  0.0000E+00  0.8469E+01
      5.118  0.0000E+00  0.8469E+01
      5.236  0.0000E+00  0.8469E+01
      5.355  0.0000E+00  0.8562E+01
      5.473  0.0000E+00  0.8688E+01
      5.592  0.0000E+00  0.8688E+01
      5.711  0.0000E+00  0.8688E+01
      5.829  0.0000E+00  0.8688E+01
      5.948  0.0000E+00  0.8688E+01
      6.066  0.0000E+00  0.9812E+01
      6.185  0.0000E+00  0.9812E+01
      6.303  0.0000E+00  0.9812E+01
      6.422  0.0000E+00  0.1000E+02
      6.541  0.0000E+00  0.1000E+02
      6.659  0.0000E+00  0.1009E+02
      6.778  0.0000E+00  0.1009E+02
      6.896  0.0000E+00  0.1009E+02
      7.015  0.0000E+00  0.1009E+02
      7.134  0.0000E+00  0.1084E+02
      7.252  0.0000E+00  0.1084E+02
      7.371  0.0000E+00  0.1084E+02
      7.489  0.0000E+00  0.1084E+02
      7.608  0.0000E+00  0.1103E+02
      7.726  0.0000E+00  0.1141E+02
      7.845  0.0000E+00  0.1197E+02
      7.964  0.0000E+00  0.1228E+02
      8.082  0.0000E+00  0.1253E+02
      8.201  0.0000E+00  0.1253E+02
      8.319  0.0000E+00  0.1328E+02
      8.438  0.0000E+00  0.1328E+02
      8.557  0.0000E+00  0.1328E+02
      8.675  0.0000E+00  0.1328E+02
      8.794  0.0000E+00  0.1328E+02
      8.912  0.0000E+00  0.1347E+02
      9.031  0.0000E+00  0.1372E+02
      9.149  0.0000E+00  0.1372E+02
      9.268  0.2433E-02  0.1372E+02
      9.387  0.0000E+00  0.1409E+02
      9.505  0.2108E+01  0.1434E+02
      9.624  0.0000E+00  0.1459E+02
      9.742  0.0000E+00  0.1459E+02
      9.861  0.5886E-10  0.1459E+02
      9.980  0.0000E+00  0.1497E+02
     10.098  0.0000E+00  0.1497E+02
     10.217  0.0000E+00  0.1497E+02
     10.335  0.0000E+00  0.1572E+02
     10.454  0.1581E+01  0.1609E+02
     10.572  0.0000E+00  0.1609E+02
     10.691  0.0000E+00  0.1609E+02
     10.810  0.0000E+00  0.1609E+02
     10.928  0.0000E+00  0.1609E+02
     11.047  0.0000E+00  0.1609E+02
     11.165  0.0000E+00  0.1609E+02
     11.284  0.0000E+00  0.1647E+02
     11.403  0.9181E+00  0.1664E+02
     11.521  0.0000E+00  0.1672E+02
     11.640  0.0000E+00  0.1672E+02
     11.758  0.0000E+00  0.1675E+02
     11.877  0.0000E+00  0.1675E+02
     11.995  0.0000E+00  0.1675E+02
     12.114  0.0000E+00  0.1750E+02
     12.233  0.0000E+00  0.1750E+02
     12.351  0.0000E+00  0.1750E+02
     12.470  0.0000E+00  0.1750E+02
     12.588  0.0000E+00  0.1750E+02
     12.707  0.0000E+00  0.1762E+02
     12.826  0.0000E+00  0.1762E+02
     12.944  0.0000E+00  0.1772E+02
     13.063  0.0000E+00  0.1781E+02
     13.181  0.0000E+00  0.1781E+02
     13.300  0.0000E+00  0.1781E+02
     13.418  0.0000E+00  0.1781E+02
     13.537  0.0000E+00  0.1781E+02
     13.656  0.0000E+00  0.1781E+02
     13.774  0.0000E+00  0.1800E+02
     13.893  0.0000E+00  0.1800E+02
     14.011  0.0000E+00  0.1800E+02
     14.130  0.0000E+00  0.1800E+02
     14.249  0.0000E+00  0.1800E+02
     14.367  0.0000E+00  0.1800E+02
     14.486  0.0000E+00  0.1800E+02
     14.604  0.0000E+00  0.1800E+02
     14.723  0.0000E+00  0.1800E+02
     14.841  0.0000E+00  0.1800E+02
     14.960  0.0000E+00  0.1800E+02
     15.079  0.0000E+00  0.1800E+02
     15.197  0.0000E+00  0.1800E+02
     15.316  0.0000E+00  0.1800E+02
