    1    1    1    1
  0.4928368E+02  0.4115343E-09  0.4115343E-09  0.4115343E-09  0.1000000E-15
  1.000000000000000E-004
  CAR 
 Og_FCC                                  
      8     64     18
 
  0.0000000E+00  0.0000000E+00  0.0000000E+00  0.1562500E-01
    1      -18.642088   1.000000
    2      -18.642088   1.000000
    3       -4.682055   1.000000
    4       -4.682055   1.000000
    5       -3.990353   1.000000
    6       -3.990353   1.000000
    7       -3.990353   1.000000
    8       -3.990352   1.000000
    9        3.022309   0.000000
   10        3.022322   0.000000
   11        9.358272   0.000000
   12        9.358272   0.000000
   13        9.358272   0.000000
   14        9.358272   0.000000
   15        9.374829   0.000000
   16        9.374829   0.000000
   17       11.696757   0.000000
   18       11.696757   0.000000
 
  0.2500000E+00  0.2480038E-17 -0.2775558E-16  0.1562500E-01
    1      -18.574879   1.000000
    2      -18.574879   1.000000
    3       -5.057972   1.000000
    4       -5.057972   1.000000
    5       -4.352053   1.000000
    6       -4.352053   1.000000
    7       -4.064767   1.000000
    8       -4.064767   1.000000
    9        4.344430   0.000000
   10        4.344441   0.000000
   11        8.067243   0.000000
   12        8.067248   0.000000
   13        9.500424   0.000000
   14        9.500425   0.000000
   15        9.518313   0.000000
   16        9.518314   0.000000
   17       11.393231   0.000000
   18       11.408966   0.000000
 
  0.5000000E+00  0.4960076E-17 -0.5551115E-16  0.1562500E-01
    1      -18.505860   1.000000
    2      -18.505859   1.000000
    3       -5.527481   1.000000
    4       -5.527481   1.000000
    5       -4.502432   1.000000
    6       -4.502432   1.000000
    7       -4.136324   1.000000
    8       -4.136324   1.000000
    9        5.405669   0.000000
   10        5.405670   0.000000
   11        7.911021   0.000000
   12        7.911048   0.000000
   13        8.983778   0.000000
   14        8.983779   0.000000
   15        9.000681   0.000000
   16        9.000682   0.000000
   17       12.641108   0.000000
   18       12.641131   0.000000
 
 -0.2500000E+00 -0.2480038E-17  0.2775558E-16  0.1562500E-01
    1      -18.574879   1.000000
    2      -18.574879   1.000000
    3       -5.057972   1.000000
    4       -5.057972   1.000000
    5       -4.352053   1.000000
    6       -4.352053   1.000000
    7       -4.064767   1.000000
    8       -4.064767   1.000000
    9        4.344430   0.000000
   10        4.344441   0.000000
   11        8.067243   0.000000
   12        8.067248   0.000000
   13        9.500424   0.000000
   14        9.500425   0.000000
   15        9.518313   0.000000
   16        9.518314   0.000000
   17       11.396150   0.000000
   18       11.398335   0.000000
 
 -0.7703720E-33  0.2500000E+00  0.2775558E-16  0.1562500E-01
    1      -18.574879   1.000000
    2      -18.574879   1.000000
    3       -5.057972   1.000000
    4       -5.057972   1.000000
    5       -4.352053   1.000000
    6       -4.352053   1.000000
    7       -4.064767   1.000000
    8       -4.064767   1.000000
    9        4.344430   0.000000
   10        4.344441   0.000000
   11        8.067243   0.000000
   12        8.067248   0.000000
   13        9.500425   0.000000
   14        9.500425   0.000000
   15        9.518313   0.000000
   16        9.518314   0.000000
   17       11.394803   0.000000
   18       11.398410   0.000000
 
  0.2500000E+00  0.2500000E+00  0.0000000E+00  0.1562500E-01
    1      -18.552846   1.000000
    2      -18.552845   1.000000
    3       -5.072416   1.000000
    4       -5.072416   1.000000
    5       -4.441257   1.000000
    6       -4.441257   1.000000
    7       -4.210365   1.000000
    8       -4.210365   1.000000
    9        4.732157   0.000000
   10        4.732171   0.000000
   11        7.539216   0.000000
   12        7.539217   0.000000
   13        8.820044   0.000000
   14        8.820050   0.000000
   15       10.398682   0.000000
   16       10.398683   0.000000
   17       10.447188   0.000000
   18       10.447189   0.000000
 
  0.5000000E+00  0.2500000E+00 -0.2775558E-16  0.1562500E-01
    1      -18.484113   1.000000
    2      -18.484113   1.000000
    3       -5.377317   1.000000
    4       -5.377317   1.000000
    5       -4.697502   1.000000
    6       -4.697502   1.000000
    7       -4.357796   1.000000
    8       -4.357796   1.000000
    9        6.043265   0.000000
   10        6.043280   0.000000
   11        7.109747   0.000000
   12        7.109757   0.000000
   13        8.217130   0.000000
   14        8.217132   0.000000
   15       10.238507   0.000000
   16       10.238509   0.000000
   17       12.028026   0.000000
   18       12.028031   0.000000
 
 -0.2500000E+00  0.2500000E+00  0.2003563E-16  0.1562500E-01
    1      -18.506740   1.000000
    2      -18.506740   1.000000
    3       -5.290284   1.000000
    4       -5.290284   1.000000
    5       -4.678027   1.000000
    6       -4.678027   1.000000
    7       -4.249795   1.000000
    8       -4.249795   1.000000
    9        5.961457   0.000000
   10        5.961467   0.000000
   11        7.655776   0.000000
   12        7.655792   0.000000
   13        7.812554   0.000000
   14        7.812556   0.000000
   15        9.865615   0.000000
   16        9.865617   0.000000
   17       11.176467   0.000000
   18       11.176467   0.000000
 
 -0.1540744E-32  0.5000000E+00  0.5551115E-16  0.1562500E-01
    1      -18.505860   1.000000
    2      -18.505859   1.000000
    3       -5.527481   1.000000
    4       -5.527481   1.000000
    5       -4.502432   1.000000
    6       -4.502432   1.000000
    7       -4.136324   1.000000
    8       -4.136324   1.000000
    9        5.405669   0.000000
   10        5.405670   0.000000
   11        7.911021   0.000000
   12        7.911048   0.000000
   13        8.983779   0.000000
   14        8.983779   0.000000
   15        9.000681   0.000000
   16        9.000681   0.000000
   17       12.641108   0.000000
   18       12.641131   0.000000
 
  0.2500000E+00  0.5000000E+00  0.2775558E-16  0.1562500E-01
    1      -18.484113   1.000000
    2      -18.484113   1.000000
    3       -5.377317   1.000000
    4       -5.377317   1.000000
    5       -4.697502   1.000000
    6       -4.697502   1.000000
    7       -4.357796   1.000000
    8       -4.357796   1.000000
    9        6.043265   0.000000
   10        6.043280   0.000000
   11        7.109747   0.000000
   12        7.109757   0.000000
   13        8.217130   0.000000
   14        8.217132   0.000000
   15       10.238507   0.000000
   16       10.238509   0.000000
   17       12.028026   0.000000
   18       12.028031   0.000000
 
  0.5000000E+00  0.5000000E+00  0.0000000E+00  0.1562500E-01
    1      -18.461985   1.000000
    2      -18.461985   1.000000
    3       -5.463623   1.000000
    4       -5.463623   1.000000
    5       -4.717759   1.000000
    6       -4.717759   1.000000
    7       -4.417158   1.000000
    8       -4.417158   1.000000
    9        5.322761   0.000000
   10        5.322783   0.000000
   11        6.572039   0.000000
   12        6.572041   0.000000
   13        9.269960   0.000000
   14        9.269962   0.000000
   15       12.833262   0.000000
   16       12.833264   0.000000
   17       12.982035   0.000000
   18       12.982037   0.000000
 
 -0.2500000E+00  0.5000000E+00  0.8326673E-16  0.1562500E-01
    1      -18.484113   1.000000
    2      -18.484113   1.000000
    3       -5.377317   1.000000
    4       -5.377317   1.000000
    5       -4.697502   1.000000
    6       -4.697502   1.000000
    7       -4.357796   1.000000
    8       -4.357796   1.000000
    9        6.043265   0.000000
   10        6.043280   0.000000
   11        7.109747   0.000000
   12        7.109757   0.000000
   13        8.217130   0.000000
   14        8.217132   0.000000
   15       10.238507   0.000000
   16       10.238509   0.000000
   17       12.028026   0.000000
   18       12.028031   0.000000
 
  0.7703720E-33 -0.2500000E+00 -0.2775558E-16  0.1562500E-01
    1      -18.574879   1.000000
    2      -18.574879   1.000000
    3       -5.057972   1.000000
    4       -5.057972   1.000000
    5       -4.352053   1.000000
    6       -4.352053   1.000000
    7       -4.064767   1.000000
    8       -4.064767   1.000000
    9        4.344430   0.000000
   10        4.344441   0.000000
   11        8.067243   0.000000
   12        8.067248   0.000000
   13        9.500425   0.000000
   14        9.500425   0.000000
   15        9.518313   0.000000
   16        9.518314   0.000000
   17       11.395466   0.000000
   18       11.401281   0.000000
 
  0.2500000E+00 -0.2500000E+00 -0.2003563E-16  0.1562500E-01
    1      -18.506740   1.000000
    2      -18.506740   1.000000
    3       -5.290284   1.000000
    4       -5.290284   1.000000
    5       -4.678027   1.000000
    6       -4.678027   1.000000
    7       -4.249795   1.000000
    8       -4.249795   1.000000
    9        5.961457   0.000000
   10        5.961467   0.000000
   11        7.655776   0.000000
   12        7.655792   0.000000
   13        7.812554   0.000000
   14        7.812556   0.000000
   15        9.865615   0.000000
   16        9.865617   0.000000
   17       11.176467   0.000000
   18       11.176467   0.000000
 
  0.5000000E+00 -0.2500000E+00 -0.2775558E-16  0.1562500E-01
    1      -18.484113   1.000000
    2      -18.484113   1.000000
    3       -5.377317   1.000000
    4       -5.377317   1.000000
    5       -4.697502   1.000000
    6       -4.697502   1.000000
    7       -4.357796   1.000000
    8       -4.357796   1.000000
    9        6.043265   0.000000
   10        6.043280   0.000000
   11        7.109747   0.000000
   12        7.109757   0.000000
   13        8.217130   0.000000
   14        8.217132   0.000000
   15       10.238507   0.000000
   16       10.238509   0.000000
   17       12.028026   0.000000
   18       12.028031   0.000000
 
 -0.2500000E+00 -0.2500000E+00  0.0000000E+00  0.1562500E-01
    1      -18.552846   1.000000
    2      -18.552845   1.000000
    3       -5.072416   1.000000
    4       -5.072416   1.000000
    5       -4.441257   1.000000
    6       -4.441257   1.000000
    7       -4.210365   1.000000
    8       -4.210365   1.000000
    9        4.732157   0.000000
   10        4.732171   0.000000
   11        7.539216   0.000000
   12        7.539217   0.000000
   13        8.820044   0.000000
   14        8.820050   0.000000
   15       10.398682   0.000000
   16       10.398683   0.000000
   17       10.447188   0.000000
   18       10.447188   0.000000
 
  0.1540744E-32  0.4622232E-32  0.2500000E+00  0.1562500E-01
    1      -18.574879   1.000000
    2      -18.574879   1.000000
    3       -5.057972   1.000000
    4       -5.057972   1.000000
    5       -4.352053   1.000000
    6       -4.352053   1.000000
    7       -4.064767   1.000000
    8       -4.064767   1.000000
    9        4.344430   0.000000
   10        4.344441   0.000000
   11        8.067243   0.000000
   12        8.067248   0.000000
   13        9.500425   0.000000
   14        9.500425   0.000000
   15        9.518313   0.000000
   16        9.518314   0.000000
   17       11.394586   0.000000
   18       11.404231   0.000000
 
  0.2500000E+00 -0.3271565E-16  0.2500000E+00  0.1562500E-01
    1      -18.552846   1.000000
    2      -18.552845   1.000000
    3       -5.072416   1.000000
    4       -5.072416   1.000000
    5       -4.441257   1.000000
    6       -4.441257   1.000000
    7       -4.210365   1.000000
    8       -4.210365   1.000000
    9        4.732157   0.000000
   10        4.732171   0.000000
   11        7.539216   0.000000
   12        7.539217   0.000000
   13        8.820044   0.000000
   14        8.820050   0.000000
   15       10.398682   0.000000
   16       10.398683   0.000000
   17       10.447188   0.000000
   18       10.447189   0.000000
 
  0.5000000E+00 -0.5799119E-16  0.2500000E+00  0.1562500E-01
    1      -18.484113   1.000000
    2      -18.484113   1.000000
    3       -5.377317   1.000000
    4       -5.377317   1.000000
    5       -4.697502   1.000000
    6       -4.697502   1.000000
    7       -4.357796   1.000000
    8       -4.357796   1.000000
    9        6.043265   0.000000
   10        6.043280   0.000000
   11        7.109747   0.000000
   12        7.109757   0.000000
   13        8.217130   0.000000
   14        8.217132   0.000000
   15       10.238507   0.000000
   16       10.238509   0.000000
   17       12.028026   0.000000
   18       12.028031   0.000000
 
 -0.2500000E+00 -0.9920152E-17  0.2500000E+00  0.1562500E-01
    1      -18.506740   1.000000
    2      -18.506740   1.000000
    3       -5.290284   1.000000
    4       -5.290284   1.000000
    5       -4.678027   1.000000
    6       -4.678027   1.000000
    7       -4.249795   1.000000
    8       -4.249795   1.000000
    9        5.961457   0.000000
   10        5.961467   0.000000
   11        7.655776   0.000000
   12        7.655792   0.000000
   13        7.812554   0.000000
   14        7.812556   0.000000
   15        9.865615   0.000000
   16        9.865617   0.000000
   17       11.176467   0.000000
   18       11.176467   0.000000
 
  0.7703720E-33  0.2500000E+00  0.2500000E+00  0.1562500E-01
    1      -18.552846   1.000000
    2      -18.552845   1.000000
    3       -5.072416   1.000000
    4       -5.072416   1.000000
    5       -4.441257   1.000000
    6       -4.441257   1.000000
    7       -4.210365   1.000000
    8       -4.210365   1.000000
    9        4.732157   0.000000
   10        4.732171   0.000000
   11        7.539216   0.000000
   12        7.539217   0.000000
   13        8.820044   0.000000
   14        8.820050   0.000000
   15       10.398682   0.000000
   16       10.398683   0.000000
   17       10.447188   0.000000
   18       10.447188   0.000000
 
  0.2500000E+00  0.2500000E+00  0.2500000E+00  0.1562500E-01
    1      -18.574879   1.000000
    2      -18.574879   1.000000
    3       -5.057972   1.000000
    4       -5.057972   1.000000
    5       -4.352053   1.000000
    6       -4.352053   1.000000
    7       -4.064767   1.000000
    8       -4.064767   1.000000
    9        4.344430   0.000000
   10        4.344441   0.000000
   11        8.067243   0.000000
   12        8.067248   0.000000
   13        9.500424   0.000000
   14        9.500425   0.000000
   15        9.518313   0.000000
   16        9.518314   0.000000
   17       11.393409   0.000000
   18       11.407980   0.000000
 
  0.5000000E+00  0.2500000E+00  0.2500000E+00  0.1562500E-01
    1      -18.506740   1.000000
    2      -18.506740   1.000000
    3       -5.290284   1.000000
    4       -5.290284   1.000000
    5       -4.678027   1.000000
    6       -4.678027   1.000000
    7       -4.249795   1.000000
    8       -4.249795   1.000000
    9        5.961457   0.000000
   10        5.961467   0.000000
   11        7.655776   0.000000
   12        7.655792   0.000000
   13        7.812555   0.000000
   14        7.812556   0.000000
   15        9.865615   0.000000
   16        9.865617   0.000000
   17       11.176467   0.000000
   18       11.176467   0.000000
 
 -0.2500000E+00  0.2500000E+00  0.2500000E+00  0.1562500E-01
    1      -18.484113   1.000000
    2      -18.484113   1.000000
    3       -5.377317   1.000000
    4       -5.377317   1.000000
    5       -4.697502   1.000000
    6       -4.697502   1.000000
    7       -4.357796   1.000000
    8       -4.357796   1.000000
    9        6.043265   0.000000
   10        6.043280   0.000000
   11        7.109747   0.000000
   12        7.109757   0.000000
   13        8.217130   0.000000
   14        8.217132   0.000000
   15       10.238507   0.000000
   16       10.238509   0.000000
   17       12.028026   0.000000
   18       12.028031   0.000000
 
  0.0000000E+00  0.5000000E+00  0.2500000E+00  0.1562500E-01
    1      -18.484113   1.000000
    2      -18.484113   1.000000
    3       -5.377317   1.000000
    4       -5.377317   1.000000
    5       -4.697502   1.000000
    6       -4.697502   1.000000
    7       -4.357796   1.000000
    8       -4.357796   1.000000
    9        6.043265   0.000000
   10        6.043280   0.000000
   11        7.109747   0.000000
   12        7.109757   0.000000
   13        8.217130   0.000000
   14        8.217132   0.000000
   15       10.238507   0.000000
   16       10.238509   0.000000
   17       12.028026   0.000000
   18       12.028031   0.000000
 
  0.2500000E+00  0.5000000E+00  0.2500000E+00  0.1562500E-01
    1      -18.506740   1.000000
    2      -18.506740   1.000000
    3       -5.290284   1.000000
    4       -5.290284   1.000000
    5       -4.678027   1.000000
    6       -4.678027   1.000000
    7       -4.249795   1.000000
    8       -4.249795   1.000000
    9        5.961457   0.000000
   10        5.961467   0.000000
   11        7.655776   0.000000
   12        7.655792   0.000000
   13        7.812555   0.000000
   14        7.812556   0.000000
   15        9.865615   0.000000
   16        9.865617   0.000000
   17       11.176467   0.000000
   18       11.176467   0.000000
 
  0.5000000E+00  0.5000000E+00  0.2500000E+00  0.1562500E-01
    1      -18.484113   1.000000
    2      -18.484113   1.000000
    3       -5.377317   1.000000
    4       -5.377317   1.000000
    5       -4.697502   1.000000
    6       -4.697502   1.000000
    7       -4.357796   1.000000
    8       -4.357796   1.000000
    9        6.043265   0.000000
   10        6.043280   0.000000
   11        7.109747   0.000000
   12        7.109757   0.000000
   13        8.217130   0.000000
   14        8.217132   0.000000
   15       10.238507   0.000000
   16       10.238509   0.000000
   17       12.028026   0.000000
   18       12.028031   0.000000
 
 -0.2500000E+00  0.5000000E+00  0.2500000E+00  0.1562500E-01
    1      -18.461376   1.000000
    2      -18.461376   1.000000
    3       -5.331096   1.000000
    4       -5.331096   1.000000
    5       -4.805466   1.000000
    6       -4.805466   1.000000
    7       -4.545897   1.000000
    8       -4.545897   1.000000
    9        6.367980   0.000000
   10        6.368005   0.000000
   11        7.762815   0.000000
   12        7.762815   0.000000
   13        7.852280   0.000000
   14        7.852280   0.000000
   15        9.344462   0.000000
   16        9.344464   0.000000
   17       13.687247   0.000000
   18       13.688488   0.000000
 
  0.3081488E-32 -0.2500000E+00  0.2500000E+00  0.1562500E-01
    1      -18.506740   1.000000
    2      -18.506740   1.000000
    3       -5.290284   1.000000
    4       -5.290283   1.000000
    5       -4.678027   1.000000
    6       -4.678027   1.000000
    7       -4.249795   1.000000
    8       -4.249795   1.000000
    9        5.961457   0.000000
   10        5.961467   0.000000
   11        7.655776   0.000000
   12        7.655792   0.000000
   13        7.812554   0.000000
   14        7.812556   0.000000
   15        9.865615   0.000000
   16        9.865617   0.000000
   17       11.176467   0.000000
   18       11.176467   0.000000
 
  0.2500000E+00 -0.2500000E+00  0.2500000E+00  0.1562500E-01
    1      -18.484113   1.000000
    2      -18.484113   1.000000
    3       -5.377317   1.000000
    4       -5.377317   1.000000
    5       -4.697502   1.000000
    6       -4.697502   1.000000
    7       -4.357796   1.000000
    8       -4.357796   1.000000
    9        6.043265   0.000000
   10        6.043280   0.000000
   11        7.109747   0.000000
   12        7.109757   0.000000
   13        8.217130   0.000000
   14        8.217132   0.000000
   15       10.238507   0.000000
   16       10.238509   0.000000
   17       12.028026   0.000000
   18       12.028031   0.000000
 
  0.5000000E+00 -0.2500000E+00  0.2500000E+00  0.1562500E-01
    1      -18.461376   1.000000
    2      -18.461376   1.000000
    3       -5.331096   1.000000
    4       -5.331096   1.000000
    5       -4.805466   1.000000
    6       -4.805466   1.000000
    7       -4.545897   1.000000
    8       -4.545897   1.000000
    9        6.367980   0.000000
   10        6.368005   0.000000
   11        7.762815   0.000000
   12        7.762815   0.000000
   13        7.852280   0.000000
   14        7.852280   0.000000
   15        9.344462   0.000000
   16        9.344464   0.000000
   17       13.687016   0.000000
   18       13.689953   0.000000
 
 -0.2500000E+00 -0.2500000E+00  0.2500000E+00  0.1562500E-01
    1      -18.484113   1.000000
    2      -18.484113   1.000000
    3       -5.377317   1.000000
    4       -5.377317   1.000000
    5       -4.697502   1.000000
    6       -4.697502   1.000000
    7       -4.357796   1.000000
    8       -4.357796   1.000000
    9        6.043265   0.000000
   10        6.043280   0.000000
   11        7.109747   0.000000
   12        7.109757   0.000000
   13        8.217130   0.000000
   14        8.217132   0.000000
   15       10.238507   0.000000
   16       10.238509   0.000000
   17       12.028026   0.000000
   18       12.028031   0.000000
 
  0.3081488E-32  0.9244464E-32  0.5000000E+00  0.1562500E-01
    1      -18.505860   1.000000
    2      -18.505859   1.000000
    3       -5.527481   1.000000
    4       -5.527481   1.000000
    5       -4.502432   1.000000
    6       -4.502432   1.000000
    7       -4.136324   1.000000
    8       -4.136324   1.000000
    9        5.405669   0.000000
   10        5.405670   0.000000
   11        7.911021   0.000000
   12        7.911048   0.000000
   13        8.983779   0.000000
   14        8.983779   0.000000
   15        9.000681   0.000000
   16        9.000681   0.000000
   17       12.641108   0.000000
   18       12.641131   0.000000
 
  0.2500000E+00 -0.4015577E-16  0.5000000E+00  0.1562500E-01
    1      -18.484113   1.000000
    2      -18.484113   1.000000
    3       -5.377317   1.000000
    4       -5.377317   1.000000
    5       -4.697502   1.000000
    6       -4.697502   1.000000
    7       -4.357796   1.000000
    8       -4.357796   1.000000
    9        6.043265   0.000000
   10        6.043280   0.000000
   11        7.109747   0.000000
   12        7.109757   0.000000
   13        8.217130   0.000000
   14        8.217132   0.000000
   15       10.238507   0.000000
   16       10.238509   0.000000
   17       12.028026   0.000000
   18       12.028031   0.000000
 
  0.5000000E+00 -0.6543130E-16  0.5000000E+00  0.1562500E-01
    1      -18.461985   1.000000
    2      -18.461985   1.000000
    3       -5.463623   1.000000
    4       -5.463623   1.000000
    5       -4.717759   1.000000
    6       -4.717759   1.000000
    7       -4.417158   1.000000
    8       -4.417158   1.000000
    9        5.322761   0.000000
   10        5.322783   0.000000
   11        6.572039   0.000000
   12        6.572041   0.000000
   13        9.269960   0.000000
   14        9.269962   0.000000
   15       12.833262   0.000000
   16       12.833264   0.000000
   17       12.982035   0.000000
   18       12.982037   0.000000
 
 -0.2500000E+00 -0.3482479E-17  0.5000000E+00  0.1562500E-01
    1      -18.484113   1.000000
    2      -18.484113   1.000000
    3       -5.377317   1.000000
    4       -5.377317   1.000000
    5       -4.697502   1.000000
    6       -4.697502   1.000000
    7       -4.357796   1.000000
    8       -4.357796   1.000000
    9        6.043265   0.000000
   10        6.043280   0.000000
   11        7.109747   0.000000
   12        7.109757   0.000000
   13        8.217130   0.000000
   14        8.217132   0.000000
   15       10.238507   0.000000
   16       10.238509   0.000000
   17       12.028026   0.000000
   18       12.028031   0.000000
 
  0.4622232E-32  0.2500000E+00  0.5000000E+00  0.1562500E-01
    1      -18.484113   1.000000
    2      -18.484113   1.000000
    3       -5.377317   1.000000
    4       -5.377317   1.000000
    5       -4.697502   1.000000
    6       -4.697502   1.000000
    7       -4.357796   1.000000
    8       -4.357796   1.000000
    9        6.043265   0.000000
   10        6.043280   0.000000
   11        7.109747   0.000000
   12        7.109757   0.000000
   13        8.217130   0.000000
   14        8.217132   0.000000
   15       10.238507   0.000000
   16       10.238509   0.000000
   17       12.028026   0.000000
   18       12.028031   0.000000
 
  0.2500000E+00  0.2500000E+00  0.5000000E+00  0.1562500E-01
    1      -18.506740   1.000000
    2      -18.506740   1.000000
    3       -5.290284   1.000000
    4       -5.290284   1.000000
    5       -4.678027   1.000000
    6       -4.678027   1.000000
    7       -4.249795   1.000000
    8       -4.249795   1.000000
    9        5.961457   0.000000
   10        5.961467   0.000000
   11        7.655776   0.000000
   12        7.655792   0.000000
   13        7.812555   0.000000
   14        7.812556   0.000000
   15        9.865615   0.000000
   16        9.865617   0.000000
   17       11.176467   0.000000
   18       11.176467   0.000000
 
  0.5000000E+00  0.2500000E+00  0.5000000E+00  0.1562500E-01
    1      -18.484113   1.000000
    2      -18.484113   1.000000
    3       -5.377317   1.000000
    4       -5.377317   1.000000
    5       -4.697502   1.000000
    6       -4.697502   1.000000
    7       -4.357796   1.000000
    8       -4.357796   1.000000
    9        6.043265   0.000000
   10        6.043280   0.000000
   11        7.109747   0.000000
   12        7.109757   0.000000
   13        8.217130   0.000000
   14        8.217132   0.000000
   15       10.238507   0.000000
   16       10.238509   0.000000
   17       12.028026   0.000000
   18       12.028031   0.000000
 
 -0.2500000E+00  0.2500000E+00  0.5000000E+00  0.1562500E-01
    1      -18.461376   1.000000
    2      -18.461376   1.000000
    3       -5.331096   1.000000
    4       -5.331096   1.000000
    5       -4.805466   1.000000
    6       -4.805466   1.000000
    7       -4.545897   1.000000
    8       -4.545897   1.000000
    9        6.367980   0.000000
   10        6.368005   0.000000
   11        7.762815   0.000000
   12        7.762815   0.000000
   13        7.852280   0.000000
   14        7.852280   0.000000
   15        9.344462   0.000000
   16        9.344464   0.000000
   17       13.688303   0.000000
   18       13.698714   0.000000
 
  0.1540744E-32  0.5000000E+00  0.5000000E+00  0.1562500E-01
    1      -18.461985   1.000000
    2      -18.461985   1.000000
    3       -5.463623   1.000000
    4       -5.463623   1.000000
    5       -4.717759   1.000000
    6       -4.717759   1.000000
    7       -4.417158   1.000000
    8       -4.417158   1.000000
    9        5.322761   0.000000
   10        5.322783   0.000000
   11        6.572039   0.000000
   12        6.572041   0.000000
   13        9.269960   0.000000
   14        9.269962   0.000000
   15       12.833263   0.000000
   16       12.833263   0.000000
   17       12.982036   0.000000
   18       12.982036   0.000000
 
  0.2500000E+00  0.5000000E+00  0.5000000E+00  0.1562500E-01
    1      -18.484113   1.000000
    2      -18.484113   1.000000
    3       -5.377317   1.000000
    4       -5.377317   1.000000
    5       -4.697502   1.000000
    6       -4.697502   1.000000
    7       -4.357796   1.000000
    8       -4.357796   1.000000
    9        6.043265   0.000000
   10        6.043280   0.000000
   11        7.109747   0.000000
   12        7.109757   0.000000
   13        8.217130   0.000000
   14        8.217132   0.000000
   15       10.238507   0.000000
   16       10.238509   0.000000
   17       12.028026   0.000000
   18       12.028031   0.000000
 
  0.5000000E+00  0.5000000E+00  0.5000000E+00  0.1562500E-01
    1      -18.505860   1.000000
    2      -18.505859   1.000000
    3       -5.527481   1.000000
    4       -5.527481   1.000000
    5       -4.502432   1.000000
    6       -4.502432   1.000000
    7       -4.136324   1.000000
    8       -4.136324   1.000000
    9        5.405669   0.000000
   10        5.405670   0.000000
   11        7.911021   0.000000
   12        7.911048   0.000000
   13        8.983778   0.000000
   14        8.983779   0.000000
   15        9.000681   0.000000
   16        9.000682   0.000000
   17       12.641108   0.000000
   18       12.641131   0.000000
 
 -0.2500000E+00  0.5000000E+00  0.5000000E+00  0.1562500E-01
    1      -18.484113   1.000000
    2      -18.484113   1.000000
    3       -5.377317   1.000000
    4       -5.377317   1.000000
    5       -4.697502   1.000000
    6       -4.697502   1.000000
    7       -4.357796   1.000000
    8       -4.357796   1.000000
    9        6.043265   0.000000
   10        6.043280   0.000000
   11        7.109747   0.000000
   12        7.109757   0.000000
   13        8.217130   0.000000
   14        8.217132   0.000000
   15       10.238507   0.000000
   16       10.238509   0.000000
   17       12.028026   0.000000
   18       12.028031   0.000000
 
  0.6162976E-32 -0.2500000E+00  0.5000000E+00  0.1562500E-01
    1      -18.484113   1.000000
    2      -18.484113   1.000000
    3       -5.377317   1.000000
    4       -5.377317   1.000000
    5       -4.697502   1.000000
    6       -4.697502   1.000000
    7       -4.357796   1.000000
    8       -4.357796   1.000000
    9        6.043265   0.000000
   10        6.043280   0.000000
   11        7.109747   0.000000
   12        7.109757   0.000000
   13        8.217130   0.000000
   14        8.217132   0.000000
   15       10.238507   0.000000
   16       10.238509   0.000000
   17       12.028026   0.000000
   18       12.028031   0.000000
 
  0.2500000E+00 -0.2500000E+00  0.5000000E+00  0.1562500E-01
    1      -18.461376   1.000000
    2      -18.461376   1.000000
    3       -5.331096   1.000000
    4       -5.331096   1.000000
    5       -4.805466   1.000000