       N       E                     dE             d eps       ncg     rms          rms(c)
DAV:   1    -0.702939824768E-01   -0.70294E-01   -0.13408E-08  2382   0.977E-04
DAV:   2    -0.702939824965E-01   -0.19782E-10   -0.76372E-11  2274   0.817E-05
DAV:   3    -0.702939824922E-01    0.43201E-11   -0.41282E-12  1314   0.203E-05
DAV:   4    -0.702939824936E-01   -0.13642E-11   -0.53728E-13  1252   0.841E-06
DAV:   5    -0.702939824869E-01    0.67075E-11    0.37956E-14  1250   0.430E-06    0.657E-05
DAV:   6    -0.702939857662E-01   -0.32794E-08   -0.45396E-10  1800   0.175E-04
   1 F= -.18197367E+00 E0= -.18197367E+00  d E =0.000000E+00  mag=     0.0000     0.0000     0.0000
 imaginary and real dielectric function
