   1   1   0   0
  0.6083477E+02  0.4414576E-09  0.4414576E-09  0.4414576E-09  0.1000000E-15
  1.000000000000000E-004
  CAR 
 Og_FCC                                  
     15.42380085    -46.62106155  301     -0.65615932      1.00000000
    -46.621  0.0000E+00  0.0000E+00
    -46.414  0.0000E+00  0.0000E+00
    -46.207  0.0000E+00  0.0000E+00
    -46.001  0.0000E+00  0.0000E+00
    -45.794  0.0000E+00  0.0000E+00
    -45.587  0.0000E+00  0.0000E+00
    -45.380  0.0000E+00  0.0000E+00
    -45.173  0.0000E+00  0.0000E+00
    -44.967  0.0000E+00  0.0000E+00
    -44.760  0.0000E+00  0.0000E+00
    -44.553  0.0000E+00  0.0000E+00
    -44.346  0.0000E+00  0.0000E+00
    -44.139  0.0000E+00  0.0000E+00
    -43.932  0.1872E-02  0.3872E-03
    -43.726  0.1901E+02  0.3932E+01
    -43.519  0.3269E+00  0.4000E+01
    -43.312  0.0000E+00  0.4000E+01
    -43.105  0.0000E+00  0.4000E+01
    -42.898  0.0000E+00  0.4000E+01
    -42.692  0.0000E+00  0.4000E+01
    -42.485  0.0000E+00  0.4000E+01
    -42.278  0.0000E+00  0.4000E+01
    -42.071  0.0000E+00  0.4000E+01
    -41.864  0.0000E+00  0.4000E+01
    -41.657  0.0000E+00  0.4000E+01
    -41.451  0.0000E+00  0.4000E+01
    -41.244  0.0000E+00  0.4000E+01
    -41.037  0.0000E+00  0.4000E+01
    -40.830  0.0000E+00  0.4000E+01
    -40.623  0.0000E+00  0.4000E+01
    -40.417  0.0000E+00  0.4000E+01
    -40.210  0.0000E+00  0.4000E+01
    -40.003  0.0000E+00  0.4000E+01
    -39.796  0.0000E+00  0.4000E+01
    -39.589  0.2032E-05  0.4000E+01
    -39.382  0.2090E+02  0.8323E+01
    -39.176  0.8108E+01  0.1000E+02
    -38.969  0.0000E+00  0.1000E+02
    -38.762  0.0000E+00  0.1000E+02
    -38.555  0.0000E+00  0.1000E+02
    -38.348  0.0000E+00  0.1000E+02
    -38.142  0.0000E+00  0.1000E+02
    -37.935  0.0000E+00  0.1000E+02
    -37.728  0.0000E+00  0.1000E+02
    -37.521  0.0000E+00  0.1000E+02
    -37.314  0.0000E+00  0.1000E+02
    -37.108  0.0000E+00  0.1000E+02
    -36.901  0.0000E+00  0.1000E+02
    -36.694  0.0000E+00  0.1000E+02
    -36.487  0.0000E+00  0.1000E+02
    -36.280  0.0000E+00  0.1000E+02
    -36.073  0.0000E+00  0.1000E+02
    -35.867  0.0000E+00  0.1000E+02
    -35.660  0.0000E+00  0.1000E+02
    -35.453  0.0000E+00  0.1000E+02
    -35.246  0.0000E+00  0.1000E+02
    -35.039  0.0000E+00  0.1000E+02
    -34.833  0.0000E+00  0.1000E+02
    -34.626  0.0000E+00  0.1000E+02
    -34.419  0.0000E+00  0.1000E+02
    -34.212  0.0000E+00  0.1000E+02
    -34.005  0.0000E+00  0.1000E+02
    -33.798  0.0000E+00  0.1000E+02
    -33.592  0.0000E+00  0.1000E+02
    -33.385  0.0000E+00  0.1000E+02
    -33.178  0.0000E+00  0.1000E+02
    -32.971  0.0000E+00  0.1000E+02
    -32.764  0.0000E+00  0.1000E+02
    -32.558  0.0000E+00  0.1000E+02
    -32.351  0.0000E+00  0.1000E+02
    -32.144  0.0000E+00  0.1000E+02
    -31.937  0.0000E+00  0.1000E+02
    -31.730  0.0000E+00  0.1000E+02
    -31.523  0.0000E+00  0.1000E+02
    -31.317  0.0000E+00  0.1000E+02
    -31.110  0.0000E+00  0.1000E+02
    -30.903  0.0000E+00  0.1000E+02
    -30.696  0.0000E+00  0.1000E+02
    -30.489  0.0000E+00  0.1000E+02
    -30.283  0.0000E+00  0.1000E+02
    -30.076  0.0000E+00  0.1000E+02
    -29.869  0.0000E+00  0.1000E+02
    -29.662  0.0000E+00  0.1000E+02
    -29.455  0.0000E+00  0.1000E+02
    -29.249  0.0000E+00  0.1000E+02
    -29.042  0.0000E+00  0.1000E+02
    -28.835  0.0000E+00  0.1000E+02
    -28.628  0.0000E+00  0.1000E+02
    -28.421  0.0000E+00  0.1000E+02
    -28.214  0.0000E+00  0.1000E+02
    -28.008  0.0000E+00  0.1000E+02
    -27.801  0.0000E+00  0.1000E+02
    -27.594  0.0000E+00  0.1000E+02
    -27.387  0.0000E+00  0.1000E+02
    -27.180  0.0000E+00  0.1000E+02
    -26.974  0.0000E+00  0.1000E+02
    -26.767  0.0000E+00  0.1000E+02
    -26.560  0.0000E+00  0.1000E+02
    -26.353  0.0000E+00  0.1000E+02
    -26.146  0.0000E+00  0.1000E+02
    -25.939  0.0000E+00  0.1000E+02
    -25.733  0.0000E+00  0.1000E+02
    -25.526  0.0000E+00  0.1000E+02
    -25.319  0.0000E+00  0.1000E+02
    -25.112  0.0000E+00  0.1000E+02
    -24.905  0.0000E+00  0.1000E+02
    -24.699  0.0000E+00  0.1000E+02
    -24.492  0.0000E+00  0.1000E+02
    -24.285  0.0000E+00  0.1000E+02
    -24.078  0.0000E+00  0.1000E+02
    -23.871  0.0000E+00  0.1000E+02
    -23.664  0.0000E+00  0.1000E+02
    -23.458  0.0000E+00  0.1000E+02
    -23.251  0.0000E+00  0.1000E+02
    -23.044  0.0000E+00  0.1000E+02
    -22.837  0.0000E+00  0.1000E+02
    -22.630  0.0000E+00  0.1000E+02
    -22.424  0.0000E+00  0.1000E+02
    -22.217  0.0000E+00  0.1000E+02
    -22.010  0.0000E+00  0.1000E+02
    -21.803  0.0000E+00  0.1000E+02
    -21.596  0.0000E+00  0.1000E+02
    -21.389  0.0000E+00  0.1000E+02
    -21.183  0.0000E+00  0.1000E+02
    -20.976  0.0000E+00  0.1000E+02
    -20.769  0.0000E+00  0.1000E+02
    -20.562  0.0000E+00  0.1000E+02
    -20.355  0.0000E+00  0.1000E+02
    -20.149  0.0000E+00  0.1000E+02
    -19.942  0.0000E+00  0.1000E+02
    -19.735  0.0000E+00  0.1000E+02
    -19.528  0.0000E+00  0.1000E+02
    -19.321  0.0000E+00  0.1000E+02
    -19.115  0.0000E+00  0.1000E+02
    -18.908  0.0000E+00  0.1000E+02
    -18.701  0.0000E+00  0.1000E+02
    -18.494  0.0000E+00  0.1000E+02
    -18.287  0.0000E+00  0.1000E+02
    -18.080  0.0000E+00  0.1000E+02
    -17.874  0.0000E+00  0.1000E+02
    -17.667  0.0000E+00  0.1000E+02
    -17.460  0.0000E+00  0.1000E+02
    -17.253  0.5363E-08  0.1000E+02
    -17.046  0.2106E+00  0.1004E+02
    -16.840  0.8085E+01  0.1172E+02
    -16.633  0.1375E+01  0.1200E+02
    -16.426  0.0000E+00  0.1200E+02
    -16.219  0.0000E+00  0.1200E+02
    -16.012  0.0000E+00  0.1200E+02
    -15.805  0.0000E+00  0.1200E+02
    -15.599  0.0000E+00  0.1200E+02
    -15.392  0.0000E+00  0.1200E+02
    -15.185  0.0000E+00  0.1200E+02
    -14.978  0.0000E+00  0.1200E+02
    -14.771  0.0000E+00  0.1200E+02
    -14.565  0.0000E+00  0.1200E+02
    -14.358  0.0000E+00  0.1200E+02
    -14.151  0.0000E+00  0.1200E+02
    -13.944  0.0000E+00  0.1200E+02
    -13.737  0.0000E+00  0.1200E+02
    -13.530  0.0000E+00  0.1200E+02
    -13.324  0.0000E+00  0.1200E+02
    -13.117  0.0000E+00  0.1200E+02
    -12.910  0.0000E+00  0.1200E+02
    -12.703  0.0000E+00  0.1200E+02
    -12.496  0.0000E+00  0.1200E+02
    -12.290  0.0000E+00  0.1200E+02
    -12.083  0.0000E+00  0.1200E+02
    -11.876  0.0000E+00  0.1200E+02
    -11.669  0.0000E+00  0.1200E+02
    -11.462  0.0000E+00  0.1200E+02
    -11.255  0.0000E+00  0.1200E+02
    -11.049  0.0000E+00  0.1200E+02
    -10.842  0.0000E+00  0.1200E+02
    -10.635  0.0000E+00  0.1200E+02
    -10.428  0.0000E+00  0.1200E+02
    -10.221  0.0000E+00  0.1200E+02
    -10.015  0.0000E+00  0.1200E+02
     -9.808  0.0000E+00  0.1200E+02
     -9.601  0.0000E+00  0.1200E+02
     -9.394  0.0000E+00  0.1200E+02
     -9.187  0.0000E+00  0.1200E+02
     -8.981  0.0000E+00  0.1200E+02
     -8.774  0.0000E+00  0.1200E+02
     -8.567  0.0000E+00  0.1200E+02
     -8.360  0.0000E+00  0.1200E+02
     -8.153  0.0000E+00  0.1200E+02
     -7.946  0.0000E+00  0.1200E+02
     -7.740  0.0000E+00  0.1200E+02
     -7.533  0.0000E+00  0.1200E+02
     -7.326  0.0000E+00  0.1200E+02
     -7.119  0.0000E+00  0.1200E+02
     -6.912  0.0000E+00  0.1200E+02
     -6.706  0.0000E+00  0.1200E+02
     -6.499  0.0000E+00  0.1200E+02
     -6.292  0.0000E+00  0.1200E+02
     -6.085  0.0000E+00  0.1200E+02
     -5.878  0.0000E+00  0.1200E+02
     -5.671  0.1606E-12  0.1200E+02
     -5.465  0.5777E-01  0.1201E+02
     -5.258  0.6451E+01  0.1335E+02
     -5.051  0.2080E+01  0.1378E+02
     -4.844  0.6942E+00  0.1392E+02
     -4.637  0.3758E+00  0.1400E+02
     -4.431  0.1226E-01  0.1400E+02
     -4.224  0.0000E+00  0.1400E+02
     -4.017  0.0000E+00  0.1400E+02
     -3.810  0.0000E+00  0.1400E+02
     -3.603  0.0000E+00  0.1400E+02
     -3.396  0.0000E+00  0.1400E+02
     -3.190  0.0000E+00  0.1400E+02
     -2.983  0.0000E+00  0.1400E+02
     -2.776  0.4270E-07  0.1400E+02
     -2.569  0.1109E+01  0.1423E+02
     -2.362  0.5587E+01  0.1538E+02
     -2.156  0.8361E+00  0.1556E+02
     -1.949  0.1755E+01  0.1592E+02
     -1.742  0.2927E+01  0.1653E+02
     -1.535  0.1675E+01  0.1687E+02
     -1.328  0.3208E+01  0.1754E+02
     -1.121  0.1475E+01  0.1784E+02
     -0.915  0.6755E+00  0.1798E+02
     -0.708  0.9363E-01  0.1800E+02
     -0.501  0.1477E-07  0.1800E+02
     -0.294  0.0000E+00  0.1800E+02
     -0.087  0.0000E+00  0.1800E+02
      0.119  0.0000E+00  0.1800E+02
      0.326  0.0000E+00  0.1800E+02
      0.533  0.0000E+00  0.1800E+02
      0.740  0.0000E+00  0.1800E+02
      0.947  0.0000E+00  0.1800E+02
      1.153  0.0000E+00  0.1800E+02
      1.360  0.0000E+00  0.1800E+02
      1.567  0.0000E+00  0.1800E+02
      1.774  0.0000E+00  0.1800E+02
      1.981  0.0000E+00  0.1800E+02
      2.188  0.0000E+00  0.1800E+02
      2.394  0.0000E+00  0.1800E+02
      2.601  0.1202E-10  0.1800E+02
      2.808  0.1612E-01  0.1800E+02
      3.015  0.2865E-01  0.1801E+02
      3.222  0.0000E+00  0.1801E+02
      3.428  0.3976E-15  0.1801E+02
      3.635  0.6717E-02  0.1801E+02
      3.842  0.3514E+00  0.1808E+02
      4.049  0.1916E+00  0.1812E+02
      4.256  0.7706E-01  0.1814E+02
      4.463  0.1132E+00  0.1816E+02
      4.669  0.5666E+00  0.1828E+02
      4.876  0.7154E+00  0.1843E+02
      5.083  0.2218E+01  0.1889E+02
      5.290  0.1012E+01  0.1910E+02
      5.497  0.2174E+01  0.1955E+02
      5.703  0.4936E+00  0.1965E+02
      5.910  0.1204E+01  0.1990E+02
      6.117  0.1977E+01  0.2031E+02
      6.324  0.1433E+00  0.2033E+02
      6.531  0.1548E+01  0.2065E+02
      6.738  0.2973E+01  0.2127E+02
      6.944  0.3056E+01  0.2190E+02
      7.151  0.6091E+00  0.2203E+02
      7.358  0.4549E+00  0.2212E+02
      7.565  0.9778E+00  0.2232E+02
      7.772  0.1126E+01  0.2256E+02
      7.978  0.2569E+01  0.2309E+02
      8.185  0.2073E+01  0.2352E+02
      8.392  0.2318E+01  0.2400E+02
      8.599  0.2974E+01  0.2461E+02
      8.806  0.7888E+00  0.2477E+02
      9.012  0.3426E+01  0.2548E+02
      9.219  0.8214E-01  0.2550E+02
      9.426  0.5665E+00  0.2562E+02
      9.633  0.1046E+01  0.2583E+02
      9.840  0.2117E+00  0.2588E+02
     10.047  0.2174E+01  0.2633E+02
     10.253  0.1608E+01  0.2666E+02
     10.460  0.2164E+01  0.2711E+02
     10.667  0.1358E+01  0.2739E+02
     10.874  0.6605E+00  0.2752E+02
     11.081  0.4307E+00  0.2761E+02
     11.287  0.1063E+01  0.2783E+02
     11.494  0.2153E-03  0.2783E+02
     11.701  0.1578E-01  0.2784E+02
     11.908  0.1208E+00  0.2786E+02
     12.115  0.5171E+00  0.2797E+02
     12.322  0.1086E+00  0.2799E+02
     12.528  0.2163E-01  0.2800E+02
     12.735  0.2201E-01  0.2800E+02
     12.942  0.2208E-05  0.2800E+02
     13.149  0.0000E+00  0.2800E+02
     13.356  0.0000E+00  0.2800E+02
     13.562  0.0000E+00  0.2800E+02
     13.769  0.0000E+00  0.2800E+02
     13.976  0.0000E+00  0.2800E+02
     14.183  0.0000E+00  0.2800E+02
     14.390  0.0000E+00  0.2800E+02
     14.597  0.0000E+00  0.2800E+02
     14.803  0.0000E+00  0.2800E+02
     15.010  0.0000E+00  0.2800E+02
     15.217  0.0000E+00  0.2800E+02
     15.424  0.0000E+00  0.2800E+02
