       N       E                     dE             d eps       ncg     rms          rms(c)
DAV:   1     0.235338399780E+03    0.23534E+03   -0.79458E+03 16068   0.665E+03
DAV:   2     0.829894351900E+02   -0.15235E+03   -0.14386E+03 15160   0.143E+03
DAV:   3     0.212378540736E+02   -0.61752E+02   -0.61061E+02 14896   0.311E+02
DAV:   4     0.549591473192E+01   -0.15742E+02   -0.15685E+02 17616   0.248E+02
DAV:   5    -0.132142444004E+01   -0.68173E+01   -0.68154E+01 23832   0.147E+02    0.774E+00
DAV:   6    -0.164014747936E+01   -0.31872E+00   -0.12851E+00 18720   0.635E+01    0.292E+00
DAV:   7    -0.179030091622E+01   -0.15015E+00   -0.47067E-01 19040   0.175E+01    0.562E-01
DAV:   8    -0.179264782794E+01   -0.23469E-02   -0.21137E-02 22984   0.221E+00    0.218E-01
DAV:   9    -0.179284111950E+01   -0.19329E-03   -0.64379E-04 20784   0.575E-01    0.143E-01
DAV:  10    -0.179292410374E+01   -0.82984E-04   -0.95813E-05 19392   0.296E-01    0.208E-02
DAV:  11    -0.179293585832E+01   -0.11755E-04   -0.14879E-05 18764   0.849E-02    0.850E-03
DAV:  12    -0.179293663130E+01   -0.77298E-06   -0.43148E-06 19584   0.354E-02    0.364E-03
DAV:  13    -0.179293708342E+01   -0.45212E-06   -0.10740E-06 17996   0.135E-02    0.286E-03
DAV:  14    -0.179293743847E+01   -0.35505E-06   -0.18796E-07 17760   0.111E-02    0.724E-04
DAV:  15    -0.179293758387E+01   -0.14540E-06   -0.43152E-08 14356   0.457E-03    0.375E-04
DAV:  16    -0.179293762263E+01   -0.38753E-07   -0.63763E-09 13232   0.174E-03    0.139E-04
DAV:  17    -0.179293764218E+01   -0.19553E-07   -0.22913E-09 11416   0.105E-03    0.924E-05
DAV:  18    -0.179293763633E+01    0.58535E-08   -0.60903E-10 10984   0.909E-04
   1 F= -.20169280E+01 E0= -.20169280E+01  d E =-.112110E-12  mag=     0.0000     0.0000     0.0000
 imaginary and real dielectric function
