   1   1   0   0
  0.6470000E+02  0.4506158E-09  0.4506158E-09  0.4506158E-09  0.2000000E-16
  1.000000000000000E-004
  CAR 
 Og_FCC                                  
     17.83713542    -31.48772652  301      0.52411986      1.00000000
    -31.488  0.0000E+00  0.0000E+00
    -31.323  0.0000E+00  0.0000E+00
    -31.159  0.0000E+00  0.0000E+00
    -30.994  0.0000E+00  0.0000E+00
    -30.830  0.0000E+00  0.0000E+00
    -30.666  0.0000E+00  0.0000E+00
    -30.501  0.0000E+00  0.0000E+00
    -30.337  0.0000E+00  0.0000E+00
    -30.172 -0.8379E-37 -0.1378E-37
    -30.008 -0.8846E-25 -0.1454E-25
    -29.844 -0.4013E-15 -0.6599E-16
    -29.679 -0.7204E-08 -0.1185E-08
    -29.515 -0.4853E-03 -0.7979E-04
    -29.350 -0.3901E-01 -0.6493E-02
    -29.186  0.1157E+01  0.1837E+00
    -29.021  0.1290E+00  0.2049E+00
    -28.857 -0.4908E-02  0.2041E+00
    -28.693 -0.4785E-06  0.2041E+00
    -28.528 -0.1543E-12  0.2041E+00
    -28.364  0.0000E+00  0.2041E+00
    -28.199  0.0000E+00  0.2041E+00
    -28.035  0.0000E+00  0.2041E+00
    -27.871  0.0000E+00  0.2041E+00
    -27.706  0.0000E+00  0.2041E+00
    -27.542  0.0000E+00  0.2041E+00
    -27.377  0.0000E+00  0.2041E+00
    -27.213  0.0000E+00  0.2041E+00
    -27.048  0.0000E+00  0.2041E+00
    -26.884  0.0000E+00  0.2041E+00
    -26.720  0.0000E+00  0.2041E+00
    -26.555  0.0000E+00  0.2041E+00
    -26.391  0.0000E+00  0.2041E+00
    -26.226  0.0000E+00  0.2041E+00
    -26.062  0.0000E+00  0.2041E+00
    -25.898  0.0000E+00  0.2041E+00
    -25.733  0.0000E+00  0.2041E+00
    -25.569  0.0000E+00  0.2041E+00
    -25.404  0.0000E+00  0.2041E+00
    -25.240  0.0000E+00  0.2041E+00
    -25.075  0.0000E+00  0.2041E+00
    -24.911  0.0000E+00  0.2041E+00
    -24.747  0.0000E+00  0.2041E+00
    -24.582  0.0000E+00  0.2041E+00
    -24.418  0.0000E+00  0.2041E+00
    -24.253  0.0000E+00  0.2041E+00
    -24.089  0.0000E+00  0.2041E+00
    -23.925  0.0000E+00  0.2041E+00
    -23.760  0.0000E+00  0.2041E+00
    -23.596  0.0000E+00  0.2041E+00
    -23.431  0.0000E+00  0.2041E+00
    -23.267  0.0000E+00  0.2041E+00
    -23.102  0.0000E+00  0.2041E+00
    -22.938 -0.1664E-31  0.2041E+00
    -22.774 -0.7075E-21  0.2041E+00
    -22.609 -0.1379E-12  0.2041E+00
    -22.445 -0.1376E-06  0.2041E+00
    -22.280 -0.7346E-03  0.2040E+00
    -22.116  0.1459E-01  0.2064E+00
    -21.952  0.2353E+00  0.2450E+00
    -21.787 -0.6082E-03  0.2449E+00
    -21.623 -0.2727E-03  0.2449E+00
    -21.458 -0.1121E-07  0.2449E+00
    -21.294 -0.1745E-14  0.2449E+00
    -21.130  0.0000E+00  0.2449E+00
    -20.965  0.0000E+00  0.2449E+00
    -20.801  0.0000E+00  0.2449E+00
    -20.636  0.0000E+00  0.2449E+00
    -20.472  0.0000E+00  0.2449E+00
    -20.307  0.0000E+00  0.2449E+00
    -20.143  0.0000E+00  0.2449E+00
    -19.979  0.0000E+00  0.2449E+00
    -19.814  0.0000E+00  0.2449E+00
    -19.650  0.0000E+00  0.2449E+00
    -19.485  0.0000E+00  0.2449E+00
    -19.321  0.0000E+00  0.2449E+00
    -19.157  0.0000E+00  0.2449E+00
    -18.992  0.0000E+00  0.2449E+00
    -18.828  0.0000E+00  0.2449E+00
    -18.663  0.0000E+00  0.2449E+00
    -18.499  0.0000E+00  0.2449E+00
    -18.334  0.0000E+00  0.2449E+00
    -18.170  0.0000E+00  0.2449E+00
    -18.006  0.0000E+00  0.2449E+00
    -17.841  0.0000E+00  0.2449E+00
    -17.677  0.0000E+00  0.2449E+00
    -17.512  0.0000E+00  0.2449E+00
    -17.348  0.0000E+00  0.2449E+00
    -17.184  0.0000E+00  0.2449E+00
    -17.019  0.0000E+00  0.2449E+00
    -16.855  0.0000E+00  0.2449E+00
    -16.690  0.0000E+00  0.2449E+00
    -16.526  0.0000E+00  0.2449E+00
    -16.361  0.0000E+00  0.2449E+00
    -16.197  0.0000E+00  0.2449E+00
    -16.033  0.0000E+00  0.2449E+00
    -15.868  0.0000E+00  0.2449E+00
    -15.704  0.0000E+00  0.2449E+00
    -15.539  0.0000E+00  0.2449E+00
    -15.375  0.0000E+00  0.2449E+00
    -15.211  0.0000E+00  0.2449E+00
    -15.046  0.0000E+00  0.2449E+00
    -14.882  0.0000E+00  0.2449E+00
    -14.717  0.0000E+00  0.2449E+00
    -14.553  0.0000E+00  0.2449E+00
    -14.388  0.0000E+00  0.2449E+00
    -14.224  0.0000E+00  0.2449E+00
    -14.060  0.0000E+00  0.2449E+00
    -13.895  0.0000E+00  0.2449E+00
    -13.731  0.0000E+00  0.2449E+00
    -13.566  0.0000E+00  0.2449E+00
    -13.402  0.0000E+00  0.2449E+00
    -13.238  0.0000E+00  0.2449E+00
    -13.073  0.0000E+00  0.2449E+00
    -12.909  0.0000E+00  0.2449E+00
    -12.744  0.0000E+00  0.2449E+00
    -12.580  0.0000E+00  0.2449E+00
    -12.415  0.0000E+00  0.2449E+00
    -12.251  0.0000E+00  0.2449E+00
    -12.087  0.0000E+00  0.2449E+00
    -11.922  0.0000E+00  0.2449E+00
    -11.758  0.0000E+00  0.2449E+00
    -11.593  0.0000E+00  0.2449E+00
    -11.429  0.0000E+00  0.2449E+00
    -11.265  0.0000E+00  0.2449E+00
    -11.100  0.0000E+00  0.2449E+00
    -10.936  0.0000E+00  0.2449E+00
    -10.771  0.0000E+00  0.2449E+00
    -10.607  0.0000E+00  0.2449E+00
    -10.442  0.0000E+00  0.2449E+00
    -10.278  0.0000E+00  0.2449E+00
    -10.114  0.0000E+00  0.2449E+00
     -9.949  0.0000E+00  0.2449E+00
     -9.785  0.0000E+00  0.2449E+00
     -9.620  0.0000E+00  0.2449E+00
     -9.456  0.0000E+00  0.2449E+00
     -9.292  0.0000E+00  0.2449E+00
     -9.127  0.0000E+00  0.2449E+00
     -8.963  0.0000E+00  0.2449E+00
     -8.798  0.0000E+00  0.2449E+00
     -8.634  0.0000E+00  0.2449E+00
     -8.469  0.0000E+00  0.2449E+00
     -8.305  0.0000E+00  0.2449E+00
     -8.141  0.0000E+00  0.2449E+00
     -7.976  0.0000E+00  0.2449E+00
     -7.812  0.0000E+00  0.2449E+00
     -7.647  0.0000E+00  0.2449E+00
     -7.483  0.0000E+00  0.2449E+00
     -7.319  0.0000E+00  0.2449E+00
     -7.154  0.0000E+00  0.2449E+00
     -6.990  0.0000E+00  0.2449E+00
     -6.825  0.0000E+00  0.2449E+00
     -6.661  0.0000E+00  0.2449E+00
     -6.496  0.0000E+00  0.2449E+00
     -6.332  0.0000E+00  0.2449E+00
     -6.168  0.0000E+00  0.2449E+00
     -6.003  0.0000E+00  0.2449E+00
     -5.839  0.0000E+00  0.2449E+00
     -5.674  0.0000E+00  0.2449E+00
     -5.510  0.0000E+00  0.2449E+00
     -5.346  0.0000E+00  0.2449E+00
     -5.181  0.0000E+00  0.2449E+00
     -5.017  0.0000E+00  0.2449E+00
     -4.852  0.0000E+00  0.2449E+00
     -4.688  0.0000E+00  0.2449E+00
     -4.523  0.0000E+00  0.2449E+00
     -4.359  0.0000E+00  0.2449E+00
     -4.195  0.0000E+00  0.2449E+00
     -4.030  0.0000E+00  0.2449E+00
     -3.866  0.0000E+00  0.2449E+00
     -3.701  0.0000E+00  0.2449E+00
     -3.537  0.0000E+00  0.2449E+00
     -3.373  0.0000E+00  0.2449E+00
     -3.208  0.0000E+00  0.2449E+00
     -3.044  0.0000E+00  0.2449E+00
     -2.879 -0.4212E-33  0.2449E+00
     -2.715 -0.2908E-22  0.2449E+00
     -2.550 -0.8381E-14  0.2449E+00
     -2.386 -0.1057E-07  0.2449E+00
     -2.222 -0.5301E-04  0.2449E+00
     -2.057  0.1176E-02  0.2451E+00
     -1.893  0.1280E-01  0.2472E+00
     -1.728  0.4760E-01  0.2550E+00
     -1.564  0.8407E-01  0.2688E+00
     -1.400  0.5233E-01  0.2774E+00
     -1.235  0.2081E-01  0.2809E+00
     -1.071  0.2448E-01  0.2849E+00
     -0.906  0.3224E-01  0.2902E+00
     -0.742  0.3460E-01  0.2959E+00
     -0.577  0.3004E-01  0.3008E+00
     -0.413  0.7455E-01  0.3131E+00
     -0.249  0.5824E-01  0.3226E+00
     -0.084  0.7989E-01  0.3358E+00
      0.080  0.7813E-01  0.3486E+00
      0.245  0.6921E-01  0.3600E+00
      0.409  0.3540E-01  0.3658E+00
      0.573  0.9634E-02  0.3674E+00
      0.738 -0.3984E-03  0.3673E+00
      0.902 -0.2388E-05  0.3673E+00
      1.067 -0.4432E-10  0.3673E+00
      1.231 -0.3856E-17  0.3673E+00
      1.396  0.0000E+00  0.3673E+00
      1.560  0.0000E+00  0.3673E+00
      1.724  0.0000E+00  0.3673E+00
      1.889  0.0000E+00  0.3673E+00
      2.053  0.0000E+00  0.3673E+00
      2.218 -0.1086E-33  0.3673E+00
      2.382 -0.6432E-23  0.3673E+00
      2.546 -0.1549E-14  0.3673E+00
      2.711 -0.1494E-08  0.3673E+00
      2.875 -0.4228E-05  0.3673E+00
      3.040  0.1153E-03  0.3674E+00
      3.204  0.2398E-03  0.3674E+00
      3.369 -0.1037E-04  0.3674E+00
      3.533 -0.3582E-04  0.3674E+00
      3.697  0.9651E-03  0.3676E+00
      3.862  0.1896E-02  0.3679E+00
      4.026  0.1943E-02  0.3682E+00
      4.191  0.5096E-06  0.3682E+00
      4.355 -0.1446E-03  0.3682E+00
      4.519  0.3334E-02  0.3687E+00
      4.684  0.8550E-03  0.3689E+00
      4.848  0.5368E-02  0.3697E+00
      5.013  0.5825E-02  0.3707E+00
      5.177 -0.3012E-03  0.3706E+00
      5.342  0.7445E-03  0.3708E+00
      5.506  0.1278E-01  0.3729E+00
      5.670  0.7689E-02  0.3741E+00
      5.835  0.1285E-01  0.3762E+00
      5.999  0.2470E-01  0.3803E+00
      6.164  0.1897E-01  0.3834E+00
      6.328  0.9690E-02  0.3850E+00
      6.492  0.3224E-01  0.3903E+00
      6.657  0.1818E-01  0.3933E+00
      6.821  0.3517E-01  0.3991E+00
      6.986  0.2313E-01  0.4029E+00
      7.150  0.1664E-03  0.4029E+00
      7.314  0.1749E-01  0.4058E+00
      7.479  0.1591E-01  0.4084E+00
      7.643  0.1711E-01  0.4112E+00
      7.808  0.5733E-02  0.4122E+00
      7.972  0.1074E-01  0.4139E+00
      8.137  0.2060E-01  0.4173E+00
      8.301  0.3375E-01  0.4229E+00
      8.465  0.5750E-01  0.4323E+00
      8.630  0.2815E-01  0.4370E+00
      8.794  0.2401E-01  0.4409E+00
      8.959  0.6005E-01  0.4508E+00
      9.123  0.6189E-01  0.4609E+00
      9.287  0.1359E-01  0.4632E+00
      9.452  0.5169E-02  0.4640E+00
      9.616  0.8241E-02  0.4654E+00
      9.781  0.9310E-02  0.4669E+00
      9.945  0.3944E-01  0.4734E+00
     10.110  0.5861E-01  0.4830E+00
     10.274  0.5272E-01  0.4917E+00
     10.438  0.3867E-01  0.4981E+00
     10.603  0.5025E-01  0.5063E+00
     10.767  0.3985E-01  0.5129E+00
     10.932  0.1054E-01  0.5146E+00
     11.096  0.3799E-01  0.5209E+00
     11.260  0.3283E-01  0.5263E+00
     11.425  0.9740E-02  0.5279E+00
     11.589  0.7771E-02  0.5291E+00
     11.754  0.3395E-01  0.5347E+00
     11.918  0.5966E-01  0.5445E+00
     12.083  0.6028E-01  0.5544E+00
     12.247  0.5107E-01  0.5628E+00
     12.411  0.4635E-01  0.5705E+00
     12.576  0.3871E-01  0.5768E+00
     12.740  0.6040E-02  0.5778E+00
     12.905  0.3871E-01  0.5842E+00
     13.069  0.4281E-01  0.5912E+00
     13.233  0.2507E-01  0.5953E+00
     13.398  0.3789E-01  0.6016E+00
     13.562  0.5693E-01  0.6109E+00
     13.727  0.6384E-01  0.6214E+00
     13.891  0.4026E-01  0.6280E+00
     14.056  0.1999E-01  0.6313E+00
     14.220  0.7539E-02  0.6326E+00
     14.384  0.1112E-01  0.6344E+00
     14.549  0.9341E-02  0.6359E+00
     14.713  0.2656E-01  0.6403E+00
     14.878  0.2316E-01  0.6441E+00
     15.042  0.5556E-02  0.6450E+00
     15.206  0.3364E-02  0.6456E+00
     15.371  0.2259E-01  0.6493E+00
     15.535  0.1140E-01  0.6512E+00
     15.700  0.1195E-01  0.6531E+00
     15.864 -0.4129E-03  0.6531E+00
     16.029 -0.4010E-05  0.6531E+00
     16.193 -0.6584E-10  0.6531E+00
     16.357 -0.3629E-17  0.6531E+00
     16.522  0.0000E+00  0.6531E+00
     16.686  0.0000E+00  0.6531E+00
     16.851  0.0000E+00  0.6531E+00
     17.015  0.0000E+00  0.6531E+00
     17.179  0.0000E+00  0.6531E+00
     17.344  0.0000E+00  0.6531E+00
     17.508  0.0000E+00  0.6531E+00
     17.673  0.0000E+00  0.6531E+00
     17.837  0.0000E+00  0.6531E+00
