    1    1   49    1
  0.6470000E+02  0.4506158E-09  0.4506158E-09  0.4506158E-09  0.2000000E-16
  1.000000000000000E-004
  CAR 
 Og_FCC                                  
     18     35     16
 
  0.0000000E+00  0.0000000E+00  0.0000000E+00  0.1371742E-02
    1      -29.243901   1.000000
    2      -29.243851   1.000000
    3      -29.243810   1.000000
    4      -29.242665   1.000000
    5      -29.242650   1.000000
    6      -22.115921   1.000000
    7        0.486494   0.794804
    8        0.486500   0.794766
    9        0.486504   0.794738
   10        3.060726  -0.000000
   11       10.086102   0.000000
   12       10.086104   0.000000
   13       10.086104   0.000000
   14       10.701407   0.000000
   15       12.828178   0.000000
   16       12.828212   0.000000
 
  0.1111111E+00 -0.5932251E-17  0.1387779E-16  0.1097394E-01
    1      -29.243788   1.000000
    2      -29.243635   1.000000
    3      -29.243584   1.000000
    4      -29.242622   1.000000
    5      -29.242612   1.000000
    6      -22.107666   1.000000
    7       -0.066593   1.000000
    8        0.445616   0.986120
    9        0.445625   0.986097
   10        3.716361   0.000000
   11        9.377626   0.000000
   12       10.211672   0.000000
   13       10.211672   0.000000
   14       11.660383   0.000000
   15       11.909354   0.000000
   16       11.909376   0.000000
 
  0.2222222E+00 -0.2574229E-16  0.0000000E+00  0.1097394E-01
    1      -29.243640   1.000000
    2      -29.243613   1.000000
    3      -29.243286   1.000000
    4      -29.241580   1.000000
    5      -29.241563   1.000000
    6      -22.086631   1.000000
    7       -0.956815   1.000000
    8        0.345426   1.014939
    9        0.345434   1.014942
   10        4.763924   0.000000
   11        9.115036   0.000000
   12       10.234134   0.000000
   13       10.234137   0.000000
   14       11.223830   0.000000
   15       11.706212   0.000000
   16       11.706213   0.000000
 
  0.3333333E+00 -0.2473565E-16  0.1387779E-16  0.1097394E-01
    1      -29.243924   1.000000
    2      -29.243907   1.000000
    3      -29.242759   1.000000
    4      -29.240031   1.000000
    5      -29.240004   1.000000
    6      -22.062498   1.000000
    7       -1.658077   1.000000
    8        0.236676   1.000185
    9        0.236685   1.000185
   10        5.355964   0.000000
   11        9.754118   0.000000
   12        9.893959   0.000000
   13        9.893963   0.000000
   14       10.744071   0.000000
   15       12.483729   0.000000
   16       12.483730   0.000000
 
  0.4444444E+00 -0.5148458E-16  0.0000000E+00  0.1097394E-01
    1      -29.244150   1.000000
    2      -29.244136   1.000000
    3      -29.242487   1.000000
    4      -29.238959   1.000000
    5      -29.238929   1.000000
    6      -22.046638   1.000000
    7       -2.031843   1.000000
    8        0.168354   1.000003
    9        0.168362   1.000003
   10        5.495770   0.000000
   11        9.653757   0.000000
   12        9.653760   0.000000
   13       10.022529   0.000000
   14       11.630334   0.000000
   15       13.579707   0.000000
   16       13.579709   0.000000
 
  0.1111111E+00  0.1111111E+00  0.0000000E+00  0.8230453E-02
    1      -29.244138   1.000000
    2      -29.243243   1.000000
    3      -29.243241   1.000000
    4      -29.242926   1.000000
    5      -29.242365   1.000000
    6      -22.104915   1.000000
    7       -0.093273   1.000000
    8        0.357355   1.019978
    9        0.357358   1.019979
   10        3.941701   0.000000
   11        9.079656   0.000000
   12       10.386811   0.000000
   13       10.386812   0.000000
   14       10.832395   0.000000
   15       12.001096   0.000000
   16       13.052039   0.000000
 
  0.2222222E+00  0.1111111E+00  0.0000000E+00  0.3292181E-01
    1      -29.244071   1.000000
    2      -29.243232   1.000000
    3      -29.242944   1.000000
    4      -29.242092   1.000000
    5      -29.241459   1.000000
    6      -22.088151   1.000000
    7       -0.761453   1.000000
    8        0.224932   1.000098
    9        0.263100   1.000698
   10        4.870286   0.000000
   11        8.692760   0.000000
   12        9.810661   0.000000
   13       10.613722   0.000000
   14       11.003796   0.000000
   15       12.436868   0.000000
   16       12.568014   0.000000
 
  0.3333333E+00  0.1111111E+00  0.5551115E-16  0.3292181E-01
    1      -29.243974   1.000000
    2      -29.243184   1.000000
    3      -29.242996   1.000000
    4      -29.240816   1.000000
    5      -29.239887   1.000000
    6      -22.065049   1.000000
    7       -1.445660   1.000000
    8        0.112326   1.000000
    9        0.117703   1.000000
   10        5.656074   0.000000
   11        9.003615   0.000000
   12        9.159115   0.000000
   13       10.405244   0.000000
   14       11.850602   0.000000
   15       12.001387   0.000000
   16       13.023997   0.000000
 
  0.4444444E+00  0.1111111E+00  0.0000000E+00  0.3292181E-01
    1      -29.244093   1.000000
    2      -29.243494   1.000000
    3      -29.242396   1.000000
    4      -29.239690   1.000000
    5      -29.238847   1.000000
    6      -22.046405   1.000000
    7       -1.882690   1.000000
    8       -0.042830   1.000000
    9        0.067337   1.000000
   10        5.934344   0.000000
   11        8.756802   0.000000
   12       10.055353   0.000000
   13       10.217951   0.000000
   14       11.601969   0.000000
   15       13.062642   0.000000
   16       13.901432   0.000000
 
 -0.4444444E+00  0.1111111E+00  0.0000000E+00  0.3292181E-01
    1      -29.244124   1.000000
    2      -29.243657   1.000000
    3      -29.242171   1.000000
    4      -29.239134   1.000000
    5      -29.238921   1.000000
    6      -22.041099   1.000000
    7       -1.992786   1.000000
    8       -0.143588   1.000000
    9        0.107415   1.000000
   10        5.980021   0.000000
   11        8.697951   0.000000
   12        9.871067   0.000000
   13       10.952805   0.000000
   14       11.917145   0.000000
   15       12.856912   0.000000
   16       13.418708   0.000000
 
 -0.3333333E+00  0.1111111E+00 -0.2775558E-16  0.3292181E-01
    1      -29.243900   1.000000
    2      -29.243583   1.000000
    3      -29.242392   1.000000
    4      -29.240056   1.000000
    5      -29.239276   1.000000
    6      -22.051683   1.000000
    7       -1.763260   1.000000
    8       -0.137863   1.000000
    9        0.216785   1.000062
   10        5.902393   0.000000
   11        8.953454   0.000000
   12        9.934041   0.000000
   13        9.945140   0.000000
   14       11.835534   0.000000
   15       12.168848   0.000000
   16       13.711082   0.000000
 
 -0.2222222E+00  0.1111111E+00 -0.2775558E-16  0.3292181E-01
    1      -29.243585   1.000000
    2      -29.243268   1.000000
    3      -29.243031   1.000000
    4      -29.241699   1.000000
    5      -29.240294   1.000000
    6      -22.073074   1.000000
    7       -1.239666   1.000000
    8       -0.013688   1.000000
    9        0.349446   1.016560
   10        5.439963   0.000000
   11        8.995763   0.000000
   12        9.495521   0.000000
   13       10.252838   0.000000
   14       11.161330   0.000000
   15       12.131105   0.000000
   16       12.971230   0.000000
 
 -0.1111111E+00  0.1111111E+00 -0.2513991E-16  0.1646091E-01
    1      -29.243643   1.000000
    2      -29.243388   1.000000
    3      -29.243162   1.000000
    4      -29.242824   1.000000
    5      -29.241649   1.000000
    6      -22.095146   1.000000
    7       -0.565408   1.000000
    8        0.213948   1.000052
    9        0.442301   0.994556
   10        4.483691   0.000000
   11        8.975860   0.000000
   12       10.141532   0.000000
   13       10.374348   0.000000
   14       11.028423   0.000000
   15       11.805129   0.000000
   16       12.485951   0.000000
 
  0.2222222E+00  0.2222222E+00 -0.2775558E-16  0.8230453E-02
    1      -29.244701   1.000000
    2      -29.243453   1.000000
    3      -29.241601   1.000000
    4      -29.241371   1.000000
    5      -29.241367   1.000000
    6      -22.076935   1.000000
    7       -0.934023   1.000000
    8        0.054684   1.000000
    9        0.054686   1.000000
   10        5.469308   0.000000
   11        8.127453   0.000000
   12        9.327868   0.000000
   13       11.176321   0.000000
   14       11.176322   0.000000
   15       13.392018   0.000000
   16       13.803091   0.000000
 
  0.3333333E+00  0.2222222E+00  0.0000000E+00  0.3292181E-01
    1      -29.244630   1.000000
    2      -29.243599   1.000000
    3      -29.241676   1.000000
    4      -29.240259   1.000000
    5      -29.239737   1.000000
    6      -22.058126   1.000000
    7       -1.356746   1.000000
    8       -0.141813   1.000000
    9       -0.083935   1.000000
   10        6.109129   0.000000
   11        8.005547   0.000000
   12        8.956931   0.000000
   13       11.330340   0.000000
   14       11.964937   0.000000
   15       13.640945   0.000000
   16       13.722907   0.000000
 
  0.4444444E+00  0.2222222E+00  0.0000000E+00  0.3292181E-01
    1      -29.244411   1.000000
    2      -29.243003   1.000000
    3      -29.242019   1.000000
    4      -29.239711   1.000000
    5      -29.238668   1.000000
    6      -22.040487   1.000000
    7       -1.678193   1.000000
    8       -0.431649   1.000000
    9       -0.134397   1.000000
   10        6.495616   0.000000
   11        8.424899   0.000000
   12        8.922305   0.000000
   13       10.990183   0.000000
   14       12.803455   0.000000
   15       13.635454   0.000000
   16       14.281394   0.000000
 
 -0.4444444E+00  0.2222222E+00 -0.4163336E-16  0.3292181E-01
    1      -29.244338   1.000000
    2      -29.242283   1.000000
    3      -29.241790   1.000000
    4      -29.239848   1.000000
    5      -29.238742   1.000000
    6      -22.032356   1.000000
    7       -1.776142   1.000000
    8       -0.696109   1.000000
    9       -0.077958   1.000000
   10        6.710443   0.000000
   11        8.335227   0.000000
   12       10.154131   0.000000
   13       10.650210   0.000000
   14       11.961337   0.000000
   15       13.428363   0.000000
   16       13.455691   0.000000
 
 -0.3333333E+00  0.2222222E+00 -0.3469447E-16  0.3292181E-01
    1      -29.244084   1.000000
    2      -29.242399   1.000000
    3      -29.241435   1.000000
    4      -29.239859   1.000000
    5      -29.239796   1.000000
    6      -22.037609   1.000000
    7       -1.671459   1.000000
    8       -0.765778   1.000000
    9        0.064569   1.000000
   10        6.850373   0.000000
   11        8.332148   0.000000
   12        9.930033   0.000000
   13       10.475206   0.000000
   14       12.155981   0.000000
   15       12.326704   0.000000
   16       13.558561   0.000000
 
 -0.2222222E+00  0.2222222E+00 -0.2578440E-16  0.1646091E-01
    1      -29.243761   1.000000
    2      -29.242579   1.000000
    3      -29.242312   1.000000
    4      -29.241239   1.000000
    5      -29.239582   1.000000
    6      -22.053727   1.000000
    7       -1.477504   1.000000
    8       -0.507668   1.000000
    9        0.234447   1.000164
   10        6.436724   0.000000
   11        8.689624   0.000000
   12        9.040038   0.000000
   13       10.436030   0.000000
   14       11.234216   0.000000
   15       13.649046   0.000000
   16       13.828296   0.000000
 
  0.3333333E+00  0.3333333E+00  0.2775558E-16  0.8230453E-02
    1      -29.245289   1.000000
    2      -29.243965   1.000000
    3      -29.240656   1.000000
    4      -29.239113   1.000000
    5      -29.239109   1.000000
    6      -22.044924   1.000000
    7       -1.535411   1.000000
    8       -0.255305   1.000000
    9       -0.255303   1.000000
   10        6.066088   0.000000
   11        7.485193   0.000000
   12        9.678388   0.000000
   13       12.229555   0.000000
   14       12.229556   0.000000
   15       13.949029   0.000000
   16       15.447864   0.000000
 
  0.4444444E+00  0.3333333E+00  0.0000000E+00  0.3292181E-01
    1      -29.245156   1.000000
    2      -29.244130   1.000000
    3      -29.240601   1.000000
    4      -29.238571   1.000000
    5      -29.238294   1.000000
    6      -22.031609   1.000000
    7       -1.700123   1.000000
    8       -0.501410   1.000000
    9       -0.331970   1.000000
   10        6.138561   0.000000
   11        7.557397   0.000000
   12       10.093867   0.000000
   13       12.245745   0.000000
   14       13.031926   0.000000
   15       14.497612   0.000000
   16       15.248920   0.000000
 
 -0.4444444E+00  0.3333333E+00 -0.7632783E-16  0.3292181E-01
    1      -29.244755   1.000000
    2      -29.243121   1.000000
    3      -29.240832   1.000000
    4      -29.238898   1.000000
    5      -29.238334   1.000000
    6      -22.024449   1.000000
    7       -1.644762   1.000000
    8       -0.935227   1.000000
    9       -0.286365   1.000000
   10        6.424075   0.000000
   11        8.298936   0.000000
   12       10.089956   0.000000
   13       11.795912   0.000000
   14       11.979571   0.000000
   15       13.729236   0.000000
   16       15.280553   0.000000
 
 -0.3333333E+00  0.3333333E+00 -0.6519221E-16  0.1646091E-01
    1      -29.244419   1.000000
    2      -29.241390   1.000000
    3      -29.241365   1.000000
    4      -29.239997   1.000000
    5      -29.239127   1.000000
    6      -22.026836   1.000000
    7       -1.383676   1.000000
    8       -1.310217   1.000000
    9       -0.134379   1.000000
   10        6.808510   0.000000
   11        8.861457   0.000000
   12       10.329749   0.000000
   13       10.639676   0.000000
   14       11.216503   0.000000
   15       12.631062   0.000000
   16       15.454443   0.000000
 
  0.4444444E+00  0.4444444E+00 -0.5551115E-16  0.8230453E-02
    1      -29.245687   1.000000
    2      -29.244557   1.000000
    3      -29.240073   1.000000
    4      -29.237747   1.000000
    5      -29.237742   1.000000
    6      -22.023933   1.000000
    7       -1.834404   1.000000
    8       -0.441959   1.000000
    9       -0.441957   1.000000
   10        5.774827   0.000000
   11        7.163040   0.000000
   12       11.717632   0.000000
   13       13.208365   0.000000
   14       13.208368   0.000000
   15       14.476605   0.000000
   16       14.649912   0.000000
 
 -0.4444444E+00  0.4444444E+00 -0.5156881E-16  0.1646091E-01
    1      -29.245364   1.000000
    2      -29.244356   1.000000
    3      -29.240158   1.000000
    4      -29.237910   1.000000
    5      -29.237793   1.000000
    6      -22.021105   1.000000
    7       -1.805465   1.000000
    8       -0.643755   1.000000
    9       -0.424838   1.000000
   10        5.944400   0.000000
   11        7.405332   0.000000
   12       12.030473   0.000000
   13       12.124223   0.000000
   14       12.885539   0.000000
   15       14.354702   0.000000
   16       15.039678   0.000000
 
  0.3333333E+00  0.2222222E+00  0.1111111E+00  0.3292181E-01
    1      -29.243927   1.000000
    2      -29.243436   1.000000
    3      -29.242515   1.000000
    4      -29.241418   1.000000
    5      -29.240249   1.000000
    6      -22.070356   1.000000
    7       -1.172418   1.000000
    8       -0.117985   1.000000
    9        0.207806   1.000036
   10        5.736414   0.000000
   11        8.460681   0.000000
   12        9.092165   0.000000
   13       11.004826   0.000000
   14       11.094088   0.000000
   15       12.970614   0.000000
   16       13.466774   0.000000
 
  0.4444444E+00  0.2222222E+00  0.1111111E+00  0.6584362E-01
    1      -29.243841   1.000000
    2      -29.243104   1.000000
    3      -29.242493   1.000000
    4      -29.240301   1.000000
    5      -29.239328   1.000000
    6      -22.049983   1.000000
    7       -1.573089   1.000000
    8       -0.393709   1.000000
    9        0.081363   1.000000
   10        6.463851   0.000000
   11        8.490121   0.000000
   12        8.903569   0.000000
   13       10.705511   0.000000
   14       11.971812   0.000000
   15       13.158364   0.000000
   16       13.912421   0.000000
 
 -0.4444444E+00  0.2222222E+00  0.1111111E+00  0.6584362E-01
    1      -29.243992   1.000000
    2      -29.243030   1.000000
    3      -29.241762   1.000000
    4      -29.239834   1.000000
    5      -29.238841   1.000000
    6      -22.036607   1.000000
    7       -1.811371   1.000000
    8       -0.524362   1.000000
    9       -0.029722   1.000000
   10        6.704058   0.000000
   11        8.154516   0.000000
   12       10.144437   0.000000
   13       10.518397   0.000000
   14       12.272254   0.000000
   15       12.830126   0.000000
   16       13.536095   0.000000
 
  0.4444444E+00  0.3333333E+00  0.1111111E+00  0.3292181E-01
    1      -29.244498   1.000000
    2      -29.243806   1.000000
    3      -29.241461   1.000000
    4      -29.239203   1.000000
    5      -29.239110   1.000000
    6      -22.042061   1.000000
    7       -1.564764   1.000000
    8       -0.453006   1.000000
    9       -0.190009   1.000000
   10        6.505199   0.000000
   11        7.953460   0.000000
   12        8.930953   0.000000
   13       11.885531   0.000000
   14       12.253135   0.000000
   15       14.154187   0.000000
   16       14.856413   0.000000
 
 -0.4444444E+00  0.3333333E+00  0.1111111E+00  0.6584362E-01
    1      -29.244195   1.000000
    2      -29.243090   1.000000
    3      -29.241539   1.000000
    4      -29.239456   1.000000
    5      -29.238405   1.000000
    6      -22.029677   1.000000
    7       -1.633113   1.000000
    8       -0.786449   1.000000
    9       -0.291341   1.000000
   10        6.890003   0.000000
   11        8.407802   0.000000
   12        8.926888   0.000000
   13       11.618081   0.000000
   14       12.444292   0.000000
   15       13.599952   0.000000
   16       14.709669   0.000000
 
 -0.3333333E+00  0.3333333E+00  0.1111111E+00  0.6584362E-01
    1      -29.244031   1.000000
    2      -29.242080   1.000000
    3      -29.241116   1.000000
    4      -29.240667   1.000000
    5      -29.238462   1.000000
    6      -22.026834   1.000000
    7       -1.554144   1.000000
    8       -1.047462   1.000000
    9       -0.246218   1.000000
   10        7.234157   0.000000
   11        8.243977   0.000000
   12        9.981997   0.000000
   13       10.547841   0.000000
   14       11.789905   0.000000
   15       13.353938   0.000000
   16       14.660463   0.000000
 
 -0.2222222E+00  0.3333333E+00  0.1111111E+00  0.3292181E-01
    1      -29.243803   1.000000
    2      -29.242247   1.000000
    3      -29.242120   1.000000
    4      -29.239831   1.000000
    5      -29.239287   1.000000
    6      -22.034877   1.000000
    7       -1.559305   1.000000
    8       -0.890161   1.000000
    9       -0.083500   1.000000
   10        7.389511   0.000000
   11        7.979415   0.000000
   12        9.126110   0.000000
   13       11.171937   0.000000
   14       12.278471   0.000000
   15       12.441134   0.000000
   16       14.826573   0.000000
 
 -0.4444444E+00  0.4444444E+00  0.1111111E+00  0.3292181E-01
    1      -29.244858   1.000000
    2      -29.244184   1.000000
    3      -29.240474   1.000000
    4      -29.238610   1.000000
    5      -29.237811   1.000000
    6      -22.023542   1.000000
    7       -1.724409   1.000000
    8       -0.652758   1.000000
    9       -0.482062   1.000000
   10        6.272813   0.000000
   11        7.676480   0.000000
   12       10.420876   0.000000
   13       12.195296   0.000000
   14       13.323820   0.000000
   15       13.850576   0.000000
   16       15.311703   0.000000
 
 -0.3333333E+00  0.4444444E+00  0.1111111E+00  0.3292181E-01
    1      -29.244299   1.000000
    2      -29.243139   1.000000
    3      -29.240843   1.000000
    4      -29.239696   1.000000
    5      -29.237849   1.000000
    6      -22.021660   1.000000
    7       -1.553137   1.000000
    8       -1.026456   1.000000
    9       -0.444536   1.000000
   10        6.742607   0.000000
   11        8.410954   0.000000
   12        9.974096   0.000000
   13       10.755707   0.000000
   14       12.905787   0.000000
   15       13.821837   0.000000
   16       15.595096   0.000000
 
 -0.3333333E+00  0.4444444E+00  0.2222222E+00  0.3292181E-01
    1      -29.243552   1.000000
    2      -29.242484   1.000000
    3      -29.241481   1.000000
    4      -29.240591   1.000000
    5      -29.237819   1.000000
    6      -22.022605   1.000000
    7       -1.426010   1.000000
    8       -1.114196   1.000000
    9       -0.510389   1.000000
   10        7.500915   0.000000
   11        8.560661   0.000000
   12        9.015033   0.000000
   13       10.339449   0.000000
   14       13.325483   0.000000
   15       13.580068   0.000000
   16       15.534653   0.000000
