Og_FCC                                  
           1
     4.506158    0.000000    0.000000
     2.253079    3.902447   -0.000000
     2.253079    1.300816    3.679263
   Og
   1
Direct configuration=     1
   0.00000000  0.00000000  0.00000000
Og_FCC                                  
           1
     4.596281    0.000000    0.000000
     2.298141    3.902447   -0.000000
     2.298141    1.300816    3.679263
   Og
   1
Direct configuration=     2
   0.00000000  0.00000000  0.00000000
Og_FCC                                  
           1
     4.416035    0.000000    0.000000
     2.208017    3.902447   -0.000000
     2.208017    1.300816    3.679263
   Og
   1
Direct configuration=     3
   0.00000000  0.00000000  0.00000000
Og_FCC                                  
           1
     4.506158    0.000000    0.000000
     2.253079    3.980496   -0.000000
     2.253079    1.326832    3.679263
   Og
   1
Direct configuration=     4
   0.00000000  0.00000000  0.00000000
Og_FCC                                  
           1
     4.506158    0.000000    0.000000
     2.253079    3.824398   -0.000000
     2.253079    1.274799    3.679263
   Og
   1
Direct configuration=     5
   0.00000000  0.00000000  0.00000000
Og_FCC                                  
           1
     4.506158    0.000000    0.000000
     2.253079    3.902447   -0.000000
     2.253079    1.300816    3.752848
   Og
   1
Direct configuration=     6
   0.00000000  0.00000000  0.00000000
Og_FCC                                  
           1
     4.506158    0.000000    0.000000
     2.253079    3.902447   -0.000000
     2.253079    1.300816    3.605677
   Og
   1
Direct configuration=     7
   0.00000000  0.00000000  0.00000000
Og_FCC                                  
           1
     4.506158    0.090123    0.000000
     2.253079    3.947509   -0.000000
     2.253079    1.345877    3.679263
   Og
   1
Direct configuration=     8
   0.00000000  0.00000000  0.00000000
Og_FCC                                  
           1
     4.506158   -0.090123    0.000000
     2.253079    3.857386   -0.000000
     2.253079    1.255754    3.679263
   Og
   1
Direct configuration=     9
   0.00000000  0.00000000  0.00000000
Og_FCC                                  
           1
     4.506158    0.000000    0.000000
     2.253079    3.902447    0.078049
     2.253079    1.300816    3.705279
   Og
   1
Direct configuration=    10
   0.00000000  0.00000000  0.00000000
Og_FCC                                  
           1
     4.506158    0.000000    0.000000
     2.253079    3.902447   -0.078049
     2.253079    1.300816    3.653246
   Og
   1
Direct configuration=    11
   0.00000000  0.00000000  0.00000000
Og_FCC                                  
           1
     4.506158    0.000000    0.000000
     2.253079    3.902447   -0.000000
     2.326664    1.300816    3.679263
   Og
   1
Direct configuration=    12
   0.00000000  0.00000000  0.00000000
Og_FCC                                  
           1
     4.506158    0.000000    0.000000
     2.253079    3.902447   -0.000000
     2.179494    1.300816    3.679263
   Og
   1
Direct configuration=    13
   0.00000000  0.00000000  0.00000000
Og_FCC                                  
           1
     4.506158    0.000000    0.000000
     2.253079    3.902447   -0.000000
     2.253079    1.300816    3.679263
   Og
   1
Direct configuration=    14
   0.00443837  0.00000000 -0.00000000
Og_FCC                                  
           1
     4.506158    0.000000    0.000000
     2.253079    3.902447   -0.000000
     2.253079    1.300816    3.679263
   Og
   1
Direct configuration=    15
  -0.00443837 -0.00000000  0.00000000
