   1   1   0   0
  0.6008441E+02  0.4396350E-09  0.4396350E-09  0.4396350E-09  0.1000000E-15
  1.000000000000000E-004
  CAR 
 Og_FCC                                  
     57.05904976    -45.33188202  301      2.27990126      1.00000000
    -45.332  0.0000E+00  0.0000E+00
    -44.991  0.0000E+00  0.0000E+00
    -44.649  0.0000E+00  0.0000E+00
    -44.308  0.0000E+00  0.0000E+00
    -43.967  0.0000E+00  0.0000E+00
    -43.625  0.0000E+00  0.0000E+00
    -43.284  0.0000E+00  0.0000E+00
    -42.943  0.0000E+00  0.0000E+00
    -42.601  0.0000E+00  0.0000E+00
    -42.260  0.0000E+00  0.0000E+00
    -41.919  0.0000E+00  0.0000E+00
    -41.578  0.0000E+00  0.0000E+00
    -41.236  0.0000E+00  0.0000E+00
    -40.895  0.0000E+00  0.0000E+00
    -40.554  0.0000E+00  0.4000E+01
    -40.212  0.0000E+00  0.4000E+01
    -39.871  0.0000E+00  0.4000E+01
    -39.530  0.0000E+00  0.4000E+01
    -39.188  0.0000E+00  0.4000E+01
    -38.847  0.0000E+00  0.4000E+01
    -38.506  0.0000E+00  0.4000E+01
    -38.165  0.0000E+00  0.4000E+01
    -37.823  0.0000E+00  0.4000E+01
    -37.482  0.0000E+00  0.4000E+01
    -37.141  0.0000E+00  0.4000E+01
    -36.799  0.0000E+00  0.4000E+01
    -36.458  0.0000E+00  0.4000E+01
    -36.117  0.0000E+00  0.4000E+01
    -35.775  0.0000E+00  0.4000E+01
    -35.434  0.0000E+00  0.4000E+01
    -35.093  0.0000E+00  0.4000E+01
    -34.751  0.0000E+00  0.4000E+01
    -34.410  0.0000E+00  0.4000E+01
    -34.069  0.0000E+00  0.4000E+01
    -33.728  0.0000E+00  0.4000E+01
    -33.386  0.0000E+00  0.4000E+01
    -33.045  0.0000E+00  0.1000E+02
    -32.704  0.0000E+00  0.1000E+02
    -32.362  0.0000E+00  0.1000E+02
    -32.021  0.0000E+00  0.1000E+02
    -31.680  0.0000E+00  0.1000E+02
    -31.338  0.0000E+00  0.1000E+02
    -30.997  0.0000E+00  0.1000E+02
    -30.656  0.0000E+00  0.1000E+02
    -30.315  0.0000E+00  0.1000E+02
    -29.973  0.0000E+00  0.1000E+02
    -29.632  0.0000E+00  0.1000E+02
    -29.291  0.0000E+00  0.1000E+02
    -28.949  0.0000E+00  0.1000E+02
    -28.608  0.0000E+00  0.1000E+02
    -28.267  0.0000E+00  0.1000E+02
    -27.925  0.0000E+00  0.1000E+02
    -27.584  0.0000E+00  0.1000E+02
    -27.243  0.0000E+00  0.1000E+02
    -26.902  0.0000E+00  0.1000E+02
    -26.560  0.0000E+00  0.1000E+02
    -26.219  0.0000E+00  0.1000E+02
    -25.878  0.0000E+00  0.1000E+02
    -25.536  0.0000E+00  0.1000E+02
    -25.195  0.3394E+00  0.1198E+02
    -24.854  0.0000E+00  0.1200E+02
    -24.512  0.0000E+00  0.1200E+02
    -24.171  0.0000E+00  0.1200E+02
    -23.830  0.0000E+00  0.1200E+02
    -23.488  0.0000E+00  0.1200E+02
    -23.147  0.0000E+00  0.1200E+02
    -22.806  0.0000E+00  0.1200E+02
    -22.465  0.0000E+00  0.1200E+02
    -22.123  0.0000E+00  0.1200E+02
    -21.782  0.0000E+00  0.1200E+02
    -21.441  0.0000E+00  0.1200E+02
    -21.099  0.0000E+00  0.1200E+02
    -20.758  0.0000E+00  0.1200E+02
    -20.417  0.0000E+00  0.1200E+02
    -20.075  0.0000E+00  0.1200E+02
    -19.734  0.0000E+00  0.1200E+02
    -19.393  0.0000E+00  0.1200E+02
    -19.052  0.0000E+00  0.1200E+02
    -18.710  0.0000E+00  0.1200E+02
    -18.369  0.0000E+00  0.1200E+02
    -18.028  0.0000E+00  0.1200E+02
    -17.686  0.0000E+00  0.1200E+02
    -17.345  0.0000E+00  0.1200E+02
    -17.004  0.0000E+00  0.1200E+02
    -16.662  0.0000E+00  0.1200E+02
    -16.321  0.0000E+00  0.1200E+02
    -15.980  0.0000E+00  0.1200E+02
    -15.639  0.0000E+00  0.1200E+02
    -15.297  0.0000E+00  0.1200E+02
    -14.956  0.0000E+00  0.1200E+02
    -14.615  0.0000E+00  0.1200E+02
    -14.273  0.0000E+00  0.1200E+02
    -13.932  0.0000E+00  0.1200E+02
    -13.591  0.0000E+00  0.1200E+02
    -13.249  0.0000E+00  0.1200E+02
    -12.908  0.0000E+00  0.1200E+02
    -12.567  0.0000E+00  0.1200E+02
    -12.225  0.0000E+00  0.1200E+02
    -11.884  0.0000E+00  0.1200E+02
    -11.543  0.0000E+00  0.1200E+02
    -11.202  0.0000E+00  0.1200E+02
    -10.860  0.0000E+00  0.1200E+02
    -10.519  0.0000E+00  0.1200E+02
    -10.178  0.0000E+00  0.1375E+02
     -9.836  0.0000E+00  0.1400E+02
     -9.495  0.0000E+00  0.1400E+02
     -9.154  0.0000E+00  0.1400E+02
     -8.812  0.0000E+00  0.1400E+02
     -8.471  0.0000E+00  0.1400E+02
     -8.130  0.0000E+00  0.1400E+02
     -7.789  0.0000E+00  0.1400E+02
     -7.447  0.0000E+00  0.1400E+02
     -7.106  0.0000E+00  0.1400E+02
     -6.765  0.0000E+00  0.1400E+02
     -6.423  0.0000E+00  0.1400E+02
     -6.082  0.0000E+00  0.1400E+02
     -5.741  0.0000E+00  0.1400E+02
     -5.399  0.0000E+00  0.1400E+02
     -5.058  0.0000E+00  0.1400E+02
     -4.717  0.0000E+00  0.1400E+02
     -4.376  0.0000E+00  0.1400E+02
     -4.034  0.0000E+00  0.1400E+02
     -3.693  0.0000E+00  0.1400E+02
     -3.352  0.0000E+00  0.1400E+02
     -3.010  0.0000E+00  0.1400E+02
     -2.669  0.0000E+00  0.1400E+02
     -2.328  0.0000E+00  0.1400E+02
     -1.986  0.0000E+00  0.1400E+02
     -1.645  0.0000E+00  0.1400E+02
     -1.304  0.0000E+00  0.1400E+02
     -0.962  0.0000E+00  0.1484E+02
     -0.621  0.0000E+00  0.1553E+02
     -0.280  0.0000E+00  0.1575E+02
      0.061  0.0000E+00  0.1597E+02
      0.403  0.0000E+00  0.1653E+02
      0.744  0.0000E+00  0.1691E+02
      1.085  0.0000E+00  0.1741E+02
      1.427  0.0000E+00  0.1763E+02
      1.768  0.0000E+00  0.1791E+02
      2.109  0.0000E+00  0.1798E+02
      2.451  0.0000E+00  0.1800E+02
      2.792  0.0000E+00  0.1800E+02
      3.133  0.0000E+00  0.1801E+02
      3.474  0.0000E+00  0.1801E+02
      3.816  0.0000E+00  0.1801E+02
      4.157  0.0000E+00  0.1801E+02
      4.498  0.0000E+00  0.1801E+02
      4.840  0.0000E+00  0.1801E+02
      5.181  0.0000E+00  0.1808E+02
      5.522  0.0000E+00  0.1814E+02
      5.864  0.0000E+00  0.1814E+02
      6.205  0.0000E+00  0.1839E+02
      6.546  0.0000E+00  0.1861E+02
      6.887  0.0000E+00  0.1911E+02
      7.229  0.0000E+00  0.1944E+02
      7.570  0.0000E+00  0.2000E+02
      7.911  0.0000E+00  0.2003E+02
      8.253  0.0000E+00  0.2008E+02
      8.594  0.8185E-01  0.2033E+02
      8.935  0.0000E+00  0.2119E+02
      9.277  0.1525E+00  0.2169E+02
      9.618  0.0000E+00  0.2203E+02
      9.959  0.0000E+00  0.2238E+02
     10.301  0.5737E-04  0.2256E+02
     10.642  0.0000E+00  0.2345E+02
     10.983  0.0000E+00  0.2393E+02
     11.324  0.1548E-12  0.2431E+02
     11.666  0.0000E+00  0.2489E+02
     12.007  0.0000E+00  0.2567E+02
     12.348  0.0000E+00  0.2598E+02
     12.690  0.0000E+00  0.2617E+02
     13.031  0.6402E+00  0.2681E+02
     13.372  0.0000E+00  0.2748E+02
     13.714  0.0000E+00  0.2778E+02
     14.055  0.0000E+00  0.2853E+02
     14.396  0.0000E+00  0.2931E+02
     14.737  0.0000E+00  0.2969E+02
     15.079  0.0000E+00  0.3047E+02
     15.420  0.0000E+00  0.3050E+02
     15.761  0.0000E+00  0.3102E+02
     16.103  0.0000E+00  0.3134E+02
     16.444  0.4302E-13  0.3190E+02
     16.785  0.0000E+00  0.3249E+02
     17.127  0.0000E+00  0.3330E+02
     17.468  0.0000E+00  0.3433E+02
     17.809  0.0000E+00  0.3492E+02
     18.150  0.4069E-01  0.3569E+02
     18.492  0.0000E+00  0.3719E+02
     18.833  0.3255E+00  0.3823E+02
     19.174  0.0000E+00  0.3995E+02
     19.516  0.0000E+00  0.4160E+02
     19.857  0.0000E+00  0.4353E+02
     20.198  0.0000E+00  0.4526E+02
     20.540  0.0000E+00  0.4589E+02
     20.881  0.0000E+00  0.4613E+02
     21.222  0.0000E+00  0.4670E+02
     21.564  0.6510E+00  0.4740E+02
     21.905  0.0000E+00  0.4795E+02
     22.246  0.6511E+00  0.4830E+02
     22.587  0.0000E+00  0.4905E+02
     22.929  0.0000E+00  0.4956E+02
     23.270  0.0000E+00  0.5050E+02
     23.611  0.0000E+00  0.5106E+02
     23.953  0.0000E+00  0.5214E+02
     24.294  0.6362E+00  0.5347E+02
     24.635  0.7689E+00  0.5470E+02
     24.977  0.2170E+00  0.5577E+02
     25.318  0.2170E+00  0.5651E+02
     25.659  0.0000E+00  0.5742E+02
     26.000  0.0000E+00  0.5767E+02
     26.342  0.0000E+00  0.5804E+02
     26.683  0.0000E+00  0.5919E+02
     27.024  0.0000E+00  0.5978E+02
     27.366  0.0000E+00  0.6035E+02
     27.707  0.0000E+00  0.6117E+02
     28.048  0.0000E+00  0.6191E+02
     28.390  0.0000E+00  0.6224E+02
     28.731  0.1929E-01  0.6266E+02
     29.072  0.0000E+00  0.6420E+02
     29.413  0.0000E+00  0.6473E+02
     29.755  0.0000E+00  0.6510E+02
     30.096  0.0000E+00  0.6600E+02
     30.437  0.1628E+00  0.6694E+02
     30.779  0.6927E-16  0.6747E+02
     31.120  0.0000E+00  0.6906E+02
     31.461  0.0000E+00  0.6993E+02
     31.803  0.6511E+00  0.7128E+02
     32.144  0.0000E+00  0.7227E+02
     32.485  0.0000E+00  0.7286E+02
     32.827  0.0000E+00  0.7369E+02
     33.168  0.1085E+00  0.7442E+02
     33.509  0.0000E+00  0.7447E+02
     33.850  0.0000E+00  0.7589E+02
     34.192  0.0000E+00  0.7652E+02
     34.533  0.0000E+00  0.7793E+02
     34.874  0.0000E+00  0.7919E+02
     35.216  0.2718E-14  0.7996E+02
     35.557  0.0000E+00  0.8076E+02
     35.898  0.6511E+00  0.8224E+02
     36.240  0.0000E+00  0.8330E+02
     36.581  0.0000E+00  0.8352E+02
     36.922  0.2213E-11  0.8457E+02
     37.263  0.2170E+00  0.8556E+02
     37.605  0.0000E+00  0.8605E+02
     37.946  0.8139E-01  0.8635E+02
     38.287  0.0000E+00  0.8726E+02
     38.629  0.0000E+00  0.8872E+02
     38.970  0.0000E+00  0.8955E+02
     39.311  0.0000E+00  0.8991E+02
     39.653  0.0000E+00  0.9111E+02
     39.994  0.0000E+00  0.9163E+02
     40.335  0.1768E+00  0.9322E+02
     40.677  0.0000E+00  0.9392E+02
     41.018  0.0000E+00  0.9534E+02
     41.359  0.0000E+00  0.9581E+02
     41.700  0.0000E+00  0.9724E+02
     42.042  0.1296E-05  0.9790E+02
     42.383  0.0000E+00  0.9856E+02
     42.724  0.4511E-02  0.9970E+02
     43.066  0.0000E+00  0.1004E+03
     43.407  0.0000E+00  0.1013E+03
     43.748  0.0000E+00  0.1024E+03
     44.090  0.0000E+00  0.1035E+03
     44.431  0.3255E+00  0.1045E+03
     44.772  0.0000E+00  0.1056E+03
     45.113  0.6511E+00  0.1065E+03
     45.455  0.0000E+00  0.1076E+03
     45.796  0.0000E+00  0.1086E+03
     46.137  0.0000E+00  0.1099E+03
     46.479  0.0000E+00  0.1106E+03
     46.820  0.0000E+00  0.1116E+03
     47.161  0.0000E+00  0.1126E+03
     47.503  0.0000E+00  0.1133E+03
     47.844  0.0000E+00  0.1144E+03
     48.185  0.0000E+00  0.1153E+03
     48.526  0.0000E+00  0.1167E+03
     48.868  0.0000E+00  0.1174E+03
     49.209  0.0000E+00  0.1186E+03
     49.550  0.0000E+00  0.1193E+03
     49.892  0.0000E+00  0.1206E+03
     50.233  0.1628E+00  0.1219E+03
     50.574  0.6511E+00  0.1231E+03
     50.916  0.0000E+00  0.1245E+03
     51.257  0.0000E+00  0.1252E+03
     51.598  0.0000E+00  0.1261E+03
     51.940  0.1628E+00  0.1268E+03
     52.281  0.0000E+00  0.1273E+03
     52.622  0.0000E+00  0.1280E+03
     52.963  0.0000E+00  0.1280E+03
     53.305  0.0000E+00  0.1280E+03
     53.646  0.0000E+00  0.1280E+03
     53.987  0.0000E+00  0.1280E+03
     54.329  0.0000E+00  0.1280E+03
     54.670  0.0000E+00  0.1280E+03
     55.011  0.0000E+00  0.1280E+03
     55.353  0.0000E+00  0.1280E+03
     55.694  0.0000E+00  0.1280E+03
     56.035  0.0000E+00  0.1280E+03
     56.376  0.0000E+00  0.1280E+03
     56.718  0.0000E+00  0.1280E+03
     57.059  0.0000E+00  0.1280E+03
