    1    1    1    1
  0.6008441E+02  0.4396350E-09  0.4396350E-09  0.4396350E-09  0.1000000E-15
  1.000000000000000E-004
  CAR 
 Og_FCC                                  
     18    216    128
 
  0.0000000E+00  0.0000000E+00  0.0000000E+00  0.4629630E-02
    1      -40.669663   1.000000
    2      -40.669637   1.000000
    3      -40.669597   1.000000
    4      -40.669592   1.000000
    5      -33.134987   1.000000
    6      -33.134977   1.000000
    7      -33.134953   1.000000
    8      -33.134930   1.000000
    9      -33.132332   1.000000
   10      -33.132328   1.000000
   11      -25.357300   1.000000
   12      -25.357272   1.000000
   13       -9.961028   1.000000
   14       -9.960948   1.000000
   15        2.232769   1.000000
   16        2.232775   1.000000
   17        2.233512   1.000000
   18        2.233516   1.000000
   19        3.111878   0.000000
   20        3.111961   0.000000
   21       10.953352   0.000000
   22       10.953375   0.000000
   23       10.953385   0.000000
   24       10.953406   0.000000
   25       11.171007   0.000000
   26       11.171062   0.000000
   27       11.564606   0.000000
   28       11.564693   0.000000
   29       13.739330   0.000000
   30       13.739591   0.000000
   31       14.164044   0.000000
   32       14.164052   0.000000
   33       14.164162   0.000000
   34       14.164170   0.000000
   35       14.369343   0.000000
   36       14.369491   0.000000
   37       14.369523   0.000000
   38       14.369672   0.000000
   39       15.927659   0.000000
   40       15.927731   0.000000
   41       19.920557   0.000000
   42       19.920842   0.000000
   43       19.921435   0.000000
   44       19.921851   0.000000
   45       19.922445   0.000000
   46       19.922730   0.000000
   47       22.144968   0.000000
   48       22.145617   0.000000
   49       25.557842   0.000000
   50       25.557946   0.000000
   51       25.559875   0.000000
   52       25.559979   0.000000
   53       25.779299   0.000000
   54       25.779961   0.000000
   55       27.006031   0.000000
   56       27.007780   0.000000
   57       28.625982   0.000000
   58       28.626809   0.000000
   59       28.627244   0.000000
   60       28.628074   0.000000
   61       29.177691   0.000000
   62       29.178200   0.000000
   63       29.473402   0.000000
   64       29.473804   0.000000
   65       29.474380   0.000000
   66       29.474783   0.000000
   67       29.902511   0.000000
   68       29.902728   0.000000
   69       30.650733   0.000000
   70       30.650863   0.000000
   71       30.651941   0.000000
   72       30.652071   0.000000
   73       36.818575   0.000000
   74       36.819221   0.000000
   75       36.819339   0.000000
   76       36.819678   0.000000
   77       36.819797   0.000000
   78       36.820442   0.000000
   79       37.484818   0.000000
   80       37.486179   0.000000
   81       37.718652   0.000000
   82       37.718962   0.000000
   83       37.719222   0.000000
   84       37.721800   0.000000
   85       37.722061   0.000000
   86       37.722371   0.000000
   87       40.082597   0.000000
   88       40.082879   0.000000
   89       40.083138   0.000000
   90       40.083422   0.000000
   91       40.289534   0.000000
   92       40.290108   0.000000
   93       41.381669   0.000000
   94       41.382155   0.000000
   95       41.597464   0.000000
   96       41.598569   0.000000
   97       41.599168   0.000000
   98       41.600270   0.000000
   99       42.106786   0.000000
  100       42.107169   0.000000
  101       42.107525   0.000000
  102       42.107908   0.000000
  103       42.724969   0.000000
  104       42.725042   0.000000
  105       42.727062   0.000000
  106       42.727136   0.000000
  107       42.863914   0.000000
  108       42.864389   0.000000
  109       42.865181   0.000000
  110       42.865657   0.000000
  111       43.076274   0.000000
  112       43.077288   0.000000
  113       44.018442   0.000000
  114       44.019027   0.000000
  115       44.548494   0.000000
  116       44.549929   0.000000
  117       44.923971   0.000000
  118       44.924101   0.000000
  119       44.925206   0.000000
  120       44.925336   0.000000
  121       45.498151   0.000000
  122       45.498260   0.000000
  123       45.833384   0.000000
  124       45.833474   0.000000
  125       45.833877   0.000000
  126       45.833967   0.000000
  127       45.947304   0.000000
  128       45.948309   0.000000
 
  0.1666667E+00 -0.4006644E-16 -0.6938894E-17  0.4629630E-02
    1      -40.664288   1.000000
    2      -40.664269   1.000000
    3      -40.655493   1.000000
    4      -40.655473   1.000000
    5      -33.131888   1.000000
    6      -33.131872   1.000000
    7      -33.126202   1.000000
    8      -33.126185   1.000000
    9      -33.122018   1.000000
   10      -33.121994   1.000000
   11      -25.327164   1.000000
   12      -25.327138   1.000000
   13      -10.037591   1.000000
   14      -10.037518   1.000000
   15        0.577095   1.000000
   16        0.577297   1.000000
   17        2.062078   1.000000
   18        2.062387   1.000000
   19        4.877232   0.000000
   20        4.877342   0.000000
   21        9.868775   0.000000
   22        9.868830   0.000000
   23       11.180192   0.000000
   24       11.180319   0.000000
   25       11.311518   0.000000
   26       11.311543   0.000000
   27       12.463067   0.000000
   28       12.463177   0.000000
   29       12.739066   0.000000
   30       12.739280   0.000000
   31       12.872488   0.000000
   32       12.872622   0.000000
   33       14.204909   0.000000
   34       14.204976   0.000000
   35       16.493307   0.000000
   36       16.493542   0.000000
   37       16.755868   0.000000
   38       16.755905   0.000000
   39       18.138391   0.000000
   40       18.138505   0.000000
   41       19.404497   0.000000
   42       19.405524   0.000000
   43       19.547438   0.000000
   44       19.548266   0.000000
   45       19.988014   0.000000
   46       19.989568   0.000000
   47       21.034211   0.000000
   48       21.034617   0.000000
   49       24.304490   0.000000
   50       24.305066   0.000000
   51       24.970925   0.000000
   52       24.971735   0.000000
   53       25.314170   0.000000
   54       25.314769   0.000000
   55       26.455113   0.000000
   56       26.456600   0.000000
   57       27.043750   0.000000
   58       27.043822   0.000000
   59       27.895251   0.000000
   60       27.895793   0.000000
   61       29.354898   0.000000
   62       29.355807   0.000000
   63       29.450720   0.000000
   64       29.451928   0.000000
   65       29.970549   0.000000
   66       29.970929   0.000000
   67       30.061974   0.000000
   68       30.062821   0.000000
   69       31.967874   0.000000
   70       31.968692   0.000000
   71       34.326805   0.000000
   72       34.327982   0.000000
   73       34.601633   0.000000
   74       34.602230   0.000000
   75       35.569399   0.000000
   76       35.569653   0.000000
   77       35.612302   0.000000
   78       35.612838   0.000000
   79       35.864597   0.000000
   80       35.864835   0.000000
   81       37.258018   0.000000
   82       37.258420   0.000000
   83       38.085187   0.000000
   84       38.086140   0.000000
   85       38.375047   0.000000
   86       38.376286   0.000000
   87       38.505034   0.000000
   88       38.505347   0.000000
   89       38.506048   0.000000
   90       38.506375   0.000000
   91       39.374386   0.000000
   92       39.374866   0.000000
   93       39.477347   0.000000
   94       39.477599   0.000000
   95       40.334351   0.000000
   96       40.334650   0.000000
   97       40.529857   0.000000
   98       40.530693   0.000000
   99       41.510684   0.000000
  100       41.510976   0.000000
  101       42.044674   0.000000
  102       42.046046   0.000000
  103       42.109442   0.000000
  104       42.109789   0.000000
  105       42.911221   0.000000
  106       42.911834   0.000000
  107       43.444307   0.000000
  108       43.444961   0.000000
  109       43.651272   0.000000
  110       43.651849   0.000000
  111       43.764648   0.000000
  112       43.765756   0.000000
  113       45.240611   0.000000
  114       45.241082   0.000000
  115       45.954355   0.000000
  116       45.954753   0.000000
  117       46.281726   0.000000
  118       46.282119   0.000000
  119       47.221540   0.000000
  120       47.221801   0.000000
  121       48.123620   0.000000
  122       48.124133   0.000000
  123       48.151258   0.000000
  124       48.151720   0.000000
  125       48.912759   0.000000
  126       48.913216   0.000000
  127       50.089410   0.000000
  128       50.090211   0.000000
 
  0.3333333E+00 -0.2462172E-16  0.4163336E-16  0.4629630E-02
    1      -40.657501   1.000000
    2      -40.657484   1.000000
    3      -40.644827   1.000000
    4      -40.644812   1.000000
    5      -33.119024   1.000000
    6      -33.119006   1.000000
    7      -33.112544   1.000000
    8      -33.112535   1.000000
    9      -33.108300   1.000000
   10      -33.108289   1.000000
   11      -25.265928   1.000000
   12      -25.265902   1.000000
   13      -10.192928   1.000000
   14      -10.192852   1.000000
   15       -0.709793   1.000000
   16       -0.709598   1.000000
   17        1.758590   1.000000
   18        1.758886   1.000000
   19        5.876474   0.000000
   20        5.876546   0.000000
   21       10.224423   0.000000
   22       10.224485   0.000000
   23       10.703742   0.000000
   24       10.703977   0.000000
   25       10.937704   0.000000
   26       10.937786   0.000000
   27       11.594448   0.000000
   28       11.594581   0.000000
   29       13.642546   0.000000
   30       13.642633   0.000000
   31       13.962743   0.000000
   32       13.962909   0.000000
   33       17.390118   0.000000
   34       17.390213   0.000000
   35       18.578860   0.000000
   36       18.579256   0.000000
   37       19.497525   0.000000
   38       19.497725   0.000000
   39       19.617337   0.000000
   40       19.617420   0.000000
   41       18.211255   0.000000
   42       18.212112   0.000000
   43       18.441986   0.000000
   44       18.442920   0.000000
   45       20.151161   0.000000
   46       20.152747   0.000000
   47       20.606173   0.000000
   48       20.606819   0.000000
   49       23.251400   0.000000
   50       23.251768   0.000000
   51       24.558593   0.000000
   52       24.559242   0.000000
   53       24.634638   0.000000
   54       24.635244   0.000000
   55       25.665609   0.000000
   56       25.666336   0.000000
   57       26.393612   0.000000
   58       26.394363   0.000000
   59       26.873765   0.000000
   60       26.874169   0.000000
   61       28.818610   0.000000
   62       28.818801   0.000000
   63       30.131140   0.000000
   64       30.132137   0.000000
   65       30.554657   0.000000
   66       30.555662   0.000000
   67       31.003869   0.000000
   68       31.004384   0.000000
   69       31.150566   0.000000
   70       31.151705   0.000000
   71       31.177017   0.000000
   72       31.177616   0.000000
   73       32.876514   0.000000
   74       32.877125   0.000000
   75       32.975640   0.000000
   76       32.975933   0.000000
   77       33.992621   0.000000
   78       33.993250   0.000000
   79       34.713347   0.000000
   80       34.714103   0.000000
   81       35.049979   0.000000
   82       35.050245   0.000000
   83       35.505990   0.000000
   84       35.506617   0.000000
   85       38.359498   0.000000
   86       38.360255   0.000000
   87       38.390340   0.000000
   88       38.391443   0.000000
   89       39.012175   0.000000
   90       39.012634   0.000000
   91       39.556123   0.000000
   92       39.556305   0.000000
   93       39.810765   0.000000
   94       39.811099   0.000000
   95       40.935959   0.000000
   96       40.937043   0.000000
   97       41.683224   0.000000
   98       41.683879   0.000000
   99       41.957881   0.000000
  100       41.958357   0.000000
  101       42.702004   0.000000
  102       42.702512   0.000000
  103       43.595454   0.000000
  104       43.596099   0.000000
  105       43.767110   0.000000
  106       43.767963   0.000000
  107       44.744038   0.000000
  108       44.744400   0.000000
  109       45.254547   0.000000
  110       45.255051   0.000000
  111       45.350693   0.000000
  112       45.351762   0.000000
  113       45.822025   0.000000
  114       45.822335   0.000000
  115       48.408959   0.000000
  116       48.409461   0.000000
  117       49.846343   0.000000
  118       49.846661   0.000000
  119       50.114794   0.000000
  120       50.115173   0.000000
  121       50.626501   0.000000
  122       50.627187   0.000000
  123       50.699290   0.000000
  124       50.699375   0.000000
  125       50.973861   0.000000
  126       50.974553   0.000000
  127       51.264243   0.000000
  128       51.264449   0.000000
 
  0.5000000E+00 -0.2305480E-16  0.5551115E-16  0.4629630E-02
    1      -40.668444   1.000000
    2      -40.668426   1.000000
    3      -40.663537   1.000000
    4      -40.663516   1.000000
    5      -33.131579   1.000000
    6      -33.131554   1.000000
    7      -33.129107   1.000000
    8      -33.129104   1.000000
    9      -33.125912   1.000000
   10      -33.125887   1.000000
   11      -25.234759   1.000000
   12      -25.234733   1.000000
   13      -10.271382   1.000000
   14      -10.271304   1.000000
   15       -1.144313   1.000000
   16       -1.144117   1.000000
   17        1.622403   1.000000
   18        1.622691   1.000000
   19        5.952979   0.000000
   20        5.953040   0.000000
   21       10.382528   0.000000
   22       10.382791   0.000000
   23       10.513237   0.000000
   24       10.513374   0.000000
   25       10.577224   0.000000
   26       10.577322   0.000000
   27       12.216579   0.000000
   28       12.216735   0.000000
   29       15.440571   0.000000
   30       15.440676   0.000000
   31       15.714561   0.000000
   32       15.714684   0.000000
   33       16.086012   0.000000
   34       16.086050   0.000000
   35       17.144404   0.000000
   36       17.144442   0.000000
   37       17.275022   0.000000
   38       17.275399   0.000000
   39       20.424058   0.000000
   40       20.424111   0.000000
   41       18.597018   0.000000
   42       18.598368   0.000000
   43       18.634687   0.000000
   44       18.636977   0.000000
   45       20.210118   0.000000
   46       20.211719   0.000000
   47       22.622885   0.000000
   48       22.624131   0.000000
   49       23.240493   0.000000
   50       23.241001   0.000000
   51       24.559435   0.000000
   52       24.559722   0.000000
   53       24.761049   0.000000
   54       24.761630   0.000000
   55       24.807758   0.000000
   56       24.808157   0.000000
   57       26.330856   0.000000
   58       26.331292   0.000000
   59       26.516845   0.000000
   60       26.517310   0.000000
   61       27.627947   0.000000
   62       27.628363   0.000000
   63       28.686646   0.000000
   64       28.687274   0.000000
   65       29.973766   0.000000
   66       29.974384   0.000000
   67       30.034666   0.000000
   68       30.035064   0.000000
   69       30.815446   0.000000
   70       30.816420   0.000000
   71       31.537448   0.000000
   72       31.537969   0.000000
   73       31.766592   0.000000
   74       31.767584   0.000000
   75       32.259974   0.000000
   76       32.260583   0.000000
   77       33.067221   0.000000
   78       33.068108   0.000000
   79       33.163675   0.000000
   80       33.164483   0.000000
   81       34.902626   0.000000
   82       34.902753   0.000000
   83       35.700548   0.000000
   84       35.701043   0.000000
   85       38.520263   0.000000
   86       38.521284   0.000000
   87       38.643275   0.000000
   88       38.644322   0.000000
   89       38.734719   0.000000
   90       38.734948   0.000000
   91       39.186363   0.000000
   92       39.187517   0.000000
   93       39.471268   0.000000
   94       39.471589   0.000000
   95       40.861573   0.000000
   96       40.861861   0.000000
   97       41.001439   0.000000
   98       41.001939   0.000000
   99       43.612986   0.000000
  100       43.613180   0.000000
  101       44.946908   0.000000
  102       44.947291   0.000000
  103       45.093995   0.000000
  104       45.094426   0.000000
  105       45.270729   0.000000
  106       45.271640   0.000000
  107       45.305286   0.000000
  108       45.305883   0.000000
  109       46.502447   0.000000
  110       46.502678   0.000000
  111       48.092473   0.000000
  112       48.093185   0.000000
  113       48.739065   0.000000
  114       48.739958   0.000000
  115       48.925922   0.000000
  116       48.926248   0.000000
  117       49.650749   0.000000
  118       49.651452   0.000000
  119       49.953964   0.000000
  120       49.954353   0.000000
  121       50.118159   0.000000
  122       50.118705   0.000000
  123       51.211118   0.000000
  124       51.211672   0.000000
  125       51.470618   0.000000
  126       51.471126   0.000000
  127       51.561503   0.000000
  128       51.562128   0.000000
 
 -0.3333333E+00  0.2462172E-16 -0.4163336E-16  0.4629630E-02
    1      -40.657485   1.000000
    2      -40.657468   1.000000
    3      -40.644820   1.000000
    4      -40.644808   1.000000
    5      -33.119014   1.000000
    6      -33.118996   1.000000
    7      -33.112527   1.000000
    8      -33.112515   1.000000
    9      -33.108286   1.000000
   10      -33.108271   1.000000
   11      -25.265927   1.000000
   12      -25.265900   1.000000
   13      -10.192928   1.000000
   14      -10.192851   1.000000
   15       -0.709795   1.000000
   16       -0.709600   1.000000
   17        1.758590   1.000000
   18        1.758886   1.000000
   19        5.876471   0.000000
   20        5.876546   0.000000
   21       10.224423   0.000000
   22       10.224485   0.000000
   23       10.703742   0.000000
   24       10.703977   0.000000
   25       10.937705   0.000000
   26       10.937787   0.000000
   27       11.594448   0.000000
   28       11.594581   0.000000
   29       13.642549   0.000000
   30       13.642635   0.000000
   31       13.962745   0.000000
   32       13.962911   0.000000
   33       17.390117   0.000000
   34       17.390213   0.000000
   35       18.578862   0.000000
   36       18.579258   0.000000
   37       19.497526   0.000000
   38       19.497726   0.000000
   39       19.617339   0.000000
   40       19.617422   0.000000
   41       18.211255   0.000000
   42       18.212112   0.000000
   43       18.441986   0.000000
   44       18.442919   0.000000
   45       20.151161   0.000000
   46       20.152747   0.000000
   47       20.606173   0.000000
   48       20.606820   0.000000
   49       23.251400   0.000000
   50       23.251768   0.000000
   51       24.558593   0.000000
   52       24.559242   0.000000
   53       24.634638   0.000000
   54       24.635245   0.000000
   55       25.665609   0.000000
   56       25.666337   0.000000
   57       26.393611   0.000000
   58       26.394363   0.000000
   59       26.873765   0.000000
   60       26.874170   0.000000
   61       28.818611   0.000000
   62       28.818801   0.000000
   63       30.131139   0.000000
   64       30.132136   0.000000
   65       30.554657   0.000000
   66       30.555662   0.000000
   67       31.003870   0.000000
   68       31.004385   0.000000
   69       31.150566   0.000000
   70       31.151704   0.000000
   71       31.177017   0.000000
   72       31.177616   0.000000
   73       32.876515   0.000000
   74       32.877125   0.000000
   75       32.975639   0.000000
   76       32.975933   0.000000
   77       33.992621   0.000000
   78       33.993250   0.000000
   79       34.713348   0.000000
   80       34.714104   0.000000
   81       35.049978   0.000000
   82       35.050245   0.000000
   83       35.505990   0.000000
   84       35.506617   0.000000
   85       38.359498   0.000000
   86       38.360255   0.000000
   87       38.390340   0.000000
   88       38.391443   0.000000
   89       39.012174   0.000000
   90       39.012634   0.000000
   91       39.556124   0.000000
   92       39.556305   0.000000
   93       39.810766   0.000000
   94       39.811100   0.000000
   95       40.935957   0.000000
   96       40.937041   0.000000
   97       41.683226   0.000000
   98       41.683881   0.000000
   99       41.957880   0.000000
  100       41.958356   0.000000
  101       42.702006   0.000000
  102       42.702514   0.000000
  103       43.595456   0.000000
  104       43.596101   0.000000
  105       43.767110   0.000000
  106       43.767963   0.000000
  107       44.744036   0.000000
  108       44.744398   0.000000
  109       45.254547   0.000000
  110       45.255051   0.000000
  111       45.350693   0.000000
  112       45.351761   0.000000
  113       45.822025   0.000000
  114       45.822334   0.000000
  115       48.408959   0.000000
  116       48.409461   0.000000
  117       49.846342   0.000000
  118       49.846661   0.000000
  119       50.114793   0.000000
  120       50.115172   0.000000
  121       50.626501   0.000000
  122       50.627187   0.000000
  123       50.699292   0.000000
  124       50.699377   0.000000
  125       50.973858   0.000000
  126       50.974550   0.000000
  127       51.264243   0.000000
  128       51.264449   0.000000
 
 -0.1666667E+00  0.4006644E-16  0.6938894E-17  0.4629630E-02
    1      -40.664289   1.000000
    2      -40.664266   1.000000
    3      -40.655513   1.000000
    4      -40.655469   1.000000
    5      -33.131880   1.000000
    6      -33.131868   1.000000
    7      -33.126192   1.000000
    8      -33.126174   1.000000
    9      -33.122007   1.000000
   10      -33.121983   1.000000
   11      -25.327164   1.000000
   12      -25.327139   1.000000
   13      -10.037590   1.000000
   14      -10.037517   1.000000
   15        0.577096   1.000000
   16        0.577298   1.000000
   17        2.062078   1.000000
   18        2.062387   1.000000
   19        4.877232   0.000000
   20        4.877342   0.000000
   21        9.868776   0.000000
   22        9.868830   0.000000
   23       11.180192   0.000000
   24       11.180320   0.000000
   25       11.311518   0.000000
   26       11.311544   0.000000
   27       12.463067   0.000000
   28       12.463177   0.000000
   29       12.739067   0.000000
   30       12.739282   0.000000
   31       12.872489   0.000000
   32       12.872623   0.000000
   33       14.204909   0.000000
   34       14.204977   0.000000
   35       16.493308   0.000000
   36       16.493542   0.000000
   37       16.755868   0.000000
   38       16.755906   0.000000
   39       18.138391   0.000000
   40       18.138504   0.000000
   41       19.404497   0.000000
   42       19.405524   0.000000
   43       19.547438   0.000000
   44       19.548266   0.000000
   45       19.988014   0.000000
   46       19.989568   0.000000
   47       21.034211   0.000000
   48       21.034617   0.000000
   49       24.304491   0.000000
   50       24.305067   0.000000
   51       24.970926   0.000000
   52       24.971736   0.000000
   53       25.314170   0.000000
   54       25.314769   0.000000
   55       26.455114   0.000000
   56       26.456601   0.000000
   57       27.043748   0.000000
   58       27.043820   0.000000
   59       27.895252   0.000000
   60       27.895794   0.000000
   61       29.354897   0.000000
   62       29.355806   0.000000
   63       29.450721   0.000000
   64       29.451928   0.000000
   65       29.970550   0.000000
   66       29.970930   0.000000
   67       30.061972   0.000000
   68       30.062820   0.000000
   69       31.967874   0.000000
   70       31.968692   0.000000
   71       34.326805   0.000000
   72       34.327982   0.000000
   73       34.601633   0.000000
   74       34.602230   0.000000
   75       35.569400   0.000000
   76       35.569654   0.000000
   77       35.612302   0.000000
   78       35.612838   0.000000
   79       35.864597   0.000000
   80       35.864835   0.000000
   81       37.258019   0.000000
   82       37.258420   0.000000
   83       38.085187   0.000000
   84       38.086140   0.000000
   85       38.375046   0.000000
   86       38.376285   0.000000
   87       38.505033   0.000000
   88       38.505347   0.000000
   89       38.506048   0.000000
   90       38.506374   0.000000
   91       39.374388   0.000000
   92       39.374867   0.000000
   93       39.477347   0.000000
   94       39.477600   0.000000
   95       40.334350   0.000000
   96       40.334650   0.000000
   97       40.529857   0.000000
   98       40.530693   0.000000
   99       41.510684   0.000000
  100       41.510976   0.000000
  101       42.044676   0.000000
  102       42.046048   0.000000
  103       42.109440   0.000000
  104       42.109787   0.000000
  105       42.911224   0.000000
  106       42.911836   0.000000
  107       43.444304   0.000000
  108       43.444958   0.000000
  109       43.651272   0.000000
  110       43.651849   0.000000
  111       43.764648   0.000000
  112       43.765757   0.000000
  113       45.240610   0.000000
  114       45.241081   0.000000
  115       45.954354   0.000000
  116       45.954753   0.000000
  117       46.281727   0.000000
  118       46.282119   0.000000
  119       47.221539   0.000000
  120       47.221800   0.000000
  121       48.123619   0.000000
  122       48.124132   0.000000
  123       48.151259   0.000000
  124       48.151720   0.000000
  125       48.912760   0.000000
  126       48.913216   0.000000
  127       50.089410   0.000000
  128       50.090211   0.000000
 
 -0.1925930E-33  0.1666667E+00  0.0000000E+00  0.4629630E-02
    1      -40.664291   1.000000
    2      -40.664275   1.000000
    3      -40.655492   1.000000
    4      -40.655485   1.000000
    5      -33.131882   1.000000
    6      -33.131873   1.000000
    7      -33.126198   1.000000
    8      -33.126185   1.000000
    9      -33.122015   1.000000
   10      -33.121998   1.000000
   11      -25.327160   1.000000
   12      -25.327143   1.000000
   13      -10.037596   1.000000
   14      -10.037511   1.000000
   15        0.577124   1.000000
   16        0.577268   1.000000
   17        2.062128   1.000000
   18        2.062337   1.000000
   19        4.877232   0.000000
   20        4.877344   0.000000
   21        9.868770   0.000000
   22        9.868833   0.000000
   23       11.180190   0.000000
   24       11.180322   0.000000
   25       11.311514   0.000000
   26       11.311549   0.000000
   27       12.463083   0.000000
   28       12.463160   0.000000
   29       12.739060   0.000000
   30       12.739290   0.000000
   31       12.872497   0.000000
   32       12.872610   0.000000
   33       14.204918   0.000000
   34       14.204965   0.000000
   35       16.493305   0.000000
   36       16.493542   0.000000
   37       16.755871   0.000000
   38       16.755904   0.000000
   39       18.138419   0.000000
   40       18.138478   0.000000
   41       19.404578   0.000000
   42       19.405442   0.000000
   43       19.547606   0.000000
   44       19.548100   0.000000
   45       19.988006   0.000000
   46       19.989576   0.000000
   47       21.034177   0.000000
   48       21.034661   0.000000
   49       24.304497   0.000000
   50       24.305049   0.000000
   51       24.971096   0.000000
   52       24.971573   0.000000
   53       25.314258   0.000000
   54       25.314681   0.000000
   55       26.455130   0.000000
   56       26.456596   0.000000
   57       27.043718   0.000000
   58       27.043822   0.000000
   59       27.895305   0.000000
   60       27.895749   0.000000
   61       29.354984   0.000000
   62       29.355709   0.000000
   63       29.450744   0.000000
   64       29.451904   0.000000
   65       29.970615   0.000000
   66       29.970871   0.000000
   67       30.061963   0.000000
   68       30.062823   0.000000
   69       31.967999   0.000000
   70       31.968567   0.000000
   71       34.326780   0.000000
   72       34.328010   0.000000
   73       34.601735   0.000000
   74       34.602129   0.000000
   75       35.569469   0.000000
   76       35.569590   0.000000
   77       35.612332   0.000000
   78       35.612806   0.000000
   79       35.864604   0.000000
   80       35.864825   0.000000
   81       37.258006   0.000000
   82       37.258445   0.000000
   83       38.085372   0.000000
   84       38.085948   0.000000
   85       38.375027   0.000000
   86       38.376305   0.000000
   87       38.505031   0.000000
   88       38.505273   0.000000
   89       38.506130   0.000000
   90       38.506370   0.000000
   91       39.374391   0.000000
   92       39.374862   0.000000
   93       39.477379   0.000000
   94       39.477579   0.000000
   95       40.334360   0.000000
   96       40.334641   0.000000
   97       40.529889   0.000000
   98       40.530661   0.000000
   99       41.510678   0.000000
  100       41.510974   0.000000
  101       42.044660   0.000000
  102       42.046066   0.000000
  103       42.109422   0.000000
  104       42.109803   0.000000
  105       42.911246   0.000000
  106       42.911821   0.000000
  107       43.444286   0.000000
  108       43.444979   0.000000
  109       43.651366   0.000000
  110       43.651744   0.000000
  111       43.764631   0.000000
  112       43.765783   0.000000
  113       45.240671   0.000000
  114       45.241019   0.000000
  115       45.954383   0.000000
  116       45.954728   0.000000
  117       46.281761   0.000000
  118       46.282090   0.000000
  119       47.221487   0.000000
  120       47.221849   0.000000
  121       48.123605   0.000000