 vasp.5.4.4.18Apr17-6-g9f103f2a35 (build Nov 03 2018 10:20:46) complex          
  
 executed on             LinuxIFC date 2018.12.06  20:07:07
 running on   56 total cores
 distrk:  each k-point on    4 cores,   14 groups
 distr:  one band on NCORES_PER_BAND=   1 cores,    4 groups


--------------------------------------------------------------------------------------------------------


 INCAR:
 POTCAR:    PAW Og, JanMewes Oct 18               

 ----------------------------------------------------------------------------- 
|                                                                             |
|           W    W    AA    RRRRR   N    N  II  N    N   GGGG   !!!           |
|           W    W   A  A   R    R  NN   N  II  NN   N  G    G  !!!           |
|           W    W  A    A  R    R  N N  N  II  N N  N  G       !!!           |
|           W WW W  AAAAAA  RRRRR   N  N N  II  N  N N  G  GGG   !            |
|           WW  WW  A    A  R   R   N   NN  II  N   NN  G    G                |
|           W    W  A    A  R    R  N    N  II  N    N   GGGG   !!!           |
|                                                                             |
|      For optimal performance we recommend to set                            |
|        NCORE= 4 - approx SQRT( number of cores)                             |
|      NCORE specifies how many cores store one orbital (NPAR=cpu/NCORE).     |
|      This setting can  greatly improve the performance of VASP for DFT.     |
|      The default,   NCORE=1            might be grossly inefficient         |
|      on modern multi-core architectures or massively parallel machines.     |
|      Do your own testing !!!!                                               |
|      Unfortunately you need to use the default for GW and RPA calculations. |
|      (for HF NCORE is supported but not extensively tested yet)             |
|                                                                             |
 ----------------------------------------------------------------------------- 


 ----------------------------------------------------------------------------- 
|                                                                             |
|           W    W    AA    RRRRR   N    N  II  N    N   GGGG   !!!           |
|           W    W   A  A   R    R  NN   N  II  NN   N  G    G  !!!           |
|           W    W  A    A  R    R  N N  N  II  N N  N  G       !!!           |
|           W WW W  AAAAAA  RRRRR   N  N N  II  N  N N  G  GGG   !            |
|           WW  WW  A    A  R   R   N   NN  II  N   NN  G    G                |
|           W    W  A    A  R    R  N    N  II  N    N   GGGG   !!!           |
|                                                                             |
|      You have enabled k-point parallelism (KPAR>1).                         |
|      This developmental code was originally  written by Paul Kent at ORNL,  |
|      and carefully double checked in Vienna.                                |
|      GW as well as linear response parallelism added by Martijn Marsman     |
|      and Georg Kresse.                                                      |
|      Carefully verify results versus KPAR=1.                                |
|      Report problems to Paul Kent and Vienna.                               |
|                                                                             |
 ----------------------------------------------------------------------------- 

 POTCAR:    PAW Og, JanMewes Oct 18               
  local pseudopotential read in
  partial core-charges read in
  partial kinetic energy density read in
  kinetic energy density of atom read in
  atomic valenz-charges read in
  non local Contribution for L=           2  read in
    real space projection operators read in
  non local Contribution for L=           2  read in
    real space projection operators read in
  non local Contribution for L=           0  read in
    real space projection operators read in
  non local Contribution for L=           0  read in
    real space projection operators read in
  non local Contribution for L=           1  read in
    real space projection operators read in
  non local Contribution for L=           1  read in
    real space projection operators read in
    PAW grid and wavefunctions read in
 
   number of l-projection  operators is LMAX  =           6
   number of lm-projection operators is LMMAX =          18
 
  PAW Og, JanMewes Oct 18               :
 energy of atom  1       EATOM=-2640.5573
 kinetic energy error for atom=    0.6524 (will be added to EATOM!!)
 
 
 POSCAR: Og_FCC                                  
  positions in direct lattice
  velocities in cartesian coordinates
 exchange correlation table for  LEXCH =        8
   RHO(1)=    0.500       N(1)  =     2000
   RHO(2)=  100.500       N(2)  =     4000
 


--------------------------------------------------------------------------------------------------------


 ion  position               nearest neighbor table
   1  0.000  0.000  0.000-
 

IMPORTANT INFORMATION: All symmetrisations will be switched off!
NOSYMM: (Re-)initialisation of all symmetry stuff for point group C_1.

 
 
 KPOINTS: k-points                                

Automatic generation of k-mesh.
Space group operators:
 irot       det(A)        alpha          n_x          n_y          n_z        tau_x        tau_y        tau_z
    1     1.000000     0.000000     1.000000     0.000000     0.000000     0.000000     0.000000     0.000000
 
 Subroutine IBZKPT returns following result:
 ===========================================
 
 Found    216 irreducible k-points:
 
 Following reciprocal coordinates:
            Coordinates               Weight
  0.000000  0.000000  0.000000      1.000000
  0.166667 -0.000000 -0.000000      1.000000
  0.333333 -0.000000  0.000000      1.000000
  0.500000 -0.000000  0.000000      1.000000
 -0.333333  0.000000 -0.000000      1.000000
 -0.166667  0.000000  0.000000      1.000000
 -0.000000  0.166667  0.000000      1.000000
  0.166667  0.166667  0.000000      1.000000
  0.333333  0.166667  0.000000      1.000000
  0.500000  0.166667  0.000000      1.000000
 -0.333333  0.166667 -0.000000      1.000000
 -0.166667  0.166667 -0.000000      1.000000
 -0.000000  0.333333 -0.000000      1.000000
  0.166667  0.333333 -0.000000      1.000000
  0.333333  0.333333  0.000000      1.000000
  0.500000  0.333333 -0.000000      1.000000
 -0.333333  0.333333 -0.000000      1.000000
 -0.166667  0.333333 -0.000000      1.000000
  0.000000  0.500000 -0.000000      1.000000
  0.166667  0.500000 -0.000000      1.000000
  0.333333  0.500000  0.000000      1.000000
  0.500000  0.500000  0.000000      1.000000
 -0.333333  0.500000 -0.000000      1.000000
 -0.166667  0.500000 -0.000000      1.000000
  0.000000 -0.333333  0.000000      1.000000
  0.166667 -0.333333  0.000000      1.000000
  0.333333 -0.333333  0.000000      1.000000
  0.500000 -0.333333  0.000000      1.000000
 -0.333333 -0.333333 -0.000000      1.000000
 -0.166667 -0.333333  0.000000      1.000000
  0.000000 -0.166667  0.000000      1.000000
  0.166667 -0.166667  0.000000      1.000000
  0.333333 -0.166667  0.000000      1.000000
  0.500000 -0.166667  0.000000      1.000000
 -0.333333 -0.166667  0.000000      1.000000
 -0.166667 -0.166667  0.000000      1.000000
  0.000000  0.000000  0.166667      1.000000
  0.166667 -0.000000  0.166667      1.000000
  0.333333 -0.000000  0.166667      1.000000
  0.500000 -0.000000  0.166667      1.000000
 -0.333333  0.000000  0.166667      1.000000
 -0.166667  0.000000  0.166667      1.000000
 -0.000000  0.166667  0.166667      1.000000
  0.166667  0.166667  0.166667      1.000000
  0.333333  0.166667  0.166667      1.000000
  0.500000  0.166667  0.166667      1.000000
 -0.333333  0.166667  0.166667      1.000000
 -0.166667  0.166667  0.166667      1.000000
  0.000000  0.333333  0.166667      1.000000
  0.166667  0.333333  0.166667      1.000000
  0.333333  0.333333  0.166667      1.000000
  0.500000  0.333333  0.166667      1.000000
 -0.333333  0.333333  0.166667      1.000000
 -0.166667  0.333333  0.166667      1.000000
  0.000000  0.500000  0.166667      1.000000
  0.166667  0.500000  0.166667      1.000000
  0.333333  0.500000  0.166667      1.000000
  0.500000  0.500000  0.166667      1.000000
 -0.333333  0.500000  0.166667      1.000000
 -0.166667  0.500000  0.166667      1.000000
  0.000000 -0.333333  0.166667      1.000000
  0.166667 -0.333333  0.166667      1.000000
  0.333333 -0.333333  0.166667      1.000000
  0.500000 -0.333333  0.166667      1.000000
 -0.333333 -0.333333  0.166667      1.000000
 -0.166667 -0.333333  0.166667      1.000000
  0.000000 -0.166667  0.166667      1.000000
  0.166667 -0.166667  0.166667      1.000000
  0.333333 -0.166667  0.166667      1.000000
  0.500000 -0.166667  0.166667      1.000000
 -0.333333 -0.166667  0.166667      1.000000
 -0.166667 -0.166667  0.166667      1.000000
  0.000000  0.000000  0.333333      1.000000
  0.166667 -0.000000  0.333333      1.000000
  0.333333 -0.000000  0.333333      1.000000
  0.500000 -0.000000  0.333333      1.000000
 -0.333333  0.000000  0.333333      1.000000
 -0.166667  0.000000  0.333333      1.000000
 -0.000000  0.166667  0.333333      1.000000
  0.166667  0.166667  0.333333      1.000000
  0.333333  0.166667  0.333333      1.000000
  0.500000  0.166667  0.333333      1.000000
 -0.333333  0.166667  0.333333      1.000000
 -0.166667  0.166667  0.333333      1.000000
  0.000000  0.333333  0.333333      1.000000
  0.166667  0.333333  0.333333      1.000000
  0.333333  0.333333  0.333333      1.000000
  0.500000  0.333333  0.333333      1.000000
 -0.333333  0.333333  0.333333      1.000000
 -0.166667  0.333333  0.333333      1.000000
  0.000000  0.500000  0.333333      1.000000
  0.166667  0.500000  0.333333      1.000000
  0.333333  0.500000  0.333333      1.000000
  0.500000  0.500000  0.333333      1.000000
 -0.333333  0.500000  0.333333      1.000000
 -0.166667  0.500000  0.333333      1.000000
 -0.000000 -0.333333  0.333333      1.000000
  0.166667 -0.333333  0.333333      1.000000
  0.333333 -0.333333  0.333333      1.000000
  0.500000 -0.333333  0.333333      1.000000
 -0.333333 -0.333333  0.333333      1.000000
 -0.166667 -0.333333  0.333333      1.000000
  0.000000 -0.166667  0.333333      1.000000
  0.166667 -0.166667  0.333333      1.000000
  0.333333 -0.166667  0.333333      1.000000
  0.500000 -0.166667  0.333333      1.000000
 -0.333333 -0.166667  0.333333      1.000000
 -0.166667 -0.166667  0.333333      1.000000
  0.000000  0.000000  0.500000      1.000000
  0.166667  0.000000  0.500000      1.000000
  0.333333 -0.000000  0.500000      1.000000
  0.500000 -0.000000  0.500000      1.000000
 -0.333333  0.000000  0.500000      1.000000
 -0.166667  0.000000  0.500000      1.000000
 -0.000000  0.166667  0.500000      1.000000
  0.166667  0.166667  0.500000      1.000000
  0.333333  0.166667  0.500000      1.000000
  0.500000  0.166667  0.500000      1.000000
 -0.333333  0.166667  0.500000      1.000000
 -0.166667  0.166667  0.500000      1.000000
  0.000000  0.333333  0.500000      1.000000
  0.166667  0.333333  0.500000      1.000000
  0.333333  0.333333  0.500000      1.000000
  0.500000  0.333333  0.500000      1.000000
 -0.333333  0.333333  0.500000      1.000000
 -0.166667  0.333333  0.500000      1.000000
  0.000000  0.500000  0.500000      1.000000
  0.166667  0.500000  0.500000      1.000000
  0.333333  0.500000  0.500000      1.000000
  0.500000  0.500000  0.500000      1.000000
 -0.333333  0.500000  0.500000      1.000000
 -0.166667  0.500000  0.500000      1.000000
  0.000000 -0.333333  0.500000      1.000000
  0.166667 -0.333333  0.500000      1.000000
  0.333333 -0.333333  0.500000      1.000000
  0.500000 -0.333333  0.500000      1.000000
 -0.333333 -0.333333  0.500000      1.000000
 -0.166667 -0.333333  0.500000      1.000000
  0.000000 -0.166667  0.500000      1.000000
  0.166667 -0.166667  0.500000      1.000000
  0.333333 -0.166667  0.500000      1.000000
  0.500000 -0.166667  0.500000      1.000000
 -0.333333 -0.166667  0.500000      1.000000
 -0.166667 -0.166667  0.500000      1.000000
  0.000000 -0.000000 -0.333333      1.000000
  0.166667 -0.000000 -0.333333      1.000000
  0.333333 -0.000000 -0.333333      1.000000
  0.500000 -0.000000 -0.333333      1.000000
 -0.333333  0.000000 -0.333333      1.000000
 -0.166667  0.000000 -0.333333      1.000000
 -0.000000  0.166667 -0.333333      1.000000
  0.166667  0.166667 -0.333333      1.000000
  0.333333  0.166667 -0.333333      1.000000
  0.500000  0.166667 -0.333333      1.000000
 -0.333333  0.166667 -0.333333      1.000000
 -0.166667  0.166667 -0.333333      1.000000
  0.000000  0.333333 -0.333333      1.000000
  0.166667  0.333333 -0.333333      1.000000
  0.333333  0.333333 -0.333333      1.000000
  0.500000  0.333333 -0.333333      1.000000
 -0.333333  0.333333 -0.333333      1.000000
 -0.166667  0.333333 -0.333333      1.000000
  0.000000  0.500000 -0.333333      1.000000
  0.166667  0.500000 -0.333333      1.000000
  0.333333  0.500000 -0.333333      1.000000
  0.500000  0.500000 -0.333333      1.000000
 -0.333333  0.500000 -0.333333      1.000000
 -0.166667  0.500000 -0.333333      1.000000
  0.000000 -0.333333 -0.333333      1.000000
  0.166667 -0.333333 -0.333333      1.000000
  0.333333 -0.333333 -0.333333      1.000000
  0.500000 -0.333333 -0.333333      1.000000
 -0.333333 -0.333333 -0.333333      1.000000
 -0.166667 -0.333333 -0.333333      1.000000
  0.000000 -0.166667 -0.333333      1.000000
  0.166667 -0.166667 -0.333333      1.000000
  0.333333 -0.166667 -0.333333      1.000000
  0.500000 -0.166667 -0.333333      1.000000
 -0.333333 -0.166667 -0.333333      1.000000
 -0.166667 -0.166667 -0.333333      1.000000
  0.000000 -0.000000 -0.166667      1.000000
  0.166667 -0.000000 -0.166667      1.000000
  0.333333 -0.000000 -0.166667      1.000000
  0.500000 -0.000000 -0.166667      1.000000
 -0.333333  0.000000 -0.166667      1.000000
 -0.166667  0.000000 -0.166667      1.000000
  0.000000  0.166667 -0.166667      1.000000
  0.166667  0.166667 -0.166667      1.000000
  0.333333  0.166667 -0.166667      1.000000
  0.500000  0.166667 -0.166667      1.000000
 -0.333333  0.166667 -0.166667      1.000000
 -0.166667  0.166667 -0.166667      1.000000
  0.000000  0.333333 -0.166667      1.000000
  0.166667  0.333333 -0.166667      1.000000
  0.333333  0.333333 -0.166667      1.000000
  0.500000  0.333333 -0.166667      1.000000
 -0.333333  0.333333 -0.166667      1.000000
 -0.166667  0.333333 -0.166667      1.000000
  0.000000  0.500000 -0.166667      1.000000
  0.166667  0.500000 -0.166667      1.000000
  0.333333  0.500000 -0.166667      1.000000
  0.500000  0.500000 -0.166667      1.000000
 -0.333333  0.500000 -0.166667      1.000000
 -0.166667  0.500000 -0.166667      1.000000
 -0.000000 -0.333333 -0.166667      1.000000
  0.166667 -0.333333 -0.166667      1.000000
  0.333333 -0.333333 -0.166667      1.000000
  0.500000 -0.333333 -0.166667      1.000000
 -0.333333 -0.333333 -0.166667      1.000000
 -0.166667 -0.333333 -0.166667      1.000000
  0.000000 -0.166667 -0.166667      1.000000
  0.166667 -0.166667 -0.166667      1.000000
  0.333333 -0.166667 -0.166667      1.000000
  0.500000 -0.166667 -0.166667      1.000000
 -0.333333 -0.166667 -0.166667      1.000000
 -0.166667 -0.166667 -0.166667      1.000000
 
 Following cartesian coordinates:
            Coordinates               Weight
  0.000000  0.000000  0.000000      1.000000
  0.038382 -0.022160 -0.015669      1.000000
  0.076763 -0.044319 -0.031339      1.000000
  0.115145 -0.066479 -0.047008      1.000000
 -0.076763  0.044319  0.031339      1.000000
 -0.038382  0.022160  0.015669      1.000000
  0.000000  0.044319 -0.015669      1.000000
  0.038382  0.022160 -0.031339      1.000000
  0.076763  0.000000 -0.047008      1.000000
  0.115145 -0.022160 -0.062677      1.000000
 -0.076763  0.088639  0.015669      1.000000
 -0.038382  0.066479  0.000000      1.000000
  0.000000  0.088639 -0.031339      1.000000
  0.038382  0.066479 -0.047008      1.000000
  0.076763  0.044319 -0.062677      1.000000
  0.115145  0.022160 -0.078346      1.000000
 -0.076763  0.132958  0.000000      1.000000
 -0.038382  0.110798 -0.015669      1.000000
  0.000000  0.132958 -0.047008      1.000000
  0.038382  0.110798 -0.062677      1.000000
  0.076763  0.088639 -0.078346      1.000000
  0.115145  0.066479 -0.094016      1.000000
 -0.076763  0.177278 -0.015669      1.000000
 -0.038382  0.155118 -0.031339      1.000000
 -0.000000 -0.088639  0.031339      1.000000
  0.038382 -0.110798  0.015669      1.000000
  0.076763 -0.132958 -0.000000      1.000000
  0.115145 -0.155118 -0.015669      1.000000
 -0.076763 -0.044319  0.062677      1.000000
 -0.038382 -0.066479  0.047008      1.000000
 -0.000000 -0.044319  0.015669      1.000000
  0.038382 -0.066479 -0.000000      1.000000
  0.076763 -0.088639 -0.015669      1.000000
  0.115145 -0.110798 -0.031339      1.000000
 -0.076763 -0.000000  0.047008      1.000000
 -0.038382 -0.022160  0.031339      1.000000
 -0.000000  0.000000  0.047008      1.000000
  0.038382 -0.022160  0.031339      1.000000
  0.076763 -0.044319  0.015669      1.000000
  0.115145 -0.066479  0.000000      1.000000
 -0.076763  0.044319  0.078346      1.000000
 -0.038382  0.022160  0.062677      1.000000
 -0.000000  0.044319  0.031339      1.000000
  0.038382  0.022160  0.015669      1.000000
  0.076763  0.000000  0.000000      1.000000
  0.115145 -0.022160 -0.015669      1.000000
 -0.076763  0.088639  0.062677      1.000000
 -0.038382  0.066479  0.047008      1.000000
 -0.000000  0.088639  0.015669      1.000000
  0.038382  0.066479  0.000000      1.000000
  0.076763  0.044319 -0.015669      1.000000
  0.115145  0.022160 -0.031339      1.000000
 -0.076763  0.132958  0.047008      1.000000
 -0.038382  0.110798  0.031339      1.000000
 -0.000000  0.132958  0.000000      1.000000
  0.038382  0.110798 -0.015669      1.000000
  0.076763  0.088639 -0.031339      1.000000
  0.115145  0.066479 -0.047008      1.000000
 -0.076763  0.177278  0.031339      1.000000
 -0.038382  0.155118  0.015669      1.000000
 -0.000000 -0.088639  0.078346      1.000000
  0.038382 -0.110798  0.062677      1.000000
  0.076763 -0.132958  0.047008      1.000000
  0.115145 -0.155118  0.031339      1.000000
 -0.076763 -0.044319  0.109685      1.000000
 -0.038382 -0.066479  0.094016      1.000000
 -0.000000 -0.044319  0.062677      1.000000
  0.038382 -0.066479  0.047008      1.000000
  0.076763 -0.088639  0.031339      1.000000
  0.115145 -0.110798  0.015669      1.000000
 -0.076763 -0.000000  0.094016      1.000000
 -0.038382 -0.022160  0.078346      1.000000
 -0.000000  0.000000  0.094016      1.000000
  0.038382 -0.022160  0.078346      1.000000
  0.076763 -0.044319  0.062677      1.000000
  0.115145 -0.066479  0.047008      1.000000
 -0.076763  0.044319  0.125354      1.000000
 -0.038382  0.022160  0.109685      1.000000
 -0.000000  0.044319  0.078346      1.000000
  0.038382  0.022160  0.062677      1.000000
  0.076763  0.000000  0.047008      1.000000
  0.115145 -0.022160  0.031339      1.000000
 -0.076763  0.088639  0.109685      1.000000
 -0.038382  0.066479  0.094016      1.000000
 -0.000000  0.088639  0.062677      1.000000
  0.038382  0.066479  0.047008      1.000000
  0.076763  0.044319  0.031339      1.000000
  0.115145  0.022160  0.015669      1.000000
 -0.076763  0.132958  0.094016      1.000000
 -0.038382  0.110798  0.078346      1.000000
 -0.000000  0.132958  0.047008      1.000000
  0.038382  0.110798  0.031339      1.000000
  0.076763  0.088639  0.015669      1.000000
  0.115145  0.066479 -0.000000      1.000000
 -0.076763  0.177278  0.078346      1.000000
 -0.038382  0.155118  0.062677      1.000000
 -0.000000 -0.088639  0.125354      1.000000
  0.038382 -0.110798  0.109685      1.000000
  0.076763 -0.132958  0.094016      1.000000
  0.115145 -0.155118  0.078346      1.000000
 -0.076763 -0.044319  0.156693      1.000000
 -0.038382 -0.066479  0.141023      1.000000
 -0.000000 -0.044319  0.109685      1.000000
  0.038382 -0.066479  0.094016      1.000000
  0.076763 -0.088639  0.078346      1.000000
  0.115145 -0.110798  0.062677      1.000000
 -0.076763 -0.000000  0.141023      1.000000
 -0.038382 -0.022160  0.125354      1.000000
 -0.000000  0.000000  0.141023      1.000000
  0.038382 -0.022160  0.125354      1.000000
  0.076763 -0.044319  0.109685      1.000000
  0.115145 -0.066479  0.094016      1.000000
 -0.076763  0.044319  0.172362      1.000000
 -0.038382  0.022160  0.156693      1.000000
 -0.000000  0.044319  0.125354      1.000000
  0.038382  0.022160  0.109685      1.000000
  0.076763  0.000000  0.094016      1.000000
  0.115145 -0.022160  0.078346      1.000000
 -0.076763  0.088639  0.156693      1.000000
 -0.038382  0.066479  0.141023      1.000000
 -0.000000  0.088639  0.109685      1.000000
  0.038382  0.066479  0.094016      1.000000
  0.076763  0.044319  0.078346      1.000000
  0.115145  0.022160  0.062677      1.000000
 -0.076763  0.132958  0.141023      1.000000
 -0.038382  0.110798  0.125354      1.000000
 -0.000000  0.132958  0.094016      1.000000
  0.038382  0.110798  0.078346      1.000000
  0.076763  0.088639  0.062677      1.000000
  0.115145  0.066479  0.047008      1.000000
 -0.076763  0.177278  0.125354      1.000000
 -0.038382  0.155118  0.109685      1.000000
 -0.000000 -0.088639  0.172362      1.000000
  0.038382 -0.110798  0.156693      1.000000
  0.076763 -0.132958  0.141023      1.000000
  0.115145 -0.155118  0.125354      1.000000
 -0.076763 -0.044319  0.203700      1.000000
 -0.038382 -0.066479  0.188031      1.000000
 -0.000000 -0.044319  0.156693      1.000000
  0.038382 -0.066479  0.141023      1.000000
  0.076763 -0.088639  0.125354      1.000000
  0.115145 -0.110798  0.109685      1.000000
 -0.076763 -0.000000  0.188031      1.000000
 -0.038382 -0.022160  0.172362      1.000000
  0.000000 -0.000000 -0.094016      1.000000
  0.038382 -0.022160 -0.109685      1.000000
  0.076763 -0.044319 -0.125354      1.000000
  0.115145 -0.066479 -0.141023      1.000000
 -0.076763  0.044319 -0.062677      1.000000
 -0.038382  0.022160 -0.078346      1.000000
  0.000000  0.044319 -0.109685      1.000000
  0.038382  0.022160 -0.125354      1.000000
  0.076763  0.000000 -0.141023      1.000000
  0.115145 -0.022160 -0.156693      1.000000
 -0.076763  0.088639 -0.078346      1.000000
 -0.038382  0.066479 -0.094016      1.000000
  0.000000  0.088639 -0.125354      1.000000
  0.038382  0.066479 -0.141023      1.000000
  0.076763  0.044319 -0.156693      1.000000
  0.115145  0.022160 -0.172362      1.000000
 -0.076763  0.132958 -0.094016      1.000000
 -0.038382  0.110798 -0.109685      1.000000
  0.000000  0.132958 -0.141023      1.000000
  0.038382  0.110798 -0.156693      1.000000
  0.076763  0.088639 -0.172362      1.000000
  0.115145  0.066479 -0.188031      1.000000
 -0.076763  0.177278 -0.109685      1.000000
 -0.038382  0.155118 -0.125354      1.000000
  0.000000 -0.088639 -0.062677      1.000000
  0.038382 -0.110798 -0.078346      1.000000
  0.076763 -0.132958 -0.094016      1.000000
  0.115145 -0.155118 -0.109685      1.000000
 -0.076763 -0.044319 -0.031339      1.000000
 -0.038382 -0.066479 -0.047008      1.000000
  0.000000 -0.044319 -0.078346      1.000000
  0.038382 -0.066479 -0.094016      1.000000
  0.076763 -0.088639 -0.109685      1.000000
  0.115145 -0.110798 -0.125354      1.000000
 -0.076763 -0.000000 -0.047008      1.000000
 -0.038382 -0.022160 -0.062677      1.000000
  0.000000 -0.000000 -0.047008      1.000000
  0.038382 -0.022160 -0.062677      1.000000
  0.076763 -0.044319 -0.078346      1.000000
  0.115145 -0.066479 -0.094016      1.000000
 -0.076763  0.044319 -0.015669      1.000000
 -0.038382  0.022160 -0.031339      1.000000
  0.000000  0.044319 -0.062677      1.000000
  0.038382  0.022160 -0.078346      1.000000
  0.076763  0.000000 -0.094016      1.000000
  0.115145 -0.022160 -0.109685      1.000000
 -0.076763  0.088639 -0.031339      1.000000
 -0.038382  0.066479 -0.047008      1.000000
  0.000000  0.088639 -0.078346      1.000000
  0.038382  0.066479 -0.094016      1.000000
  0.076763  0.044319 -0.109685      1.000000
  0.115145  0.022160 -0.125354      1.000000
 -0.076763  0.132958 -0.047008      1.000000
 -0.038382  0.110798 -0.062677      1.000000
  0.000000  0.132958 -0.094016      1.000000
  0.038382  0.110798 -0.109685      1.000000
  0.076763  0.088639 -0.125354      1.000000
  0.115145  0.066479 -0.141023      1.000000
 -0.076763  0.177278 -0.062677      1.000000
 -0.038382  0.155118 -0.078346      1.000000
  0.000000 -0.088639 -0.015669      1.000000
  0.038382 -0.110798 -0.031339      1.000000
  0.076763 -0.132958 -0.047008      1.000000
  0.115145 -0.155118 -0.062677      1.000000
 -0.076763 -0.044319  0.015669      1.000000
 -0.038382 -0.066479 -0.000000      1.000000
  0.000000 -0.044319 -0.031339      1.000000
  0.038382 -0.066479 -0.047008      1.000000
  0.076763 -0.088639 -0.062677      1.000000
  0.115145 -0.110798 -0.078346      1.000000
 -0.076763 -0.000000 -0.000000      1.000000
 -0.038382 -0.022160 -0.015669      1.000000
 
 
 Subroutine IBZKPT_HF returns following result:
 ==============================================
 
 Found    216 k-points in 1st BZ
 the following    216 k-points will be used (e.g. in the exchange kernel)
 Following reciprocal coordinates:   # in IRBZ
  0.000000  0.000000  0.000000    0.00462963   1 t-inv F
  0.166667 -0.000000 -0.000000    0.00462963   2 t-inv F
  0.333333 -0.000000  0.000000    0.00462963   3 t-inv F
  0.500000 -0.000000  0.000000    0.00462963   4 t-inv F
 -0.333333  0.000000 -0.000000    0.00462963   5 t-inv F
 -0.166667  0.000000  0.000000    0.00462963   6 t-inv F
 -0.000000  0.166667  0.000000    0.00462963   7 t-inv F
  0.166667  0.166667  0.000000    0.00462963   8 t-inv F
  0.333333  0.166667  0.000000    0.00462963   9 t-inv F
  0.500000  0.166667  0.000000    0.00462963  10 t-inv F
 -0.333333  0.166667 -0.000000    0.00462963  11 t-inv F
 -0.166667  0.166667 -0.000000    0.00462963  12 t-inv F
 -0.000000  0.333333 -0.000000    0.00462963  13 t-inv F
  0.166667  0.333333 -0.000000    0.00462963  14 t-inv F
  0.333333  0.333333  0.000000    0.00462963  15 t-inv F
  0.500000  0.333333 -0.000000    0.00462963  16 t-inv F
 -0.333333  0.333333 -0.000000    0.00462963  17 t-inv F
 -0.166667  0.333333 -0.000000    0.00462963  18 t-inv F
  0.000000  0.500000 -0.000000    0.00462963  19 t-inv F
  0.166667  0.500000 -0.000000    0.00462963  20 t-inv F
  0.333333  0.500000  0.000000    0.00462963  21 t-inv F
  0.500000  0.500000  0.000000    0.00462963  22 t-inv F
 -0.333333  0.500000 -0.000000    0.00462963  23 t-inv F
 -0.166667  0.500000 -0.000000    0.00462963  24 t-inv F
  0.000000 -0.333333  0.000000    0.00462963  25 t-inv F
  0.166667 -0.333333  0.000000    0.00462963  26 t-inv F
  0.333333 -0.333333  0.000000    0.00462963  27 t-inv F
  0.500000 -0.333333  0.000000    0.00462963  28 t-inv F
 -0.333333 -0.333333 -0.000000    0.00462963  29 t-inv F
 -0.166667 -0.333333  0.000000    0.00462963  30 t-inv F
  0.000000 -0.166667  0.000000    0.00462963  31 t-inv F
  0.166667 -0.166667  0.000000    0.00462963  32 t-inv F
  0.333333 -0.166667  0.000000    0.00462963  33 t-inv F
  0.500000 -0.166667  0.000000    0.00462963  34 t-inv F
 -0.333333 -0.166667  0.000000    0.00462963  35 t-inv F
 -0.166667 -0.166667  0.000000    0.00462963  36 t-inv F
  0.000000  0.000000  0.166667    0.00462963  37 t-inv F
  0.166667 -0.000000  0.166667    0.00462963  38 t-inv F
  0.333333 -0.000000  0.166667    0.00462963  39 t-inv F
  0.500000 -0.000000  0.166667    0.00462963  40 t-inv F
 -0.333333  0.000000  0.166667    0.00462963  41 t-inv F
 -0.166667  0.000000  0.166667    0.00462963  42 t-inv F
 -0.000000  0.166667  0.166667    0.00462963  43 t-inv F
  0.166667  0.166667  0.166667    0.00462963  44 t-inv F
  0.333333  0.166667  0.166667    0.00462963  45 t-inv F
  0.500000  0.166667  0.166667    0.00462963  46 t-inv F
 -0.333333  0.166667  0.166667    0.00462963  47 t-inv F
 -0.166667  0.166667  0.166667    0.00462963  48 t-inv F
  0.000000  0.333333  0.166667    0.00462963  49 t-inv F
  0.166667  0.333333  0.166667    0.00462963  50 t-inv F
  0.333333  0.333333  0.166667    0.00462963  51 t-inv F
  0.500000  0.333333  0.166667    0.00462963  52 t-inv F
 -0.333333  0.333333  0.166667    0.00462963  53 t-inv F
 -0.166667  0.333333  0.166667    0.00462963  54 t-inv F
  0.000000  0.500000  0.166667    0.00462963  55 t-inv F
  0.166667  0.500000  0.166667    0.00462963  56 t-inv F
  0.333333  0.500000  0.166667    0.00462963  57 t-inv F
  0.500000  0.500000  0.166667    0.00462963  58 t-inv F
 -0.333333  0.500000  0.166667    0.00462963  59 t-inv F
 -0.166667  0.500000  0.166667    0.00462963  60 t-inv F
  0.000000 -0.333333  0.166667    0.00462963  61 t-inv F
  0.166667 -0.333333  0.166667    0.00462963  62 t-inv F
  0.333333 -0.333333  0.166667    0.00462963  63 t-inv F
  0.500000 -0.333333  0.166667    0.00462963  64 t-inv F
 -0.333333 -0.333333  0.166667    0.00462963  65 t-inv F
 -0.166667 -0.333333  0.166667    0.00462963  66 t-inv F
  0.000000 -0.166667  0.166667    0.00462963  67 t-inv F
  0.166667 -0.166667  0.166667    0.00462963  68 t-inv F
  0.333333 -0.166667  0.166667    0.00462963  69 t-inv F
  0.500000 -0.166667  0.166667    0.00462963  70 t-inv F
 -0.333333 -0.166667  0.166667    0.00462963  71 t-inv F
 -0.166667 -0.166667  0.166667    0.00462963  72 t-inv F
  0.000000  0.000000  0.333333    0.00462963  73 t-inv F
  0.166667 -0.000000  0.333333    0.00462963  74 t-inv F
  0.333333 -0.000000  0.333333    0.00462963  75 t-inv F
  0.500000 -0.000000  0.333333    0.00462963  76 t-inv F
 -0.333333  0.000000  0.333333    0.00462963  77 t-inv F
 -0.166667  0.000000  0.333333    0.00462963  78 t-inv F
 -0.000000  0.166667  0.333333    0.00462963  79 t-inv F
  0.166667  0.166667  0.333333    0.00462963  80 t-inv F
  0.333333  0.166667  0.333333    0.00462963  81 t-inv F
  0.500000  0.166667  0.333333    0.00462963  82 t-inv F
 -0.333333  0.166667  0.333333    0.00462963  83 t-inv F
 -0.166667  0.166667  0.333333    0.00462963  84 t-inv F
  0.000000  0.333333  0.333333    0.00462963  85 t-inv F
  0.166667  0.333333  0.333333    0.00462963  86 t-inv F
  0.333333  0.333333  0.333333    0.00462963  87 t-inv F
  0.500000  0.333333  0.333333    0.00462963  88 t-inv F
 -0.333333  0.333333  0.333333    0.00462963  89 t-inv F
 -0.166667  0.333333  0.333333    0.00462963  90 t-inv F
  0.000000  0.500000  0.333333    0.00462963  91 t-inv F
  0.166667  0.500000  0.333333    0.00462963  92 t-inv F
  0.333333  0.500000  0.333333    0.00462963  93 t-inv F
  0.500000  0.500000  0.333333    0.00462963  94 t-inv F
 -0.333333  0.500000  0.333333    0.00462963  95 t-inv F
 -0.166667  0.500000  0.333333    0.00462963  96 t-inv F
 -0.000000 -0.333333  0.333333    0.00462963  97 t-inv F
  0.166667 -0.333333  0.333333    0.00462963  98 t-inv F
  0.333333 -0.333333  0.333333    0.00462963  99 t-inv F
  0.500000 -0.333333  0.333333    0.00462963 100 t-inv F
 -0.333333 -0.333333  0.333333    0.00462963 101 t-inv F
 -0.166667 -0.333333  0.333333    0.00462963 102 t-inv F
  0.000000 -0.166667  0.333333    0.00462963 103 t-inv F
  0.166667 -0.166667  0.333333    0.00462963 104 t-inv F
  0.333333 -0.166667  0.333333    0.00462963 105 t-inv F
  0.500000 -0.166667  0.333333    0.00462963 106 t-inv F
 -0.333333 -0.166667  0.333333    0.00462963 107 t-inv F
 -0.166667 -0.166667  0.333333    0.00462963 108 t-inv F
  0.000000  0.000000  0.500000    0.00462963 109 t-inv F
  0.166667  0.000000  0.500000    0.00462963 110 t-inv F
  0.333333 -0.000000  0.500000    0.00462963 111 t-inv F
  0.500000 -0.000000  0.500000    0.00462963 112 t-inv F
 -0.333333  0.000000  0.500000    0.00462963 113 t-inv F
 -0.166667  0.000000  0.500000    0.00462963 114 t-inv F
 -0.000000  0.166667  0.500000    0.00462963 115 t-inv F
  0.166667  0.166667  0.500000    0.00462963 116 t-inv F
  0.333333  0.166667  0.500000    0.00462963 117 t-inv F
  0.500000  0.166667  0.500000    0.00462963 118 t-inv F
 -0.333333  0.166667  0.500000    0.00462963 119 t-inv F
 -0.166667  0.166667  0.500000    0.00462963 120 t-inv F
  0.000000  0.333333  0.500000    0.00462963 121 t-inv F
  0.166667  0.333333  0.500000    0.00462963 122 t-inv F
  0.333333  0.333333  0.500000    0.00462963 123 t-inv F
  0.500000  0.333333  0.500000    0.00462963 124 t-inv F
 -0.333333  0.333333  0.500000    0.00462963 125 t-inv F
 -0.166667  0.333333  0.500000    0.00462963 126 t-inv F
  0.000000  0.500000  0.500000    0.00462963 127 t-inv F
  0.166667  0.500000  0.500000    0.00462963 128 t-inv F
  0.333333  0.500000  0.500000    0.00462963 129 t-inv F
  0.500000  0.500000  0.500000    0.00462963 130 t-inv F
 -0.333333  0.500000  0.500000    0.00462963 131 t-inv F
 -0.166667  0.500000  0.500000    0.00462963 132 t-inv F
  0.000000 -0.333333  0.500000    0.00462963 133 t-inv F
  0.166667 -0.333333  0.500000    0.00462963 134 t-inv F
  0.333333 -0.333333  0.500000    0.00462963 135 t-inv F
  0.500000 -0.333333  0.500000    0.00462963 136 t-inv F
 -0.333333 -0.333333  0.500000    0.00462963 137 t-inv F
 -0.166667 -0.333333  0.500000    0.00462963 138 t-inv F
  0.000000 -0.166667  0.500000    0.00462963 139 t-inv F
  0.166667 -0.166667  0.500000    0.00462963 140 t-inv F
  0.333333 -0.166667  0.500000    0.00462963 141 t-inv F
  0.500000 -0.166667  0.500000    0.00462963 142 t-inv F
 -0.333333 -0.166667  0.500000    0.00462963 143 t-inv F
 -0.166667 -0.166667  0.500000    0.00462963 144 t-inv F
  0.000000 -0.000000 -0.333333    0.00462963 145 t-inv F
  0.166667 -0.000000 -0.333333    0.00462963 146 t-inv F
  0.333333 -0.000000 -0.333333    0.00462963 147 t-inv F
  0.500000 -0.000000 -0.333333    0.00462963 148 t-inv F
 -0.333333  0.000000 -0.333333    0.00462963 149 t-inv F
 -0.166667  0.000000 -0.333333    0.00462963 150 t-inv F
 -0.000000  0.166667 -0.333333    0.00462963 151 t-inv F
  0.166667  0.166667 -0.333333    0.00462963 152 t-inv F
  0.333333  0.166667 -0.333333    0.00462963 153 t-inv F
  0.500000  0.166667 -0.333333    0.00462963 154 t-inv F
 -0.333333  0.166667 -0.333333    0.00462963 155 t-inv F
 -0.166667  0.166667 -0.333333    0.00462963 156 t-inv F
  0.000000  0.333333 -0.333333    0.00462963 157 t-inv F
  0.166667  0.333333 -0.333333    0.00462963 158 t-inv F
  0.333333  0.333333 -0.333333    0.00462963 159 t-inv F
  0.500000  0.333333 -0.333333    0.00462963 160 t-inv F
 -0.333333  0.333333 -0.333333    0.00462963 161 t-inv F
 -0.166667  0.333333 -0.333333    0.00462963 162 t-inv F
  0.000000  0.500000 -0.333333    0.00462963 163 t-inv F
  0.166667  0.500000 -0.333333    0.00462963 164 t-inv F
  0.333333  0.500000 -0.333333    0.00462963 165 t-inv F
  0.500000  0.500000 -0.333333    0.00462963 166 t-inv F
 -0.333333  0.500000 -0.333333    0.00462963 167 t-inv F
 -0.166667  0.500000 -0.333333    0.00462963 168 t-inv F
  0.000000 -0.333333 -0.333333    0.00462963 169 t-inv F
  0.166667 -0.333333 -0.333333    0.00462963 170 t-inv F
  0.333333 -0.333333 -0.333333    0.00462963 171 t-inv F
  0.500000 -0.333333 -0.333333    0.00462963 172 t-inv F
 -0.333333 -0.333333 -0.333333    0.00462963 173 t-inv F
 -0.166667 -0.333333 -0.333333    0.00462963 174 t-inv F
  0.000000 -0.166667 -0.333333    0.00462963 175 t-inv F
  0.166667 -0.166667 -0.333333    0.00462963 176 t-inv F
  0.333333 -0.166667 -0.333333    0.00462963 177 t-inv F
  0.500000 -0.166667 -0.333333    0.00462963 178 t-inv F
 -0.333333 -0.166667 -0.333333    0.00462963 179 t-inv F
 -0.166667 -0.166667 -0.333333    0.00462963 180 t-inv F
  0.000000 -0.000000 -0.166667    0.00462963 181 t-inv F
  0.166667 -0.000000 -0.166667    0.00462963 182 t-inv F
  0.333333 -0.000000 -0.166667    0.00462963 183 t-inv F
  0.500000 -0.000000 -0.166667    0.00462963 184 t-inv F
 -0.333333  0.000000 -0.166667    0.00462963 185 t-inv F
 -0.166667  0.000000 -0.166667    0.00462963 186 t-inv F
  0.000000  0.166667 -0.166667    0.00462963 187 t-inv F
  0.166667  0.166667 -0.166667    0.00462963 188 t-inv F
  0.333333  0.166667 -0.166667    0.00462963 189 t-inv F
  0.500000  0.166667 -0.166667    0.00462963 190 t-inv F
 -0.333333  0.166667 -0.166667    0.00462963 191 t-inv F
 -0.166667  0.166667 -0.166667    0.00462963 192 t-inv F
  0.000000  0.333333 -0.166667    0.00462963 193 t-inv F
  0.166667  0.333333 -0.166667    0.00462963 194 t-inv F
  0.333333  0.333333 -0.166667    0.00462963 195 t-inv F
  0.500000  0.333333 -0.166667    0.00462963 196 t-inv F
 -0.333333  0.333333 -0.166667    0.00462963 197 t-inv F
 -0.166667  0.333333 -0.166667    0.00462963 198 t-inv F
  0.000000  0.500000 -0.166667    0.00462963 199 t-inv F
  0.166667  0.500000 -0.166667    0.00462963 200 t-inv F
  0.333333  0.500000 -0.166667    0.00462963 201 t-inv F
  0.500000  0.500000 -0.166667    0.00462963 202 t-inv F
 -0.333333  0.500000 -0.166667    0.00462963 203 t-inv F
 -0.166667  0.500000 -0.166667    0.00462963 204 t-inv F
 -0.000000 -0.333333 -0.166667    0.00462963 205 t-inv F
  0.166667 -0.333333 -0.166667    0.00462963 206 t-inv F
  0.333333 -0.333333 -0.166667    0.00462963 207 t-inv F
  0.500000 -0.333333 -0.166667    0.00462963 208 t-inv F
 -0.333333 -0.333333 -0.166667    0.00462963 209 t-inv F
 -0.166667 -0.333333 -0.166667    0.00462963 210 t-inv F
  0.000000 -0.166667 -0.166667    0.00462963 211 t-inv F
  0.166667 -0.166667 -0.166667    0.00462963 212 t-inv F
  0.333333 -0.166667 -0.166667    0.00462963 213 t-inv F
  0.500000 -0.166667 -0.166667    0.00462963 214 t-inv F
 -0.333333 -0.166667 -0.166667    0.00462963 215 t-inv F
 -0.166667 -0.166667 -0.166667    0.00462963 216 t-inv F


--------------------------------------------------------------------------------------------------------




 Dimension of arrays:
   k-points           NKPTS =    216   k-points in BZ     NKDIM =    216   number of bands    NBANDS=    128
   number of dos      NEDOS =    301   number of ions     NIONS =      1
   non local maximal  LDIM  =      6   non local SUM 2l+1 LMDIM =     18
   total plane-waves  NPLWV =  21952
   max r-space proj   IRMAX =      1   max aug-charges    IRDMAX= 175694
   dimension x,y,z NGX =    28 NGY =   28 NGZ =   28
   dimension x,y,z NGXF=    56 NGYF=   56 NGZF=   56
   support grid    NGXF=   112 NGYF=  112 NGZF=  112
   ions per type =               1
   NGX,Y,Z   is equivalent  to a cutoff of  10.59, 10.59, 10.59 a.u.
   NGXF,Y,Z  is equivalent  to a cutoff of  21.18, 21.18, 21.18 a.u.

 SYSTEM =  Og_FCC                                  
 POSCAR =  Og_FCC                                  

 Startparameter for this run:
   NWRITE =      1    write-flag & timer
   PREC   = accura    normal or accurate (medium, high low for compatibility)
   ISTART =      1    job   : 0-new  1-cont  2-samecut
   ICHARG =      0    charge: 1-file 2-atom 10-const
   ISPIN  =      1    spin polarized calculation?
   LNONCOLLINEAR =      T non collinear calculations
   LSORBIT =      T    spin-orbit coupling
   INIWAV =      1    electr: 0-lowe 1-rand  2-diag
   LASPH  =      F    aspherical Exc in radial PAW
   METAGGA=      F    non-selfconsistent MetaGGA calc.

 Electronic Relaxation 1
   ENCUT  =  300.0 eV  22.05 Ry    4.70 a.u.   6.21  6.21  6.21*2*pi/ulx,y,z
   ENINI  =  300.0     initial cutoff
   ENAUG  =  361.0 eV  augmentation charge cutoff
   NELM   =      1;   NELMIN=  2; NELMDL=  0     # of ELM steps 
   EDIFF  = 0.1E-07   stopping-criterion for ELM
   LREAL  =      F    real-space projection
   NLSPLINE    = F    spline interpolate recip. space projectors
   LCOMPAT=      F    compatible to vasp.4.4
   GGA_COMPAT  = F    GGA compatible to vasp.4.4-vasp.4.6
   LMAXPAW     = -100 max onsite density
   LMAXMIX     =    2 max onsite mixed and CHGCAR
   VOSKOWN=      0    Vosko Wilk Nusair interpolation
   ROPT   =    0.00000
 Ionic relaxation
   EDIFFG = 0.1E-04   stopping-criterion for IOM
   NSW    =      1    number of steps for IOM
   NBLOCK =      1;   KBLOCK =      1    inner block; outer block 
   IBRION =     -1    ionic relax: 0-MD 1-quasi-New 2-CG
   NFREE  =      5    steps in history (QN), initial steepest desc. (CG)
   ISIF   =      3    stress and relaxation
   IWAVPR =     10    prediction:  0-non 1-charg 2-wave 3-comb
   ISYM   =      0    0-nonsym 1-usesym 2-fastsym
   LCORR  =      T    Harris-Foulkes like correction to forces

   POTIM  = 0.1000    time-step for ionic-motion
   TEIN   =    0.0    initial temperature
   TEBEG  =    0.0;   TEEND  =   0.0 temperature during run
   SMASS  =  -3.00    Nose mass-parameter (am)
   estimated Nose-frequenzy (Omega)   =  0.10E-29 period in steps =****** mass=  -0.442E-27a.u.
   SCALEE = 1.0000    scale energy and forces
   NPACO  =    256;   APACO  = 16.0  distance and # of slots for P.C.
   PSTRESS=    0.0 pullay stress

  Mass of Ions in am
   POMASS =   0.01
  Ionic Valenz
   ZVAL   =  18.00
  Atomic Wigner-Seitz radii
   RWIGS  =  -1.00
  virtual crystal weights 
   VCA    =   1.00
   NELECT =      18.0000    total number of electrons
   NUPDOWN=      -1.0000    fix difference up-down

 DOS related values:
   EMIN   =  10.00;   EMAX   =-10.00  energy-range for DOS
   EFERMI =   0.00
   ISMEAR =     0;   SIGMA  =   0.00  broadening in eV -4-tet -1-fermi 0-gaus

 Electronic relaxation 2 (details)
   IALGO  =     38    algorithm
   LDIAG  =      T    sub-space diagonalisation (order eigenvalues)
   LSUBROT=      F    optimize rotation matrix (better conditioning)
   TURBO    =      0    0=normal 1=particle mesh
   IRESTART =      0    0=no restart 2=restart with 2 vectors
   NREBOOT  =      0    no. of reboots
   NMIN     =      0    reboot dimension
   EREF     =   0.00    reference energy to select bands
   IMIX   =      1    mixing-type and parameters
     AMIX     =   0.40;   BMIX     =  1.00
     AMIX_MAG =   1.60;   BMIX_MAG =  1.00
     AMIN     =   0.10
     WC   =   100.;   INIMIX=   1;  MIXPRE=   1;  MAXMIX=  50

 Intra band minimization:
   WEIMIN = 0.0000     energy-eigenvalue tresh-hold
   EBREAK =  0.20E-10  absolut break condition
   DEPER  =   0.30     relativ break condition  

   TIME   =   0.40     timestep for ELM

  volume/ion in A,a.u.               =      60.08       405.47
  Fermi-wavevector in a.u.,A,eV,Ry     =   1.095414  2.070033 16.326071  1.199932
  Thomas-Fermi vector in A             =   2.231737
 
 Write flags
   LWAVE        =      T    write WAVECAR
   LDOWNSAMPLE  =      F    k-point downsampling of WAVECAR
   LCHARG       =      F    write CHGCAR
   LVTOT        =      F    write LOCPOT, total local potential
   LVHAR        =      F    write LOCPOT, Hartree potential only
   LELF         =      F    write electronic localiz. function (ELF)
   LORBIT       =      0    0 simple, 1 ext, 2 COOP (PROOUT), +10 PAW based schemes


 Dipole corrections
   LMONO  =      F    monopole corrections only (constant potential shift)
   LDIPOL =      F    correct potential (dipole corrections)
   IDIPOL =      0    1-x, 2-y, 3-z, 4-all directions 
   EPSILON=  1.0000000 bulk dielectric constant

 Exchange correlation treatment:
   GGA     =    PE    GGA type
   LEXCH   =     8    internal setting for exchange type
   VOSKOWN=      0    Vosko Wilk Nusair interpolation
   EXXOEP  =     0    0=HF, 1=EXX-LHF (local Hartree Fock) 2=EXX OEP
   LHFCALC =     T    Hartree Fock is set to
   LSYMGRAD=     F    symmetrize gradient (conserves proper symmetry)
   PRECFOCK=normal    Normal, Fast or Accurate (Low or Medium for compatibility)
   LRHFCALC=     F    long range Hartree Fock
   LRSCOR  =     F    long range correlation only (use DFT for short range part)
   LTHOMAS =     F    Thomas Fermi screening in HF
   LMODELHF=     F    short range full HF, long range fraction AEXX
   ENCUT4O =  -1.0   cutoff for four orbital integrals eV
   LMAXFOCK=     4    L truncation for augmentation on plane wave grid
   LMAXFOCKAE=   4    L truncation for all-electron charge restoration on plane wave grid
   NMAXFOCKAE=   1    number of basis functions for all-electron charge restoration
   LFOCKAEDFT=     F  apply the AE augmentation even for DFT
   NKREDX  =     1    reduce k-point grid by
   NKREDY  =     1    reduce k-point grid by
   NKREDZ  =     1    reduce k-point grid by
   SHIFTRED=     F    shift reduced grid of Gamma
   HFKIDENT=     F    idential grid for each k-point
   ODDONLY =     F    use only odd q-grid points
   EVENONLY=     F    use only even q-grid points
   HFALPHA =   -1.0000 decay constant for conv. correction
   MCALPHA =    0.0000 extent of test-charge in conv. correction in multipole expansion
   AEXX    =    1.0000 exact exchange contribution
   HFSCREEN=    0.0000 screening length (either q_TF or 0.3 A-1)
   HFSCREENC=   0.0000 screening length for correlation (either q_TF or 0.3 A-1)
   HFRCUT  =    0.0000 spherical cutoff for potential kernel
   ALDAX   =    0.0000 LDA exchange part
   AGGAX   =    0.0000 GGA exchange part
   ALDAC   =    0.0000 LDA correlation
   AGGAC   =    0.0000 GGA correlation
   ENCUTFOCK=  -1.0 apply spherical cutoff to Coloumb kernel
   NBANDSGWLOW=     1    first orbital included in HF term
   NBLOCK_FOCK=    64    blocking factor in FOCK_ACC
 Linear response parameters
   LEPSILON=     F    determine dielectric tensor
   LRPA    =     F    only Hartree local field effects (RPA)
   LNABLA  =     F    use nabla operator in PAW spheres
   LVEL    =     F    velocity operator in full k-point grid
   LINTERFAST=   F  fast interpolation
   KINTER  =     0    interpolate to denser k-point grid
   CSHIFT  =0.1000    complex shift for real part using Kramers Kronig
   OMEGAMAX=  -1.0    maximum frequency
   DEG_THRESHOLD= 0.2000000E-02 threshold for treating states as degnerate
   RTIME   =   -0.100 relaxation time in fs
  (WPLASMAI=    0.000 imaginary part of plasma frequency in eV, 0.658/RTIME)
   DFIELD  = 0.0000000 0.0000000 0.0000000 field for delta impulse in time
 
 Orbital magnetization related:
   ORBITALMAG=     F  switch on orbital magnetization
   LCHIMAG   =     F  perturbation theory with respect to B field
   DQ        =  0.001000  dq finite difference perturbation B field
   LLRAUG    =     F  two centre corrections for induced B field

 Response functions by sum over occupied states:
   ALGO    =QPGW       execute GW part
   LFXC    =     F    include DFT xc kernel in TD-HF and W
   LADDER  =     F    particle hole ladder diagrams for BSE/TD-HF and W (Nano-quanta)
   LRPAFORCE=     F   calculate RPA forces
   LHARTREE=     T    include Hartree terms (bubbles-RPA) in BSE/TD-HF
   IBSE    =     0    BSE modus: 0 exact, 1 time-evolution (store matrix), 10 time-evolution (implicit)
   KPOINT  =    -1   0   0   0    k-point index at which BSE equation is solved (and G at which response is eval.)
   LTRIPLET=     F    triplet instead of singlet excitation (BSE only)
   LRSRPA  =     F    range separated RPA (total - short) in ACFDT
   LTCTE   =     F    use test-charge test-electron dielectric function
   LTETE   =     F    use test-electron test-electron dielectric function
   LFXCEPS =     F    determine f_xc=epsilon-1/Xi Sharma and Gross kernel
   LFXHEG  =     F    model exchange using f_x(G,k_F) from free electron gas
   NATURALO=     2    0 natural orbitals, 1 only virtual, 2 only occupied-virtual rotation
   L2ORDER =     F    2nd order terms only
   LMP2LT   =     F    use LT MP2
   LUSEW   =     F    use screened W from WXXXX.tmp files instead of (screened) HF kernel
   ENCUTGW = 200.0    cutoff for response function in eV
   ENCUTGWSOFT = 200.0 soft cutoff for Coulomb kernel in GW response function in eV
   ENCUTLF =  -1.0    cutoff for local field effects
   LMAXMP2 =    -1    maximum L for one center terms
   SCISSOR =   0.0    scissor correction
   NOMEGA  =    50    number of frequencies
   NOMEGAR =    50    number of frequencies along real axis
   NBANDSGW=    -1    number of bands for which selfenergy shift is calculated
   NBANDSGWLOW=     1 lowest band included in GW (to exclude core correlation)
   NBANDSO =    -1    number of bands for electron-hole treatment (occupied)
   NBANDSV =    -1    number of bands for electron-hole treatment (virtual)
   NELM    =     1    number of iterations in solving QP/BSE equation
   NELMHF  =     1    number of iterations in the inner HF iteration
   DIM     =     3    dimensionality of system (0=0D molecules, 3=3D)
   ANTIRES =     0    antiresonant part (0) no TDA (1) w=0 exact (2) accurate
   OMEGAMAX= -30.0    maximum frequency
   OMEGAMIN= -30.000    minimum frequency
   OMEGATL =-200.0    maximum frequency of tail
   OMEGAGRID=     0    grid type (0 default)
   CSHIFT  =-0.100    complex shift used in evaluation of response functions
   SELFENERGY=   F    calculate selfenergy instead of QP shifts
   LSPECTRAL =   T    use spectral functions                   
   LSPECTRALGW=   F   use spectral functions to calculate int dz G(w-z) W(z) (more accurate)
   LSINGLES  =   F   calculate the singles contribution to the correlation energy
   LFERMIGW  =   F   update Fermi-energy in the Greens function

   ODDONLYGW =   F    avoid all even points for polarizability 
   EVENONLYGW=   F    avoid all odd  points for polarizability 
   NKREDLFX  =   1   NKREDLFY  =   1   NKREDLFZ  =   1

   TELESCOPE =   0   use telescope k-point sampling
   TAUPAR    =   1   number of TAU groups used in imaginary time calculation
   OMEGAPAR  =  -1   number of OMEGA groups used in imaginary frequency calculation



--------------------------------------------------------------------------------------------------------


 Static calculation
 charge density and potential will be updated during run
 non collinear spin polarized calculation
 Variant of blocked Davidson
 Davidson routine will perform the subspace rotation
 perform sub-space diagonalisation
    after iterative eigenvector-optimisation
 Kerker-like  mixing scheme
 using additional bands          119
 reciprocal scheme for non local part
 use partial core corrections
 calculate Harris-corrections to forces 
   (improved forces if not selfconsistent)
 use gradient corrections 
 use of overlap-Matrix (Vanderbilt PP)
 Gauss-broadening in eV      SIGMA  =   0.00


--------------------------------------------------------------------------------------------------------


  energy-cutoff  :      300.00
  volume of cell :       60.08
      direct lattice vectors                 reciprocal lattice vectors
     4.396350177  0.000000000  0.000000000     0.227461408 -0.131324905 -0.092860731
     2.198175089  3.807350937 -0.000000000     0.000000000  0.262649810 -0.092860731
     2.198175089  1.269116979  3.589604888    -0.000000000  0.000000000  0.278582192

  length of vectors
     4.396350177  4.396350177  4.396350177     0.278582193  0.278582193  0.278582192


 
 old parameters found on file WAVECAR:
  energy-cutoff  :      300.00
  volume of cell :       60.08
      direct lattice vectors                 reciprocal lattice vectors
     4.396350177  0.000000000  0.000000000     0.227461408 -0.131324905 -0.092860731
     2.198175089  3.807350937 -0.000000000     0.000000000  0.262649810 -0.092860731
     2.198175089  1.269116979  3.589604888    -0.000000000  0.000000000  0.278582192

  length of vectors

 
 k-points in units of 2pi/SCALE and weight: k-points                                
   0.00000000  0.00000000  0.00000000       0.005
   0.03838171 -0.02215969 -0.01566927       0.005
   0.07676342 -0.04431938 -0.03133854       0.005
   0.11514513 -0.06647907 -0.04700780       0.005
  -0.07676342  0.04431938  0.03133854       0.005
  -0.03838171  0.02215969  0.01566927       0.005
   0.00000000  0.04431938 -0.01566927       0.005
   0.03838171  0.02215969 -0.03133854       0.005
   0.07676342  0.00000000 -0.04700780       0.005
   0.11514513 -0.02215969 -0.06267707       0.005
  -0.07676342  0.08863877  0.01566927       0.005
  -0.03838171  0.06647907  0.00000000       0.005
   0.00000000  0.08863877 -0.03133854       0.005
   0.03838171  0.06647907 -0.04700780       0.005
   0.07676342  0.04431938 -0.06267707       0.005
   0.11514513  0.02215969 -0.07834634       0.005
  -0.07676342  0.13295815  0.00000000       0.005
  -0.03838171  0.11079846 -0.01566927       0.005
   0.00000000  0.13295815 -0.04700780       0.005
   0.03838171  0.11079846 -0.06267707       0.005
   0.07676342  0.08863877 -0.07834634       0.005
   0.11514513  0.06647907 -0.09401561       0.005
  -0.07676342  0.17727753 -0.01566927       0.005
  -0.03838171  0.15511784 -0.03133854       0.005
  -0.00000000 -0.08863877  0.03133854       0.005
   0.03838171 -0.11079846  0.01566927       0.005
   0.07676342 -0.13295815 -0.00000000       0.005
   0.11514513 -0.15511784 -0.01566927       0.005
  -0.07676342 -0.04431938  0.06267707       0.005
  -0.03838171 -0.06647907  0.04700780       0.005
  -0.00000000 -0.04431938  0.01566927       0.005
   0.03838171 -0.06647907 -0.00000000       0.005
   0.07676342 -0.08863877 -0.01566927       0.005
   0.11514513 -0.11079846 -0.03133854       0.005
  -0.07676342 -0.00000000  0.04700780       0.005
  -0.03838171 -0.02215969  0.03133854       0.005
  -0.00000000  0.00000000  0.04700780       0.005
   0.03838171 -0.02215969  0.03133854       0.005
   0.07676342 -0.04431938  0.01566927       0.005
   0.11514513 -0.06647907  0.00000000       0.005
  -0.07676342  0.04431938  0.07834634       0.005
  -0.03838171  0.02215969  0.06267707       0.005
  -0.00000000  0.04431938  0.03133854       0.005
   0.03838171  0.02215969  0.01566927       0.005
   0.07676342  0.00000000  0.00000000       0.005
   0.11514513 -0.02215969 -0.01566927       0.005
  -0.07676342  0.08863877  0.06267707       0.005
  -0.03838171  0.06647907  0.04700780       0.005
  -0.00000000  0.08863877  0.01566927       0.005
   0.03838171  0.06647907  0.00000000       0.005
   0.07676342  0.04431938 -0.01566927       0.005
   0.11514513  0.02215969 -0.03133854       0.005
  -0.07676342  0.13295815  0.04700780       0.005
  -0.03838171  0.11079846  0.03133854       0.005
  -0.00000000  0.13295815  0.00000000       0.005
   0.03838171  0.11079846 -0.01566927       0.005
   0.07676342  0.08863877 -0.03133854       0.005
   0.11514513  0.06647907 -0.04700780       0.005
  -0.07676342  0.17727753  0.03133854       0.005
  -0.03838171  0.15511784  0.01566927       0.005
  -0.00000000 -0.08863877  0.07834634       0.005
   0.03838171 -0.11079846  0.06267707       0.005
   0.07676342 -0.13295815  0.04700780       0.005
   0.11514513 -0.15511784  0.03133854       0.005
  -0.07676342 -0.04431938  0.10968488       0.005
  -0.03838171 -0.06647907  0.09401561       0.005
  -0.00000000 -0.04431938  0.06267707       0.005
   0.03838171 -0.06647907  0.04700780       0.005
   0.07676342 -0.08863877  0.03133854       0.005
   0.11514513 -0.11079846  0.01566927       0.005
  -0.07676342 -0.00000000  0.09401561       0.005
  -0.03838171 -0.02215969  0.07834634       0.005
  -0.00000000  0.00000000  0.09401561       0.005
   0.03838171 -0.02215969  0.07834634       0.005
   0.07676342 -0.04431938  0.06267707       0.005
   0.11514513 -0.06647907  0.04700780       0.005
  -0.07676342  0.04431938  0.12535414       0.005
  -0.03838171  0.02215969  0.10968488       0.005
  -0.00000000  0.04431938  0.07834634       0.005
   0.03838171  0.02215969  0.06267707       0.005
   0.07676342  0.00000000  0.04700780       0.005
   0.11514513 -0.02215969  0.03133854       0.005
  -0.07676342  0.08863877  0.10968488       0.005
  -0.03838171  0.06647907  0.09401561       0.005
  -0.00000000  0.08863877  0.06267707       0.005
   0.03838171  0.06647907  0.04700780       0.005
   0.07676342  0.04431938  0.03133854       0.005
   0.11514513  0.02215969  0.01566927       0.005
  -0.07676342  0.13295815  0.09401561       0.005
  -0.03838171  0.11079846  0.07834634       0.005
  -0.00000000  0.13295815  0.04700780       0.005
   0.03838171  0.11079846  0.03133854       0.005
   0.07676342  0.08863877  0.01566927       0.005
   0.11514513  0.06647907 -0.00000000       0.005
  -0.07676342  0.17727753  0.07834634       0.005
  -0.03838171  0.15511784  0.06267707       0.005
  -0.00000000 -0.08863877  0.12535414       0.005
   0.03838171 -0.11079846  0.10968488       0.005
   0.07676342 -0.13295815  0.09401561       0.005
   0.11514513 -0.15511784  0.07834634       0.005
  -0.07676342 -0.04431938  0.15669268       0.005
  -0.03838171 -0.06647907  0.14102341       0.005
  -0.00000000 -0.04431938  0.10968488       0.005
   0.03838171 -0.06647907  0.09401561       0.005
   0.07676342 -0.08863877  0.07834634       0.005
   0.11514513 -0.11079846  0.06267707       0.005
  -0.07676342 -0.00000000  0.14102341       0.005
  -0.03838171 -0.02215969  0.12535414       0.005
  -0.00000000  0.00000000  0.14102341       0.005
   0.03838171 -0.02215969  0.12535414       0.005
   0.07676342 -0.04431938  0.10968488       0.005
   0.11514513 -0.06647907  0.09401561       0.005
  -0.07676342  0.04431938  0.17236195       0.005
  -0.03838171  0.02215969  0.15669268       0.005
  -0.00000000  0.04431938  0.12535414       0.005
   0.03838171  0.02215969  0.10968488       0.005
   0.07676342  0.00000000  0.09401561       0.005
   0.11514513 -0.02215969  0.07834634       0.005
  -0.07676342  0.08863877  0.15669268       0.005
  -0.03838171  0.06647907  0.14102341       0.005
  -0.00000000  0.08863877  0.10968488       0.005
   0.03838171  0.06647907  0.09401561       0.005
   0.07676342  0.04431938  0.07834634       0.005
   0.11514513  0.02215969  0.06267707       0.005
  -0.07676342  0.13295815  0.14102341       0.005
  -0.03838171  0.11079846  0.12535414       0.005
  -0.00000000  0.13295815  0.09401561       0.005
   0.03838171  0.11079846  0.07834634       0.005
   0.07676342  0.08863877  0.06267707       0.005
   0.11514513  0.06647907  0.04700780       0.005
  -0.07676342  0.17727753  0.12535414       0.005
  -0.03838171  0.15511784  0.10968488       0.005
  -0.00000000 -0.08863877  0.17236195       0.005
   0.03838171 -0.11079846  0.15669268       0.005
   0.07676342 -0.13295815  0.14102341       0.005
   0.11514513 -0.15511784  0.12535414       0.005
  -0.07676342 -0.04431938  0.20370049       0.005
  -0.03838171 -0.06647907  0.18803122       0.005
  -0.00000000 -0.04431938  0.15669268       0.005
   0.03838171 -0.06647907  0.14102341       0.005
   0.07676342 -0.08863877  0.12535414       0.005
   0.11514513 -0.11079846  0.10968488       0.005
  -0.07676342 -0.00000000  0.18803122       0.005
  -0.03838171 -0.02215969  0.17236195       0.005
   0.00000000 -0.00000000 -0.09401561       0.005
   0.03838171 -0.02215969 -0.10968488       0.005
   0.07676342 -0.04431938 -0.12535414       0.005
   0.11514513 -0.06647907 -0.14102341       0.005
  -0.07676342  0.04431938 -0.06267707       0.005
  -0.03838171  0.02215969 -0.07834634       0.005
   0.00000000  0.04431938 -0.10968488       0.005
   0.03838171  0.02215969 -0.12535414       0.005
   0.07676342  0.00000000 -0.14102341       0.005
   0.11514513 -0.02215969 -0.15669268       0.005
  -0.07676342  0.08863877 -0.07834634       0.005
  -0.03838171  0.06647907 -0.09401561       0.005
   0.00000000  0.08863877 -0.12535414       0.005
   0.03838171  0.06647907 -0.14102341       0.005
   0.07676342  0.04431938 -0.15669268       0.005
   0.11514513  0.02215969 -0.17236195       0.005
  -0.07676342  0.13295815 -0.09401561       0.005
  -0.03838171  0.11079846 -0.10968488       0.005
   0.00000000  0.13295815 -0.14102341       0.005
   0.03838171  0.11079846 -0.15669268       0.005
   0.07676342  0.08863877 -0.17236195       0.005
   0.11514513  0.06647907 -0.18803122       0.005
  -0.07676342  0.17727753 -0.10968488       0.005
  -0.03838171  0.15511784 -0.12535414       0.005
   0.00000000 -0.08863877 -0.06267707       0.005
   0.03838171 -0.11079846 -0.07834634       0.005
   0.07676342 -0.13295815 -0.09401561       0.005
   0.11514513 -0.15511784 -0.10968488       0.005
  -0.07676342 -0.04431938 -0.03133854       0.005
  -0.03838171 -0.06647907 -0.04700780       0.005
   0.00000000 -0.04431938 -0.07834634       0.005
   0.03838171 -0.06647907 -0.09401561       0.005
   0.07676342 -0.08863877 -0.10968488       0.005
   0.11514513 -0.11079846 -0.12535414       0.005
  -0.07676342 -0.00000000 -0.04700780       0.005
  -0.03838171 -0.02215969 -0.06267707       0.005
   0.00000000 -0.00000000 -0.04700780       0.005
   0.03838171 -0.02215969 -0.06267707       0.005
   0.07676342 -0.04431938 -0.07834634       0.005
   0.11514513 -0.06647907 -0.09401561       0.005
  -0.07676342  0.04431938 -0.01566927       0.005
  -0.03838171  0.02215969 -0.03133854       0.005
   0.00000000  0.04431938 -0.06267707       0.005
   0.03838171  0.02215969 -0.07834634       0.005
   0.07676342  0.00000000 -0.09401561       0.005
   0.11514513 -0.02215969 -0.10968488       0.005
  -0.07676342  0.08863877 -0.03133854       0.005
  -0.03838171  0.06647907 -0.04700780       0.005
   0.00000000  0.08863877 -0.07834634       0.005
   0.03838171  0.06647907 -0.09401561       0.005
   0.07676342  0.04431938 -0.10968488       0.005
   0.11514513  0.02215969 -0.12535414       0.005
  -0.07676342  0.13295815 -0.04700780       0.005
  -0.03838171  0.11079846 -0.06267707       0.005
   0.00000000  0.13295815 -0.09401561       0.005
   0.03838171  0.11079846 -0.10968488       0.005
   0.07676342  0.08863877 -0.12535414       0.005
   0.11514513  0.06647907 -0.14102341       0.005
  -0.07676342  0.17727753 -0.06267707       0.005
  -0.03838171  0.15511784 -0.07834634       0.005
   0.00000000 -0.08863877 -0.01566927       0.005
   0.03838171 -0.11079846 -0.03133854       0.005
   0.07676342 -0.13295815 -0.04700780       0.005
   0.11514513 -0.15511784 -0.06267707       0.005
  -0.07676342 -0.04431938  0.01566927       0.005
  -0.03838171 -0.06647907 -0.00000000       0.005
   0.00000000 -0.04431938 -0.03133854       0.005
   0.03838171 -0.06647907 -0.04700780       0.005
   0.07676342 -0.08863877 -0.06267707       0.005
   0.11514513 -0.11079846 -0.07834634       0.005
  -0.07676342 -0.00000000 -0.00000000       0.005
  -0.03838171 -0.02215969 -0.01566927       0.005
 
 k-points in reciprocal lattice and weights: k-points                                
   0.00000000  0.00000000  0.00000000       0.005
   0.16666667 -0.00000000 -0.00000000       0.005
   0.33333333 -0.00000000  0.00000000       0.005
   0.50000000 -0.00000000  0.00000000       0.005
  -0.33333333  0.00000000 -0.00000000       0.005
  -0.16666667  0.00000000  0.00000000       0.005
  -0.00000000  0.16666667  0.00000000       0.005
   0.16666667  0.16666667  0.00000000       0.005
   0.33333333  0.16666667  0.00000000       0.005
   0.50000000  0.16666667  0.00000000       0.005
  -0.33333333  0.16666667 -0.00000000       0.005
  -0.16666667  0.16666667 -0.00000000       0.005
  -0.00000000  0.33333333 -0.00000000       0.005
   0.16666667  0.33333333 -0.00000000       0.005
   0.33333333  0.33333333  0.00000000       0.005
   0.50000000  0.33333333 -0.00000000       0.005
  -0.33333333  0.33333333 -0.00000000       0.005
  -0.16666667  0.33333333 -0.00000000       0.005
   0.00000000  0.50000000 -0.00000000       0.005
   0.16666667  0.50000000 -0.00000000       0.005
   0.33333333  0.50000000  0.00000000       0.005
   0.50000000  0.50000000  0.00000000       0.005
  -0.33333333  0.50000000 -0.00000000       0.005
  -0.16666667  0.50000000 -0.00000000       0.005
   0.00000000 -0.33333333  0.00000000       0.005
   0.16666667 -0.33333333  0.00000000       0.005
   0.33333333 -0.33333333  0.00000000       0.005
   0.50000000 -0.33333333  0.00000000       0.005
  -0.33333333 -0.33333333 -0.00000000       0.005
  -0.16666667 -0.33333333  0.00000000       0.005
   0.00000000 -0.16666667  0.00000000       0.005
   0.16666667 -0.16666667  0.00000000       0.005
   0.33333333 -0.16666667  0.00000000       0.005
   0.50000000 -0.16666667  0.00000000       0.005
  -0.33333333 -0.16666667  0.00000000       0.005
  -0.16666667 -0.16666667  0.00000000       0.005
   0.00000000  0.00000000  0.16666667       0.005
   0.16666667 -0.00000000  0.16666667       0.005
   0.33333333 -0.00000000  0.16666667       0.005
   0.50000000 -0.00000000  0.16666667       0.005
  -0.33333333  0.00000000  0.16666667       0.005
  -0.16666667  0.00000000  0.16666667       0.005
  -0.00000000  0.16666667  0.16666667       0.005
   0.16666667  0.16666667  0.16666667       0.005
   0.33333333  0.16666667  0.16666667       0.005
   0.50000000  0.16666667  0.16666667       0.005
  -0.33333333  0.16666667  0.16666667       0.005
  -0.16666667  0.16666667  0.16666667       0.005
   0.00000000  0.33333333  0.16666667       0.005
   0.16666667  0.33333333  0.16666667       0.005
   0.33333333  0.33333333  0.16666667       0.005
   0.50000000  0.33333333  0.16666667       0.005
  -0.33333333  0.33333333  0.16666667       0.005
  -0.16666667  0.33333333  0.16666667       0.005
   0.00000000  0.50000000  0.16666667       0.005
   0.16666667  0.50000000  0.16666667       0.005
   0.33333333  0.50000000  0.16666667       0.005
   0.50000000  0.50000000  0.16666667       0.005
  -0.33333333  0.50000000  0.16666667       0.005
  -0.16666667  0.50000000  0.16666667       0.005
   0.00000000 -0.33333333  0.16666667       0.005
   0.16666667 -0.33333333  0.16666667       0.005
   0.33333333 -0.33333333  0.16666667       0.005
   0.50000000 -0.33333333  0.16666667       0.005
  -0.33333333 -0.33333333  0.16666667       0.005
  -0.16666667 -0.33333333  0.16666667       0.005
   0.00000000 -0.16666667  0.16666667       0.005
   0.16666667 -0.16666667  0.16666667       0.005
   0.33333333 -0.16666667  0.16666667       0.005
   0.50000000 -0.16666667  0.16666667       0.005
  -0.33333333 -0.16666667  0.16666667       0.005
  -0.16666667 -0.16666667  0.16666667       0.005
   0.00000000  0.00000000  0.33333333       0.005
   0.16666667 -0.00000000  0.33333333       0.005
   0.33333333 -0.00000000  0.33333333       0.005
   0.50000000 -0.00000000  0.33333333       0.005
  -0.33333333  0.00000000  0.33333333       0.005
  -0.16666667  0.00000000  0.33333333       0.005
  -0.00000000  0.16666667  0.33333333       0.005
   0.16666667  0.16666667  0.33333333       0.005
   0.33333333  0.16666667  0.33333333       0.005
   0.50000000  0.16666667  0.33333333       0.005
  -0.33333333  0.16666667  0.33333333       0.005
  -0.16666667  0.16666667  0.33333333       0.005
   0.00000000  0.33333333  0.33333333       0.005
   0.16666667  0.33333333  0.33333333       0.005
   0.33333333  0.33333333  0.33333333       0.005
   0.50000000  0.33333333  0.33333333       0.005
  -0.33333333  0.33333333  0.33333333       0.005
  -0.16666667  0.33333333  0.33333333       0.005
   0.00000000  0.50000000  0.33333333       0.005
   0.16666667  0.50000000  0.33333333       0.005
   0.33333333  0.50000000  0.33333333       0.005
   0.50000000  0.50000000  0.33333333       0.005
  -0.33333333  0.50000000  0.33333333       0.005
  -0.16666667  0.50000000  0.33333333       0.005
  -0.00000000 -0.33333333  0.33333333       0.005
   0.16666667 -0.33333333  0.33333333       0.005
   0.33333333 -0.33333333  0.33333333       0.005
   0.50000000 -0.33333333  0.33333333       0.005
  -0.33333333 -0.33333333  0.33333333       0.005
  -0.16666667 -0.33333333  0.33333333       0.005
   0.00000000 -0.16666667  0.33333333       0.005
   0.16666667 -0.16666667  0.33333333       0.005
   0.33333333 -0.16666667  0.33333333       0.005
   0.50000000 -0.16666667  0.33333333       0.005
  -0.33333333 -0.16666667  0.33333333       0.005
  -0.16666667 -0.16666667  0.33333333       0.005
   0.00000000  0.00000000  0.50000000       0.005
   0.16666667  0.00000000  0.50000000       0.005
   0.33333333 -0.00000000  0.50000000       0.005
   0.50000000 -0.00000000  0.50000000       0.005
  -0.33333333  0.00000000  0.50000000       0.005
  -0.16666667  0.00000000  0.50000000       0.005
  -0.00000000  0.16666667  0.50000000       0.005
   0.16666667  0.16666667  0.50000000       0.005
   0.33333333  0.16666667  0.50000000       0.005
   0.50000000  0.16666667  0.50000000       0.005
  -0.33333333  0.16666667  0.50000000       0.005
  -0.16666667  0.16666667  0.50000000       0.005
   0.00000000  0.33333333  0.50000000       0.005
   0.16666667  0.33333333  0.50000000       0.005
   0.33333333  0.33333333  0.50000000       0.005
   0.50000000  0.33333333  0.50000000       0.005
  -0.33333333  0.33333333  0.50000000       0.005
  -0.16666667  0.33333333  0.50000000       0.005
   0.00000000  0.50000000  0.50000000       0.005
   0.16666667  0.50000000  0.50000000       0.005
   0.33333333  0.50000000  0.50000000       0.005
   0.50000000  0.50000000  0.50000000       0.005
  -0.33333333  0.50000000  0.50000000       0.005
  -0.16666667  0.50000000  0.50000000       0.005
   0.00000000 -0.33333333  0.50000000       0.005
   0.16666667 -0.33333333  0.50000000       0.005
   0.33333333 -0.33333333  0.50000000       0.005
   0.50000000 -0.33333333  0.50000000       0.005
  -0.33333333 -0.33333333  0.50000000       0.005
  -0.16666667 -0.33333333  0.50000000       0.005
   0.00000000 -0.16666667  0.50000000       0.005
   0.16666667 -0.16666667  0.50000000       0.005
   0.33333333 -0.16666667  0.50000000       0.005
   0.50000000 -0.16666667  0.50000000       0.005
  -0.33333333 -0.16666667  0.50000000       0.005
  -0.16666667 -0.16666667  0.50000000       0.005
   0.00000000 -0.00000000 -0.33333333       0.005
   0.16666667 -0.00000000 -0.33333333       0.005
   0.33333333 -0.00000000 -0.33333333       0.005
   0.50000000 -0.00000000 -0.33333333       0.005
  -0.33333333  0.00000000 -0.33333333       0.005
  -0.16666667  0.00000000 -0.33333333       0.005
  -0.00000000  0.16666667 -0.33333333       0.005
   0.16666667  0.16666667 -0.33333333       0.005
   0.33333333  0.16666667 -0.33333333       0.005
   0.50000000  0.16666667 -0.33333333       0.005
  -0.33333333  0.16666667 -0.33333333       0.005
  -0.16666667  0.16666667 -0.33333333       0.005
   0.00000000  0.33333333 -0.33333333       0.005
   0.16666667  0.33333333 -0.33333333       0.005
   0.33333333  0.33333333 -0.33333333       0.005
   0.50000000  0.33333333 -0.33333333       0.005
  -0.33333333  0.33333333 -0.33333333       0.005
  -0.16666667  0.33333333 -0.33333333       0.005
   0.00000000  0.50000000 -0.33333333       0.005
   0.16666667  0.50000000 -0.33333333       0.005
   0.33333333  0.50000000 -0.33333333       0.005
   0.50000000  0.50000000 -0.33333333       0.005
  -0.33333333  0.50000000 -0.33333333       0.005
  -0.16666667  0.50000000 -0.33333333       0.005
   0.00000000 -0.33333333 -0.33333333       0.005
   0.16666667 -0.33333333 -0.33333333       0.005
   0.33333333 -0.33333333 -0.33333333       0.005
   0.50000000 -0.33333333 -0.33333333       0.005
  -0.33333333 -0.33333333 -0.33333333       0.005
  -0.16666667 -0.33333333 -0.33333333       0.005
   0.00000000 -0.16666667 -0.33333333       0.005
   0.16666667 -0.16666667 -0.33333333       0.005
   0.33333333 -0.16666667 -0.33333333       0.005
   0.50000000 -0.16666667 -0.33333333       0.005
  -0.33333333 -0.16666667 -0.33333333       0.005
  -0.16666667 -0.16666667 -0.33333333       0.005
   0.00000000 -0.00000000 -0.16666667       0.005
   0.16666667 -0.00000000 -0.16666667       0.005
   0.33333333 -0.00000000 -0.16666667       0.005
   0.50000000 -0.00000000 -0.16666667       0.005
  -0.33333333  0.00000000 -0.16666667       0.005
  -0.16666667  0.00000000 -0.16666667       0.005
   0.00000000  0.16666667 -0.16666667       0.005
   0.16666667  0.16666667 -0.16666667       0.005
   0.33333333  0.16666667 -0.16666667       0.005
   0.50000000  0.16666667 -0.16666667       0.005
  -0.33333333  0.16666667 -0.16666667       0.005
  -0.16666667  0.16666667 -0.16666667       0.005
   0.00000000  0.33333333 -0.16666667       0.005
   0.16666667  0.33333333 -0.16666667       0.005
   0.33333333  0.33333333 -0.16666667       0.005
   0.50000000  0.33333333 -0.16666667       0.005
  -0.33333333  0.33333333 -0.16666667       0.005
  -0.16666667  0.33333333 -0.16666667       0.005
   0.00000000  0.50000000 -0.16666667       0.005
   0.16666667  0.50000000 -0.16666667       0.005
   0.33333333  0.50000000 -0.16666667       0.005
   0.50000000  0.50000000 -0.16666667       0.005
  -0.33333333  0.50000000 -0.16666667       0.005
  -0.16666667  0.50000000 -0.16666667       0.005
  -0.00000000 -0.33333333 -0.16666667       0.005
   0.16666667 -0.33333333 -0.16666667       0.005
   0.33333333 -0.33333333 -0.16666667       0.005
   0.50000000 -0.33333333 -0.16666667       0.005
  -0.33333333 -0.33333333 -0.16666667       0.005
  -0.16666667 -0.33333333 -0.16666667       0.005
   0.00000000 -0.16666667 -0.16666667       0.005
   0.16666667 -0.16666667 -0.16666667       0.005
   0.33333333 -0.16666667 -0.16666667       0.005
   0.50000000 -0.16666667 -0.16666667       0.005
  -0.33333333 -0.16666667 -0.16666667       0.005
  -0.16666667 -0.16666667 -0.16666667       0.005
 
 position of ions in fractional coordinates (direct lattice) 
   0.00000000  0.00000000  0.00000000
 
 position of ions in cartesian coordinates  (Angst):
   0.00000000  0.00000000  0.00000000
 
 Euler angles ALPHA=     0.0000000  BETA=     0.0000000

 transformation matrix from SAXIS to cartesian coordinates
 ---------------------------------------------------------
     1.0000000 m_x     0.0000000 m_y     0.0000000 m_z
     0.0000000 m_x     1.0000000 m_y     0.0000000 m_z
     0.0000000 m_x     0.0000000 m_y     1.0000000 m_z

 transformation matrix from cartesian coordinates to SAXIS
 ---------------------------------------------------------
     1.0000000 m_x     0.0000000 m_y     0.0000000 m_z
     0.0000000 m_x     1.0000000 m_y     0.0000000 m_z
     0.0000000 m_x     0.0000000 m_y     1.0000000 m_z




--------------------------------------------------------------------------------------------------------


 k-point  1 :   0.0000 0.0000 0.0000  plane waves:    1450
 k-point  2 :   0.1667-0.0000-0.0000  plane waves:    1424
 k-point  3 :   0.3333-0.0000 0.0000  plane waves:    1394
 k-point  4 :   0.5000-0.0000 0.0000  plane waves:    1436
 k-point  5 :  -0.3333 0.0000-0.0000  plane waves:    1394
 k-point  6 :  -0.1667 0.0000 0.0000  plane waves:    1424
 k-point  7 :  -0.0000 0.1667 0.0000  plane waves:    1424
 k-point  8 :   0.1667 0.1667 0.0000  plane waves:    1386
 k-point  9 :   0.3333 0.1667 0.0000  plane waves:    1428
 k-point 10 :   0.5000 0.1667 0.0000  plane waves:    1428
 k-point 11 :  -0.3333 0.1667-0.0000  plane waves:    1406
 k-point 12 :  -0.1667 0.1667-0.0000  plane waves:    1420
 k-point 13 :  -0.0000 0.3333-0.0000  plane waves:    1394
 k-point 14 :   0.1667 0.3333-0.0000  plane waves:    1428
 k-point 15 :   0.3333 0.3333 0.0000  plane waves:    1434
 k-point 16 :   0.5000 0.3333-0.0000  plane waves:    1418
 k-point 17 :  -0.3333 0.3333-0.0000  plane waves:    1432
 k-point 18 :  -0.1667 0.3333-0.0000  plane waves:    1406
 k-point 19 :   0.0000 0.5000-0.0000  plane waves:    1436
 k-point 20 :   0.1667 0.5000-0.0000  plane waves:    1428
 k-point 21 :   0.3333 0.5000 0.0000  plane waves:    1418
 k-point 22 :   0.5000 0.5000 0.0000  plane waves:    1448
 k-point 23 :  -0.3333 0.5000-0.0000  plane waves:    1418
 k-point 24 :  -0.1667 0.5000-0.0000  plane waves:    1428
 k-point 25 :   0.0000-0.3333 0.0000  plane waves:    1394
 k-point 26 :   0.1667-0.3333 0.0000  plane waves:    1406
 k-point 27 :   0.3333-0.3333 0.0000  plane waves:    1432
 k-point 28 :   0.5000-0.3333 0.0000  plane waves:    1418
 k-point 29 :  -0.3333-0.3333-0.0000  plane waves:    1434
 k-point 30 :  -0.1667-0.3333 0.0000  plane waves:    1428
 k-point 31 :   0.0000-0.1667 0.0000  plane waves:    1424
 k-point 32 :   0.1667-0.1667 0.0000  plane waves:    1420
 k-point 33 :   0.3333-0.1667 0.0000  plane waves:    1406
 k-point 34 :   0.5000-0.1667 0.0000  plane waves:    1428
 k-point 35 :  -0.3333-0.1667 0.0000  plane waves:    1428
 k-point 36 :  -0.1667-0.1667 0.0000  plane waves:    1386
 k-point 37 :   0.0000 0.0000 0.1667  plane waves:    1424
 k-point 38 :   0.1667-0.0000 0.1667  plane waves:    1386
 k-point 39 :   0.3333-0.0000 0.1667  plane waves:    1428
 k-point 40 :   0.5000-0.0000 0.1667  plane waves:    1428
 k-point 41 :  -0.3333 0.0000 0.1667  plane waves:    1406
 k-point 42 :  -0.1667 0.0000 0.1667  plane waves:    1420
 k-point 43 :  -0.0000 0.1667 0.1667  plane waves:    1386
 k-point 44 :   0.1667 0.1667 0.1667  plane waves:    1424
 k-point 45 :   0.3333 0.1667 0.1667  plane waves:    1420
 k-point 46 :   0.5000 0.1667 0.1667  plane waves:    1406
 k-point 47 :  -0.3333 0.1667 0.1667  plane waves:    1428
 k-point 48 :  -0.1667 0.1667 0.1667  plane waves:    1428
 k-point 49 :   0.0000 0.3333 0.1667  plane waves:    1428
 k-point 50 :   0.1667 0.3333 0.1667  plane waves:    1420
 k-point 51 :   0.3333 0.3333 0.1667  plane waves:    1428
 k-point 52 :   0.5000 0.3333 0.1667  plane waves:    1418
 k-point 53 :  -0.3333 0.3333 0.1667  plane waves:    1428
 k-point 54 :  -0.1667 0.3333 0.1667  plane waves:    1418
 k-point 55 :   0.0000 0.5000 0.1667  plane waves:    1428
 k-point 56 :   0.1667 0.5000 0.1667  plane waves:    1406
 k-point 57 :   0.3333 0.5000 0.1667  plane waves:    1418
 k-point 58 :   0.5000 0.5000 0.1667  plane waves:    1418
 k-point 59 :  -0.3333 0.5000 0.1667  plane waves:    1416
 k-point 60 :  -0.1667 0.5000 0.1667  plane waves:    1428
 k-point 61 :   0.0000-0.3333 0.1667  plane waves:    1406
 k-point 62 :   0.1667-0.3333 0.1667  plane waves:    1428
 k-point 63 :   0.3333-0.3333 0.1667  plane waves:    1428
 k-point 64 :   0.5000-0.3333 0.1667  plane waves:    1416
 k-point 65 :  -0.3333-0.3333 0.1667  plane waves:    1418
 k-point 66 :  -0.1667-0.3333 0.1667  plane waves:    1418
 k-point 67 :   0.0000-0.1667 0.1667  plane waves:    1420
 k-point 68 :   0.1667-0.1667 0.1667  plane waves:    1428
 k-point 69 :   0.3333-0.1667 0.1667  plane waves:    1418
 k-point 70 :   0.5000-0.1667 0.1667  plane waves:    1428
 k-point 71 :  -0.3333-0.1667 0.1667  plane waves:    1418
 k-point 72 :  -0.1667-0.1667 0.1667  plane waves:    1428
 k-point 73 :   0.0000 0.0000 0.3333  plane waves:    1394
 k-point 74 :   0.1667-0.0000 0.3333  plane waves:    1428
 k-point 75 :   0.3333-0.0000 0.3333  plane waves:    1434
 k-point 76 :   0.5000-0.0000 0.3333  plane waves:    1418
 k-point 77 :  -0.3333 0.0000 0.3333  plane waves:    1432
 k-point 78 :  -0.1667 0.0000 0.3333  plane waves:    1406
 k-point 79 :  -0.0000 0.1667 0.3333  plane waves:    1428
 k-point 80 :   0.1667 0.1667 0.3333  plane waves:    1420
 k-point 81 :   0.3333 0.1667 0.3333  plane waves:    1428
 k-point 82 :   0.5000 0.1667 0.3333  plane waves:    1418
 k-point 83 :  -0.3333 0.1667 0.3333  plane waves:    1428
 k-point 84 :  -0.1667 0.1667 0.3333  plane waves:    1418
 k-point 85 :   0.0000 0.3333 0.3333  plane waves:    1434
 k-point 86 :   0.1667 0.3333 0.3333  plane waves:    1428
 k-point 87 :   0.3333 0.3333 0.3333  plane waves:    1394
 k-point 88 :   0.5000 0.3333 0.3333  plane waves:    1406
 k-point 89 :  -0.3333 0.3333 0.3333  plane waves:    1432
 k-point 90 :  -0.1667 0.3333 0.3333  plane waves:    1418
 k-point 91 :   0.0000 0.5000 0.3333  plane waves:    1418
 k-point 92 :   0.1667 0.5000 0.3333  plane waves:    1418
 k-point 93 :   0.3333 0.5000 0.3333  plane waves:    1406
 k-point 94 :   0.5000 0.5000 0.3333  plane waves:    1428
 k-point 95 :  -0.3333 0.5000 0.3333  plane waves:    1428
 k-point 96 :  -0.1667 0.5000 0.3333  plane waves:    1416
 k-point 97 :  -0.0000-0.3333 0.3333  plane waves:    1432
 k-point 98 :   0.1667-0.3333 0.3333  plane waves:    1428
 k-point 99 :   0.3333-0.3333 0.3333  plane waves:    1432
[...]
     10     -32.9271     -33.0783     -33.0790     -33.1305       0.7468       1.0000
     11     -25.1569     -25.2433     -25.2371     -25.2635       0.7526       1.0000
     12     -25.1565     -25.2433     -25.2372     -25.2635       0.7535       1.0000
     13     -10.1327     -10.1743     -10.1741     -10.1871       0.7609       1.0000
     14     -10.1326     -10.1741     -10.1740     -10.1870       0.7601       1.0000
     15      -0.4736      -0.4940      -0.4948      -0.5006       0.7861       1.0000
     16      -0.4727      -0.4935      -0.4943      -0.5002       0.7865       1.0000
     17       1.2855       1.2715       1.2718       1.2684       0.8035       1.0000
     18       1.2870       1.2723       1.2725       1.2690       0.8039       1.0000
     19       6.5060       6.5226       6.5185       6.5214       0.8131       0.0000
     20       6.5063       6.5228       6.5187       6.5216       0.8127       0.0000
     21       9.0528       9.0777       9.0775       9.0836       0.8013       0.0000
     22       9.0529       9.0777       9.0775       9.0836       0.8011       0.0000
     23       9.6387       9.6643       9.6638       9.6701       0.7995       0.0000
     24       9.6388       9.6643       9.6639       9.6702       0.7995       0.0000
     25      11.6418      11.6711      11.6708      11.6783       0.7946       0.0000
     26      11.6419      11.6712      11.6709      11.6784       0.7945       0.0000
     27      12.9880      13.0187      13.0180      13.0257       0.7945       0.0000
     28      12.9883      13.0189      13.0182      13.0259       0.7944       0.0000
     29      13.9470      13.9792      13.9791      13.9874       0.7941       0.0000
     30      13.9472      13.9794      13.9793      13.9876       0.7941       0.0000
     31      14.8129      14.8463      14.8459      14.8545       0.7938       0.0000
     32      14.8133      14.8466      14.8462      14.8548       0.7937       0.0000
     33      16.7897      16.8240      16.8239      16.8324       0.8004       0.0000
     34      16.7899      16.8242      16.8240      16.8326       0.8003       0.0000
     35      17.4485      17.4828      17.4826      17.4913       0.7958       0.0000
     36      17.4487      17.4829      17.4827      17.4914       0.7957       0.0000
     37      18.5747      18.6060      18.6053      18.6128       0.8014       0.0000
     38      18.5755      18.6068      18.6059      18.6135       0.8013       0.0000
     39      18.9264      18.9586      18.9578      18.9657       0.7982       0.0000
     40      18.9268      18.9589      18.9579      18.9657       0.7981       0.0000
 

 k-point 213 :       0.3333   -0.1667   -0.1667
  band No. DFT-energies  QP-energies  QP-e(diag)   sigma(DFT)    Z            occupation

      1     -40.4421     -40.6193     -40.6183     -40.6823       0.7338       1.0000
      2     -40.4406     -40.6190     -40.6185     -40.6827       0.7350       1.0000
      3     -40.4351     -40.6110     -40.6105     -40.6725       0.7387       1.0000
      4     -40.4347     -40.6108     -40.6106     -40.6725       0.7395       1.0000
      5     -32.9365     -33.0888     -33.0884     -33.1418       0.7399       1.0000
      6     -32.9361     -33.0886     -33.0886     -33.1420       0.7404       1.0000
      7     -32.9321     -33.0831     -33.0828     -33.1348       0.7437       1.0000
      8     -32.9319     -33.0830     -33.0828     -33.1348       0.7437       1.0000
      9     -32.9306     -33.0818     -33.0818     -33.1341       0.7432       1.0000
     10     -32.9302     -33.0817     -33.0818     -33.1341       0.7439       1.0000
     11     -25.1162     -25.2021     -25.1983     -25.2250       0.7542       1.0000
     12     -25.1158     -25.2021     -25.1983     -25.2251       0.7550       1.0000
     13     -10.2316     -10.2742     -10.2737     -10.2872       0.7570       1.0000
     14     -10.2314     -10.2741     -10.2736     -10.2871       0.7570       1.0000
     15      -1.0242      -1.0481      -1.0464      -1.0528       0.7780       1.0000
     16      -1.0236      -1.0478      -1.0461      -1.0525       0.7785       1.0000
     17       0.9631       0.9479       0.9481       0.9444       0.8004       1.0000
     18       0.9638       0.9484       0.9485       0.9447       0.8009       1.0000
     19       6.8475       6.8663       6.8635       6.8672       0.8116       0.0000
     20       6.8476       6.8664       6.8635       6.8672       0.8116       0.0000
     21       8.8115       8.8352       8.8350       8.8409       0.8019       0.0000
     22       8.8116       8.8353       8.8351       8.8409       0.8019       0.0000
     23      10.6578      10.6854      10.6848      10.6917       0.7959       0.0000
     24      10.6580      10.6855      10.6849      10.6919       0.7958       0.0000
     25      11.3927      11.4215      11.4210      11.4282       0.7955       0.0000
     26      11.3928      11.4215      11.4210      11.4282       0.7954       0.0000
     27      13.1430      13.1736      13.1730      13.1807       0.7948       0.0000
     28      13.1431      13.1738      13.1732      13.1810       0.7947       0.0000
     29      14.0560      14.0896      14.0890      14.0978       0.7908       0.0000
     30      14.0561      14.0897      14.0891      14.0979       0.7908       0.0000
     31      15.6413      15.6760      15.6753      15.6843       0.7903       0.0000
     32      15.6415      15.6761      15.6754      15.6844       0.7902       0.0000
     33      16.8031      16.8329      16.8319      16.8388       0.8086       0.0000
     34      16.8034      16.8331      16.8321      16.8389       0.8085       0.0000
     35      17.6127      17.6442      17.6437      17.6514       0.8022       0.0000
     36      17.6146      17.6460      17.6456      17.6532       0.8021       0.0000
     37      19.9455      19.9845      19.9842      19.9946       0.7875       0.0000
     38      19.9459      19.9850      19.9846      19.9951       0.7875       0.0000
     39      20.3974      20.4350      20.4345      20.4446       0.7854       0.0000
     40      20.3990      20.4366      20.4361      20.4462       0.7853       0.0000
 

 k-point 214 :       0.5000   -0.1667   -0.1667
  band No. DFT-energies  QP-energies  QP-e(diag)   sigma(DFT)    Z            occupation

      1     -40.4402     -40.6139     -40.6127     -40.6749       0.7353       1.0000
      2     -40.4393     -40.6135     -40.6132     -40.6752       0.7371       1.0000
      3     -40.4310     -40.6047     -40.6041     -40.6641       0.7425       1.0000
      4     -40.4306     -40.6046     -40.6042     -40.6642       0.7429       1.0000
      5     -32.9365     -33.0849     -33.0846     -33.1367       0.7400       1.0000
      6     -32.9360     -33.0848     -33.0846     -33.1367       0.7405       1.0000
      7     -32.9309     -33.0794     -33.0792     -33.1300       0.7446       1.0000
      8     -32.9308     -33.0793     -33.0792     -33.1300       0.7450       1.0000
      9     -32.9276     -33.0761     -33.0761     -33.1267       0.7456       1.0000
     10     -32.9275     -33.0759     -33.0762     -33.1268       0.7461       1.0000
     11     -25.1255     -25.2122     -25.2078     -25.2348       0.7528       1.0000
     12     -25.1255     -25.2121     -25.2077     -25.2348       0.7524       1.0000
     13     -10.2079     -10.2500     -10.2495     -10.2627       0.7591       1.0000
     14     -10.2077     -10.2499     -10.2494     -10.2627       0.7593       1.0000
     15      -0.9158      -0.9389      -0.9380      -0.9442       0.7814       1.0000
     16      -0.9156      -0.9388      -0.9378      -0.9441       0.7813       1.0000
     17       1.0365       1.0215       1.0217       1.0181       0.8020       1.0000
     18       1.0366       1.0217       1.0218       1.0182       0.8019       1.0000
     19       6.9258       6.9445       6.9414       6.9451       0.8106       0.0000
     20       6.9259       6.9446       6.9415       6.9451       0.8104       0.0000
     21       8.9494       8.9733       8.9732       8.9791       0.8014       0.0000
     22       8.9495       8.9734       8.9733       8.9792       0.8014       0.0000
     23      10.4954      10.5230      10.5224      10.5294       0.7953       0.0000
     24      10.4955      10.5231      10.5225      10.5295       0.7952       0.0000
     25      11.1800      11.2076      11.2073      11.2142       0.7973       0.0000
     26      11.1802      11.2078      11.2074      11.2143       0.7972       0.0000
     27      13.3011      13.3330      13.3328      13.3410       0.7927       0.0000
     28      13.3012      13.3331      13.3329      13.3412       0.7926       0.0000
     29      13.7421      13.7743      13.7741      13.7824       0.7938       0.0000
     30      13.7423      13.7745      13.7743      13.7826       0.7937       0.0000
     31      14.4620      14.4949      14.4940      14.5024       0.7933       0.0000
     32      14.4622      14.4952      14.4942      14.5025       0.7932       0.0000
     33      17.3213      17.3524      17.3518      17.3591       0.8054       0.0000
     34      17.3215      17.3526      17.3519      17.3593       0.8053       0.0000
     35      18.1946      18.2276      18.2270      18.2352       0.7996       0.0000
     36      18.1950      18.2279      18.2272      18.2352       0.7996       0.0000
     37      19.5151      19.5472      19.5463      19.5543       0.7952       0.0000
     38      19.5154      19.5475      19.5466      19.5547       0.7952       0.0000
     39      19.9654      20.0040      20.0035      20.0139       0.7869       0.0000
     40      19.9657      20.0042      20.0038      20.0141       0.7868       0.0000
 

 k-point 215 :      -0.3333   -0.1667   -0.1667
  band No. DFT-energies  QP-energies  QP-e(diag)   sigma(DFT)    Z            occupation

      1     -40.4398     -40.6152     -40.6143     -40.6769       0.7360       1.0000
      2     -40.4397     -40.6152     -40.6143     -40.6769       0.7359       1.0000
      3     -40.4340     -40.6086     -40.6082     -40.6691       0.7411       1.0000
      4     -40.4337     -40.6085     -40.6083     -40.6692       0.7415       1.0000
      5     -32.9373     -33.0888     -33.0877     -33.1407       0.7396       1.0000
      6     -32.9370     -33.0888     -33.0873     -33.1403       0.7396       1.0000
      7     -32.9346     -33.0839     -33.0849     -33.1372       0.7419       1.0000
      8     -32.9344     -33.0839     -33.0848     -33.1371       0.7422       1.0000
      9     -32.9310     -33.0797     -33.0797     -33.1312       0.7425       1.0000
     10     -32.9308     -33.0797     -33.0797     -33.1313       0.7428       1.0000
     11     -25.1765     -25.2632     -25.2563     -25.2825       0.7534       1.0000
     12     -25.1764     -25.2631     -25.2562     -25.2824       0.7532       1.0000
     13     -10.0850     -10.1262     -10.1260     -10.1389       0.7610       1.0000
     14     -10.0848     -10.1261     -10.1259     -10.1388       0.7613       1.0000
     15      -0.2205      -0.2392      -0.2409      -0.2463       0.7917       1.0000
     16      -0.2199      -0.2389      -0.2406      -0.2461       0.7916       1.0000
     17       1.5458       1.5326       1.5327       1.5296       0.8059       1.0000
     18       1.5467       1.5331       1.5332       1.5300       0.8059       1.0000
     19       6.1581       6.1730       6.1681       6.1703       0.8154       0.0000
     20       6.1583       6.1731       6.1682       6.1704       0.8154       0.0000
     21       9.4103       9.4361       9.4359       9.4423       0.7991       0.0000
     22       9.4104       9.4361       9.4359       9.4424       0.7991       0.0000
     23      10.2073      10.2338      10.2335      10.2403       0.7968       0.0000
     24      10.2073      10.2338      10.2336      10.2403       0.7968       0.0000
     25      11.4736      11.5021      11.5020      11.5092       0.7957       0.0000
     26      11.4737      11.5023      11.5021      11.5093       0.7956       0.0000
     27      11.7583      11.7875      11.7874      11.7948       0.7963       0.0000
     28      11.7583      11.7876      11.7874      11.7949       0.7963       0.0000
     29      13.6943      13.7271      13.7268      13.7354       0.7922       0.0000
     30      13.6943      13.7271      13.7268      13.7354       0.7922       0.0000
     31      14.3893      14.4216      14.4214      14.4296       0.7953       0.0000
     32      14.3893      14.4217      14.4214      14.4297       0.7953       0.0000
     33      15.6167      15.6488      15.6484      15.6563       0.7995       0.0000
     34      15.6168      15.6489      15.6484      15.6563       0.7996       0.0000
     35      16.6778      16.7125      16.7124      16.7211       0.7986       0.0000
     36      16.6780      16.7127      16.7126      16.7213       0.7986       0.0000
     37      18.7867      18.8173      18.8165      18.8239       0.8005       0.0000
     38      18.7869      18.8175      18.8167      18.8242       0.8005       0.0000
     39      19.1853      19.2199      19.2194      19.2285       0.7900       0.0000
     40      19.1854      19.2200      19.2195      19.2286       0.7899       0.0000
 

 k-point 216 :      -0.1667   -0.1667   -0.1667
  band No. DFT-energies  QP-energies  QP-e(diag)   sigma(DFT)    Z            occupation

      1     -40.4386     -40.6166     -40.6160     -40.6794       0.7366       1.0000
      2     -40.4384     -40.6165     -40.6161     -40.6795       0.7369       1.0000
      3     -40.4333     -40.6086     -40.6081     -40.6689       0.7417       1.0000
      4     -40.4332     -40.6085     -40.6081     -40.6689       0.7419       1.0000
      5     -32.9384     -33.0909     -33.0907     -33.1444       0.7391       1.0000
      6     -32.9383     -33.0908     -33.0907     -33.1444       0.7392       1.0000
      7     -32.9351     -33.0856     -33.0854     -33.1378       0.7414       1.0000
      8     -32.9346     -33.0855     -33.0856     -33.1379       0.7424       1.0000
      9     -32.9316     -33.0814     -33.0814     -33.1336       0.7416       1.0000
     10     -32.9315     -33.0814     -33.0814     -33.1336       0.7417       1.0000
     11     -25.2168     -25.3037     -25.2946     -25.3200       0.7540       1.0000
     12     -25.2167     -25.3036     -25.2946     -25.3200       0.7539       1.0000
     13      -9.9856     -10.0260     -10.0260     -10.0387       0.7614       1.0000
     14      -9.9853     -10.0259     -10.0259     -10.0386       0.7621       1.0000
     15       0.5947       0.5809       0.5775       0.5732       0.8012       1.0000
     16       0.5959       0.5815       0.5781       0.5737       0.8014       1.0000
     17       2.0773       2.0656       2.0657       2.0631       0.8115       1.0000
     18       2.0794       2.0666       2.0668       2.0638       0.8117       1.0000
     19       4.8625       4.8731       4.8664       4.8672       0.8219       0.0000
     20       4.8630       4.8733       4.8666       4.8674       0.8215       0.0000
     21       9.8323       9.8593       9.8591       9.8658       0.7978       0.0000
     22       9.8324       9.8593       9.8591       9.8659       0.7977       0.0000
     23      11.1395      11.1696      11.1693      11.1771       0.7935       0.0000
     24      11.1396      11.1698      11.1694      11.1772       0.7934       0.0000
     25      11.2749      11.3019      11.3018      11.3086       0.7989       0.0000
     26      11.2750      11.3020      11.3019      11.3086       0.7988       0.0000
     27      12.4220      12.4525      12.4526      12.4607       0.7914       0.0000
     28      12.4221      12.4526      12.4527      12.4608       0.7914       0.0000
     29      12.6978      12.7285      12.7283      12.7362       0.7942       0.0000
     30      12.6979      12.7286      12.7284      12.7363       0.7943       0.0000
     31      12.8316      12.8620      12.8619      12.8696       0.7955       0.0000
     32      12.8320      12.8622      12.8621      12.8699       0.7954       0.0000
     33      14.1605      14.1936      14.1936      14.2022       0.7939       0.0000
     34      14.1606      14.1937      14.1937      14.2023       0.7938       0.0000
     35      16.4488      16.4822      16.4820      16.4905       0.7970       0.0000
     36      16.4488      16.4822      16.4820      16.4905       0.7970       0.0000
     37      16.7108      16.7446      16.7443      16.7528       0.7977       0.0000
     38      16.7110      16.7447      16.7444      16.7528       0.7976       0.0000
     39      18.1082      18.1308      18.1303      18.1351       0.8215       0.0000
     40      18.1085      18.1311      18.1306      18.1354       0.8211       0.0000
 


--------------------------------------------------------------------------------------------------------



IMPORTANT INFORMATION: All symmetrisations will be switched off!
NOSYMM: (Re-)initialisation of all symmetry stuff for point group C_1.

   GW_DIAG:  cpu time    1.8424: real time    1.8497
    GWLOOP:  cpu time 6451.7708: real time 6453.2124
 writing wavefunctions
    --------------------------------------------
   GWTOTAL:  cpu time 6453.6906: real time 6455.6654
    4ORBIT:  cpu time    0.0000: real time    0.0000

 Spin-Orbit-Coupling matrix elements

 Ion:    1  E_soc:    -33.0857185
 l=   1
     0.0000000    -5.0994034    -5.0994032
    -5.0994034     0.0000000    -5.0994034
    -5.0994032    -5.0994034     0.0000000
 l=   2
     0.0000000    -0.0829821     0.0000000    -0.0829821    -0.3318918
    -0.0829821     0.0000000    -0.2489189    -0.0829913    -0.0829821
     0.0000000    -0.2489189     0.0000000    -0.2489188     0.0000000
    -0.0829821    -0.0829913    -0.2489188     0.0000000    -0.0829821
    -0.3318918    -0.0829821     0.0000000    -0.0829821     0.0000000
 l=   3
     0.0000000     0.0000000     0.0000000     0.0000000     0.0000000     0.0000000     0.0000000
     0.0000000     0.0000000     0.0000000     0.0000000     0.0000000     0.0000000     0.0000000
     0.0000000     0.0000000     0.0000000     0.0000000     0.0000000     0.0000000     0.0000000
     0.0000000     0.0000000     0.0000000     0.0000000     0.0000000     0.0000000     0.0000000
     0.0000000     0.0000000     0.0000000     0.0000000     0.0000000     0.0000000     0.0000000
     0.0000000     0.0000000     0.0000000     0.0000000     0.0000000     0.0000000     0.0000000
     0.0000000     0.0000000     0.0000000     0.0000000     0.0000000     0.0000000     0.0000000

 total amount of memory used by VASP MPI-rank0   244319. kBytes
=======================================================================

   base      :      30000. kBytes
   nonl-proj :      22655. kBytes
   fftplans  :      12947. kBytes
   grid      :      12644. kBytes
   one-center:         62. kBytes
   HF        :        129. kBytes
   nonlr-proj:        437. kBytes
   wavefun   :     165445. kBytes
   2eintegral:          0. kBytes
   fockhandle:          0. kBytes
   response  :          0. kBytes
   cacher    :          0. kBytes
 
  
  
 General timing and accounting informations for this job:
 ========================================================
  
                  Total CPU time used (sec):     6461.230
                            User time (sec):     6433.324
                          System time (sec):       27.906
                         Elapsed time (sec):     6463.097
  
                   Maximum memory used (kb):     1910600.
                   Average memory used (kb):           0.
  
                          Minor page faults:       706560
                          Major page faults:            0
                 Voluntary context switches:        11841
