   1   1   0   0
  0.6532254E+02  0.4520565E-09  0.4520565E-09  0.4520565E-09  0.1000000E-15
  1.000000000000000E-004
  CAR 
 Rn_FCC                                  
     17.40450374    -47.92408867  301     -1.51356781      1.00000000
    -47.924  0.0000E+00  0.0000E+00
    -47.706  0.0000E+00  0.0000E+00
    -47.489  0.0000E+00  0.0000E+00
    -47.271  0.0000E+00  0.0000E+00
    -47.053  0.0000E+00  0.0000E+00
    -46.835  0.0000E+00  0.0000E+00
    -46.618  0.0000E+00  0.0000E+00
    -46.400  0.0000E+00  0.0000E+00
    -46.182  0.0000E+00  0.0000E+00
    -45.964  0.0000E+00  0.0000E+00
    -45.746  0.0000E+00  0.0000E+00
    -45.529  0.0000E+00  0.0000E+00
    -45.311  0.0000E+00  0.0000E+00
    -45.093  0.7692E-03  0.1675E-03
    -44.875  0.1813E+02  0.3948E+01
    -44.658  0.2391E+00  0.4000E+01
    -44.440  0.0000E+00  0.4000E+01
    -44.222  0.0000E+00  0.4000E+01
    -44.004  0.0000E+00  0.4000E+01
    -43.787  0.0000E+00  0.4000E+01
    -43.569  0.0000E+00  0.4000E+01
    -43.351  0.0000E+00  0.4000E+01
    -43.133  0.0000E+00  0.4000E+01
    -42.916  0.0000E+00  0.4000E+01
    -42.698  0.0000E+00  0.4000E+01
    -42.480  0.0000E+00  0.4000E+01
    -42.262  0.0000E+00  0.4000E+01
    -42.045  0.0000E+00  0.4000E+01
    -41.827  0.0000E+00  0.4000E+01
    -41.609  0.0000E+00  0.4000E+01
    -41.391  0.0000E+00  0.4000E+01
    -41.173  0.0000E+00  0.4000E+01
    -40.956  0.0000E+00  0.4000E+01
    -40.738  0.8461E-06  0.4000E+01
    -40.520  0.2126E+02  0.8629E+01
    -40.302  0.6297E+01  0.1000E+02
    -40.085  0.0000E+00  0.1000E+02
    -39.867  0.0000E+00  0.1000E+02
    -39.649  0.0000E+00  0.1000E+02
    -39.431  0.0000E+00  0.1000E+02
    -39.214  0.0000E+00  0.1000E+02
    -38.996  0.0000E+00  0.1000E+02
    -38.778  0.0000E+00  0.1000E+02
    -38.560  0.0000E+00  0.1000E+02
    -38.343  0.0000E+00  0.1000E+02
    -38.125  0.0000E+00  0.1000E+02
    -37.907  0.0000E+00  0.1000E+02
    -37.689  0.0000E+00  0.1000E+02
    -37.472  0.0000E+00  0.1000E+02
    -37.254  0.0000E+00  0.1000E+02
    -37.036  0.0000E+00  0.1000E+02
    -36.818  0.0000E+00  0.1000E+02
    -36.600  0.0000E+00  0.1000E+02
    -36.383  0.0000E+00  0.1000E+02
    -36.165  0.0000E+00  0.1000E+02
    -35.947  0.0000E+00  0.1000E+02
    -35.729  0.0000E+00  0.1000E+02
    -35.512  0.0000E+00  0.1000E+02
    -35.294  0.0000E+00  0.1000E+02
    -35.076  0.0000E+00  0.1000E+02
    -34.858  0.0000E+00  0.1000E+02
    -34.641  0.0000E+00  0.1000E+02
    -34.423  0.0000E+00  0.1000E+02
    -34.205  0.0000E+00  0.1000E+02
    -33.987  0.0000E+00  0.1000E+02
    -33.770  0.0000E+00  0.1000E+02
    -33.552  0.0000E+00  0.1000E+02
    -33.334  0.0000E+00  0.1000E+02
    -33.116  0.0000E+00  0.1000E+02
    -32.899  0.0000E+00  0.1000E+02
    -32.681  0.0000E+00  0.1000E+02
    -32.463  0.0000E+00  0.1000E+02
    -32.245  0.0000E+00  0.1000E+02
    -32.027  0.0000E+00  0.1000E+02
    -31.810  0.0000E+00  0.1000E+02
    -31.592  0.0000E+00  0.1000E+02
    -31.374  0.0000E+00  0.1000E+02
    -31.156  0.0000E+00  0.1000E+02
    -30.939  0.0000E+00  0.1000E+02
    -30.721  0.0000E+00  0.1000E+02
    -30.503  0.0000E+00  0.1000E+02
    -30.285  0.0000E+00  0.1000E+02
    -30.068  0.0000E+00  0.1000E+02
    -29.850  0.0000E+00  0.1000E+02
    -29.632  0.0000E+00  0.1000E+02
    -29.414  0.0000E+00  0.1000E+02
    -29.197  0.0000E+00  0.1000E+02
    -28.979  0.0000E+00  0.1000E+02
    -28.761  0.0000E+00  0.1000E+02
    -28.543  0.0000E+00  0.1000E+02
    -28.326  0.0000E+00  0.1000E+02
    -28.108  0.0000E+00  0.1000E+02
    -27.890  0.0000E+00  0.1000E+02
    -27.672  0.0000E+00  0.1000E+02
    -27.454  0.0000E+00  0.1000E+02
    -27.237  0.0000E+00  0.1000E+02
    -27.019  0.0000E+00  0.1000E+02
    -26.801  0.0000E+00  0.1000E+02
    -26.583  0.0000E+00  0.1000E+02
    -26.366  0.0000E+00  0.1000E+02
    -26.148  0.0000E+00  0.1000E+02
    -25.930  0.0000E+00  0.1000E+02
    -25.712  0.0000E+00  0.1000E+02
    -25.495  0.0000E+00  0.1000E+02
    -25.277  0.0000E+00  0.1000E+02
    -25.059  0.0000E+00  0.1000E+02
    -24.841  0.0000E+00  0.1000E+02
    -24.624  0.0000E+00  0.1000E+02
    -24.406  0.0000E+00  0.1000E+02
    -24.188  0.0000E+00  0.1000E+02
    -23.970  0.0000E+00  0.1000E+02
    -23.753  0.0000E+00  0.1000E+02
    -23.535  0.0000E+00  0.1000E+02
    -23.317  0.0000E+00  0.1000E+02
    -23.099  0.0000E+00  0.1000E+02
    -22.881  0.0000E+00  0.1000E+02
    -22.664  0.0000E+00  0.1000E+02
    -22.446  0.0000E+00  0.1000E+02
    -22.228  0.0000E+00  0.1000E+02
    -22.010  0.0000E+00  0.1000E+02
    -21.793  0.0000E+00  0.1000E+02
    -21.575  0.0000E+00  0.1000E+02
    -21.357  0.0000E+00  0.1000E+02
    -21.139  0.0000E+00  0.1000E+02
    -20.922  0.0000E+00  0.1000E+02
    -20.704  0.0000E+00  0.1000E+02
    -20.486  0.0000E+00  0.1000E+02
    -20.268  0.0000E+00  0.1000E+02
    -20.051  0.0000E+00  0.1000E+02
    -19.833  0.0000E+00  0.1000E+02
    -19.615  0.0000E+00  0.1000E+02
    -19.397  0.0000E+00  0.1000E+02
    -19.180  0.0000E+00  0.1000E+02
    -18.962  0.0000E+00  0.1000E+02
    -18.744  0.0000E+00  0.1000E+02
    -18.526  0.0000E+00  0.1000E+02
    -18.308  0.1264E-07  0.1000E+02
    -18.091  0.4281E+00  0.1009E+02
    -17.873  0.8693E+01  0.1199E+02
    -17.655  0.6338E-01  0.1200E+02
    -17.437  0.0000E+00  0.1200E+02
    -17.220  0.0000E+00  0.1200E+02
    -17.002  0.0000E+00  0.1200E+02
    -16.784  0.0000E+00  0.1200E+02
    -16.566  0.0000E+00  0.1200E+02
    -16.349  0.0000E+00  0.1200E+02
    -16.131  0.0000E+00  0.1200E+02
    -15.913  0.0000E+00  0.1200E+02
    -15.695  0.0000E+00  0.1200E+02
    -15.478  0.0000E+00  0.1200E+02
    -15.260  0.0000E+00  0.1200E+02
    -15.042  0.0000E+00  0.1200E+02
    -14.824  0.0000E+00  0.1200E+02
    -14.607  0.0000E+00  0.1200E+02
    -14.389  0.0000E+00  0.1200E+02
    -14.171  0.0000E+00  0.1200E+02
    -13.953  0.0000E+00  0.1200E+02
    -13.735  0.0000E+00  0.1200E+02
    -13.518  0.0000E+00  0.1200E+02
    -13.300  0.0000E+00  0.1200E+02
    -13.082  0.0000E+00  0.1200E+02
    -12.864  0.0000E+00  0.1200E+02
    -12.647  0.0000E+00  0.1200E+02
    -12.429  0.0000E+00  0.1200E+02
    -12.211  0.0000E+00  0.1200E+02
    -11.993  0.0000E+00  0.1200E+02
    -11.776  0.0000E+00  0.1200E+02
    -11.558  0.0000E+00  0.1200E+02
    -11.340  0.0000E+00  0.1200E+02
    -11.122  0.0000E+00  0.1200E+02
    -10.905  0.0000E+00  0.1200E+02
    -10.687  0.0000E+00  0.1200E+02
    -10.469  0.0000E+00  0.1200E+02
    -10.251  0.0000E+00  0.1200E+02
    -10.034  0.0000E+00  0.1200E+02
     -9.816  0.0000E+00  0.1200E+02
     -9.598  0.0000E+00  0.1200E+02
     -9.380  0.0000E+00  0.1200E+02
     -9.162  0.0000E+00  0.1200E+02
     -8.945  0.0000E+00  0.1200E+02
     -8.727  0.0000E+00  0.1200E+02
     -8.509  0.0000E+00  0.1200E+02
     -8.291  0.0000E+00  0.1200E+02
     -8.074  0.0000E+00  0.1200E+02
     -7.856  0.0000E+00  0.1200E+02
     -7.638  0.0000E+00  0.1200E+02
     -7.420  0.0000E+00  0.1200E+02
     -7.203  0.0000E+00  0.1200E+02
     -6.985  0.0000E+00  0.1200E+02
     -6.767  0.0000E+00  0.1200E+02
     -6.549  0.0000E+00  0.1200E+02
     -6.332  0.9709E-05  0.1200E+02
     -6.114  0.3800E+01  0.1283E+02
     -5.896  0.4168E+01  0.1374E+02
     -5.678  0.9711E+00  0.1395E+02
     -5.461  0.2443E+00  0.1400E+02
     -5.243  0.5627E-03  0.1400E+02
     -5.025  0.0000E+00  0.1400E+02
     -4.807  0.0000E+00  0.1400E+02
     -4.589  0.0000E+00  0.1400E+02
     -4.372  0.0000E+00  0.1400E+02
     -4.154  0.0000E+00  0.1400E+02
     -3.936  0.0000E+00  0.1400E+02
     -3.718  0.0000E+00  0.1400E+02
     -3.501  0.3235E-09  0.1400E+02
     -3.283  0.5829E+00  0.1413E+02
     -3.065  0.5876E+01  0.1541E+02
     -2.847  0.1305E+01  0.1569E+02
     -2.630  0.2188E+01  0.1617E+02
     -2.412  0.2903E+01  0.1680E+02
     -2.194  0.3283E+01  0.1751E+02
     -1.976  0.1751E+01  0.1790E+02
     -1.759  0.4746E+00  0.1800E+02
     -1.541  0.5486E-02  0.1800E+02
     -1.323  0.0000E+00  0.1800E+02
     -1.105  0.0000E+00  0.1800E+02
     -0.888  0.0000E+00  0.1800E+02
     -0.670  0.0000E+00  0.1800E+02
     -0.452  0.0000E+00  0.1800E+02
     -0.234  0.0000E+00  0.1800E+02
     -0.016  0.0000E+00  0.1800E+02
      0.201  0.0000E+00  0.1800E+02
      0.419  0.0000E+00  0.1800E+02
      0.637  0.0000E+00  0.1800E+02
      0.855  0.0000E+00  0.1800E+02
      1.072  0.0000E+00  0.1800E+02
      1.290  0.0000E+00  0.1800E+02
      1.508  0.0000E+00  0.1800E+02
      1.726  0.0000E+00  0.1800E+02
      1.943  0.0000E+00  0.1800E+02
      2.161  0.0000E+00  0.1800E+02
      2.379  0.2371E-17  0.1800E+02
      2.597  0.6748E-03  0.1800E+02
      2.814  0.4204E-01  0.1801E+02
      3.032  0.1298E-05  0.1801E+02
      3.250  0.2384E-10  0.1801E+02
      3.468  0.1215E+00  0.1804E+02
      3.685  0.1847E+00  0.1808E+02
      3.903  0.2491E+00  0.1813E+02
      4.121  0.6126E-03  0.1813E+02
      4.339  0.1389E+00  0.1816E+02
      4.557  0.1019E+01  0.1838E+02
      4.774  0.2161E+01  0.1885E+02
      4.992  0.3852E+00  0.1894E+02
      5.210  0.1804E+01  0.1933E+02
      5.428  0.1787E+01  0.1972E+02
      5.645  0.9587E+00  0.1993E+02
      5.863  0.1561E+01  0.2027E+02
      6.081  0.1904E+00  0.2031E+02
      6.299  0.1535E+01  0.2064E+02
      6.516  0.3504E+01  0.2141E+02
      6.734  0.2141E+01  0.2187E+02
      6.952  0.7545E+00  0.2204E+02
      7.170  0.4670E+00  0.2214E+02
      7.387  0.1174E+01  0.2239E+02
      7.605  0.2753E+01  0.2299E+02
      7.823  0.1499E+01  0.2332E+02
      8.041  0.1443E+01  0.2363E+02
      8.259  0.3855E+01  0.2447E+02
      8.476  0.6465E+00  0.2461E+02
      8.694  0.2695E+01  0.2520E+02
      8.912  0.1359E+01  0.2550E+02
      9.130  0.4764E+00  0.2560E+02
      9.347  0.1146E+01  0.2585E+02
      9.565  0.4393E-01  0.2586E+02
      9.783  0.1601E+01  0.2621E+02
     10.001  0.2292E+01  0.2671E+02
     10.218  0.1712E+01  0.2708E+02
     10.436  0.1335E+01  0.2737E+02
     10.654  0.2290E+01  0.2787E+02
     10.872  0.1727E+01  0.2825E+02
     11.089  0.7466E+00  0.2841E+02
     11.307  0.7697E+00  0.2858E+02
     11.525  0.1956E+01  0.2900E+02
     11.743  0.1982E+01  0.2943E+02
     11.960  0.1039E+01  0.2966E+02
     12.178  0.2436E+01  0.3019E+02
     12.396  0.7965E+00  0.3036E+02
     12.614  0.1305E+01  0.3065E+02
     12.832  0.1689E+01  0.3102E+02
     13.049  0.3055E-01  0.3102E+02
     13.267  0.1649E+01  0.3138E+02
     13.485  0.2028E+01  0.3182E+02
     13.703  0.4008E-01  0.3183E+02
     13.920  0.4907E-05  0.3183E+02
     14.138  0.4973E+00  0.3194E+02
     14.356  0.2018E+00  0.3198E+02
     14.574  0.6984E-01  0.3200E+02
     14.791  0.0000E+00  0.3200E+02
     15.009  0.0000E+00  0.3200E+02
     15.227  0.0000E+00  0.3200E+02
     15.445  0.0000E+00  0.3200E+02
     15.662  0.0000E+00  0.3200E+02
     15.880  0.0000E+00  0.3200E+02
     16.098  0.0000E+00  0.3200E+02
     16.316  0.0000E+00  0.3200E+02
     16.533  0.0000E+00  0.3200E+02
     16.751  0.0000E+00  0.3200E+02
     16.969  0.0000E+00  0.3200E+02
     17.187  0.0000E+00  0.3200E+02
     17.405  0.0000E+00  0.3200E+02
