   1   1   0   0
  0.6203946E+02  0.4443526E-09  0.4443526E-09  0.4443526E-09  0.1000000E-15
  1.000000000000000E-004
  CAR 
 Og_FCC                                  
     17.39059208    -33.57304907  301      2.88540494      1.00000000
    -33.573  0.0000E+00  0.0000E+00
    -33.403  0.0000E+00  0.0000E+00
    -33.233  0.0000E+00  0.0000E+00
    -33.063  0.0000E+00  0.0000E+00
    -32.894  0.0000E+00  0.0000E+00
    -32.724  0.0000E+00  0.0000E+00
    -32.554  0.0000E+00  0.0000E+00
    -32.384  0.0000E+00  0.0000E+00
    -32.214 -0.7156E-38 -0.1216E-38
    -32.044 -0.4657E-25 -0.7911E-26
    -31.874 -0.9005E-15 -0.1530E-15
    -31.704 -0.4775E-07 -0.8112E-08
    -31.535 -0.6566E-02 -0.1115E-02
    -31.365 -0.7587E+00 -0.1300E+00
    -31.195  0.2244E+02  0.3682E+01
    -31.025  0.1934E+01  0.4011E+01
    -30.855 -0.6357E-01  0.4000E+01
    -30.685 -0.2838E-05  0.4000E+01
    -30.515 -0.2928E-12  0.4000E+01
    -30.345  0.0000E+00  0.4000E+01
    -30.175  0.0000E+00  0.4000E+01
    -30.006  0.0000E+00  0.4000E+01
    -29.836  0.0000E+00  0.4000E+01
    -29.666  0.0000E+00  0.4000E+01
    -29.496  0.0000E+00  0.4000E+01
    -29.326  0.0000E+00  0.4000E+01
    -29.156  0.0000E+00  0.4000E+01
    -28.986  0.0000E+00  0.4000E+01
    -28.816  0.0000E+00  0.4000E+01
    -28.647  0.0000E+00  0.4000E+01
    -28.477  0.0000E+00  0.4000E+01
    -28.307  0.0000E+00  0.4000E+01
    -28.137  0.0000E+00  0.4000E+01
    -27.967  0.0000E+00  0.4000E+01
    -27.797  0.0000E+00  0.4000E+01
    -27.627  0.0000E+00  0.4000E+01
    -27.457  0.0000E+00  0.4000E+01
    -27.288  0.0000E+00  0.4000E+01
    -27.118  0.0000E+00  0.4000E+01
    -26.948  0.0000E+00  0.4000E+01
    -26.778  0.0000E+00  0.4000E+01
    -26.608  0.0000E+00  0.4000E+01
    -26.438  0.0000E+00  0.4000E+01
    -26.268  0.0000E+00  0.4000E+01
    -26.098  0.0000E+00  0.4000E+01
    -25.929  0.0000E+00  0.4000E+01
    -25.759  0.0000E+00  0.4000E+01
    -25.589  0.0000E+00  0.4000E+01
    -25.419 -0.1033E-29  0.4000E+01
    -25.249 -0.2027E-18  0.4000E+01
    -25.079 -0.1129E-09  0.4000E+01
    -24.909 -0.1750E-03  0.4000E+01
    -24.739 -0.5319E+00  0.3910E+01
    -24.569  0.1565E+02  0.6568E+01
    -24.400  0.2100E+02  0.1013E+02
    -24.230 -0.7927E+00  0.1000E+02
    -24.060 -0.5266E-03  0.1000E+02
    -23.890 -0.6221E-09  0.1000E+02
    -23.720  0.0000E+00  0.1000E+02
    -23.550  0.0000E+00  0.1000E+02
    -23.380  0.0000E+00  0.1000E+02
    -23.210  0.0000E+00  0.1000E+02
    -23.041  0.0000E+00  0.1000E+02
    -22.871  0.0000E+00  0.1000E+02
    -22.701  0.0000E+00  0.1000E+02
    -22.531  0.0000E+00  0.1000E+02
    -22.361  0.0000E+00  0.1000E+02
    -22.191  0.0000E+00  0.1000E+02
    -22.021  0.0000E+00  0.1000E+02
    -21.851 -0.1755E-38  0.1000E+02
    -21.682 -0.6358E-26  0.1000E+02
    -21.512 -0.7456E-16  0.1000E+02
    -21.342 -0.2771E-08  0.1000E+02
    -21.172 -0.3723E-03  0.1000E+02
    -21.002 -0.1837E+00  0.9969E+01
    -20.832  0.5337E+01  0.1088E+02
    -20.662  0.6888E+01  0.1205E+02
    -20.492 -0.2676E+00  0.1200E+02
    -20.323 -0.3393E-03  0.1200E+02
    -20.153 -0.8025E-09  0.1200E+02
    -19.983  0.0000E+00  0.1200E+02
    -19.813  0.0000E+00  0.1200E+02
    -19.643  0.0000E+00  0.1200E+02
    -19.473  0.0000E+00  0.1200E+02
    -19.303  0.0000E+00  0.1200E+02
    -19.133  0.0000E+00  0.1200E+02
    -18.963  0.0000E+00  0.1200E+02
    -18.794  0.0000E+00  0.1200E+02
    -18.624  0.0000E+00  0.1200E+02
    -18.454  0.0000E+00  0.1200E+02
    -18.284  0.0000E+00  0.1200E+02
    -18.114  0.0000E+00  0.1200E+02
    -17.944  0.0000E+00  0.1200E+02
    -17.774  0.0000E+00  0.1200E+02
    -17.604  0.0000E+00  0.1200E+02
    -17.435  0.0000E+00  0.1200E+02
    -17.265  0.0000E+00  0.1200E+02
    -17.095  0.0000E+00  0.1200E+02
    -16.925  0.0000E+00  0.1200E+02
    -16.755  0.0000E+00  0.1200E+02
    -16.585  0.0000E+00  0.1200E+02
    -16.415  0.0000E+00  0.1200E+02
    -16.245  0.0000E+00  0.1200E+02
    -16.076  0.0000E+00  0.1200E+02
    -15.906  0.0000E+00  0.1200E+02
    -15.736  0.0000E+00  0.1200E+02
    -15.566  0.0000E+00  0.1200E+02
    -15.396  0.0000E+00  0.1200E+02
    -15.226  0.0000E+00  0.1200E+02
    -15.056  0.0000E+00  0.1200E+02
    -14.886  0.0000E+00  0.1200E+02
    -14.717  0.0000E+00  0.1200E+02
    -14.547  0.0000E+00  0.1200E+02
    -14.377  0.0000E+00  0.1200E+02
    -14.207  0.0000E+00  0.1200E+02
    -14.037  0.0000E+00  0.1200E+02
    -13.867  0.0000E+00  0.1200E+02
    -13.697  0.0000E+00  0.1200E+02
    -13.527  0.0000E+00  0.1200E+02
    -13.357  0.0000E+00  0.1200E+02
    -13.188  0.0000E+00  0.1200E+02
    -13.018  0.0000E+00  0.1200E+02
    -12.848  0.0000E+00  0.1200E+02
    -12.678  0.0000E+00  0.1200E+02
    -12.508  0.0000E+00  0.1200E+02
    -12.338  0.0000E+00  0.1200E+02
    -12.168  0.0000E+00  0.1200E+02
    -11.998  0.0000E+00  0.1200E+02
    -11.829  0.0000E+00  0.1200E+02
    -11.659  0.0000E+00  0.1200E+02
    -11.489  0.0000E+00  0.1200E+02
    -11.319  0.0000E+00  0.1200E+02
    -11.149  0.0000E+00  0.1200E+02
    -10.979  0.0000E+00  0.1200E+02
    -10.809  0.0000E+00  0.1200E+02
    -10.639  0.0000E+00  0.1200E+02
    -10.470  0.0000E+00  0.1200E+02
    -10.300  0.0000E+00  0.1200E+02
    -10.130  0.0000E+00  0.1200E+02
     -9.960  0.0000E+00  0.1200E+02
     -9.790  0.0000E+00  0.1200E+02
     -9.620  0.0000E+00  0.1200E+02
     -9.450  0.0000E+00  0.1200E+02
     -9.280  0.0000E+00  0.1200E+02
     -9.111  0.0000E+00  0.1200E+02
     -8.941  0.0000E+00  0.1200E+02
     -8.771  0.0000E+00  0.1200E+02
     -8.601  0.0000E+00  0.1200E+02
     -8.431 -0.1010E-27  0.1200E+02
     -8.261 -0.4271E-17  0.1200E+02
     -8.091 -0.5320E-09  0.1200E+02
     -7.921 -0.1982E-03  0.1200E+02
     -7.751 -0.1540E+00  0.1197E+02
     -7.582  0.4005E+01  0.1265E+02
     -7.412  0.6521E+01  0.1376E+02
     -7.242  0.1301E+01  0.1398E+02
     -7.072  0.1054E+00  0.1400E+02
     -6.902 -0.5184E-02  0.1400E+02
     -6.732 -0.3113E-05  0.1400E+02
     -6.562 -0.6855E-11  0.1400E+02
     -6.392  0.0000E+00  0.1400E+02
     -6.223  0.0000E+00  0.1400E+02
     -6.053  0.0000E+00  0.1400E+02
     -5.883  0.0000E+00  0.1400E+02
     -5.713  0.0000E+00  0.1400E+02
     -5.543  0.0000E+00  0.1400E+02
     -5.373  0.0000E+00  0.1400E+02
     -5.203  0.0000E+00  0.1400E+02
     -5.033  0.0000E+00  0.1400E+02
     -4.864  0.0000E+00  0.1400E+02
     -4.694  0.0000E+00  0.1400E+02
     -4.524  0.0000E+00  0.1400E+02
     -4.354  0.0000E+00  0.1400E+02
     -4.184  0.0000E+00  0.1400E+02
     -4.014  0.0000E+00  0.1400E+02
     -3.844  0.0000E+00  0.1400E+02
     -3.674  0.0000E+00  0.1400E+02
     -3.505  0.0000E+00  0.1400E+02
     -3.335  0.0000E+00  0.1400E+02
     -3.165  0.0000E+00  0.1400E+02
     -2.995  0.0000E+00  0.1400E+02
     -2.825  0.0000E+00  0.1400E+02
     -2.655  0.0000E+00  0.1400E+02
     -2.485  0.0000E+00  0.1400E+02
     -2.315  0.0000E+00  0.1400E+02
     -2.145  0.0000E+00  0.1400E+02
     -1.976  0.0000E+00  0.1400E+02
     -1.806  0.0000E+00  0.1400E+02
     -1.636  0.0000E+00  0.1400E+02
     -1.466  0.0000E+00  0.1400E+02
     -1.296  0.0000E+00  0.1400E+02
     -1.126  0.0000E+00  0.1400E+02
     -0.956 -0.7815E-40  0.1400E+02
     -0.786 -0.5566E-27  0.1400E+02
     -0.617 -0.1189E-16  0.1400E+02
     -0.447 -0.7311E-09  0.1400E+02
     -0.277 -0.1390E-03  0.1400E+02
     -0.107 -0.7487E-01  0.1399E+02
      0.063  0.2052E+01  0.1434E+02
      0.233  0.5766E+01  0.1532E+02
      0.403  0.1448E+01  0.1556E+02
      0.573  0.7376E+00  0.1569E+02
      0.742  0.7529E+00  0.1581E+02
      0.912  0.3413E+00  0.1587E+02
      1.082  0.8118E+00  0.1601E+02
      1.252  0.2373E+01  0.1641E+02
      1.422  0.1364E+01  0.1665E+02
      1.592  0.1603E+01  0.1692E+02
      1.762  0.1289E+01  0.1714E+02
      1.932  0.1354E+01  0.1737E+02
      2.101  0.1030E+01  0.1754E+02
      2.271  0.1091E+01  0.1773E+02
      2.441  0.7799E+00  0.1786E+02
      2.611  0.4976E+00  0.1794E+02
      2.781  0.2515E+00  0.1799E+02
      2.951  0.8089E-01  0.1800E+02
      3.121 -0.2946E-03  0.1800E+02
      3.291  0.1405E-01  0.1800E+02
      3.461 -0.5679E-03  0.1800E+02
      3.630 -0.1901E-05  0.1800E+02
      3.800 -0.2463E-07  0.1800E+02
      3.970 -0.4412E-03  0.1800E+02
      4.140  0.1441E-01  0.1801E+02
      4.310  0.1171E+00  0.1803E+02
      4.480  0.6203E-01  0.1804E+02
      4.650  0.3411E-01  0.1804E+02
      4.820 -0.7078E-02  0.1804E+02
      4.989  0.1438E+00  0.1806E+02
      5.159  0.1170E+00  0.1808E+02
      5.329  0.3128E+00  0.1814E+02
      5.499  0.1436E+00  0.1816E+02
      5.669  0.1930E+00  0.1819E+02
      5.839  0.4774E+00  0.1828E+02
      6.009  0.6192E+00  0.1838E+02
      6.179  0.1606E+01  0.1865E+02
      6.348  0.1026E+01  0.1883E+02
      6.518  0.3959E+00  0.1890E+02
      6.688  0.1990E+01  0.1923E+02
      6.858  0.1702E+01  0.1952E+02
      7.028  0.1165E+01  0.1972E+02
      7.198  0.1112E+01  0.1991E+02
      7.368  0.6312E+00  0.2002E+02
      7.538  0.1355E+00  0.2004E+02
      7.708  0.5420E+00  0.2013E+02
      7.877  0.3905E+00  0.2020E+02
      8.047  0.2789E+00  0.2025E+02
      8.217  0.3607E+01  0.2086E+02
      8.387  0.1869E+01  0.2118E+02
      8.557  0.7643E+00  0.2131E+02
      8.727  0.9074E+00  0.2146E+02
      8.897  0.1073E+01  0.2164E+02
      9.067  0.1695E+01  0.2193E+02
      9.236  0.2289E+01  0.2232E+02
      9.406  0.2190E+01  0.2269E+02
      9.576  0.4527E+00  0.2277E+02
      9.746  0.8101E+00  0.2291E+02
      9.916  0.1631E+01  0.2318E+02
     10.086  0.3348E+01  0.2375E+02
     10.256  0.9936E+00  0.2392E+02
     10.426  0.8899E+00  0.2407E+02
     10.595  0.1151E+01  0.2427E+02
     10.765  0.1245E+01  0.2448E+02
     10.935  0.2436E+01  0.2489E+02
     11.105  0.2903E+01  0.2538E+02
     11.275  0.6020E+00  0.2549E+02
     11.445  0.1732E+01  0.2578E+02
     11.615  0.1313E+01  0.2600E+02
     11.785  0.9763E+00  0.2617E+02
     11.954  0.6667E+00  0.2628E+02
     12.124  0.1649E+01  0.2656E+02
     12.294  0.2285E+01  0.2695E+02
     12.464  0.1042E+01  0.2713E+02
     12.634  0.8838E+00  0.2728E+02
     12.804  0.6416E+00  0.2739E+02
     12.974  0.1732E+01  0.2768E+02
     13.144  0.6881E+00  0.2780E+02
     13.314  0.1218E-01  0.2780E+02
     13.483  0.2094E+00  0.2784E+02
     13.653  0.2852E+00  0.2789E+02
     13.823  0.1778E+00  0.2792E+02
     13.993  0.3474E+00  0.2797E+02
     14.163  0.5640E-01  0.2798E+02
     14.333  0.7978E-01  0.2800E+02
     14.503 -0.3233E-02  0.2800E+02
     14.673 -0.5455E-05  0.2800E+02
     14.842 -0.4080E-04  0.2800E+02
     15.012  0.1207E-02  0.2800E+02
     15.182  0.1549E-01  0.2800E+02
     15.352 -0.5058E-03  0.2800E+02
     15.522 -0.4897E-05  0.2800E+02
     15.692 -0.3775E-10  0.2800E+02
     15.862  0.0000E+00  0.2800E+02
     16.032  0.0000E+00  0.2800E+02
     16.201  0.0000E+00  0.2800E+02
     16.371  0.0000E+00  0.2800E+02
     16.541  0.0000E+00  0.2800E+02
     16.711  0.0000E+00  0.2800E+02
     16.881  0.0000E+00  0.2800E+02
     17.051  0.0000E+00  0.2800E+02
     17.221  0.0000E+00  0.2800E+02
     17.391  0.0000E+00  0.2800E+02
