   1   1   0   0
  0.5987587E+02  0.4391258E-09  0.4391258E-09  0.4391258E-09  0.1000000E-15
  1.000000000000000E-004
  CAR 
 Og_FCC                                  
     17.29556996    -33.03384572  301      3.59317337      1.00000000
    -33.034  0.0000E+00  0.0000E+00
    -32.866  0.0000E+00  0.0000E+00
    -32.698  0.0000E+00  0.0000E+00
    -32.531  0.0000E+00  0.0000E+00
    -32.363  0.0000E+00  0.0000E+00
    -32.195  0.0000E+00  0.0000E+00
    -32.027  0.0000E+00  0.0000E+00
    -31.859  0.0000E+00  0.0000E+00
    -31.692 -0.7037E-37 -0.1180E-37
    -31.524 -0.2192E-24 -0.3678E-25
    -31.356 -0.2341E-14 -0.3927E-15
    -31.188 -0.7897E-07 -0.1325E-07
    -31.021 -0.7961E-02 -0.1336E-02
    -30.853 -0.7489E+00 -0.1270E+00
    -30.685  0.2263E+02  0.3670E+01
    -30.517  0.2041E+01  0.4012E+01
    -30.350 -0.7195E-01  0.4000E+01
    -30.182 -0.4192E-05  0.4000E+01
    -30.014 -0.6509E-12  0.4000E+01
    -29.846  0.0000E+00  0.4000E+01
    -29.679  0.0000E+00  0.4000E+01
    -29.511  0.0000E+00  0.4000E+01
    -29.343  0.0000E+00  0.4000E+01
    -29.175  0.0000E+00  0.4000E+01
    -29.007  0.0000E+00  0.4000E+01
    -28.840  0.0000E+00  0.4000E+01
    -28.672  0.0000E+00  0.4000E+01
    -28.504  0.0000E+00  0.4000E+01
    -28.336  0.0000E+00  0.4000E+01
    -28.169  0.0000E+00  0.4000E+01
    -28.001  0.0000E+00  0.4000E+01
    -27.833  0.0000E+00  0.4000E+01
    -27.665  0.0000E+00  0.4000E+01
    -27.498  0.0000E+00  0.4000E+01
    -27.330  0.0000E+00  0.4000E+01
    -27.162  0.0000E+00  0.4000E+01
    -26.994  0.0000E+00  0.4000E+01
    -26.827  0.0000E+00  0.4000E+01
    -26.659  0.0000E+00  0.4000E+01
    -26.491  0.0000E+00  0.4000E+01
    -26.323  0.0000E+00  0.4000E+01
    -26.155  0.0000E+00  0.4000E+01
    -25.988  0.0000E+00  0.4000E+01
    -25.820  0.0000E+00  0.4000E+01
    -25.652  0.0000E+00  0.4000E+01
    -25.484  0.0000E+00  0.4000E+01
    -25.317  0.0000E+00  0.4000E+01
    -25.149  0.0000E+00  0.4000E+01
    -24.981 -0.2916E-35  0.4000E+01
    -24.813 -0.4885E-23  0.4000E+01
    -24.646 -0.2765E-13  0.4000E+01
    -24.478 -0.5144E-06  0.4000E+01
    -24.310 -0.2761E-01  0.3995E+01
    -24.142 -0.4458E+00  0.3921E+01
    -23.975  0.3552E+02  0.9880E+01
    -23.807  0.7686E+00  0.1001E+02
    -23.639 -0.5380E-01  0.1000E+02
    -23.471 -0.1714E-05  0.1000E+02
    -23.303 -0.1520E-12  0.1000E+02
    -23.136  0.0000E+00  0.1000E+02
    -22.968  0.0000E+00  0.1000E+02
    -22.800  0.0000E+00  0.1000E+02
    -22.632  0.0000E+00  0.1000E+02
    -22.465  0.0000E+00  0.1000E+02
    -22.297  0.0000E+00  0.1000E+02
    -22.129  0.0000E+00  0.1000E+02
    -21.961  0.0000E+00  0.1000E+02
    -21.794  0.0000E+00  0.1000E+02
    -21.626  0.0000E+00  0.1000E+02
    -21.458  0.0000E+00  0.1000E+02
    -21.290 -0.2313E-30  0.1000E+02
    -21.123 -0.1760E-19  0.1000E+02
    -20.955 -0.4874E-11  0.1000E+02
    -20.787 -0.5370E-05  0.1000E+02
    -20.619 -0.2575E-01  0.9996E+01
    -20.451  0.4258E+00  0.1007E+02
    -20.284  0.1119E+02  0.1194E+02
    -20.116  0.3534E+00  0.1200E+02
    -19.948 -0.2020E-01  0.1200E+02
    -19.780 -0.1027E-05  0.1200E+02
    -19.613 -0.1575E-12  0.1200E+02
    -19.445  0.0000E+00  0.1200E+02
    -19.277  0.0000E+00  0.1200E+02
    -19.109  0.0000E+00  0.1200E+02
    -18.942  0.0000E+00  0.1200E+02
    -18.774  0.0000E+00  0.1200E+02
    -18.606  0.0000E+00  0.1200E+02
    -18.438  0.0000E+00  0.1200E+02
    -18.271  0.0000E+00  0.1200E+02
    -18.103  0.0000E+00  0.1200E+02
    -17.935  0.0000E+00  0.1200E+02
    -17.767  0.0000E+00  0.1200E+02
    -17.599  0.0000E+00  0.1200E+02
    -17.432  0.0000E+00  0.1200E+02
    -17.264  0.0000E+00  0.1200E+02
    -17.096  0.0000E+00  0.1200E+02
    -16.928  0.0000E+00  0.1200E+02
    -16.761  0.0000E+00  0.1200E+02
    -16.593  0.0000E+00  0.1200E+02
    -16.425  0.0000E+00  0.1200E+02
    -16.257  0.0000E+00  0.1200E+02
    -16.090  0.0000E+00  0.1200E+02
    -15.922  0.0000E+00  0.1200E+02
    -15.754  0.0000E+00  0.1200E+02
    -15.586  0.0000E+00  0.1200E+02
    -15.419  0.0000E+00  0.1200E+02
    -15.251  0.0000E+00  0.1200E+02
    -15.083  0.0000E+00  0.1200E+02
    -14.915  0.0000E+00  0.1200E+02
    -14.747  0.0000E+00  0.1200E+02
    -14.580  0.0000E+00  0.1200E+02
    -14.412  0.0000E+00  0.1200E+02
    -14.244  0.0000E+00  0.1200E+02
    -14.076  0.0000E+00  0.1200E+02
    -13.909  0.0000E+00  0.1200E+02
    -13.741  0.0000E+00  0.1200E+02
    -13.573  0.0000E+00  0.1200E+02
    -13.405  0.0000E+00  0.1200E+02
    -13.238  0.0000E+00  0.1200E+02
    -13.070  0.0000E+00  0.1200E+02
    -12.902  0.0000E+00  0.1200E+02
    -12.734  0.0000E+00  0.1200E+02
    -12.567  0.0000E+00  0.1200E+02
    -12.399  0.0000E+00  0.1200E+02
    -12.231  0.0000E+00  0.1200E+02
    -12.063  0.0000E+00  0.1200E+02
    -11.895  0.0000E+00  0.1200E+02
    -11.728  0.0000E+00  0.1200E+02
    -11.560  0.0000E+00  0.1200E+02
    -11.392  0.0000E+00  0.1200E+02
    -11.224  0.0000E+00  0.1200E+02
    -11.057  0.0000E+00  0.1200E+02
    -10.889  0.0000E+00  0.1200E+02
    -10.721  0.0000E+00  0.1200E+02
    -10.553  0.0000E+00  0.1200E+02
    -10.386  0.0000E+00  0.1200E+02
    -10.218  0.0000E+00  0.1200E+02
    -10.050  0.0000E+00  0.1200E+02
     -9.882  0.0000E+00  0.1200E+02
     -9.715  0.0000E+00  0.1200E+02
     -9.547  0.0000E+00  0.1200E+02
     -9.379  0.0000E+00  0.1200E+02
     -9.211  0.0000E+00  0.1200E+02
     -9.043  0.0000E+00  0.1200E+02
     -8.876  0.0000E+00  0.1200E+02
     -8.708  0.0000E+00  0.1200E+02
     -8.540 -0.2905E-38  0.1200E+02
     -8.372 -0.1001E-25  0.1200E+02
     -8.205 -0.1228E-15  0.1200E+02
     -8.037 -0.5087E-08  0.1200E+02
     -7.869 -0.7193E-03  0.1200E+02
     -7.701 -0.2059E+00  0.1197E+02
     -7.534  0.5326E+01  0.1286E+02
     -7.366  0.5692E+01  0.1381E+02
     -7.198  0.1076E+01  0.1399E+02
     -7.030  0.3637E-01  0.1400E+02
     -6.863 -0.2584E-02  0.1400E+02
     -6.695 -0.7045E-06  0.1400E+02
     -6.527 -0.8316E-12  0.1400E+02
     -6.359  0.0000E+00  0.1400E+02
     -6.191  0.0000E+00  0.1400E+02
     -6.024  0.0000E+00  0.1400E+02
     -5.856  0.0000E+00  0.1400E+02
     -5.688  0.0000E+00  0.1400E+02
     -5.520  0.0000E+00  0.1400E+02
     -5.353  0.0000E+00  0.1400E+02
     -5.185  0.0000E+00  0.1400E+02
     -5.017  0.0000E+00  0.1400E+02
     -4.849  0.0000E+00  0.1400E+02
     -4.682  0.0000E+00  0.1400E+02
     -4.514  0.0000E+00  0.1400E+02
     -4.346  0.0000E+00  0.1400E+02
     -4.178  0.0000E+00  0.1400E+02
     -4.011  0.0000E+00  0.1400E+02
     -3.843  0.0000E+00  0.1400E+02
     -3.675  0.0000E+00  0.1400E+02
     -3.507  0.0000E+00  0.1400E+02
     -3.339  0.0000E+00  0.1400E+02
     -3.172  0.0000E+00  0.1400E+02
     -3.004  0.0000E+00  0.1400E+02
     -2.836  0.0000E+00  0.1400E+02
     -2.668  0.0000E+00  0.1400E+02
     -2.501  0.0000E+00  0.1400E+02
     -2.333  0.0000E+00  0.1400E+02
     -2.165  0.0000E+00  0.1400E+02
     -1.997  0.0000E+00  0.1400E+02
     -1.830  0.0000E+00  0.1400E+02
     -1.662  0.0000E+00  0.1400E+02
     -1.494  0.0000E+00  0.1400E+02
     -1.326  0.0000E+00  0.1400E+02
     -1.159  0.0000E+00  0.1400E+02
     -0.991  0.0000E+00  0.1400E+02
     -0.823  0.0000E+00  0.1400E+02
     -0.655  0.0000E+00  0.1400E+02
     -0.487  0.0000E+00  0.1400E+02
     -0.320 -0.4281E-32  0.1400E+02
     -0.152 -0.7892E-21  0.1400E+02
      0.016 -0.4831E-12  0.1400E+02
      0.184 -0.1012E-05  0.1400E+02
      0.351 -0.7133E-02  0.1400E+02
      0.519  0.3146E-01  0.1400E+02
      0.687  0.5257E+01  0.1489E+02
      0.855  0.3509E+01  0.1547E+02
      1.022  0.8267E+00  0.1561E+02
      1.190  0.7125E+00  0.1573E+02
      1.358  0.5392E+00  0.1582E+02
      1.526  0.4439E+00  0.1590E+02
      1.693  0.8857E+00  0.1605E+02
      1.861  0.2124E+01  0.1640E+02
      2.029  0.1274E+01  0.1662E+02
      2.197  0.1329E+01  0.1684E+02
      2.365  0.1686E+01  0.1712E+02
      2.532  0.1141E+01  0.1731E+02
      2.700  0.6421E+00  0.1742E+02
      2.868  0.1406E+01  0.1766E+02
      3.036  0.6958E+00  0.1777E+02
      3.203  0.6824E+00  0.1789E+02
      3.371  0.4145E+00  0.1796E+02
      3.539  0.1984E+00  0.1799E+02
      3.707  0.7063E-01  0.1800E+02
      3.874 -0.2636E-02  0.1800E+02
      4.042 -0.6396E-05  0.1800E+02
      4.210 -0.6667E-10  0.1800E+02
      4.378 -0.8081E-05  0.1800E+02
      4.545 -0.4171E-02  0.1800E+02
      4.713  0.9943E-01  0.1802E+02
      4.881  0.3618E-01  0.1802E+02
      5.049  0.9671E-01  0.1804E+02
      5.217  0.2597E-03  0.1804E+02
      5.384  0.1856E-01  0.1804E+02
      5.552  0.2178E+00  0.1808E+02
      5.720  0.1164E+00  0.1810E+02
      5.888  0.4091E+00  0.1817E+02
      6.055  0.2120E+00  0.1820E+02
      6.223  0.3497E+00  0.1826E+02
      6.391  0.8898E+00  0.1841E+02
      6.559  0.1718E+01  0.1870E+02
      6.726  0.8730E+00  0.1885E+02
      6.894  0.6143E+00  0.1895E+02
      7.062  0.2108E+01  0.1930E+02
      7.230  0.2011E+01  0.1964E+02
      7.397  0.1052E+01  0.1982E+02
      7.565  0.9722E+00  0.1998E+02
      7.733  0.2862E+00  0.2003E+02
      7.901  0.3936E+00  0.2009E+02
      8.069  0.5795E+00  0.2019E+02
      8.236  0.3269E-01  0.2020E+02
      8.404  0.1253E+01  0.2041E+02
      8.572  0.4254E+01  0.2112E+02
      8.740  0.4311E+00  0.2119E+02
      8.907  0.1167E+01  0.2139E+02
      9.075  0.9223E+00  0.2154E+02
      9.243  0.9613E+00  0.2171E+02
      9.411  0.2020E+01  0.2204E+02
      9.578  0.2336E+01  0.2244E+02
      9.746  0.1750E+01  0.2273E+02
      9.914  0.3889E+00  0.2280E+02
     10.082  0.1004E+01  0.2296E+02
     10.249  0.1804E+01  0.2327E+02
     10.417  0.3143E+01  0.2379E+02
     10.585  0.8124E+00  0.2393E+02
     10.753  0.8380E+00  0.2407E+02
     10.921  0.1174E+01  0.2427E+02
     11.088  0.1466E+01  0.2451E+02
     11.256  0.2301E+01  0.2490E+02
     11.424  0.2851E+01  0.2538E+02
     11.592  0.9493E+00  0.2554E+02
     11.759  0.1585E+01  0.2580E+02
     11.927  0.1152E+01  0.2600E+02
     12.095  0.1385E+01  0.2623E+02
     12.263  0.8052E+00  0.2636E+02
     12.430  0.1373E+01  0.2659E+02
     12.598  0.2071E+01  0.2694E+02
     12.766  0.1261E+01  0.2715E+02
     12.934  0.7149E+00  0.2727E+02
     13.101  0.5678E+00  0.2737E+02
     13.269  0.1944E+01  0.2769E+02
     13.437  0.5902E+00  0.2779E+02
     13.605  0.2096E-01  0.2780E+02
     13.773  0.1072E+00  0.2781E+02
     13.940  0.3916E+00  0.2788E+02
     14.108  0.2230E+00  0.2792E+02
     14.276  0.2675E+00  0.2796E+02
     14.444  0.8214E-01  0.2798E+02
     14.611  0.9622E-01  0.2799E+02
     14.779  0.1565E-01  0.2800E+02
     14.947  0.1397E-01  0.2800E+02
     15.115  0.1507E-01  0.2800E+02
     15.282 -0.4991E-03  0.2800E+02
     15.450 -0.5908E-05  0.2800E+02
     15.618 -0.6192E-10  0.2800E+02
     15.786 -0.3631E-17  0.2800E+02
     15.953  0.0000E+00  0.2800E+02
     16.121  0.0000E+00  0.2800E+02
     16.289  0.0000E+00  0.2800E+02
     16.457  0.0000E+00  0.2800E+02
     16.625  0.0000E+00  0.2800E+02
     16.792  0.0000E+00  0.2800E+02
     16.960  0.0000E+00  0.2800E+02
     17.128  0.0000E+00  0.2800E+02
     17.296  0.0000E+00  0.2800E+02
