    1    1    1    1
  0.6203946E+02  0.4443525E-09  0.4443525E-09  0.4443525E-09  0.1000000E-15
  1.000000000000000E-004
  CAR 
 Og_FCC                                  
     18    365     28
 
  0.0000000E+00  0.0000000E+00  0.0000000E+00  0.1371742E-02
    1      -31.256520   1.000000
    2      -31.256506   1.000000
    3      -31.256492   1.000000
    4      -31.256478   1.000000
    5      -24.566794   1.000000
    6      -24.566778   1.000000
    7      -24.563646   1.000000
    8      -24.563641   1.000000
    9      -24.563620   1.000000
   10      -24.563615   1.000000
   11      -20.918604   1.000000
   12      -20.918500   1.000000
   13       -7.201332   1.000000
   14       -7.201295   1.000000
   15        2.837121   0.860529
   16        2.837139   0.860426
   17        2.837173   0.860232
   18        2.837189   0.860141
   19        3.164665  -0.000284
   20        3.164749  -0.000283
   21       10.215086   0.000000
   22       10.215103   0.000000
   23       10.215129   0.000000
   24       10.215146   0.000000
   25       10.630510   0.000000
   26       10.630537   0.000000
   27       10.850759   0.000000
   28       10.850780   0.000000
 
  0.1111111E+00  0.1490883E-16 -0.1387779E-16  0.2743484E-02
    1      -31.256422   1.000000
    2      -31.256381   1.000000
    3      -31.256137   1.000000
    4      -31.256121   1.000000
    5      -24.566126   1.000000
    6      -24.566103   1.000000
    7      -24.563698   1.000000
    8      -24.563683   1.000000
    9      -24.562878   1.000000
   10      -24.562848   1.000000
   11      -20.907796   1.000000
   12      -20.907692   1.000000
   13       -7.241302   1.000000
   14       -7.241266   1.000000
   15        1.877671   1.000000
   16        1.877692   1.000000
   17        2.772399   1.033892
   18        2.772465   1.033868
   19        4.194150  -0.000000
   20        4.194184  -0.000000
   21        9.533304   0.000000
   22        9.533346   0.000000
   23       10.331002   0.000000
   24       10.331052   0.000000
   25       10.640604   0.000000
   26       10.640655   0.000000
   27       11.874556   0.000000
   28       12.115491   0.000000
 
  0.2222222E+00  0.2062080E-17 -0.1387779E-16  0.2743484E-02
    1      -31.256217   1.000000
    2      -31.256176   1.000000
    3      -31.255408   1.000000
    4      -31.255393   1.000000
    5      -24.565197   1.000000
    6      -24.565152   1.000000
    7      -24.563212   1.000000
    8      -24.563201   1.000000
    9      -24.560975   1.000000
   10      -24.560945   1.000000
   11      -20.880204   1.000000
   12      -20.880099   1.000000
   13       -7.342822   1.000000
   14       -7.342787   1.000000
   15        0.977887   1.000000
   16        0.977916   1.000000
   17        2.617763   1.000508
   18        2.617825   1.000509
   19        5.155012  -0.000000
   20        5.155055  -0.000000
   21        9.227062   0.000000
   22        9.227082   0.000000
   23       10.315697   0.000000
   24       10.315738   0.000000
   25       10.703750   0.000000
   26       10.703783   0.000000
   27       11.382588   0.000000
   28       11.946085   0.000000
 
  0.3333333E+00  0.3084870E-16  0.0000000E+00  0.2743484E-02
    1      -31.255948   1.000000
    2      -31.255907   1.000000
    3      -31.254496   1.000000
    4      -31.254480   1.000000
    5      -24.565385   1.000000
    6      -24.565340   1.000000
    7      -24.561371   1.000000
    8      -24.561361   1.000000
    9      -24.558776   1.000000
   10      -24.558746   1.000000
   11      -20.848430   1.000000
   12      -20.848324   1.000000
   13       -7.458604   1.000000
   14       -7.458571   1.000000
   15        0.349109   1.000000
   16        0.349142   1.000000
   17        2.455497   1.000000
   18        2.455555   1.000000
   19        5.586328  -0.000000
   20        5.586392  -0.000000
   21        9.688373   0.000000
   22        9.688399   0.000000
   23        9.966675   0.000000
   24        9.966719   0.000000
   25       10.387708   0.000000
   26       10.387755   0.000000
   27       10.905393   0.000000
   28       10.905411   0.000000
 
  0.4444444E+00  0.4124160E-17 -0.2775558E-16  0.2743484E-02
    1      -31.255837   1.000000
    2      -31.255796   1.000000
    3      -31.254017   1.000000
    4      -31.254002   1.000000
    5      -24.565692   1.000000
    6      -24.565650   1.000000
    7      -24.560043   1.000000
    8      -24.560033   1.000000
    9      -24.557395   1.000000
   10      -24.557365   1.000000
   11      -20.827484   1.000000
   12      -20.827378   1.000000
   13       -7.534545   1.000000
   14       -7.534512   1.000000
   15        0.027840   1.000000
   16        0.027876   1.000000
   17        2.356105   1.000000
   18        2.356161   1.000000
   19        5.655141   0.000000
   20        5.655215   0.000000
   21        9.718073   0.000000
   22        9.718120   0.000000
   23        9.977063   0.000000
   24        9.977097   0.000000
   25       10.125167   0.000000
   26       10.125215   0.000000
   27       11.331802   0.000000
   28       11.331819   0.000000
 
  0.1925930E-33  0.1111111E+00  0.6938894E-17  0.2743484E-02
    1      -31.256406   1.000000
    2      -31.256398   1.000000
    3      -31.256143   1.000000
    4      -31.256115   1.000000
    5      -24.566122   1.000000
    6      -24.566108   1.000000
    7      -24.563699   1.000000
    8      -24.563682   1.000000
    9      -24.562865   1.000000
   10      -24.562860   1.000000
   11      -20.907796   1.000000
   12      -20.907692   1.000000
   13       -7.241302   1.000000
   14       -7.241266   1.000000
   15        1.877674   1.000000
   16        1.877689   1.000000
   17        2.772423   1.033883
   18        2.772442   1.033877
   19        4.194148  -0.000000
   20        4.194185  -0.000000
   21        9.533305   0.000000
   22        9.533345   0.000000
   23       10.331024   0.000000
   24       10.331031   0.000000
   25       10.640625   0.000000
   26       10.640634   0.000000
   27       11.865559   0.000000
   28       11.931855   0.000000
 
  0.1111111E+00  0.1111111E+00 -0.1387779E-16  0.2743484E-02
    1      -31.256287   1.000000
    2      -31.256258   1.000000
    3      -31.256097   1.000000
    4      -31.256074   1.000000
    5      -24.565993   1.000000
    6      -24.565977   1.000000
    7      -24.563260   1.000000
    8      -24.563237   1.000000
    9      -24.562975   1.000000
   10      -24.562954   1.000000
   11      -20.904194   1.000000
   12      -20.904090   1.000000
   13       -7.254097   1.000000
   14       -7.254061   1.000000
   15        1.780061   1.000000
   16        1.780084   1.000000
   17        2.622292   1.000632
   18        2.622336   1.000633
   19        4.460635  -0.000000
   20        4.460662  -0.000000
   21        9.257409   0.000000
   22        9.257459   0.000000
   23       10.357392   0.000000
   24       10.357427   0.000000
   25       10.905485   0.000000
   26       10.905524   0.000000
   27       11.128412   0.000000
   28       11.128443   0.000000
 
  0.2222222E+00  0.1111111E+00  0.0000000E+00  0.2743484E-02
    1      -31.256104   1.000000
    2      -31.256064   1.000000
    3      -31.255534   1.000000
    4      -31.255518   1.000000
    5      -24.565129   1.000000
    6      -24.565098   1.000000
    7      -24.563191   1.000000
    8      -24.563173   1.000000
    9      -24.561257   1.000000
   10      -24.561235   1.000000
   11      -20.882210   1.000000
   12      -20.882105   1.000000
   13       -7.333755   1.000000
   14       -7.333720   1.000000
   15        1.108606   1.000000
   16        1.108632   1.000000
   17        2.434526   1.000000
   18        2.434579   1.000000
   19        5.314093  -0.000000
   20        5.314121  -0.000000
   21        8.855729   0.000000
   22        8.855773   0.000000
   23        9.944510   0.000000
   24        9.944544   0.000000
   25       10.795556   0.000000
   26       10.795581   0.000000
   27       11.428037   0.000000
   28       11.428066   0.000000
 
  0.3333333E+00  0.1111111E+00 -0.2775558E-16  0.2743484E-02
    1      -31.255879   1.000000
    2      -31.255838   1.000000
    3      -31.254738   1.000000
    4      -31.254723   1.000000
    5      -24.564814   1.000000
    6      -24.564770   1.000000
    7      -24.562013   1.000000
    8      -24.561997   1.000000
    9      -24.559126   1.000000
   10      -24.559104   1.000000
   11      -20.851832   1.000000
   12      -20.851726   1.000000
   13       -7.442875   1.000000
   14       -7.442841   1.000000
   15        0.488395   1.000000
   16        0.488423   1.000000
   17        2.229133   1.000000
   18        2.229183   1.000000
   19        5.923847   0.000000
   20        5.923891   0.000000
   21        9.057548   0.000000
   22        9.057556   0.000000
   23        9.367697   0.000000
   24        9.367731   0.000000
   25       10.665885   0.000000
   26       10.665919   0.000000
   27       12.066815   0.000000
   28       12.111907   0.000000
 
  0.4444444E+00  0.1111111E+00 -0.8326673E-16  0.2743484E-02
    1      -31.255724   1.000000
    2      -31.255682   1.000000
    3      -31.254152   1.000000
    4      -31.254137   1.000000
    5      -24.565045   1.000000
    6      -24.565003   1.000000
    7      -24.560326   1.000000
    8      -24.560314   1.000000
    9      -24.557728   1.000000
   10      -24.557703   1.000000
   11      -20.827241   1.000000
   12      -20.827135   1.000000
   13       -7.530324   1.000000
   14       -7.530291   1.000000
   15        0.104300   1.000000
   16        0.104330   1.000000
   17        2.069920   1.000000
   18        2.069966   1.000000
   19        6.103506   0.000000
   20        6.103565   0.000000
   21        8.841892   0.000000
   22        8.841924   0.000000
   23       10.023304   0.000000
   24       10.023333   0.000000
   25       10.508708   0.000000
   26       10.508733   0.000000
   27       11.844403   0.000000
   28       11.844423   0.000000
 
 -0.4444444E+00  0.1111111E+00  0.0000000E+00  0.2743484E-02
    1      -31.255672   1.000000
    2      -31.255631   1.000000
    3      -31.253945   1.000000
    4      -31.253930   1.000000
    5      -24.565102   1.000000
    6      -24.565060   1.000000
    7      -24.559699   1.000000
    8      -24.559688   1.000000
    9      -24.557461   1.000000
   10      -24.557432   1.000000
   11      -20.820224   1.000000
   12      -20.820117   1.000000
   13       -7.555128   1.000000
   14       -7.555095   1.000000
   15        0.004914   1.000000
   16        0.004944   1.000000
   17        2.024121   1.000000
   18        2.024166   1.000000
   19        6.135623   0.000000
   20        6.135687   0.000000
   21        8.774181   0.000000
   22        8.774212   0.000000
   23       10.065877   0.000000
   24       10.065921   0.000000
   25       10.817191   0.000000
   26       10.817229   0.000000
   27       12.000810   0.000000
   28       12.000831   0.000000
 
 -0.3333333E+00  0.1111111E+00  0.1387779E-16  0.2743484E-02
    1      -31.255735   1.000000
    2      -31.255695   1.000000
    3      -31.254293   1.000000
    4      -31.254277   1.000000
    5      -24.564863   1.000000
    6      -24.564820   1.000000
    7      -24.560797   1.000000
    8      -24.560789   1.000000
    9      -24.558211   1.000000
   10      -24.558181   1.000000
   11      -20.834203   1.000000
   12      -20.834097   1.000000
   13       -7.505837   1.000000
   14       -7.505803   1.000000
   15        0.198997   1.000000
   16        0.199027   1.000000
   17        2.113887   1.000000
   18        2.113935   1.000000
   19        6.104625   0.000000
   20        6.104682   0.000000
   21        8.992121   0.000000
   22        8.992151   0.000000
   23        9.939408   0.000000
   24        9.939421   0.000000
   25       10.294125   0.000000
   26       10.294164   0.000000
   27       12.075169   0.000000
   28       12.399865   0.000000
 
 -0.2222222E+00  0.1111111E+00  0.2081668E-16  0.2743484E-02
    1      -31.255962   1.000000
    2      -31.255924   1.000000
    3      -31.254987   1.000000
    4      -31.254971   1.000000
    5      -24.564538   1.000000
    6      -24.564491   1.000000
    7      -24.562818   1.000000
    8      -24.562810   1.000000
    9      -24.559845   1.000000
   10      -24.559816   1.000000
   11      -20.862388   1.000000
   12      -20.862283   1.000000
   13       -7.405586   1.000000
   14       -7.405551   1.000000
   15        0.663164   1.000000
   16        0.663193   1.000000
   17        2.317415   1.000000
   18        2.317466   1.000000
   19        5.777164   0.000000
   20        5.777203   0.000000
   21        9.052570   0.000000
   22        9.052585   0.000000
   23        9.714254   0.000000
   24        9.714276   0.000000
   25       10.545825   0.000000
   26       10.545871   0.000000
   27       11.481911   0.000000
   28       11.481953   0.000000
 
 -0.1111111E+00  0.1111111E+00  0.3183001E-16  0.2743484E-02
    1      -31.256214   1.000000
    2      -31.256185   1.000000
    3      -31.255701   1.000000
    4      -31.255683   1.000000
    5      -24.565221   1.000000
    6      -24.565200   1.000000
    7      -24.563679   1.000000
    8      -24.563663   1.000000
    9      -24.561764   1.000000
   10      -24.561740   1.000000
   11      -20.891384   1.000000
   12      -20.891279   1.000000
   13       -7.301139   1.000000
   14       -7.301103   1.000000
   15        1.312589   1.000000
   16        1.312616   1.000000
   17        2.577462   1.000059
   18        2.577512   1.000060
   19        4.961693  -0.000000
   20        4.961725  -0.000000
   21        9.122048   0.000000
   22        9.122087   0.000000
   23       10.259484   0.000000
   24       10.259507   0.000000
   25       10.747808   0.000000
   26       10.747852   0.000000
   27       11.334066   0.000000
   28       11.334274   0.000000
 
 -0.3851860E-33  0.2222222E+00  0.1387779E-16  0.2743484E-02
    1      -31.256201   1.000000
    2      -31.256193   1.000000
    3      -31.255414   1.000000
    4      -31.255386   1.000000
    5      -24.565179   1.000000
    6      -24.565170   1.000000
    7      -24.563221   1.000000
    8      -24.563192   1.000000
    9      -24.560963   1.000000
   10      -24.560958   1.000000
   11      -20.880204   1.000000
   12      -20.880099   1.000000
   13       -7.342822   1.000000
   14       -7.342786   1.000000
   15        0.977891   1.000000
   16        0.977912   1.000000
   17        2.617785   1.000508
   18        2.617803   1.000509
   19        5.155008  -0.000000
   20        5.155058  -0.000000
   21        9.227063   0.000000
   22        9.227082   0.000000
   23       10.315713   0.000000
   24       10.315721   0.000000
   25       10.703756   0.000000
   26       10.703772   0.000000
   27       11.385218   0.000000
   28       11.732675   0.000000
 
  0.1111111E+00  0.2222222E+00 -0.1387779E-16  0.2743484E-02
    1      -31.256088   1.000000
    2      -31.256081   1.000000
    3      -31.255541   1.000000
    4      -31.255511   1.000000
    5      -24.565119   1.000000
    6      -24.565108   1.000000
    7      -24.563193   1.000000
    8      -24.563171   1.000000
    9      -24.561257   1.000000
   10      -24.561235   1.000000
   11      -20.882210   1.000000
   12      -20.882105   1.000000
   13       -7.333756   1.000000
   14       -7.333720   1.000000
   15        1.108610   1.000000
   16        1.108628   1.000000
   17        2.434544   1.000000
   18        2.434561   1.000000
   19        5.314091  -0.000000
   20        5.314123  -0.000000
   21        8.855729   0.000000
   22        8.855772   0.000000
   23        9.944510   0.000000
   24        9.944544   0.000000
   25       10.795549   0.000000
   26       10.795587   0.000000
   27       11.428031   0.000000
   28       11.428070   0.000000
 
  0.2222222E+00  0.2222222E+00  0.0000000E+00  0.2743484E-02
    1      -31.255815   1.000000
    2      -31.255786   1.000000
    3      -31.255274   1.000000
    4      -31.255251   1.000000
    5      -24.565111   1.000000
    6      -24.565088   1.000000
    7      -24.562378   1.000000
    8      -24.562355   1.000000
    9      -24.560271   1.000000
   10      -24.560255   1.000000
   11      -20.867505   1.000000
   12      -20.867400   1.000000
   13       -7.383872   1.000000
   14       -7.383837   1.000000
   15        0.888098   1.000000
   16        0.888123   1.000000
   17        2.147443   1.000000
   18        2.147478   1.000000
   19        5.845453   0.000000
   20        5.845475   0.000000
   21        8.287911   0.000000
   22        8.287966   0.000000
   23        9.412000   0.000000
   24        9.412035   0.000000
   25       11.026718   0.000000
   26       11.026738   0.000000
   27       11.901821   0.000000
   28       11.901843   0.000000
 
  0.3333333E+00  0.2222222E+00 -0.2775558E-16  0.2743484E-02
    1      -31.255579   1.000000
    2      -31.255541   1.000000
    3      -31.254711   1.000000
    4      -31.254693   1.000000
    5      -24.564618   1.000000
    6      -24.564585   1.000000
    7      -24.561906   1.000000
    8      -24.561883   1.000000
    9      -24.558301   1.000000
   10      -24.558291   1.000000
   11      -20.842784   1.000000
   12      -20.842678   1.000000
   13       -7.468987   1.000000
   14       -7.468953   1.000000
   15        0.492648   1.000000
   16        0.492674   1.000000
   17        1.884694   1.000000
   18        1.884732   1.000000
   19        6.332375   0.000000
   20        6.332405   0.000000
   21        8.140379   0.000000
   22        8.140422   0.000000
   23        9.017689   0.000000
   24        9.017713   0.000000
   25       11.323049   0.000000
   26       11.323062   0.000000
   27       12.447744   0.000000
   28       12.447751   0.000000
 
  0.4444444E+00  0.2222222E+00  0.0000000E+00  0.2743484E-02
    1      -31.255391   1.000000
    2      -31.255350   1.000000
    3      -31.254243   1.000000
    4      -31.254227   1.000000
    5      -24.564139   1.000000
    6      -24.564101   1.000000
    7      -24.560870   1.000000
    8      -24.560852   1.000000
    9      -24.557140   1.000000
   10      -24.557130   1.000000
   11      -20.819542   1.000000
   12      -20.819436   1.000000
   13       -7.547989   1.000000
   14       -7.547956   1.000000
   15        0.181095   1.000000
   16        0.181117   1.000000
   17        1.617755   1.000000
   18        1.617790   1.000000
   19        6.620191   0.000000
   20        6.620236   0.000000
   21        8.252263   0.000000
   22        8.252279   0.000000
   23        9.243934   0.000000
   24        9.243961   0.000000
   25       11.146507   0.000000
   26       11.146531   0.000000
   27       12.809635   0.000000
   28       12.809663   0.000000
 
 -0.4444444E+00  0.2222222E+00  0.4163336E-16  0.2743484E-02
    1      -31.255265   1.000000
    2      -31.255225   1.000000
    3      -31.253988   1.000000
    4      -31.253973   1.000000
    5      -24.563887   1.000000
    6      -24.563847   1.000000
    7      -24.559535   1.000000
    8      -24.559520   1.000000
    9      -24.557457   1.000000
   10      -24.557442   1.000000
   11      -20.808795   1.000000
   12      -20.808688   1.000000
   13       -7.584063   1.000000
   14       -7.584030   1.000000
   15        0.045856   1.000000
   16        0.045872   1.000000
   17        1.474953   1.000000
   18        1.474989   1.000000
   19        6.829054   0.000000
   20        6.829110   0.000000
   21        8.150525   0.000000
   22        8.150552   0.000000
   23       10.203440   0.000000
   24       10.203462   0.000000
   25       10.969819   0.000000
   26       10.969832   0.000000
   27       12.188077   0.000000
   28       12.188083   0.000000
 
 -0.3333333E+00  0.2222222E+00  0.3469447E-16  0.2743484E-02
    1      -31.255318   1.000000
    2      -31.255281   1.000000
    3      -31.254115   1.000000
    4      -31.254101   1.000000
    5      -24.563658   1.000000
    6      -24.563621   1.000000
    7      -24.559769   1.000000
    8      -24.559756   1.000000
    9      -24.558244   1.000000
   10      -24.558216   1.000000
   11      -20.815712   1.000000
   12      -20.815606   1.000000
   13       -7.561720   1.000000
   14       -7.561687   1.000000
   15        0.104542   1.000000
   16        0.104560   1.000000
   17        1.553100   1.000000
   18        1.553139   1.000000
   19        6.990806   0.000000
   20        6.990863   0.000000
   21        8.173440   0.000000
   22        8.173465   0.000000
   23        9.978359   0.000000
   24        9.978376   0.000000
   25       10.930911   0.000000
   26       10.930943   0.000000
   27       12.455739   0.000000
   28       12.477837   0.000000
 
 -0.2222222E+00  0.2222222E+00  0.3568587E-16  0.2743484E-02
    1      -31.255635   1.000000
    2      -31.255606   1.000000
    3      -31.254546   1.000000
    4      -31.254530   1.000000
    5      -24.563591   1.000000
    6      -24.563567   1.000000
    7      -24.561920   1.000000
    8      -24.561900   1.000000
    9      -24.558696   1.000000
   10      -24.558673   1.000000
   11      -20.836955   1.000000
   12      -20.836849   1.000000
   13       -7.491790   1.000000
   14       -7.491756   1.000000
   15        0.333789   1.000000
   16        0.333815   1.000000
   17        1.862902   1.000000
   18        1.862944   1.000000
   19        6.654071   0.000000
   20        6.654112   0.000000
   21        8.558450   0.000000
   22        8.558463   0.000000
   23        9.392178   0.000000
   24        9.392185   0.000000
   25       10.753150   0.000000
   26       10.753189   0.000000
   27       11.554033   0.000000
   28       11.554083   0.000000
 
 -0.1111111E+00  0.2222222E+00  0.2081668E-16  0.2743484E-02
    1      -31.255952   1.000000
    2      -31.255934   1.000000
    3      -31.254990   1.000000
    4      -31.254968   1.000000
    5      -24.564520   1.000000
    6      -24.564510   1.000000
    7      -24.562835   1.000000
    8      -24.562793   1.000000
    9      -24.559839   1.000000
   10      -24.559822   1.000000
   11      -20.862388   1.000000
   12      -20.862283   1.000000
   13       -7.405586   1.000000
   14       -7.405551   1.000000
   15        0.663165   1.000000
   16        0.663192   1.000000
   17        2.317423   1.000000
   18        2.317458   1.000000
   19        5.777161   0.000000
   20        5.777206   0.000000
   21        9.052570   0.000000
   22        9.052585   0.000000
   23        9.714254   0.000000
   24        9.714276   0.000000
   25       10.545821   0.000000
   26       10.545874   0.000000
   27       11.481906   0.000000
   28       11.481975   0.000000
 
 -0.7703720E-33  0.3333333E+00  0.2775558E-16  0.2743484E-02
    1      -31.255931   1.000000
    2      -31.255923   1.000000
    3      -31.254501   1.000000
    4      -31.254474   1.000000
    5      -24.565367   1.000000
    6      -24.565358   1.000000
    7      -24.561380   1.000000
    8      -24.561352   1.000000
    9      -24.558763   1.000000
   10      -24.558758   1.000000
   11      -20.848430   1.000000
   12      -20.848324   1.000000
   13       -7.458605   1.000000
   14       -7.458570   1.000000
   15        0.349114   1.000000
   16        0.349138   1.000000
   17        2.455517   1.000000
   18        2.455535   1.000000
   19        5.586324  -0.000000
   20        5.586395  -0.000000
   21        9.688378   0.000000
   22        9.688395   0.000000
   23        9.966693   0.000000
   24        9.966701   0.000000
   25       10.387727   0.000000
   26       10.387736   0.000000
   27       10.905392   0.000000
   28       10.905411   0.000000
 
  0.1111111E+00  0.3333333E+00  0.2775558E-16  0.2743484E-02
    1      -31.255859   1.000000
    2      -31.255858   1.000000
    3      -31.254744   1.000000
    4      -31.254716   1.000000
    5      -24.564794   1.000000
    6      -24.564790   1.000000
    7      -24.562014   1.000000
    8      -24.561996   1.000000
    9      -24.559127   1.000000
   10      -24.559103   1.000000
   11      -20.851832   1.000000
   12      -20.851726   1.000000
   13       -7.442876   1.000000
   14       -7.442841   1.000000
   15        0.488399   1.000000
   16        0.488419   1.000000
   17        2.229155   1.000000
   18        2.229162   1.000000
   19        5.923844   0.000000
   20        5.923894   0.000000
   21        9.057547   0.000000
   22        9.057556   0.000000
   23        9.367693   0.000000
   24        9.367736   0.000000
   25       10.665879   0.000000
   26       10.665925   0.000000
   27       12.078850   0.000000
   28       12.182202   0.000000
 
  0.2222222E+00  0.3333333E+00 -0.2775558E-16  0.2743484E-02
    1      -31.255568   1.000000
    2      -31.255552   1.000000
    3      -31.254715   1.000000
    4      -31.254689   1.000000
    5      -24.564611   1.000000
    6      -24.564592   1.000000
    7      -24.561903   1.000000
    8      -24.561886   1.000000
    9      -24.558308   1.000000
   10      -24.558283   1.000000
   11      -20.842784   1.000000
   12      -20.842678   1.000000
   13       -7.468988   1.000000
   14       -7.468952   1.000000
   15        0.492650   1.000000
   16        0.492671   1.000000
   17        1.884704   1.000000
   18        1.884722   1.000000
   19        6.332375   0.000000
   20        6.332405   0.000000
   21        8.140379   0.000000
   22        8.140422   0.000000
   23        9.017687   0.000000
   24        9.017715   0.000000
   25       11.323045   0.000000
   26       11.323067   0.000000
   27       12.447740   0.000000
   28       12.447755   0.000000
 
  0.3333333E+00  0.3333333E+00 -0.2775558E-16  0.2743484E-02
    1      -31.255349   1.000000
    2      -31.255320   1.000000
    3      -31.254416   1.000000
    4      -31.254393   1.000000
    5      -24.564797   1.000000
    6      -24.564769   1.000000
    7      -24.561437   1.000000
    8      -24.561414   1.000000
    9      -24.556548   1.000000
   10      -24.556531   1.000000
   11      -20.825438   1.000000
   12      -20.825332   1.000000
   13       -7.525065   1.000000
   14       -7.525030   1.000000
   15        0.315149   1.000000
   16        0.315172   1.000000
   17        1.691103   1.000000
   18        1.691131   1.000000
   19        6.238033   0.000000
   20        6.238074   0.000000
   21        7.633502   0.000000
   22        7.633560   0.000000
   23        9.320538   0.000000
   24        9.320543   0.000000
   25       12.010527   0.000000
   26       12.010534   0.000000
   27       13.116009   0.000000
   28       13.116012   0.000000
 
  0.4444444E+00  0.3333333E+00 -0.1110223E-15  0.2743484E-02
    1      -31.255138   1.000000
    2      -31.255104   1.000000
    3      -31.254049   1.000000
    4      -31.254029   1.000000
    5      -24.564348   1.000000
    6      -24.564316   1.000000
    7      -24.560985   1.000000
    8      -24.560963   1.000000
    9      -24.555377   1.000000
   10      -24.555364   1.000000
   11      -20.807884   1.000000
   12      -20.807777   1.000000
   13       -7.581924   1.000000
   14       -7.581890   1.000000
   15        0.142349   1.000000
   16        0.142371   1.000000
   17        1.443664   1.000000
   18        1.443692   1.000000
   19        6.262697   0.000000
   20        6.262742   0.000000
   21        7.655573   0.000000
   22        7.655622   0.000000
   23        9.580505   0.000000
   24        9.580523   0.000000
   25       12.232578   0.000000
   26       12.232598   0.000000
   27       13.503274   0.000000
   28       13.503305   0.000000
 
 -0.4444444E+00  0.3333333E+00  0.6245005E-16  0.2743484E-02
    1      -31.254964   1.000000
    2      -31.254929   1.000000
    3      -31.253959   1.000000
    4      -31.253944   1.000000
    5      -24.563553   1.000000
    6      -24.563520   1.000000
    7      -24.560280   1.000000
    8      -24.560260   1.000000
    9      -24.555802   1.000000
   10      -24.555791   1.000000
   11      -20.798441   1.000000
   12      -20.798334   1.000000
   13       -7.611794   1.000000
   14       -7.611761   1.000000
   15        0.081244   1.000000
   16        0.081257   1.000000
   17        1.183381   1.000000
   18        1.183411   1.000000
   19        6.541566   0.000000
   20        6.541615   0.000000
   21        8.090010   0.000000
   22        8.090028   0.000000
   23        9.880963   0.000000
   24        9.881000   0.000000
   25       11.672930   0.000000
   26       11.672959   0.000000
   27       12.750081   0.000000
   28       12.750101   0.000000
 
 -0.3333333E+00  0.3333333E+00  0.4361617E-16  0.2743484E-02
    1      -31.254975   1.000000
    2      -31.254947   1.000000
    3      -31.254046   1.000000
    4      -31.254038   1.000000
    5      -24.563168   1.000000
    6      -24.563142   1.000000
    7      -24.559238   1.000000
    8      -24.559221   1.000000
    9      -24.557608   1.000000
   10      -24.557594   1.000000
   11      -20.801563   1.000000
   12      -20.801456   1.000000
   13       -7.602978   1.000000
   14       -7.602945   1.000000
   15        0.079936   1.000000
   16        0.079945   1.000000
   17        1.184589   1.000000
   18        1.184626   1.000000
   19        6.956335   0.000000
   20        6.956393   0.000000
   21        8.228167   0.000000
   22        8.228182   0.000000
   23       10.596127   0.000000
   24       10.596142   0.000000
   25       10.926070   0.000000
   26       10.926124   0.000000
   27       11.798379   0.000000
   28       11.798398   0.000000
 
 -0.2222222E+00  0.3333333E+00  0.3469447E-16  0.2743484E-02
    1      -31.255309   1.000000
    2      -31.255291   1.000000
    3      -31.254117   1.000000
    4      -31.254099   1.000000