    1    1    1    1
  0.5987587E+02  0.4391258E-09  0.4391258E-09  0.4391258E-09  0.1000000E-15
  1.000000000000000E-004
  CAR 
 Og_FCC                                  
     18    365     28
 
  0.0000000E+00  0.0000000E+00  0.0000000E+00  0.1371742E-02
    1      -30.746145   1.000000
    2      -30.746144   1.000000
    3      -30.746144   1.000000
    4      -30.746144   1.000000
    5      -24.057173   1.000000
    6      -24.057172   1.000000
    7      -24.053791   1.000000
    8      -24.053791   1.000000
    9      -24.053791   1.000000
   10      -24.053791   1.000000
   11      -20.463479   1.000000
   12      -20.463479   1.000000
   13       -7.186460   1.000000
   14       -7.186460   1.000000
   15        3.474397   1.035236
   16        3.474401   1.035236
   17        3.586910   0.552889
   18        3.586910   0.552887
   19        3.586911   0.552886
   20        3.586911   0.552884
   21       10.551607   0.000000
   22       10.551610   0.000000
   23       10.551611   0.000000
   24       10.551613   0.000000
   25       10.867978   0.000000
   26       10.867980   0.000000
   27       10.962570   0.000000
   28       10.962572   0.000000
 
  0.1111111E+00  0.1043312E-17  0.0000000E+00  0.2743484E-02
    1      -30.746099   1.000000
    2      -30.746099   1.000000
    3      -30.745876   1.000000
    4      -30.745875   1.000000
    5      -24.056503   1.000000
    6      -24.056503   1.000000
    7      -24.053891   1.000000
    8      -24.053891   1.000000
    9      -24.053010   1.000000
   10      -24.053010   1.000000
   11      -20.452402   1.000000
   12      -20.452402   1.000000
   13       -7.224940   1.000000
   14       -7.224940   1.000000
   15        2.427188   1.000000
   16        2.427190   1.000000
   17        3.517118   0.979257
   18        3.517118   0.979256
   19        4.684976  -0.000000
   20        4.684979  -0.000000
   21        9.758502   0.000000
   22        9.758504   0.000000
   23       10.668993   0.000000
   24       10.668994   0.000000
   25       10.954643   0.000000
   26       10.954649   0.000000
   27       12.005004   0.000000
   28       12.168997   0.000000
 
  0.2222222E+00 -0.1179116E-16 -0.4163336E-16  0.2743484E-02
    1      -30.745932   1.000000
    2      -30.745932   1.000000
    3      -30.745097   1.000000
    4      -30.745097   1.000000
    5      -24.055496   1.000000
    6      -24.055496   1.000000
    7      -24.053419   1.000000
    8      -24.053419   1.000000
    9      -24.051013   1.000000
   10      -24.051013   1.000000
   11      -20.424033   1.000000
   12      -20.424033   1.000000
   13       -7.322447   1.000000
   14       -7.322447   1.000000
   15        1.522901   1.000000
   16        1.522903   1.000000
   17        3.351223   1.001647
   18        3.351223   1.001647
   19        5.581899  -0.000000
   20        5.581903  -0.000000
   21        9.500070   0.000000
   22        9.500072   0.000000
   23       10.646944   0.000000
   24       10.646962   0.000000
   25       11.008860   0.000000
   26       11.009888   0.000000
   27       11.499281   0.000000
   28       12.119277   0.000000
 
  0.3333333E+00  0.3129937E-17  0.0000000E+00  0.2743484E-02
    1      -30.745729   1.000000
    2      -30.745729   1.000000
    3      -30.744232   1.000000
    4      -30.744232   1.000000
    5      -24.055706   1.000000
    6      -24.055706   1.000000
    7      -24.051536   1.000000
    8      -24.051535   1.000000
    9      -24.048739   1.000000
   10      -24.048739   1.000000
   11      -20.391390   1.000000
   12      -20.391390   1.000000
   13       -7.433726   1.000000
   14       -7.433726   1.000000
   15        0.889051   1.000000
   16        0.889052   1.000000
   17        3.178307   1.000000
   18        3.178307   1.000000
   19        5.927503  -0.000000
   20        5.927507  -0.000000
   21       10.028511   0.000000
   22       10.028512   0.000000
   23       10.291370   0.000000
   24       10.291371   0.000000
   25       10.708780   0.000000
   26       10.708782   0.000000
   27       11.004273   0.000000
   28       11.004274   0.000000
 
  0.4444444E+00 -0.2358233E-16 -0.8326673E-16  0.2743484E-02
    1      -30.745602   1.000000
    2      -30.745602   1.000000
    3      -30.743652   1.000000
    4      -30.743651   1.000000
    5      -24.056040   1.000000
    6      -24.056040   1.000000
    7      -24.050119   1.000000
    8      -24.050118   1.000000
    9      -24.047253   1.000000
   10      -24.047253   1.000000
   11      -20.369851   1.000000
   12      -20.369851   1.000000
   13       -7.506568   1.000000
   14       -7.506567   1.000000
   15        0.564159   1.000000
   16        0.564160   1.000000
   17        3.072911   1.000000
   18        3.072911   1.000000
   19        5.955237  -0.000000
   20        5.955242  -0.000000
   21       10.042283   0.000000
   22       10.042284   0.000000
   23       10.235608   0.000000
   24       10.235608   0.000000
   25       10.437591   0.000000
   26       10.437593   0.000000
   27       11.522912   0.000000
   28       11.522913   0.000000
 
  0.1925930E-33  0.1111111E+00  0.0000000E+00  0.2743484E-02
    1      -30.746099   1.000000
    2      -30.746099   1.000000
    3      -30.745876   1.000000
    4      -30.745875   1.000000
    5      -24.056503   1.000000
    6      -24.056503   1.000000
    7      -24.053891   1.000000
    8      -24.053891   1.000000
    9      -24.053010   1.000000
   10      -24.053010   1.000000
   11      -20.452402   1.000000
   12      -20.452402   1.000000
   13       -7.224940   1.000000
   14       -7.224940   1.000000
   15        2.427188   1.000000
   16        2.427190   1.000000
   17        3.517118   0.979257
   18        3.517118   0.979257
   19        4.684976  -0.000000
   20        4.684979  -0.000000
   21        9.758502   0.000000
   22        9.758504   0.000000
   23       10.668992   0.000000
   24       10.668995   0.000000
   25       10.954644   0.000000
   26       10.954657   0.000000
   27       12.019086   0.000000
   28       12.317270   0.000000
 
  0.1111111E+00  0.1111111E+00  0.0000000E+00  0.2743484E-02
    1      -30.746024   1.000000
    2      -30.746024   1.000000
    3      -30.745860   1.000000
    4      -30.745859   1.000000
    5      -24.056383   1.000000
    6      -24.056382   1.000000
    7      -24.053439   1.000000
    8      -24.053439   1.000000
    9      -24.053133   1.000000
   10      -24.053133   1.000000
   11      -20.448741   1.000000
   12      -20.448740   1.000000
   13       -7.237339   1.000000
   14       -7.237338   1.000000
   15        2.323653   1.000000
   16        2.323655   1.000000
   17        3.351706   1.001681
   18        3.351706   1.001681
   19        4.968066  -0.000000
   20        4.968068  -0.000000
   21        9.475206   0.000000
   22        9.475209   0.000000
   23       10.687607   0.000000
   24       10.687608   0.000000
   25       11.247869   0.000000
   26       11.247998   0.000000
   27       11.354240   0.000000
   28       11.354372   0.000000
 
  0.2222222E+00  0.1111111E+00 -0.1387779E-16  0.2743484E-02
    1      -30.745833   1.000000
    2      -30.745833   1.000000
    3      -30.745260   1.000000
    4      -30.745259   1.000000
    5      -24.055461   1.000000
    6      -24.055461   1.000000
    7      -24.053381   1.000000
    8      -24.053381   1.000000
    9      -24.051327   1.000000
   10      -24.051327   1.000000
   11      -20.426091   1.000000
   12      -20.426091   1.000000
   13       -7.313877   1.000000
   14       -7.313876   1.000000
   15        1.652995   1.000000
   16        1.652997   1.000000
   17        3.145579   1.000000
   18        3.145580   1.000000
   19        5.785529  -0.000000
   20        5.785532  -0.000000
   21        9.092481   0.000000
   22        9.092483   0.000000
   23       10.210308   0.000000
   24       10.210312   0.000000
   25       11.103537   0.000000
   26       11.103543   0.000000
   27       11.751087   0.000000
   28       11.751300   0.000000
 
  0.3333333E+00  0.1111111E+00 -0.2775558E-16  0.2743484E-02
    1      -30.745608   1.000000
    2      -30.745608   1.000000
    3      -30.744439   1.000000
    4      -30.744438   1.000000
    5      -24.055102   1.000000
    6      -24.055102   1.000000
    7      -24.052179   1.000000
    8      -24.052179   1.000000
    9      -24.049094   1.000000
   10      -24.049094   1.000000
   11      -20.394855   1.000000
   12      -20.394855   1.000000
   13       -7.418773   1.000000
   14       -7.418772   1.000000
   15        1.030855   1.000000
   16        1.030856   1.000000
   17        2.921497   1.000000
   18        2.921497   1.000000
   19        6.314534  -0.000000
   20        6.314538  -0.000000
   21        9.351796   0.000000
   22        9.351797   0.000000
   23        9.633640   0.000000
   24        9.633643   0.000000
   25       10.986812   0.000000
   26       10.986823   0.000000
   27       12.286270   0.000000
   28       12.418076   0.000000
 
  0.4444444E+00  0.1111111E+00  0.0000000E+00  0.2743484E-02
    1      -30.745429   1.000000
    2      -30.745429   1.000000
    3      -30.743779   1.000000
    4      -30.743778   1.000000
    5      -24.055335   1.000000
    6      -24.055334   1.000000
    7      -24.050408   1.000000
    8      -24.050407   1.000000
    9      -24.047604   1.000000
   10      -24.047604   1.000000
   11      -20.369562   1.000000
   12      -20.369562   1.000000
   13       -7.502809   1.000000
   14       -7.502809   1.000000
   15        0.643790   1.000000
   16        0.643791   1.000000
   17        2.748663   1.000000
   18        2.748663   1.000000
   19        6.437626   0.000000
   20        6.437630   0.000000
   21        9.110656   0.000000
   22        9.110659   0.000000
   23       10.342248   0.000000
   24       10.342250   0.000000
   25       10.851043   0.000000
   26       10.851045   0.000000
   27       12.020883   0.000000
   28       12.020902   0.000000
 
 -0.4444444E+00  0.1111111E+00  0.4163336E-16  0.2743484E-02
    1      -30.745382   1.000000
    2      -30.745382   1.000000
    3      -30.743602   1.000000
    4      -30.743601   1.000000
    5      -24.055401   1.000000
    6      -24.055401   1.000000
    7      -24.049762   1.000000
    8      -24.049762   1.000000
    9      -24.047332   1.000000
   10      -24.047332   1.000000
   11      -20.362349   1.000000
   12      -20.362349   1.000000
   13       -7.526678   1.000000
   14       -7.526677   1.000000
   15        0.543380   1.000000
   16        0.543381   1.000000
   17        2.698544   1.000000
   18        2.698545   1.000000
   19        6.459199   0.000000
   20        6.459203   0.000000
   21        9.041238   0.000000
   22        9.041241   0.000000
   23       10.379964   0.000000
   24       10.379969   0.000000
   25       11.170835   0.000000
   26       11.170836   0.000000
   27       12.159751   0.000000
   28       12.159853   0.000000
 
 -0.3333333E+00  0.1111111E+00  0.2775558E-16  0.2743484E-02
    1      -30.745492   1.000000
    2      -30.745492   1.000000
    3      -30.743970   1.000000
    4      -30.743969   1.000000
    5      -24.055158   1.000000
    6      -24.055158   1.000000
    7      -24.050921   1.000000
    8      -24.050921   1.000000
    9      -24.048128   1.000000
   10      -24.048128   1.000000
   11      -20.376752   1.000000
   12      -20.376752   1.000000
   13       -7.479330   1.000000
   14       -7.479330   1.000000
   15        0.739200   1.000000
   16        0.739201   1.000000
   17        2.794728   1.000000
   18        2.794729   1.000000
   19        6.455226   0.000000
   20        6.455230   0.000000
   21        9.261957   0.000000
   22        9.261960   0.000000
   23       10.265053   0.000000
   24       10.265054   0.000000
   25       10.613335   0.000000
   26       10.613339   0.000000
   27       12.253534   0.000000
   28       12.277909   0.000000
 
 -0.2222222E+00  0.1111111E+00  0.3469447E-16  0.2743484E-02
    1      -30.745694   1.000000
    2      -30.745694   1.000000
    3      -30.744700   1.000000
    4      -30.744699   1.000000
    5      -24.054808   1.000000
    6      -24.054808   1.000000
    7      -24.053033   1.000000
    8      -24.053032   1.000000
    9      -24.049848   1.000000
   10      -24.049847   1.000000
   11      -20.405697   1.000000
   12      -20.405697   1.000000
   13       -7.382899   1.000000
   14       -7.382899   1.000000
   15        1.206377   1.000000
   16        1.206378   1.000000
   17        3.015270   1.000000
   18        3.015270   1.000000
   19        6.198588  -0.000000
   20        6.198592  -0.000000
   21        9.329013   0.000000
   22        9.329015   0.000000
   23        9.990498   0.000000
   24        9.990501   0.000000
   25       10.843840   0.000000
   26       10.843854   0.000000
   27       11.765226   0.000000
   28       12.351351   0.000000
 
 -0.1111111E+00  0.1111111E+00  0.1030671E-16  0.2743484E-02
    1      -30.745934   1.000000
    2      -30.745934   1.000000
    3      -30.745454   1.000000
    4      -30.745453   1.000000
    5      -24.055565   1.000000
    6      -24.055565   1.000000
    7      -24.053897   1.000000
    8      -24.053896   1.000000
    9      -24.051857   1.000000
   10      -24.051856   1.000000
   11      -20.435511   1.000000
   12      -20.435511   1.000000
   13       -7.282485   1.000000
   14       -7.282484   1.000000
   15        1.858213   1.000000
   16        1.858214   1.000000
   17        3.300472   1.000140
   18        3.300472   1.000140
   19        5.440519  -0.000000
   20        5.440522  -0.000000
   21        9.354815   0.000000
   22        9.354817   0.000000
   23       10.565281   0.000000
   24       10.565284   0.000000
   25       11.054236   0.000000
   26       11.054277   0.000000
   27       11.601112   0.000000
   28       11.608109   0.000000
 
  0.1155558E-32  0.2222222E+00 -0.1387779E-16  0.2743484E-02
    1      -30.745932   1.000000
    2      -30.745931   1.000000
    3      -30.745097   1.000000
    4      -30.745097   1.000000
    5      -24.055496   1.000000
    6      -24.055496   1.000000
    7      -24.053419   1.000000
    8      -24.053419   1.000000
    9      -24.051013   1.000000
   10      -24.051013   1.000000
   11      -20.424033   1.000000
   12      -20.424033   1.000000
   13       -7.322447   1.000000
   14       -7.322447   1.000000
   15        1.522901   1.000000
   16        1.522903   1.000000
   17        3.351223   1.001647
   18        3.351223   1.001647
   19        5.581899  -0.000000
   20        5.581903  -0.000000
   21        9.500070   0.000000
   22        9.500072   0.000000
   23       10.646942   0.000000
   24       10.646945   0.000000
   25       11.008857   0.000000
   26       11.008866   0.000000
   27       11.499341   0.000000
   28       11.505897   0.000000
 
  0.1111111E+00  0.2222222E+00  0.0000000E+00  0.2743484E-02
    1      -30.745833   1.000000
    2      -30.745833   1.000000
    3      -30.745260   1.000000
    4      -30.745259   1.000000
    5      -24.055461   1.000000
    6      -24.055460   1.000000
    7      -24.053381   1.000000
    8      -24.053380   1.000000
    9      -24.051327   1.000000
   10      -24.051326   1.000000
   11      -20.426091   1.000000
   12      -20.426091   1.000000
   13       -7.313877   1.000000
   14       -7.313876   1.000000
   15        1.652995   1.000000
   16        1.652997   1.000000
   17        3.145579   1.000000
   18        3.145580   1.000000
   19        5.785529  -0.000000
   20        5.785532  -0.000000
   21        9.092481   0.000000
   22        9.092483   0.000000
   23       10.210308   0.000000
   24       10.210312   0.000000
   25       11.103538   0.000000
   26       11.103541   0.000000
   27       11.751091   0.000000
   28       11.751375   0.000000
 
  0.2222222E+00  0.2222222E+00 -0.5551115E-16  0.2743484E-02
    1      -30.745577   1.000000
    2      -30.745576   1.000000
    3      -30.745024   1.000000
    4      -30.745023   1.000000
    5      -24.055460   1.000000
    6      -24.055460   1.000000
    7      -24.052536   1.000000
    8      -24.052535   1.000000
    9      -24.050312   1.000000
   10      -24.050312   1.000000
   11      -20.410994   1.000000
   12      -20.410993   1.000000
   13       -7.362286   1.000000
   14       -7.362285   1.000000
   15        1.431672   1.000000
   16        1.431674   1.000000
   17        2.839523   1.000000
   18        2.839523   1.000000
   19        6.309044  -0.000000
   20        6.309047  -0.000000
   21        8.511236   0.000000
   22        8.511239   0.000000
   23        9.667046   0.000000
   24        9.667049   0.000000
   25       11.344420   0.000000
   26       11.344422   0.000000
   27       12.255120   0.000000
   28       12.255120   0.000000
 
  0.3333333E+00  0.2222222E+00  0.0000000E+00  0.2743484E-02
    1      -30.745332   1.000000
    2      -30.745332   1.000000
    3      -30.744428   1.000000
    4      -30.744427   1.000000
    5      -24.054930   1.000000
    6      -24.054929   1.000000
    7      -24.052053   1.000000
    8      -24.052052   1.000000
    9      -24.048242   1.000000
   10      -24.048242   1.000000
   11      -20.385598   1.000000
   12      -20.385598   1.000000
   13       -7.444305   1.000000
   14       -7.444304   1.000000
   15        1.037763   1.000000
   16        1.037764   1.000000
   17        2.554718   1.000000
   18        2.554718   1.000000
   19        6.729884   0.000000
   20        6.729887   0.000000
   21        8.383623   0.000000
   22        8.383625   0.000000
   23        9.300691   0.000000
   24        9.300694   0.000000
   25       11.638322   0.000000
   26       11.638324   0.000000
   27       12.782025   0.000000
   28       12.782036   0.000000
 
  0.4444444E+00  0.2222222E+00 -0.5551115E-16  0.2743484E-02
    1      -30.745073   1.000000
    2      -30.745073   1.000000
    3      -30.743855   1.000000
    4      -30.743855   1.000000
    5      -24.054393   1.000000
    6      -24.054393   1.000000
    7      -24.050954   1.000000
    8      -24.050953   1.000000
    9      -24.046996   1.000000
   10      -24.046995   1.000000
   11      -20.361663   1.000000
   12      -20.361663   1.000000
   13       -7.520393   1.000000
   14       -7.520392   1.000000
   15        0.726764   1.000000
   16        0.726766   1.000000
   17        2.262632   1.000000
   18        2.262632   1.000000
   19        6.951376   0.000000
   20        6.951380   0.000000
   21        8.519731   0.000000
   22        8.519732   0.000000
   23        9.561073   0.000000
   24        9.561075   0.000000
   25       11.463752   0.000000
   26       11.463756   0.000000
   27       13.095365   0.000000
   28       13.097627   0.000000
 
 -0.4444444E+00  0.2222222E+00  0.4163336E-16  0.2743484E-02
    1      -30.744960   1.000000
    2      -30.744960   1.000000
    3      -30.743635   1.000000
    4      -30.743634   1.000000
    5      -24.054126   1.000000
    6      -24.054126   1.000000
    7      -24.049568   1.000000
    8      -24.049568   1.000000
    9      -24.047343   1.000000
   10      -24.047343   1.000000
   11      -20.350639   1.000000
   12      -20.350639   1.000000
   13       -7.555268   1.000000
   14       -7.555268   1.000000
   15        0.591444   1.000000
   16        0.591445   1.000000
   17        2.105498   1.000000
   18        2.105499   1.000000
   19        7.136637   0.000000
   20        7.136642   0.000000
   21        8.435610   0.000000
   22        8.435611   0.000000
   23       10.527933   0.000000
   24       10.527934   0.000000
   25       11.291376   0.000000
   26       11.291379   0.000000
   27       12.488318   0.000000
   28       12.488335   0.000000
 
 -0.3333333E+00  0.2222222E+00  0.1387779E-16  0.2743484E-02
    1      -30.745031   1.000000
    2      -30.745031   1.000000
    3      -30.743783   1.000000
    4      -30.743782   1.000000
    5      -24.053889   1.000000
    6      -24.053889   1.000000
    7      -24.049829   1.000000
    8      -24.049829   1.000000
    9      -24.048170   1.000000
   10      -24.048169   1.000000
   11      -20.357727   1.000000
   12      -20.357727   1.000000
   13       -7.533684   1.000000
   14       -7.533683   1.000000
   15        0.649298   1.000000
   16        0.649299   1.000000
   17        2.186963   1.000000
   18        2.186963   1.000000
   19        7.320253   0.000000
   20        7.320258   0.000000
   21        8.457036   0.000000
   22        8.457038   0.000000
   23       10.314223   0.000000
   24       10.314223   0.000000
   25       11.264280   0.000000
   26       11.264283   0.000000
   27       12.686442   0.000000
   28       12.823564   0.000000
 
 -0.2222222E+00  0.2222222E+00  0.1494212E-16  0.2743484E-02
    1      -30.745334   1.000000
    2      -30.745334   1.000000
    3      -30.744213   1.000000
    4      -30.744212   1.000000
    5      -24.053805   1.000000
    6      -24.053805   1.000000
    7      -24.052083   1.000000
    8      -24.052083   1.000000
    9      -24.048630   1.000000
   10      -24.048630   1.000000
   11      -20.379571   1.000000
   12      -20.379571   1.000000
   13       -7.466077   1.000000
   14       -7.466076   1.000000
   15        0.877179   1.000000
   16        0.877180   1.000000
   17        2.519402   1.000000
   18        2.519403   1.000000
   19        7.050438   0.000000
   20        7.050442   0.000000
   21        8.821206   0.000000
   22        8.821208   0.000000
   23        9.703292   0.000000
   24        9.703292   0.000000
   25       11.058810   0.000000
   26       11.058814   0.000000
   27       11.833615   0.000000
   28       11.833627   0.000000
 
 -0.1111111E+00  0.2222222E+00  0.6938894E-17  0.2743484E-02
    1      -30.745694   1.000000
    2      -30.745694   1.000000
    3      -30.744700   1.000000
    4      -30.744699   1.000000
    5      -24.054809   1.000000
    6      -24.054808   1.000000
    7      -24.053033   1.000000
    8      -24.053032   1.000000
    9      -24.049848   1.000000
   10      -24.049848   1.000000
   11      -20.405697   1.000000
   12      -20.405697   1.000000
   13       -7.382899   1.000000
   14       -7.382899   1.000000
   15        1.206377   1.000000
   16        1.206378   1.000000
   17        3.015270   1.000000
   18        3.015270   1.000000
   19        6.198588  -0.000000
   20        6.198592  -0.000000
   21        9.329013   0.000000
   22        9.329015   0.000000
   23        9.990498   0.000000
   24        9.990501   0.000000
   25       10.843838   0.000000
   26       10.843843   0.000000
   27       11.766097   0.000000
   28       11.775248   0.000000
 
  0.7703720E-33  0.3333333E+00 -0.1387779E-16  0.2743484E-02
    1      -30.745729   1.000000
    2      -30.745729   1.000000
    3      -30.744232   1.000000
    4      -30.744232   1.000000
    5      -24.055706   1.000000
    6      -24.055706   1.000000
    7      -24.051536   1.000000
    8      -24.051535   1.000000
    9      -24.048739   1.000000
   10      -24.048739   1.000000
   11      -20.391390   1.000000
   12      -20.391390   1.000000
   13       -7.433726   1.000000
   14       -7.433726   1.000000
   15        0.889051   1.000000
   16        0.889052   1.000000
   17        3.178307   1.000000
   18        3.178307   1.000000
   19        5.927503  -0.000000
   20        5.927507  -0.000000
   21       10.028511   0.000000
   22       10.028512   0.000000
   23       10.291369   0.000000
   24       10.291372   0.000000
   25       10.708780   0.000000
   26       10.708782   0.000000
   27       11.004273   0.000000
   28       11.004274   0.000000
 
  0.1111111E+00  0.3333333E+00  0.0000000E+00  0.2743484E-02
    1      -30.745608   1.000000
    2      -30.745608   1.000000
    3      -30.744439   1.000000
    4      -30.744438   1.000000
    5      -24.055102   1.000000
    6      -24.055102   1.000000
    7      -24.052179   1.000000
    8      -24.052179   1.000000
    9      -24.049094   1.000000
   10      -24.049094   1.000000
   11      -20.394855   1.000000
   12      -20.394855   1.000000
   13       -7.418773   1.000000
   14       -7.418772   1.000000
   15        1.030855   1.000000
   16        1.030856   1.000000
   17        2.921496   1.000000
   18        2.921497   1.000000
   19        6.314534  -0.000000
   20        6.314538  -0.000000
   21        9.351796   0.000000
   22        9.351797   0.000000
   23        9.633640   0.000000
   24        9.633643   0.000000
   25       10.986813   0.000000
   26       10.986817   0.000000
   27       12.280764   0.000000
   28       12.328074   0.000000
 
  0.2222222E+00  0.3333333E+00  0.0000000E+00  0.2743484E-02
    1      -30.745332   1.000000
    2      -30.745331   1.000000
    3      -30.744428   1.000000
    4      -30.744427   1.000000
    5      -24.054930   1.000000
    6      -24.054929   1.000000
    7      -24.052053   1.000000
    8      -24.052052   1.000000
    9      -24.048242   1.000000
   10      -24.048242   1.000000
   11      -20.385598   1.000000
   12      -20.385598   1.000000
   13       -7.444305   1.000000
   14       -7.444304   1.000000
   15        1.037763   1.000000
   16        1.037764   1.000000
   17        2.554718   1.000000
   18        2.554718   1.000000
   19        6.729884   0.000000
   20        6.729887   0.000000
   21        8.383622   0.000000
   22        8.383625   0.000000
   23        9.300691   0.000000
   24        9.300694   0.000000
   25       11.638322   0.000000
   26       11.638324   0.000000
   27       12.782025   0.000000
   28       12.782045   0.000000
 
  0.3333333E+00  0.3333333E+00  0.0000000E+00  0.2743484E-02
    1      -30.745082   1.000000
    2      -30.745082   1.000000
    3      -30.744062   1.000000
    4      -30.744061   1.000000
    5      -24.055130   1.000000
    6      -24.055130   1.000000
    7      -24.051537   1.000000
    8      -24.051536   1.000000
    9      -24.046381   1.000000
   10      -24.046381   1.000000
   11      -20.367759   1.000000
   12      -20.367759   1.000000
   13       -7.498479   1.000000
   14       -7.498479   1.000000
   15        0.863038   1.000000
   16        0.863040   1.000000
   17        2.354365   1.000000
   18        2.354365   1.000000
   19        6.579455   0.000000
   20        6.579458   0.000000
   21        7.864826   0.000000
   22        7.864829   0.000000
   23        9.617097   0.000000
   24        9.617099   0.000000
   25       12.349651   0.000000
   26       12.349653   0.000000
   27       13.432498   0.000000
   28       13.432603   0.000000
 
  0.4444444E+00  0.3333333E+00 -0.5551115E-16  0.2743484E-02
    1      -30.744852   1.000000
    2      -30.744852   1.000000
    3      -30.743701   1.000000
    4      -30.743700   1.000000
    5      -24.054651   1.000000
    6      -24.054650   1.000000
    7      -24.051073   1.000000
    8      -24.051072   1.000000
    9      -24.045156   1.000000
   10      -24.045155   1.000000
   11      -20.349726   1.000000
   12      -20.349725   1.000000
   13       -7.553462   1.000000
   14       -7.553462   1.000000
   15        0.692801   1.000000
   16        0.692802   1.000000
   17        2.086223   1.000000
   18        2.086223   1.000000
   19        6.568644   0.000000
   20        6.568648   0.000000
   21        7.899179   0.000000
   22        7.899181   0.000000
   23        9.873860   0.000000
   24        9.873862   0.000000
   25       12.565475   0.000000
   26       12.565477   0.000000
   27       13.802310   0.000000
   28       13.802553   0.000000
 
 -0.4444444E+00  0.3333333E+00  0.1387779E-16  0.2743484E-02
    1      -30.744647   1.000000
    2      -30.744647   1.000000
    3      -30.743574   1.000000
    4      -30.743573   1.000000
    5      -24.053796   1.000000
    6      -24.053796   1.000000
    7      -24.050318   1.000000
    8      -24.050317   1.000000
    9      -24.045606   1.000000
   10      -24.045606   1.000000
   11      -20.340011   1.000000
   12      -20.340011   1.000000
   13       -7.582417   1.000000
   14       -7.582417   1.000000
   15        0.634210   1.000000
   16        0.634211   1.000000
   17        1.800548   1.000000
   18        1.800548   1.000000
   19        6.826432   0.000000
   20        6.826436   0.000000
   21        8.358808   0.000000
   22        8.358809   0.000000
   23       10.175851   0.000000
   24       10.175853   0.000000
   25       12.015930   0.000000
   26       12.015930   0.000000
   27       13.083885   0.000000
   28       13.083964   0.000000
 
 -0.3333333E+00  0.3333333E+00  0.4302245E-16  0.2743484E-02
    1      -30.744674   1.000000
    2      -30.744674   1.000000
    3      -30.743663   1.000000
    4      -30.743662   1.000000
    5      -24.053380   1.000000
    6      -24.053380   1.000000
    7      -24.049224   1.000000
    8      -24.049223   1.000000
    9      -24.047519   1.000000
   10      -24.047518   1.000000
   11      -20.343213   1.000000
   12      -20.343213   1.000000
   13       -7.573874   1.000000
   14       -7.573874   1.000000
   15        0.631137   1.000000
   16        0.631139   1.000000
   17        1.796546   1.000000
   18        1.796547   1.000000
   19        7.232134   0.000000
   20        7.232139   0.000000
   21        8.527931   0.000000
   22        8.527932   0.000000
   23       10.975058   0.000000
   24       10.975058   0.000000
   25       11.191156   0.000000
   26       11.191160   0.000000
   27       12.140702   0.000000
   28       12.140770   0.000000
 
 -0.2222222E+00  0.3333333E+00  0.2081668E-16  0.2743484E-02
    1      -30.745031   1.000000
    2      -30.745031   1.000000
    3      -30.743783   1.000000
    4      -30.743782   1.000000