       N       E                     dE             d eps       ncg     rms          rms(c)
DAV:   1     0.152932513113E+03    0.15293E+03   -0.96759E+03 20912   0.127E+03
DAV:   2    -0.141022216157E+03   -0.29395E+03   -0.28607E+03 25984   0.446E+02
DAV:   3    -0.153594685153E+03   -0.12572E+02   -0.12535E+02 24556   0.112E+02
DAV:   4    -0.153929650166E+03   -0.33497E+00   -0.33483E+00 31072   0.218E+01
DAV:   5    -0.153940126795E+03   -0.10477E-01   -0.10480E-01 27164   0.323E+00    0.648E+00
RMM:   6    -0.150129751137E+03    0.38104E+01   -0.14832E+01 23733   0.523E+01    0.254E+00
RMM:   7    -0.150403689616E+03   -0.27394E+00   -0.89078E+00 22546   0.404E+01    0.184E+00
RMM:   8    -0.150221276782E+03    0.18241E+00   -0.70204E+00 21883   0.368E+01    0.138E+00
RMM:   9    -0.149968294722E+03    0.25298E+00   -0.24304E+00 21191   0.228E+01    0.803E-01
RMM:  10    -0.150015106945E+03   -0.46812E-01   -0.12852E+00 21523   0.149E+01    0.240E-01
RMM:  11    -0.149982867334E+03    0.32240E-01   -0.11976E+00 21175   0.137E+01    0.277E-01
RMM:  12    -0.149922159793E+03    0.60708E-01   -0.17501E-01 22394   0.579E+00    0.184E-01
RMM:  13    -0.149916971221E+03    0.51886E-02   -0.49268E-02 25972   0.266E+00    0.144E-01
RMM:  14    -0.149918115773E+03   -0.11446E-02   -0.12042E-02 25954   0.151E+00    0.892E-02
RMM:  15    -0.149914115375E+03    0.40004E-02   -0.24298E-02 27042   0.189E+00    0.628E-02
RMM:  16    -0.149914064685E+03    0.50689E-04   -0.44519E-03 28646   0.744E-01    0.360E-02
RMM:  17    -0.149914189815E+03   -0.12513E-03   -0.24696E-03 26177   0.629E-01    0.474E-02
RMM:  18    -0.149913852486E+03    0.33733E-03   -0.16463E-03 28290   0.462E-01    0.101E-02
RMM:  19    -0.149913883663E+03   -0.31177E-04   -0.38474E-04 30305   0.180E-01    0.909E-03
RMM:  20    -0.149913884199E+03   -0.53575E-06   -0.76921E-05 31744   0.805E-02    0.845E-03
RMM:  21    -0.149913879681E+03    0.45174E-05   -0.29627E-05 29966   0.518E-02    0.641E-03
RMM:  22    -0.149913877347E+03    0.23340E-05   -0.16292E-05 30440   0.398E-02    0.412E-03
RMM:  23    -0.149913876967E+03    0.38012E-06   -0.78234E-06 30756   0.253E-02    0.284E-03
RMM:  24    -0.149913876791E+03    0.17584E-06   -0.23432E-06 29907   0.166E-02    0.158E-03
RMM:  25    -0.149913876645E+03    0.14614E-06   -0.10823E-06 28095   0.871E-03    0.847E-04
RMM:  26    -0.149913876245E+03    0.40017E-06   -0.38551E-07 25889   0.699E-03    0.414E-04
RMM:  27    -0.149913876012E+03    0.23344E-06   -0.17517E-07 23060   0.475E-03    0.433E-04
RMM:  28    -0.149913875954E+03    0.57918E-07   -0.53969E-08 19276   0.308E-03
   1 F= -.14991388E+03 E0= -.14991391E+03  d E =0.108369E-03  mag=     0.0000    -0.0000    -0.0000
