Og_FCC                                  
           1
     4.443525    0.000000    0.000000
     2.221763    3.848206   -0.000000
     2.221763    1.282735    3.628123
   Og
   1
Direct configuration=     1
   0.00000000  0.00000000  0.00000000
