 vasp.5.4.4.18Apr17-6-g9f103f2a35 (build Nov 03 2018 10:20:46) complex          
  
 executed on             LinuxIFC date 2018.12.20  02:07:13
 running on   64 total cores
 distrk:  each k-point on   16 cores,    4 groups
 distr:  one band on NCORES_PER_BAND=   4 cores,    4 groups


--------------------------------------------------------------------------------------------------------


 INCAR:
 POTCAR:    PAW Og, JanMewes Oct 18               

 ----------------------------------------------------------------------------- 
|                                                                             |
|           W    W    AA    RRRRR   N    N  II  N    N   GGGG   !!!           |
|           W    W   A  A   R    R  NN   N  II  NN   N  G    G  !!!           |
|           W    W  A    A  R    R  N N  N  II  N N  N  G       !!!           |
|           W WW W  AAAAAA  RRRRR   N  N N  II  N  N N  G  GGG   !            |
|           WW  WW  A    A  R   R   N   NN  II  N   NN  G    G                |
|           W    W  A    A  R    R  N    N  II  N    N   GGGG   !!!           |
|                                                                             |
|      You have enabled k-point parallelism (KPAR>1).                         |
|      This developmental code was originally  written by Paul Kent at ORNL,  |
|      and carefully double checked in Vienna.                                |
|      GW as well as linear response parallelism added by Martijn Marsman     |
|      and Georg Kresse.                                                      |
|      Carefully verify results versus KPAR=1.                                |
|      Report problems to Paul Kent and Vienna.                               |
|                                                                             |
 ----------------------------------------------------------------------------- 

 POTCAR:    PAW Og, JanMewes Oct 18               
   VRHFIN =Og : 10d 2s 6p, PE                                                   
   LEXCH  = PE                                                                  
   EATOM  =  2640.5573 eV,  194.0755 Ry                                         
                                                                                
   TITEL  = PAW Og, JanMewes Oct 18                                             
   LULTRA =        F    use ultrasoft PP ?                                      
   IUNSCR =        1    unscreen: 0-lin 1-nonlin 2-no                           
   RPACOR =    1.700    partial core radius                                     
   POMASS =    0.010; ZVAL   =   18.000    mass and valenz                      
   RCORE  =    2.600    outmost cutoff radius                                   
   RWIGS  =    3.500; RWIGS  =    1.852    wigner-seitz radius (au A)           
   ENMAX  =  339.336; ENMIN  =  254.502 eV                                      
   ICORE  =        3    local potential                                         
   LCOR   =        T    correct aug charges                                     
   LPAW   =        T    paw PP                                                  
   EAUG   =  361.025                                                            
   DEXC   =   -0.000                                                            
   RAUG   =    1.300    factor for augmentation sphere                          
   RDEP   =    2.775    radius for radial grids                                 
   RDEPT  =    2.135    core radius for aug-charge                              
   QCUT   =   -4.994; QGAM   =    9.988    optimization parameters              
                                                                                
   Atomic configuration                                                         
   22 entries                                                                   
     n  l   j            E        occ.                                          
     1  0  0.50   -225781.4217   2.0000                                         
     2  0  0.50    -47342.3774   2.0000                                         
     2  1  1.50    -33463.4058   6.0000                                         
     3  0  0.50    -12845.8060   2.0000                                         
     3  1  1.50     -9184.5562   6.0000                                         
     3  2  2.50     -7322.6146  10.0000                                         
     4  0  0.50     -3781.9433   2.0000                                         
     4  1  1.50     -2605.9204   6.0000                                         
     4  2  2.50     -1899.4626  10.0000                                         
     4  3  3.50     -1273.6890  14.0000                                         
     5  0  0.50     -1046.0643   2.0000                                         
     5  1  1.50      -650.9265   6.0000                                         
     5  2  2.50      -388.1490  10.0000                                         
     5  3  3.50      -152.1121  14.0000                                         
     6  0  0.50      -224.6639   2.0000                                         
     6  1  0.50      -184.3267   2.0000                                         
     6  1  1.50       -97.8537   4.0000                                         
     6  2  2.50       -35.6667  10.0000                                         
     7  0  0.50       -28.5889   2.0000                                         
     8  0  0.50        -1.3606   0.0000                                         
     7  1  1.50        -7.0827   6.0000                                         
     6  3  3.50        -0.0136   0.0000                                         
   Description                                                                  
     l       E           TYP  RCUT    TYP  RCUT                                 
     2    -35.6666962     23  2.100                                             
     2     34.0145650     23  2.300                                             
     0    -28.5889381     23  1.600                                             
     0     40.8174780     23  2.200                                             
     1     -7.0826811     23  2.200                                             
     1    148.3035034     23  1.900                                             
     3      6.8029130      7  2.600                                             
  local pseudopotential read in
  partial core-charges read in
  partial kinetic energy density read in
  kinetic energy density of atom read in
  atomic valenz-charges read in
  non local Contribution for L=           2  read in
    real space projection operators read in
  non local Contribution for L=           2  read in
    real space projection operators read in
  non local Contribution for L=           0  read in
    real space projection operators read in
  non local Contribution for L=           0  read in
    real space projection operators read in
  non local Contribution for L=           1  read in
    real space projection operators read in
  non local Contribution for L=           1  read in
    real space projection operators read in
    PAW grid and wavefunctions read in
 
   number of l-projection  operators is LMAX  =           6
   number of lm-projection operators is LMMAX =          18
 
  PAW Og, JanMewes Oct 18               :
 energy of atom  1       EATOM=-2640.5573
 kinetic energy error for atom=    0.6524 (will be added to EATOM!!)
 
 
 POSCAR: Og_FCC                                  
  positions in direct lattice
  velocities in cartesian coordinates
 exchange correlation table for  LEXCH =        8
   RHO(1)=    0.500       N(1)  =     2000
   RHO(2)=  100.500       N(2)  =     4000
 


--------------------------------------------------------------------------------------------------------


 ion  position               nearest neighbor table
   1  0.000  0.000  0.000-
 

IMPORTANT INFORMATION: All symmetrisations will be switched off!
NOSYMM: (Re-)initialisation of all symmetry stuff for point group C_1.

 
 
 KPOINTS: k-points                                

Automatic generation of k-mesh.
Space group operators:
 irot       det(A)        alpha          n_x          n_y          n_z        tau_x        tau_y        tau_z
    1     1.000000     0.000000     1.000000     0.000000     0.000000     0.000000     0.000000     0.000000
 
 Subroutine IBZKPT returns following result:
 ===========================================
 
 Found    343 irreducible k-points:
 
 Following reciprocal coordinates:
            Coordinates               Weight
  0.000000  0.000000  0.000000      1.000000
  0.142857 -0.000000  0.000000      1.000000
  0.285714  0.000000  0.000000      1.000000
  0.428571  0.000000  0.000000      1.000000
 -0.428571 -0.000000 -0.000000      1.000000
 -0.285714 -0.000000 -0.000000      1.000000
 -0.142857  0.000000  0.000000      1.000000
  0.000000  0.142857  0.000000      1.000000
  0.142857  0.142857  0.000000      1.000000
  0.285714  0.142857  0.000000      1.000000
  0.428571  0.142857  0.000000      1.000000
 -0.428571  0.142857 -0.000000      1.000000
 -0.285714  0.142857 -0.000000      1.000000
 -0.142857  0.142857 -0.000000      1.000000
  0.000000  0.285714 -0.000000      1.000000
  0.142857  0.285714  0.000000      1.000000
  0.285714  0.285714  0.000000      1.000000
  0.428571  0.285714  0.000000      1.000000
 -0.428571  0.285714 -0.000000      1.000000
 -0.285714  0.285714  0.000000      1.000000
 -0.142857  0.285714  0.000000      1.000000
  0.000000  0.428571 -0.000000      1.000000
  0.142857  0.428571 -0.000000      1.000000
  0.285714  0.428571  0.000000      1.000000
  0.428571  0.428571 -0.000000      1.000000
 -0.428571  0.428571 -0.000000      1.000000
 -0.285714  0.428571 -0.000000      1.000000
 -0.142857  0.428571 -0.000000      1.000000
  0.000000 -0.428571  0.000000      1.000000
  0.142857 -0.428571  0.000000      1.000000
  0.285714 -0.428571  0.000000      1.000000
  0.428571 -0.428571  0.000000      1.000000
 -0.428571 -0.428571  0.000000      1.000000
 -0.285714 -0.428571  0.000000      1.000000
 -0.142857 -0.428571  0.000000      1.000000
 -0.000000 -0.285714  0.000000      1.000000
  0.142857 -0.285714 -0.000000      1.000000
  0.285714 -0.285714 -0.000000      1.000000
  0.428571 -0.285714  0.000000      1.000000
 -0.428571 -0.285714 -0.000000      1.000000
 -0.285714 -0.285714  0.000000      1.000000
 -0.142857 -0.285714 -0.000000      1.000000
  0.000000 -0.142857  0.000000      1.000000
  0.142857 -0.142857  0.000000      1.000000
  0.285714 -0.142857  0.000000      1.000000
  0.428571 -0.142857  0.000000      1.000000
 -0.428571 -0.142857  0.000000      1.000000
 -0.285714 -0.142857 -0.000000      1.000000
 -0.142857 -0.142857  0.000000      1.000000
 -0.000000  0.000000  0.142857      1.000000
  0.142857 -0.000000  0.142857      1.000000
  0.285714 -0.000000  0.142857      1.000000
  0.428571 -0.000000  0.142857      1.000000
 -0.428571 -0.000000  0.142857      1.000000
 -0.285714 -0.000000  0.142857      1.000000
 -0.142857 -0.000000  0.142857      1.000000
 -0.000000  0.142857  0.142857      1.000000
  0.142857  0.142857  0.142857      1.000000
  0.285714  0.142857  0.142857      1.000000
  0.428571  0.142857  0.142857      1.000000
 -0.428571  0.142857  0.142857      1.000000
 -0.285714  0.142857  0.142857      1.000000
 -0.142857  0.142857  0.142857      1.000000
 -0.000000  0.285714  0.142857      1.000000
  0.142857  0.285714  0.142857      1.000000
  0.285714  0.285714  0.142857      1.000000
  0.428571  0.285714  0.142857      1.000000
 -0.428571  0.285714  0.142857      1.000000
 -0.285714  0.285714  0.142857      1.000000
 -0.142857  0.285714  0.142857      1.000000
 -0.000000  0.428571  0.142857      1.000000
  0.142857  0.428571  0.142857      1.000000
  0.285714  0.428571  0.142857      1.000000
  0.428571  0.428571  0.142857      1.000000
 -0.428571  0.428571  0.142857      1.000000
 -0.285714  0.428571  0.142857      1.000000
 -0.142857  0.428571  0.142857      1.000000
 -0.000000 -0.428571  0.142857      1.000000
  0.142857 -0.428571  0.142857      1.000000
  0.285714 -0.428571  0.142857      1.000000
  0.428571 -0.428571  0.142857      1.000000
 -0.428571 -0.428571  0.142857      1.000000
 -0.285714 -0.428571  0.142857      1.000000
 -0.142857 -0.428571  0.142857      1.000000
 -0.000000 -0.285714  0.142857      1.000000
  0.142857 -0.285714  0.142857      1.000000
  0.285714 -0.285714  0.142857      1.000000
  0.428571 -0.285714  0.142857      1.000000
 -0.428571 -0.285714  0.142857      1.000000
 -0.285714 -0.285714  0.142857      1.000000
 -0.142857 -0.285714  0.142857      1.000000
 -0.000000 -0.142857  0.142857      1.000000
  0.142857 -0.142857  0.142857      1.000000
  0.285714 -0.142857  0.142857      1.000000
  0.428571 -0.142857  0.142857      1.000000
 -0.428571 -0.142857  0.142857      1.000000
 -0.285714 -0.142857  0.142857      1.000000
 -0.142857 -0.142857  0.142857      1.000000
  0.000000  0.000000  0.285714      1.000000
  0.142857  0.000000  0.285714      1.000000
  0.285714 -0.000000  0.285714      1.000000
  0.428571 -0.000000  0.285714      1.000000
 -0.428571 -0.000000  0.285714      1.000000
 -0.285714 -0.000000  0.285714      1.000000
 -0.142857  0.000000  0.285714      1.000000
  0.000000  0.142857  0.285714      1.000000
  0.142857  0.142857  0.285714      1.000000
  0.285714  0.142857  0.285714      1.000000
  0.428571  0.142857  0.285714      1.000000
 -0.428571  0.142857  0.285714      1.000000
 -0.285714  0.142857  0.285714      1.000000
 -0.142857  0.142857  0.285714      1.000000
 -0.000000  0.285714  0.285714      1.000000
  0.142857  0.285714  0.285714      1.000000
  0.285714  0.285714  0.285714      1.000000
  0.428571  0.285714  0.285714      1.000000
 -0.428571  0.285714  0.285714      1.000000
 -0.285714  0.285714  0.285714      1.000000
 -0.142857  0.285714  0.285714      1.000000
  0.000000  0.428571  0.285714      1.000000
  0.142857  0.428571  0.285714      1.000000
  0.285714  0.428571  0.285714      1.000000
  0.428571  0.428571  0.285714      1.000000
 -0.428571  0.428571  0.285714      1.000000
 -0.285714  0.428571  0.285714      1.000000
 -0.142857  0.428571  0.285714      1.000000
 -0.000000 -0.428571  0.285714      1.000000
  0.142857 -0.428571  0.285714      1.000000
  0.285714 -0.428571  0.285714      1.000000
  0.428571 -0.428571  0.285714      1.000000
 -0.428571 -0.428571  0.285714      1.000000
 -0.285714 -0.428571  0.285714      1.000000
 -0.142857 -0.428571  0.285714      1.000000
  0.000000 -0.285714  0.285714      1.000000
  0.142857 -0.285714  0.285714      1.000000
  0.285714 -0.285714  0.285714      1.000000
  0.428571 -0.285714  0.285714      1.000000
 -0.428571 -0.285714  0.285714      1.000000
 -0.285714 -0.285714  0.285714      1.000000
 -0.142857 -0.285714  0.285714      1.000000
  0.000000 -0.142857  0.285714      1.000000
  0.142857 -0.142857  0.285714      1.000000
  0.285714 -0.142857  0.285714      1.000000
  0.428571 -0.142857  0.285714      1.000000
 -0.428571 -0.142857  0.285714      1.000000
 -0.285714 -0.142857  0.285714      1.000000
 -0.142857 -0.142857  0.285714      1.000000
  0.000000  0.000000  0.428571      1.000000
  0.142857  0.000000  0.428571      1.000000
  0.285714  0.000000  0.428571      1.000000
  0.428571  0.000000  0.428571      1.000000
 -0.428571  0.000000  0.428571      1.000000
 -0.285714  0.000000  0.428571      1.000000
 -0.142857  0.000000  0.428571      1.000000
  0.000000  0.142857  0.428571      1.000000
  0.142857  0.142857  0.428571      1.000000
  0.285714  0.142857  0.428571      1.000000
  0.428571  0.142857  0.428571      1.000000
 -0.428571  0.142857  0.428571      1.000000
 -0.285714  0.142857  0.428571      1.000000
 -0.142857  0.142857  0.428571      1.000000
  0.000000  0.285714  0.428571      1.000000
  0.142857  0.285714  0.428571      1.000000
  0.285714  0.285714  0.428571      1.000000
  0.428571  0.285714  0.428571      1.000000
 -0.428571  0.285714  0.428571      1.000000
 -0.285714  0.285714  0.428571      1.000000
 -0.142857  0.285714  0.428571      1.000000
 -0.000000  0.428571  0.428571      1.000000
  0.142857  0.428571  0.428571      1.000000
  0.285714  0.428571  0.428571      1.000000
  0.428571  0.428571  0.428571      1.000000
 -0.428571  0.428571  0.428571      1.000000
 -0.285714  0.428571  0.428571      1.000000
 -0.142857  0.428571  0.428571      1.000000
 -0.000000 -0.428571  0.428571      1.000000
  0.142857 -0.428571  0.428571      1.000000
  0.285714 -0.428571  0.428571      1.000000
  0.428571 -0.428571  0.428571      1.000000
 -0.428571 -0.428571  0.428571      1.000000
 -0.285714 -0.428571  0.428571      1.000000
 -0.142857 -0.428571  0.428571      1.000000
 -0.000000 -0.285714  0.428571      1.000000
  0.142857 -0.285714  0.428571      1.000000
  0.285714 -0.285714  0.428571      1.000000
  0.428571 -0.285714  0.428571      1.000000
 -0.428571 -0.285714  0.428571      1.000000
 -0.285714 -0.285714  0.428571      1.000000
 -0.142857 -0.285714  0.428571      1.000000
  0.000000 -0.142857  0.428571      1.000000
  0.142857 -0.142857  0.428571      1.000000
  0.285714 -0.142857  0.428571      1.000000
  0.428571 -0.142857  0.428571      1.000000
 -0.428571 -0.142857  0.428571      1.000000
 -0.285714 -0.142857  0.428571      1.000000
 -0.142857 -0.142857  0.428571      1.000000
  0.000000 -0.000000 -0.428571      1.000000
  0.142857 -0.000000 -0.428571      1.000000
  0.285714 -0.000000 -0.428571      1.000000
  0.428571 -0.000000 -0.428571      1.000000
 -0.428571 -0.000000 -0.428571      1.000000
 -0.285714 -0.000000 -0.428571      1.000000
 -0.142857 -0.000000 -0.428571      1.000000
  0.000000  0.142857 -0.428571      1.000000
  0.142857  0.142857 -0.428571      1.000000
  0.285714  0.142857 -0.428571      1.000000
  0.428571  0.142857 -0.428571      1.000000
 -0.428571  0.142857 -0.428571      1.000000
 -0.285714  0.142857 -0.428571      1.000000
 -0.142857  0.142857 -0.428571      1.000000
  0.000000  0.285714 -0.428571      1.000000
  0.142857  0.285714 -0.428571      1.000000
  0.285714  0.285714 -0.428571      1.000000
  0.428571  0.285714 -0.428571      1.000000
 -0.428571  0.285714 -0.428571      1.000000
 -0.285714  0.285714 -0.428571      1.000000
 -0.142857  0.285714 -0.428571      1.000000
  0.000000  0.428571 -0.428571      1.000000
  0.142857  0.428571 -0.428571      1.000000
  0.285714  0.428571 -0.428571      1.000000
  0.428571  0.428571 -0.428571      1.000000
 -0.428571  0.428571 -0.428571      1.000000
 -0.285714  0.428571 -0.428571      1.000000
 -0.142857  0.428571 -0.428571      1.000000
  0.000000 -0.428571 -0.428571      1.000000
  0.142857 -0.428571 -0.428571      1.000000
  0.285714 -0.428571 -0.428571      1.000000
  0.428571 -0.428571 -0.428571      1.000000
 -0.428571 -0.428571 -0.428571      1.000000
 -0.285714 -0.428571 -0.428571      1.000000
 -0.142857 -0.428571 -0.428571      1.000000
  0.000000 -0.285714 -0.428571      1.000000
  0.142857 -0.285714 -0.428571      1.000000
  0.285714 -0.285714 -0.428571      1.000000
  0.428571 -0.285714 -0.428571      1.000000
 -0.428571 -0.285714 -0.428571      1.000000
 -0.285714 -0.285714 -0.428571      1.000000
 -0.142857 -0.285714 -0.428571      1.000000
  0.000000 -0.142857 -0.428571      1.000000
  0.142857 -0.142857 -0.428571      1.000000
  0.285714 -0.142857 -0.428571      1.000000
  0.428571 -0.142857 -0.428571      1.000000
 -0.428571 -0.142857 -0.428571      1.000000
 -0.285714 -0.142857 -0.428571      1.000000
 -0.142857 -0.142857 -0.428571      1.000000
  0.000000 -0.000000 -0.285714      1.000000
  0.142857 -0.000000 -0.285714      1.000000
  0.285714  0.000000 -0.285714      1.000000
  0.428571  0.000000 -0.285714      1.000000
 -0.428571  0.000000 -0.285714      1.000000
 -0.285714  0.000000 -0.285714      1.000000
 -0.142857 -0.000000 -0.285714      1.000000
  0.000000  0.142857 -0.285714      1.000000
  0.142857  0.142857 -0.285714      1.000000
  0.285714  0.142857 -0.285714      1.000000
  0.428571  0.142857 -0.285714      1.000000
 -0.428571  0.142857 -0.285714      1.000000
 -0.285714  0.142857 -0.285714      1.000000
 -0.142857  0.142857 -0.285714      1.000000
  0.000000  0.285714 -0.285714      1.000000
  0.142857  0.285714 -0.285714      1.000000
  0.285714  0.285714 -0.285714      1.000000
  0.428571  0.285714 -0.285714      1.000000
 -0.428571  0.285714 -0.285714      1.000000
 -0.285714  0.285714 -0.285714      1.000000
 -0.142857  0.285714 -0.285714      1.000000
  0.000000  0.428571 -0.285714      1.000000
  0.142857  0.428571 -0.285714      1.000000
  0.285714  0.428571 -0.285714      1.000000
  0.428571  0.428571 -0.285714      1.000000
 -0.428571  0.428571 -0.285714      1.000000
 -0.285714  0.428571 -0.285714      1.000000
 -0.142857  0.428571 -0.285714      1.000000
  0.000000 -0.428571 -0.285714      1.000000
  0.142857 -0.428571 -0.285714      1.000000
  0.285714 -0.428571 -0.285714      1.000000
  0.428571 -0.428571 -0.285714      1.000000
 -0.428571 -0.428571 -0.285714      1.000000
 -0.285714 -0.428571 -0.285714      1.000000
 -0.142857 -0.428571 -0.285714      1.000000
  0.000000 -0.285714 -0.285714      1.000000
  0.142857 -0.285714 -0.285714      1.000000
  0.285714 -0.285714 -0.285714      1.000000
  0.428571 -0.285714 -0.285714      1.000000
 -0.428571 -0.285714 -0.285714      1.000000
 -0.285714 -0.285714 -0.285714      1.000000
 -0.142857 -0.285714 -0.285714      1.000000
 -0.000000 -0.142857 -0.285714      1.000000
  0.142857 -0.142857 -0.285714      1.000000
  0.285714 -0.142857 -0.285714      1.000000
  0.428571 -0.142857 -0.285714      1.000000
 -0.428571 -0.142857 -0.285714      1.000000
 -0.285714 -0.142857 -0.285714      1.000000
 -0.142857 -0.142857 -0.285714      1.000000
  0.000000  0.000000 -0.142857      1.000000
  0.142857  0.000000 -0.142857      1.000000
  0.285714  0.000000 -0.142857      1.000000
  0.428571  0.000000 -0.142857      1.000000
 -0.428571 -0.000000 -0.142857      1.000000
 -0.285714  0.000000 -0.142857      1.000000
 -0.142857  0.000000 -0.142857      1.000000
  0.000000  0.142857 -0.142857      1.000000
  0.142857  0.142857 -0.142857      1.000000
  0.285714  0.142857 -0.142857      1.000000
  0.428571  0.142857 -0.142857      1.000000
 -0.428571  0.142857 -0.142857      1.000000
 -0.285714  0.142857 -0.142857      1.000000
 -0.142857  0.142857 -0.142857      1.000000
  0.000000  0.285714 -0.142857      1.000000
  0.142857  0.285714 -0.142857      1.000000
  0.285714  0.285714 -0.142857      1.000000
  0.428571  0.285714 -0.142857      1.000000
 -0.428571  0.285714 -0.142857      1.000000
 -0.285714  0.285714 -0.142857      1.000000
 -0.142857  0.285714 -0.142857      1.000000
  0.000000  0.428571 -0.142857      1.000000
  0.142857  0.428571 -0.142857      1.000000
  0.285714  0.428571 -0.142857      1.000000
  0.428571  0.428571 -0.142857      1.000000
 -0.428571  0.428571 -0.142857      1.000000
 -0.285714  0.428571 -0.142857      1.000000
 -0.142857  0.428571 -0.142857      1.000000
  0.000000 -0.428571 -0.142857      1.000000
  0.142857 -0.428571 -0.142857      1.000000
  0.285714 -0.428571 -0.142857      1.000000
  0.428571 -0.428571 -0.142857      1.000000
 -0.428571 -0.428571 -0.142857      1.000000
 -0.285714 -0.428571 -0.142857      1.000000
 -0.142857 -0.428571 -0.142857      1.000000
  0.000000 -0.285714 -0.142857      1.000000
  0.142857 -0.285714 -0.142857      1.000000
  0.285714 -0.285714 -0.142857      1.000000
  0.428571 -0.285714 -0.142857      1.000000
 -0.428571 -0.285714 -0.142857      1.000000
 -0.285714 -0.285714 -0.142857      1.000000
 -0.142857 -0.285714 -0.142857      1.000000
  0.000000 -0.142857 -0.142857      1.000000
  0.142857 -0.142857 -0.142857      1.000000
  0.285714 -0.142857 -0.142857      1.000000
  0.428571 -0.142857 -0.142857      1.000000
 -0.428571 -0.142857 -0.142857      1.000000
 -0.285714 -0.142857 -0.142857      1.000000
 -0.142857 -0.142857 -0.142857      1.000000
 
 Following cartesian coordinates:
            Coordinates               Weight
  0.000000  0.000000  0.000000      1.000000
  0.032899 -0.018994 -0.013431      1.000000
  0.065797 -0.037988 -0.026862      1.000000
  0.098696 -0.056982 -0.040292      1.000000
 -0.098696  0.056982  0.040292      1.000000
 -0.065797  0.037988  0.026862      1.000000
 -0.032899  0.018994  0.013431      1.000000
  0.000000  0.037988 -0.013431      1.000000
  0.032899  0.018994 -0.026862      1.000000
  0.065797  0.000000 -0.040292      1.000000
  0.098696 -0.018994 -0.053723      1.000000
 -0.098696  0.094970  0.026862      1.000000
 -0.065797  0.075976  0.013431      1.000000
 -0.032899  0.056982  0.000000      1.000000
  0.000000  0.075976 -0.026862      1.000000
  0.032899  0.056982 -0.040292      1.000000
  0.065797  0.037988 -0.053723      1.000000
  0.098696  0.018994 -0.067154      1.000000
 -0.098696  0.132958  0.013431      1.000000
 -0.065797  0.113964  0.000000      1.000000
 -0.032899  0.094970 -0.013431      1.000000
  0.000000  0.113964 -0.040292      1.000000
  0.032899  0.094970 -0.053723      1.000000
  0.065797  0.075976 -0.067154      1.000000
  0.098696  0.056982 -0.080585      1.000000
 -0.098696  0.170946  0.000000      1.000000
 -0.065797  0.151952 -0.013431      1.000000
 -0.032899  0.132958 -0.026862      1.000000
 -0.000000 -0.113964  0.040292      1.000000
  0.032899 -0.132958  0.026862      1.000000
  0.065797 -0.151952  0.013431      1.000000
  0.098696 -0.170946 -0.000000      1.000000
 -0.098696 -0.056982  0.080585      1.000000
 -0.065797 -0.075976  0.067154      1.000000
 -0.032899 -0.094970  0.053723      1.000000
 -0.000000 -0.075976  0.026862      1.000000
  0.032899 -0.094970  0.013431      1.000000
  0.065797 -0.113964 -0.000000      1.000000
  0.098696 -0.132958 -0.013431      1.000000
 -0.098696 -0.018994  0.067154      1.000000
 -0.065797 -0.037988  0.053723      1.000000
 -0.032899 -0.056982  0.040292      1.000000
 -0.000000 -0.037988  0.013431      1.000000
  0.032899 -0.056982 -0.000000      1.000000
  0.065797 -0.075976 -0.013431      1.000000
  0.098696 -0.094970 -0.026862      1.000000
 -0.098696  0.018994  0.053723      1.000000
 -0.065797  0.000000  0.040292      1.000000
 -0.032899 -0.018994  0.026862      1.000000
 -0.000000  0.000000  0.040292      1.000000
  0.032899 -0.018994  0.026862      1.000000
  0.065797 -0.037988  0.013431      1.000000
  0.098696 -0.056982  0.000000      1.000000
 -0.098696  0.056982  0.080585      1.000000
 -0.065797  0.037988  0.067154      1.000000
 -0.032899  0.018994  0.053723      1.000000
 -0.000000  0.037988  0.026862      1.000000
  0.032899  0.018994  0.013431      1.000000
  0.065797  0.000000  0.000000      1.000000
  0.098696 -0.018994 -0.013431      1.000000
 -0.098696  0.094970  0.067154      1.000000
 -0.065797  0.075976  0.053723      1.000000
 -0.032899  0.056982  0.040292      1.000000
 -0.000000  0.075976  0.013431      1.000000
  0.032899  0.056982  0.000000      1.000000
  0.065797  0.037988 -0.013431      1.000000
  0.098696  0.018994 -0.026862      1.000000
 -0.098696  0.132958  0.053723      1.000000
 -0.065797  0.113964  0.040292      1.000000
 -0.032899  0.094970  0.026862      1.000000
 -0.000000  0.113964  0.000000      1.000000
  0.032899  0.094970 -0.013431      1.000000
  0.065797  0.075976 -0.026862      1.000000
  0.098696  0.056982 -0.040292      1.000000
 -0.098696  0.170946  0.040292      1.000000
 -0.065797  0.151952  0.026862      1.000000
 -0.032899  0.132958  0.013431      1.000000
 -0.000000 -0.113964  0.080585      1.000000
  0.032899 -0.132958  0.067154      1.000000
  0.065797 -0.151952  0.053723      1.000000
  0.098696 -0.170946  0.040292      1.000000
 -0.098696 -0.056982  0.120877      1.000000
 -0.065797 -0.075976  0.107446      1.000000
 -0.032899 -0.094970  0.094016      1.000000
 -0.000000 -0.075976  0.067154      1.000000
  0.032899 -0.094970  0.053723      1.000000
  0.065797 -0.113964  0.040292      1.000000
  0.098696 -0.132958  0.026862      1.000000
 -0.098696 -0.018994  0.107446      1.000000
 -0.065797 -0.037988  0.094016      1.000000
 -0.032899 -0.056982  0.080585      1.000000
 -0.000000 -0.037988  0.053723      1.000000
  0.032899 -0.056982  0.040292      1.000000
  0.065797 -0.075976  0.026862      1.000000
  0.098696 -0.094970  0.013431      1.000000
 -0.098696  0.018994  0.094016      1.000000
 -0.065797  0.000000  0.080585      1.000000
 -0.032899 -0.018994  0.067154      1.000000
 -0.000000  0.000000  0.080585      1.000000
  0.032899 -0.018994  0.067154      1.000000
  0.065797 -0.037988  0.053723      1.000000
  0.098696 -0.056982  0.040292      1.000000
 -0.098696  0.056982  0.120877      1.000000
 -0.065797  0.037988  0.107446      1.000000
 -0.032899  0.018994  0.094016      1.000000
 -0.000000  0.037988  0.067154      1.000000
  0.032899  0.018994  0.053723      1.000000
  0.065797  0.000000  0.040292      1.000000
  0.098696 -0.018994  0.026862      1.000000
 -0.098696  0.094970  0.107446      1.000000
 -0.065797  0.075976  0.094016      1.000000
 -0.032899  0.056982  0.080585      1.000000
 -0.000000  0.075976  0.053723      1.000000
  0.032899  0.056982  0.040292      1.000000
  0.065797  0.037988  0.026862      1.000000
  0.098696  0.018994  0.013431      1.000000
 -0.098696  0.132958  0.094016      1.000000
 -0.065797  0.113964  0.080585      1.000000
 -0.032899  0.094970  0.067154      1.000000
 -0.000000  0.113964  0.040292      1.000000
  0.032899  0.094970  0.026862      1.000000
  0.065797  0.075976  0.013431      1.000000
  0.098696  0.056982 -0.000000      1.000000
 -0.098696  0.170946  0.080585      1.000000
 -0.065797  0.151952  0.067154      1.000000
 -0.032899  0.132958  0.053723      1.000000
 -0.000000 -0.113964  0.120877      1.000000
  0.032899 -0.132958  0.107446      1.000000
  0.065797 -0.151952  0.094016      1.000000
  0.098696 -0.170946  0.080585      1.000000
 -0.098696 -0.056982  0.161170      1.000000
 -0.065797 -0.075976  0.147739      1.000000
 -0.032899 -0.094970  0.134308      1.000000
 -0.000000 -0.075976  0.107446      1.000000
  0.032899 -0.094970  0.094016      1.000000
  0.065797 -0.113964  0.080585      1.000000
  0.098696 -0.132958  0.067154      1.000000
 -0.098696 -0.018994  0.147739      1.000000
 -0.065797 -0.037988  0.134308      1.000000
 -0.032899 -0.056982  0.120877      1.000000
 -0.000000 -0.037988  0.094016      1.000000
  0.032899 -0.056982  0.080585      1.000000
  0.065797 -0.075976  0.067154      1.000000
  0.098696 -0.094970  0.053723      1.000000
 -0.098696  0.018994  0.134308      1.000000
 -0.065797  0.000000  0.120877      1.000000
 -0.032899 -0.018994  0.107446      1.000000
 -0.000000  0.000000  0.120877      1.000000
  0.032899 -0.018994  0.107446      1.000000
  0.065797 -0.037988  0.094016      1.000000
  0.098696 -0.056982  0.080585      1.000000
 -0.098696  0.056982  0.161170      1.000000
 -0.065797  0.037988  0.147739      1.000000
 -0.032899  0.018994  0.134308      1.000000
 -0.000000  0.037988  0.107446      1.000000
  0.032899  0.018994  0.094016      1.000000
  0.065797  0.000000  0.080585      1.000000
  0.098696 -0.018994  0.067154      1.000000
 -0.098696  0.094970  0.147739      1.000000
 -0.065797  0.075976  0.134308      1.000000
 -0.032899  0.056982  0.120877      1.000000
 -0.000000  0.075976  0.094016      1.000000
  0.032899  0.056982  0.080585      1.000000
  0.065797  0.037988  0.067154      1.000000
  0.098696  0.018994  0.053723      1.000000
 -0.098696  0.132958  0.134308      1.000000
 -0.065797  0.113964  0.120877      1.000000
 -0.032899  0.094970  0.107446      1.000000
 -0.000000  0.113964  0.080585      1.000000
  0.032899  0.094970  0.067154      1.000000
  0.065797  0.075976  0.053723      1.000000
  0.098696  0.056982  0.040292      1.000000
 -0.098696  0.170946  0.120877      1.000000
 -0.065797  0.151952  0.107446      1.000000
 -0.032899  0.132958  0.094016      1.000000
 -0.000000 -0.113964  0.161170      1.000000
  0.032899 -0.132958  0.147739      1.000000
  0.065797 -0.151952  0.134308      1.000000
  0.098696 -0.170946  0.120877      1.000000
 -0.098696 -0.056982  0.201462      1.000000
 -0.065797 -0.075976  0.188031      1.000000
 -0.032899 -0.094970  0.174600      1.000000
 -0.000000 -0.075976  0.147739      1.000000
  0.032899 -0.094970  0.134308      1.000000
  0.065797 -0.113964  0.120877      1.000000
  0.098696 -0.132958  0.107446      1.000000
 -0.098696 -0.018994  0.188031      1.000000
 -0.065797 -0.037988  0.174600      1.000000
 -0.032899 -0.056982  0.161170      1.000000
 -0.000000 -0.037988  0.134308      1.000000
  0.032899 -0.056982  0.120877      1.000000
  0.065797 -0.075976  0.107446      1.000000
  0.098696 -0.094970  0.094016      1.000000
 -0.098696  0.018994  0.174600      1.000000
 -0.065797  0.000000  0.161170      1.000000
 -0.032899 -0.018994  0.147739      1.000000
  0.000000 -0.000000 -0.120877      1.000000
  0.032899 -0.018994 -0.134308      1.000000
  0.065797 -0.037988 -0.147739      1.000000
  0.098696 -0.056982 -0.161170      1.000000
 -0.098696  0.056982 -0.080585      1.000000
 -0.065797  0.037988 -0.094016      1.000000
 -0.032899  0.018994 -0.107446      1.000000
  0.000000  0.037988 -0.134308      1.000000
  0.032899  0.018994 -0.147739      1.000000
  0.065797  0.000000 -0.161170      1.000000
  0.098696 -0.018994 -0.174600      1.000000
 -0.098696  0.094970 -0.094016      1.000000
 -0.065797  0.075976 -0.107446      1.000000
 -0.032899  0.056982 -0.120877      1.000000
  0.000000  0.075976 -0.147739      1.000000
  0.032899  0.056982 -0.161170      1.000000
  0.065797  0.037988 -0.174600      1.000000
  0.098696  0.018994 -0.188031      1.000000
 -0.098696  0.132958 -0.107446      1.000000
 -0.065797  0.113964 -0.120877      1.000000
 -0.032899  0.094970 -0.134308      1.000000
  0.000000  0.113964 -0.161170      1.000000
  0.032899  0.094970 -0.174600      1.000000
  0.065797  0.075976 -0.188031      1.000000
  0.098696  0.056982 -0.201462      1.000000
 -0.098696  0.170946 -0.120877      1.000000
 -0.065797  0.151952 -0.134308      1.000000
 -0.032899  0.132958 -0.147739      1.000000
  0.000000 -0.113964 -0.080585      1.000000
  0.032899 -0.132958 -0.094016      1.000000
  0.065797 -0.151952 -0.107446      1.000000
  0.098696 -0.170946 -0.120877      1.000000
 -0.098696 -0.056982 -0.040292      1.000000
 -0.065797 -0.075976 -0.053723      1.000000
 -0.032899 -0.094970 -0.067154      1.000000
  0.000000 -0.075976 -0.094016      1.000000
  0.032899 -0.094970 -0.107446      1.000000
  0.065797 -0.113964 -0.120877      1.000000
  0.098696 -0.132958 -0.134308      1.000000
 -0.098696 -0.018994 -0.053723      1.000000
 -0.065797 -0.037988 -0.067154      1.000000
 -0.032899 -0.056982 -0.080585      1.000000
  0.000000 -0.037988 -0.107446      1.000000
  0.032899 -0.056982 -0.120877      1.000000
  0.065797 -0.075976 -0.134308      1.000000
  0.098696 -0.094970 -0.147739      1.000000
 -0.098696  0.018994 -0.067154      1.000000
 -0.065797  0.000000 -0.080585      1.000000
 -0.032899 -0.018994 -0.094016      1.000000
  0.000000 -0.000000 -0.080585      1.000000
  0.032899 -0.018994 -0.094016      1.000000
  0.065797 -0.037988 -0.107446      1.000000
  0.098696 -0.056982 -0.120877      1.000000
 -0.098696  0.056982 -0.040292      1.000000
 -0.065797  0.037988 -0.053723      1.000000
 -0.032899  0.018994 -0.067154      1.000000
  0.000000  0.037988 -0.094016      1.000000
  0.032899  0.018994 -0.107446      1.000000
  0.065797  0.000000 -0.120877      1.000000
  0.098696 -0.018994 -0.134308      1.000000
 -0.098696  0.094970 -0.053723      1.000000
 -0.065797  0.075976 -0.067154      1.000000
 -0.032899  0.056982 -0.080585      1.000000
  0.000000  0.075976 -0.107446      1.000000
  0.032899  0.056982 -0.120877      1.000000
  0.065797  0.037988 -0.134308      1.000000
  0.098696  0.018994 -0.147739      1.000000
 -0.098696  0.132958 -0.067154      1.000000
 -0.065797  0.113964 -0.080585      1.000000
 -0.032899  0.094970 -0.094016      1.000000
  0.000000  0.113964 -0.120877      1.000000
  0.032899  0.094970 -0.134308      1.000000
  0.065797  0.075976 -0.147739      1.000000
  0.098696  0.056982 -0.161170      1.000000
 -0.098696  0.170946 -0.080585      1.000000
 -0.065797  0.151952 -0.094016      1.000000
 -0.032899  0.132958 -0.107446      1.000000
  0.000000 -0.113964 -0.040292      1.000000
  0.032899 -0.132958 -0.053723      1.000000
  0.065797 -0.151952 -0.067154      1.000000
  0.098696 -0.170946 -0.080585      1.000000
 -0.098696 -0.056982  0.000000      1.000000
 -0.065797 -0.075976 -0.013431      1.000000
 -0.032899 -0.094970 -0.026862      1.000000
  0.000000 -0.075976 -0.053723      1.000000
  0.032899 -0.094970 -0.067154      1.000000
  0.065797 -0.113964 -0.080585      1.000000
  0.098696 -0.132958 -0.094016      1.000000
 -0.098696 -0.018994 -0.013431      1.000000
 -0.065797 -0.037988 -0.026862      1.000000
 -0.032899 -0.056982 -0.040292      1.000000
  0.000000 -0.037988 -0.067154      1.000000
  0.032899 -0.056982 -0.080585      1.000000
  0.065797 -0.075976 -0.094016      1.000000
  0.098696 -0.094970 -0.107446      1.000000
 -0.098696  0.018994 -0.026862      1.000000
 -0.065797  0.000000 -0.040292      1.000000
 -0.032899 -0.018994 -0.053723      1.000000
  0.000000 -0.000000 -0.040292      1.000000
  0.032899 -0.018994 -0.053723      1.000000
  0.065797 -0.037988 -0.067154      1.000000
  0.098696 -0.056982 -0.080585      1.000000
 -0.098696  0.056982  0.000000      1.000000
 -0.065797  0.037988 -0.013431      1.000000
 -0.032899  0.018994 -0.026862      1.000000
  0.000000  0.037988 -0.053723      1.000000
  0.032899  0.018994 -0.067154      1.000000
  0.065797  0.000000 -0.080585      1.000000
  0.098696 -0.018994 -0.094016      1.000000
 -0.098696  0.094970 -0.013431      1.000000
 -0.065797  0.075976 -0.026862      1.000000
 -0.032899  0.056982 -0.040292      1.000000
  0.000000  0.075976 -0.067154      1.000000
  0.032899  0.056982 -0.080585      1.000000
  0.065797  0.037988 -0.094016      1.000000
  0.098696  0.018994 -0.107446      1.000000
 -0.098696  0.132958 -0.026862      1.000000
 -0.065797  0.113964 -0.040292      1.000000
 -0.032899  0.094970 -0.053723      1.000000
  0.000000  0.113964 -0.080585      1.000000
  0.032899  0.094970 -0.094016      1.000000
  0.065797  0.075976 -0.107446      1.000000
  0.098696  0.056982 -0.120877      1.000000
 -0.098696  0.170946 -0.040292      1.000000
 -0.065797  0.151952 -0.053723      1.000000
 -0.032899  0.132958 -0.067154      1.000000
 -0.000000 -0.113964  0.000000      1.000000
  0.032899 -0.132958 -0.013431      1.000000
  0.065797 -0.151952 -0.026862      1.000000
  0.098696 -0.170946 -0.040292      1.000000
 -0.098696 -0.056982  0.040292      1.000000
 -0.065797 -0.075976  0.026862      1.000000
 -0.032899 -0.094970  0.013431      1.000000
  0.000000 -0.075976 -0.013431      1.000000
  0.032899 -0.094970 -0.026862      1.000000
  0.065797 -0.113964 -0.040292      1.000000
  0.098696 -0.132958 -0.053723      1.000000
 -0.098696 -0.018994  0.026862      1.000000
 -0.065797 -0.037988  0.013431      1.000000
 -0.032899 -0.056982  0.000000      1.000000
  0.000000 -0.037988 -0.026862      1.000000
  0.032899 -0.056982 -0.040292      1.000000
  0.065797 -0.075976 -0.053723      1.000000
  0.098696 -0.094970 -0.067154      1.000000
 -0.098696  0.018994  0.013431      1.000000
 -0.065797  0.000000  0.000000      1.000000
 -0.032899 -0.018994 -0.013431      1.000000
 


--------------------------------------------------------------------------------------------------------




 Dimension of arrays:
   k-points           NKPTS =    343   k-points in BZ     NKDIM =    343   number of bands    NBANDS=     28
   number of dos      NEDOS =    301   number of ions     NIONS =      1
   non local maximal  LDIM  =      6   non local SUM 2l+1 LMDIM =     18
   total plane-waves  NPLWV =  21952
   max r-space proj   IRMAX =      1   max aug-charges    IRDMAX= 175694
   dimension x,y,z NGX =    28 NGY =   28 NGZ =   28
   dimension x,y,z NGXF=    56 NGYF=   56 NGZF=   56
   support grid    NGXF=   112 NGYF=  112 NGZF=  112
   ions per type =               1
   NGX,Y,Z   is equivalent  to a cutoff of  10.59, 10.59, 10.59 a.u.
   NGXF,Y,Z  is equivalent  to a cutoff of  21.18, 21.18, 21.18 a.u.

 SYSTEM =  Og_FCC                                  
 POSCAR =  Og_FCC                                  

 Startparameter for this run:
   NWRITE =      2    write-flag & timer
   PREC   = accura    normal or accurate (medium, high low for compatibility)
   ISTART =      1    job   : 0-new  1-cont  2-samecut
   ICHARG =      0    charge: 1-file 2-atom 10-const
   ISPIN  =      1    spin polarized calculation?
   LNONCOLLINEAR =      T non collinear calculations
   LSORBIT =      T    spin-orbit coupling
   INIWAV =      1    electr: 0-lowe 1-rand  2-diag
   LASPH  =      F    aspherical Exc in radial PAW
   METAGGA=      F    non-selfconsistent MetaGGA calc.

 Electronic Relaxation 1
   ENCUT  =  300.0 eV  22.05 Ry    4.70 a.u.   6.21  6.21  6.21*2*pi/ulx,y,z
   ENINI  =  300.0     initial cutoff
   ENAUG  =  361.0 eV  augmentation charge cutoff
   NELM   =     50;   NELMIN=  2; NELMDL= -5     # of ELM steps 
   EDIFF  = 0.1E-07   stopping-criterion for ELM
   LREAL  =      F    real-space projection
   NLSPLINE    = F    spline interpolate recip. space projectors
   LCOMPAT=      F    compatible to vasp.4.4
   GGA_COMPAT  = F    GGA compatible to vasp.4.4-vasp.4.6
   LMAXPAW     = -100 max onsite density
   LMAXMIX     =    2 max onsite mixed and CHGCAR
   VOSKOWN=      0    Vosko Wilk Nusair interpolation
   ROPT   =    0.00000
 Ionic relaxation
   EDIFFG = 0.1E-04   stopping-criterion for IOM
   NSW    =      1    number of steps for IOM
   NBLOCK =      1;   KBLOCK =      1    inner block; outer block 
   IBRION =     -1    ionic relax: 0-MD 1-quasi-New 2-CG
   NFREE  =      5    steps in history (QN), initial steepest desc. (CG)
   ISIF   =      3    stress and relaxation
   IWAVPR =     10    prediction:  0-non 1-charg 2-wave 3-comb
   ISYM   =      0    0-nonsym 1-usesym 2-fastsym
   LCORR  =      T    Harris-Foulkes like correction to forces

   POTIM  = 0.1000    time-step for ionic-motion
   TEIN   =    0.0    initial temperature
   TEBEG  =    0.0;   TEEND  =   0.0 temperature during run
   SMASS  =  -3.00    Nose mass-parameter (am)
   estimated Nose-frequenzy (Omega)   =  0.10E-29 period in steps =****** mass=  -0.442E-27a.u.
   SCALEE = 1.0000    scale energy and forces
   NPACO  =    256;   APACO  = 16.0  distance and # of slots for P.C.
   PSTRESS=    0.0 pullay stress

  Mass of Ions in am
   POMASS =   0.01
  Ionic Valenz
   ZVAL   =  18.00
  Atomic Wigner-Seitz radii
   RWIGS  =  -1.00
  virtual crystal weights 
   VCA    =   1.00
   NELECT =      18.0000    total number of electrons
   NUPDOWN=      -1.0000    fix difference up-down

 DOS related values:
   EMIN   =  10.00;   EMAX   =-10.00  energy-range for DOS
   EFERMI =   0.00
   ISMEAR =     0;   SIGMA  =   0.00  broadening in eV -4-tet -1-fermi 0-gaus

 Electronic relaxation 2 (details)
   IALGO  =     38    algorithm
   LDIAG  =      T    sub-space diagonalisation (order eigenvalues)
   LSUBROT=      F    optimize rotation matrix (better conditioning)
   TURBO    =      0    0=normal 1=particle mesh
   IRESTART =      0    0=no restart 2=restart with 2 vectors
   NREBOOT  =      0    no. of reboots
   NMIN     =      0    reboot dimension
   EREF     =   0.00    reference energy to select bands
   IMIX   =      4    mixing-type and parameters
     AMIX     =   0.40;   BMIX     =  1.00
     AMIX_MAG =   1.60;   BMIX_MAG =  1.00
     AMIN     =   0.10
     WC   =   100.;   INIMIX=   1;  MIXPRE=   1;  MAXMIX=  50

 Intra band minimization:
   WEIMIN = 0.0000     energy-eigenvalue tresh-hold
   EBREAK =  0.89E-10  absolut break condition
   DEPER  =   0.30     relativ break condition  

   TIME   =   0.40     timestep for ELM

  volume/ion in A,a.u.               =      60.08       405.47
  Fermi-wavevector in a.u.,A,eV,Ry     =   1.095414  2.070033 16.326071  1.199932
  Thomas-Fermi vector in A             =   2.231737
 
 Write flags
   LWAVE        =      T    write WAVECAR
   LDOWNSAMPLE  =      F    k-point downsampling of WAVECAR
   LCHARG       =      F    write CHGCAR
   LVTOT        =      F    write LOCPOT, total local potential
   LVHAR        =      F    write LOCPOT, Hartree potential only
   LELF         =      F    write electronic localiz. function (ELF)
   LORBIT       =      0    0 simple, 1 ext, 2 COOP (PROOUT), +10 PAW based schemes


 Dipole corrections
   LMONO  =      F    monopole corrections only (constant potential shift)
   LDIPOL =      F    correct potential (dipole corrections)
   IDIPOL =      0    1-x, 2-y, 3-z, 4-all directions 
   EPSILON=  1.0000000 bulk dielectric constant

 Exchange correlation treatment:
   GGA     =    PE    GGA type
   LEXCH   =     8    internal setting for exchange type
   VOSKOWN=      0    Vosko Wilk Nusair interpolation
   LHFCALC =     F    Hartree Fock is set to
   LHFONE  =     F    Hartree Fock one center treatment
   AEXX    =    0.0000 exact exchange contribution

 Linear response parameters
   LEPSILON=     F    determine dielectric tensor
   LRPA    =     F    only Hartree local field effects (RPA)
   LNABLA  =     F    use nabla operator in PAW spheres
   LVEL    =     F    velocity operator in full k-point grid
   LINTERFAST=   F  fast interpolation
   KINTER  =     0    interpolate to denser k-point grid
   CSHIFT  =0.1000    complex shift for real part using Kramers Kronig
   OMEGAMAX=  -1.0    maximum frequency
   DEG_THRESHOLD= 0.2000000E-02 threshold for treating states as degnerate
   RTIME   =   -0.100 relaxation time in fs
  (WPLASMAI=    0.000 imaginary part of plasma frequency in eV, 0.658/RTIME)
   DFIELD  = 0.0000000 0.0000000 0.0000000 field for delta impulse in time
 
 Orbital magnetization related:
   ORBITALMAG=     F  switch on orbital magnetization
   LCHIMAG   =     F  perturbation theory with respect to B field
   DQ        =  0.001000  dq finite difference perturbation B field
   LLRAUG    =     F  two centre corrections for induced B field



--------------------------------------------------------------------------------------------------------


 Static calculation
 charge density and potential will be updated during run
 non collinear spin polarized calculation
 Variant of blocked Davidson
 Davidson routine will perform the subspace rotation
 perform sub-space diagonalisation
    after iterative eigenvector-optimisation
 modified Broyden-mixing scheme, WC =      100.0
 initial mixing is a Kerker type mixing with AMIX =  0.4000 and BMIX =      1.0000
 Hartree-type preconditioning will be used
 using additional bands           19
 reciprocal scheme for non local part
 use partial core corrections
 calculate Harris-corrections to forces 
   (improved forces if not selfconsistent)
 use gradient corrections 
 use of overlap-Matrix (Vanderbilt PP)
 Gauss-broadening in eV      SIGMA  =   0.00


--------------------------------------------------------------------------------------------------------


  energy-cutoff  :      300.00
  volume of cell :       60.08
      direct lattice vectors                 reciprocal lattice vectors
     4.396350177  0.000000000  0.000000000     0.227461408 -0.131324905 -0.092860731
     2.198175089  3.807350937 -0.000000000     0.000000000  0.262649810 -0.092860731
     2.198175089  1.269116979  3.589604888    -0.000000000  0.000000000  0.278582192

  length of vectors
     4.396350177  4.396350177  4.396350177     0.278582193  0.278582193  0.278582192


 
 old parameters found on file WAVECAR:
  energy-cutoff  :      300.00
  volume of cell :       60.08
      direct lattice vectors                 reciprocal lattice vectors
     4.396350177  0.000000000  0.000000000     0.227461408 -0.131324905 -0.092860731
     2.198175089  3.807350937 -0.000000000     0.000000000  0.262649810 -0.092860731
     2.198175089  1.269116979  3.589604888    -0.000000000  0.000000000  0.278582192

  length of vectors

 
 k-points in units of 2pi/SCALE and weight: k-points                                
   0.00000000  0.00000000  0.00000000       0.003
   0.03289861 -0.01899402 -0.01343080       0.003
   0.06579722 -0.03798804 -0.02686160       0.003
   0.09869583 -0.05698206 -0.04029240       0.003
  -0.09869583  0.05698206  0.04029240       0.003
  -0.06579722  0.03798804  0.02686160       0.003
  -0.03289861  0.01899402  0.01343080       0.003
   0.00000000  0.03798804 -0.01343080       0.003
   0.03289861  0.01899402 -0.02686160       0.003
   0.06579722  0.00000000 -0.04029240       0.003
   0.09869583 -0.01899402 -0.05372320       0.003
  -0.09869583  0.09497011  0.02686160       0.003
  -0.06579722  0.07597609  0.01343080       0.003
  -0.03289861  0.05698206  0.00000000       0.003
   0.00000000  0.07597609 -0.02686160       0.003
   0.03289861  0.05698206 -0.04029240       0.003
   0.06579722  0.03798804 -0.05372320       0.003
   0.09869583  0.01899402 -0.06715401       0.003
  -0.09869583  0.13295815  0.01343080       0.003
  -0.06579722  0.11396413  0.00000000       0.003
  -0.03289861  0.09497011 -0.01343080       0.003
   0.00000000  0.11396413 -0.04029240       0.003
   0.03289861  0.09497011 -0.05372320       0.003
   0.06579722  0.07597609 -0.06715401       0.003
   0.09869583  0.05698206 -0.08058481       0.003
  -0.09869583  0.17094619  0.00000000       0.003
  -0.06579722  0.15195217 -0.01343080       0.003
  -0.03289861  0.13295815 -0.02686160       0.003
  -0.00000000 -0.11396413  0.04029240       0.003
   0.03289861 -0.13295815  0.02686160       0.003
   0.06579722 -0.15195217  0.01343080       0.003
   0.09869583 -0.17094619 -0.00000000       0.003
  -0.09869583 -0.05698206  0.08058481       0.003
  -0.06579722 -0.07597609  0.06715401       0.003
  -0.03289861 -0.09497011  0.05372320       0.003
  -0.00000000 -0.07597609  0.02686160       0.003
   0.03289861 -0.09497011  0.01343080       0.003
   0.06579722 -0.11396413 -0.00000000       0.003
   0.09869583 -0.13295815 -0.01343080       0.003
  -0.09869583 -0.01899402  0.06715401       0.003
  -0.06579722 -0.03798804  0.05372320       0.003
  -0.03289861 -0.05698206  0.04029240       0.003
  -0.00000000 -0.03798804  0.01343080       0.003
   0.03289861 -0.05698206 -0.00000000       0.003
   0.06579722 -0.07597609 -0.01343080       0.003
   0.09869583 -0.09497011 -0.02686160       0.003
  -0.09869583  0.01899402  0.05372320       0.003
  -0.06579722  0.00000000  0.04029240       0.003
  -0.03289861 -0.01899402  0.02686160       0.003
  -0.00000000  0.00000000  0.04029240       0.003
   0.03289861 -0.01899402  0.02686160       0.003
   0.06579722 -0.03798804  0.01343080       0.003
   0.09869583 -0.05698206  0.00000000       0.003
  -0.09869583  0.05698206  0.08058481       0.003
  -0.06579722  0.03798804  0.06715401       0.003
  -0.03289861  0.01899402  0.05372320       0.003
  -0.00000000  0.03798804  0.02686160       0.003
   0.03289861  0.01899402  0.01343080       0.003
   0.06579722  0.00000000  0.00000000       0.003
   0.09869583 -0.01899402 -0.01343080       0.003
  -0.09869583  0.09497011  0.06715401       0.003
  -0.06579722  0.07597609  0.05372320       0.003
  -0.03289861  0.05698206  0.04029240       0.003
  -0.00000000  0.07597609  0.01343080       0.003
   0.03289861  0.05698206  0.00000000       0.003
   0.06579722  0.03798804 -0.01343080       0.003
   0.09869583  0.01899402 -0.02686160       0.003
  -0.09869583  0.13295815  0.05372320       0.003
  -0.06579722  0.11396413  0.04029240       0.003
  -0.03289861  0.09497011  0.02686160       0.003
  -0.00000000  0.11396413  0.00000000       0.003
   0.03289861  0.09497011 -0.01343080       0.003
   0.06579722  0.07597609 -0.02686160       0.003
   0.09869583  0.05698206 -0.04029240       0.003
  -0.09869583  0.17094619  0.04029240       0.003
  -0.06579722  0.15195217  0.02686160       0.003
  -0.03289861  0.13295815  0.01343080       0.003
  -0.00000000 -0.11396413  0.08058481       0.003
   0.03289861 -0.13295815  0.06715401       0.003
   0.06579722 -0.15195217  0.05372320       0.003
   0.09869583 -0.17094619  0.04029240       0.003
  -0.09869583 -0.05698206  0.12087721       0.003
  -0.06579722 -0.07597609  0.10744641       0.003
  -0.03289861 -0.09497011  0.09401561       0.003
  -0.00000000 -0.07597609  0.06715401       0.003
   0.03289861 -0.09497011  0.05372320       0.003
   0.06579722 -0.11396413  0.04029240       0.003
   0.09869583 -0.13295815  0.02686160       0.003
  -0.09869583 -0.01899402  0.10744641       0.003
  -0.06579722 -0.03798804  0.09401561       0.003
  -0.03289861 -0.05698206  0.08058481       0.003
  -0.00000000 -0.03798804  0.05372320       0.003
   0.03289861 -0.05698206  0.04029240       0.003
   0.06579722 -0.07597609  0.02686160       0.003
   0.09869583 -0.09497011  0.01343080       0.003
  -0.09869583  0.01899402  0.09401561       0.003
  -0.06579722  0.00000000  0.08058481       0.003
  -0.03289861 -0.01899402  0.06715401       0.003
  -0.00000000  0.00000000  0.08058481       0.003
   0.03289861 -0.01899402  0.06715401       0.003
   0.06579722 -0.03798804  0.05372320       0.003
   0.09869583 -0.05698206  0.04029240       0.003
  -0.09869583  0.05698206  0.12087721       0.003
  -0.06579722  0.03798804  0.10744641       0.003
  -0.03289861  0.01899402  0.09401561       0.003
  -0.00000000  0.03798804  0.06715401       0.003
   0.03289861  0.01899402  0.05372320       0.003
   0.06579722  0.00000000  0.04029240       0.003
   0.09869583 -0.01899402  0.02686160       0.003
  -0.09869583  0.09497011  0.10744641       0.003
  -0.06579722  0.07597609  0.09401561       0.003
  -0.03289861  0.05698206  0.08058481       0.003
  -0.00000000  0.07597609  0.05372320       0.003
   0.03289861  0.05698206  0.04029240       0.003
   0.06579722  0.03798804  0.02686160       0.003
   0.09869583  0.01899402  0.01343080       0.003
  -0.09869583  0.13295815  0.09401561       0.003
  -0.06579722  0.11396413  0.08058481       0.003
  -0.03289861  0.09497011  0.06715401       0.003
  -0.00000000  0.11396413  0.04029240       0.003
   0.03289861  0.09497011  0.02686160       0.003
   0.06579722  0.07597609  0.01343080       0.003
   0.09869583  0.05698206 -0.00000000       0.003
  -0.09869583  0.17094619  0.08058481       0.003
  -0.06579722  0.15195217  0.06715401       0.003
  -0.03289861  0.13295815  0.05372320       0.003
  -0.00000000 -0.11396413  0.12087721       0.003
   0.03289861 -0.13295815  0.10744641       0.003
   0.06579722 -0.15195217  0.09401561       0.003
   0.09869583 -0.17094619  0.08058481       0.003
  -0.09869583 -0.05698206  0.16116961       0.003
  -0.06579722 -0.07597609  0.14773881       0.003
  -0.03289861 -0.09497011  0.13430801       0.003
  -0.00000000 -0.07597609  0.10744641       0.003
   0.03289861 -0.09497011  0.09401561       0.003
   0.06579722 -0.11396413  0.08058481       0.003
   0.09869583 -0.13295815  0.06715401       0.003
  -0.09869583 -0.01899402  0.14773881       0.003
  -0.06579722 -0.03798804  0.13430801       0.003
  -0.03289861 -0.05698206  0.12087721       0.003
  -0.00000000 -0.03798804  0.09401561       0.003
   0.03289861 -0.05698206  0.08058481       0.003
   0.06579722 -0.07597609  0.06715401       0.003
   0.09869583 -0.09497011  0.05372320       0.003
  -0.09869583  0.01899402  0.13430801       0.003
  -0.06579722  0.00000000  0.12087721       0.003
  -0.03289861 -0.01899402  0.10744641       0.003
  -0.00000000  0.00000000  0.12087721       0.003
   0.03289861 -0.01899402  0.10744641       0.003
   0.06579722 -0.03798804  0.09401561       0.003
   0.09869583 -0.05698206  0.08058481       0.003
  -0.09869583  0.05698206  0.16116961       0.003
  -0.06579722  0.03798804  0.14773881       0.003
  -0.03289861  0.01899402  0.13430801       0.003
  -0.00000000  0.03798804  0.10744641       0.003
   0.03289861  0.01899402  0.09401561       0.003
   0.06579722  0.00000000  0.08058481       0.003
   0.09869583 -0.01899402  0.06715401       0.003
  -0.09869583  0.09497011  0.14773881       0.003
  -0.06579722  0.07597609  0.13430801       0.003
  -0.03289861  0.05698206  0.12087721       0.003
  -0.00000000  0.07597609  0.09401561       0.003
   0.03289861  0.05698206  0.08058481       0.003
   0.06579722  0.03798804  0.06715401       0.003
   0.09869583  0.01899402  0.05372320       0.003
  -0.09869583  0.13295815  0.13430801       0.003
  -0.06579722  0.11396413  0.12087721       0.003
  -0.03289861  0.09497011  0.10744641       0.003
  -0.00000000  0.11396413  0.08058481       0.003
   0.03289861  0.09497011  0.06715401       0.003
   0.06579722  0.07597609  0.05372320       0.003
   0.09869583  0.05698206  0.04029240       0.003
  -0.09869583  0.17094619  0.12087721       0.003
  -0.06579722  0.15195217  0.10744641       0.003
  -0.03289861  0.13295815  0.09401561       0.003
  -0.00000000 -0.11396413  0.16116961       0.003
   0.03289861 -0.13295815  0.14773881       0.003
   0.06579722 -0.15195217  0.13430801       0.003
   0.09869583 -0.17094619  0.12087721       0.003
  -0.09869583 -0.05698206  0.20146202       0.003
  -0.06579722 -0.07597609  0.18803122       0.003
  -0.03289861 -0.09497011  0.17460042       0.003
  -0.00000000 -0.07597609  0.14773881       0.003
   0.03289861 -0.09497011  0.13430801       0.003
   0.06579722 -0.11396413  0.12087721       0.003
   0.09869583 -0.13295815  0.10744641       0.003
  -0.09869583 -0.01899402  0.18803122       0.003
  -0.06579722 -0.03798804  0.17460042       0.003
  -0.03289861 -0.05698206  0.16116961       0.003
  -0.00000000 -0.03798804  0.13430801       0.003
   0.03289861 -0.05698206  0.12087721       0.003
   0.06579722 -0.07597609  0.10744641       0.003
   0.09869583 -0.09497011  0.09401561       0.003
  -0.09869583  0.01899402  0.17460042       0.003
  -0.06579722  0.00000000  0.16116961       0.003
  -0.03289861 -0.01899402  0.14773881       0.003
   0.00000000 -0.00000000 -0.12087721       0.003
   0.03289861 -0.01899402 -0.13430801       0.003
   0.06579722 -0.03798804 -0.14773881       0.003
   0.09869583 -0.05698206 -0.16116961       0.003
  -0.09869583  0.05698206 -0.08058481       0.003
  -0.06579722  0.03798804 -0.09401561       0.003
  -0.03289861  0.01899402 -0.10744641       0.003
   0.00000000  0.03798804 -0.13430801       0.003
   0.03289861  0.01899402 -0.14773881       0.003
   0.06579722  0.00000000 -0.16116961       0.003
   0.09869583 -0.01899402 -0.17460042       0.003
  -0.09869583  0.09497011 -0.09401561       0.003
  -0.06579722  0.07597609 -0.10744641       0.003
  -0.03289861  0.05698206 -0.12087721       0.003
   0.00000000  0.07597609 -0.14773881       0.003
   0.03289861  0.05698206 -0.16116961       0.003
   0.06579722  0.03798804 -0.17460042       0.003
   0.09869583  0.01899402 -0.18803122       0.003
  -0.09869583  0.13295815 -0.10744641       0.003
  -0.06579722  0.11396413 -0.12087721       0.003
  -0.03289861  0.09497011 -0.13430801       0.003
   0.00000000  0.11396413 -0.16116961       0.003
   0.03289861  0.09497011 -0.17460042       0.003
   0.06579722  0.07597609 -0.18803122       0.003
   0.09869583  0.05698206 -0.20146202       0.003
  -0.09869583  0.17094619 -0.12087721       0.003
  -0.06579722  0.15195217 -0.13430801       0.003
  -0.03289861  0.13295815 -0.14773881       0.003
   0.00000000 -0.11396413 -0.08058481       0.003
   0.03289861 -0.13295815 -0.09401561       0.003
   0.06579722 -0.15195217 -0.10744641       0.003
   0.09869583 -0.17094619 -0.12087721       0.003
  -0.09869583 -0.05698206 -0.04029240       0.003
  -0.06579722 -0.07597609 -0.05372320       0.003
  -0.03289861 -0.09497011 -0.06715401       0.003
   0.00000000 -0.07597609 -0.09401561       0.003
   0.03289861 -0.09497011 -0.10744641       0.003
   0.06579722 -0.11396413 -0.12087721       0.003
   0.09869583 -0.13295815 -0.13430801       0.003
  -0.09869583 -0.01899402 -0.05372320       0.003
  -0.06579722 -0.03798804 -0.06715401       0.003
  -0.03289861 -0.05698206 -0.08058481       0.003
   0.00000000 -0.03798804 -0.10744641       0.003
   0.03289861 -0.05698206 -0.12087721       0.003
   0.06579722 -0.07597609 -0.13430801       0.003
   0.09869583 -0.09497011 -0.14773881       0.003
  -0.09869583  0.01899402 -0.06715401       0.003
  -0.06579722  0.00000000 -0.08058481       0.003
  -0.03289861 -0.01899402 -0.09401561       0.003
   0.00000000 -0.00000000 -0.08058481       0.003
   0.03289861 -0.01899402 -0.09401561       0.003
   0.06579722 -0.03798804 -0.10744641       0.003
   0.09869583 -0.05698206 -0.12087721       0.003
  -0.09869583  0.05698206 -0.04029240       0.003
  -0.06579722  0.03798804 -0.05372320       0.003
  -0.03289861  0.01899402 -0.06715401       0.003
   0.00000000  0.03798804 -0.09401561       0.003
   0.03289861  0.01899402 -0.10744641       0.003
   0.06579722  0.00000000 -0.12087721       0.003
   0.09869583 -0.01899402 -0.13430801       0.003
  -0.09869583  0.09497011 -0.05372320       0.003
  -0.06579722  0.07597609 -0.06715401       0.003
  -0.03289861  0.05698206 -0.08058481       0.003
   0.00000000  0.07597609 -0.10744641       0.003
   0.03289861  0.05698206 -0.12087721       0.003
   0.06579722  0.03798804 -0.13430801       0.003
   0.09869583  0.01899402 -0.14773881       0.003
  -0.09869583  0.13295815 -0.06715401       0.003
  -0.06579722  0.11396413 -0.08058481       0.003
  -0.03289861  0.09497011 -0.09401561       0.003
   0.00000000  0.11396413 -0.12087721       0.003
   0.03289861  0.09497011 -0.13430801       0.003
   0.06579722  0.07597609 -0.14773881       0.003
   0.09869583  0.05698206 -0.16116961       0.003
  -0.09869583  0.17094619 -0.08058481       0.003
  -0.06579722  0.15195217 -0.09401561       0.003
  -0.03289861  0.13295815 -0.10744641       0.003
   0.00000000 -0.11396413 -0.04029240       0.003
   0.03289861 -0.13295815 -0.05372320       0.003
   0.06579722 -0.15195217 -0.06715401       0.003
   0.09869583 -0.17094619 -0.08058481       0.003
  -0.09869583 -0.05698206  0.00000000       0.003
  -0.06579722 -0.07597609 -0.01343080       0.003
  -0.03289861 -0.09497011 -0.02686160       0.003
   0.00000000 -0.07597609 -0.05372320       0.003
   0.03289861 -0.09497011 -0.06715401       0.003
   0.06579722 -0.11396413 -0.08058481       0.003
   0.09869583 -0.13295815 -0.09401561       0.003
  -0.09869583 -0.01899402 -0.01343080       0.003
  -0.06579722 -0.03798804 -0.02686160       0.003
  -0.03289861 -0.05698206 -0.04029240       0.003
   0.00000000 -0.03798804 -0.06715401       0.003
   0.03289861 -0.05698206 -0.08058481       0.003
   0.06579722 -0.07597609 -0.09401561       0.003
   0.09869583 -0.09497011 -0.10744641       0.003
  -0.09869583  0.01899402 -0.02686160       0.003
  -0.06579722  0.00000000 -0.04029240       0.003
  -0.03289861 -0.01899402 -0.05372320       0.003
   0.00000000 -0.00000000 -0.04029240       0.003
   0.03289861 -0.01899402 -0.05372320       0.003
   0.06579722 -0.03798804 -0.06715401       0.003
   0.09869583 -0.05698206 -0.08058481       0.003
  -0.09869583  0.05698206  0.00000000       0.003
  -0.06579722  0.03798804 -0.01343080       0.003
  -0.03289861  0.01899402 -0.02686160       0.003
   0.00000000  0.03798804 -0.05372320       0.003
   0.03289861  0.01899402 -0.06715401       0.003
   0.06579722  0.00000000 -0.08058481       0.003
   0.09869583 -0.01899402 -0.09401561       0.003
  -0.09869583  0.09497011 -0.01343080       0.003
  -0.06579722  0.07597609 -0.02686160       0.003
  -0.03289861  0.05698206 -0.04029240       0.003
   0.00000000  0.07597609 -0.06715401       0.003
   0.03289861  0.05698206 -0.08058481       0.003
   0.06579722  0.03798804 -0.09401561       0.003
   0.09869583  0.01899402 -0.10744641       0.003
  -0.09869583  0.13295815 -0.02686160       0.003
  -0.06579722  0.11396413 -0.04029240       0.003
  -0.03289861  0.09497011 -0.05372320       0.003
   0.00000000  0.11396413 -0.08058481       0.003
   0.03289861  0.09497011 -0.09401561       0.003
   0.06579722  0.07597609 -0.10744641       0.003
   0.09869583  0.05698206 -0.12087721       0.003
  -0.09869583  0.17094619 -0.04029240       0.003
  -0.06579722  0.15195217 -0.05372320       0.003
  -0.03289861  0.13295815 -0.06715401       0.003
  -0.00000000 -0.11396413  0.00000000       0.003
   0.03289861 -0.13295815 -0.01343080       0.003
   0.06579722 -0.15195217 -0.02686160       0.003
   0.09869583 -0.17094619 -0.04029240       0.003
  -0.09869583 -0.05698206  0.04029240       0.003
  -0.06579722 -0.07597609  0.02686160       0.003
  -0.03289861 -0.09497011  0.01343080       0.003
   0.00000000 -0.07597609 -0.01343080       0.003
   0.03289861 -0.09497011 -0.02686160       0.003
   0.06579722 -0.11396413 -0.04029240       0.003
   0.09869583 -0.13295815 -0.05372320       0.003
  -0.09869583 -0.01899402  0.02686160       0.003
  -0.06579722 -0.03798804  0.01343080       0.003
  -0.03289861 -0.05698206  0.00000000       0.003
   0.00000000 -0.03798804 -0.02686160       0.003
   0.03289861 -0.05698206 -0.04029240       0.003
   0.06579722 -0.07597609 -0.05372320       0.003
   0.09869583 -0.09497011 -0.06715401       0.003
  -0.09869583  0.01899402  0.01343080       0.003
  -0.06579722  0.00000000  0.00000000       0.003
  -0.03289861 -0.01899402 -0.01343080       0.003
 
 k-points in reciprocal lattice and weights: k-points                                
   0.00000000  0.00000000  0.00000000       0.003
   0.14285714 -0.00000000  0.00000000       0.003
   0.28571429  0.00000000  0.00000000       0.003
   0.42857143  0.00000000  0.00000000       0.003
  -0.42857143 -0.00000000 -0.00000000       0.003
  -0.28571429 -0.00000000 -0.00000000       0.003
  -0.14285714  0.00000000  0.00000000       0.003
   0.00000000  0.14285714  0.00000000       0.003
   0.14285714  0.14285714  0.00000000       0.003
   0.28571429  0.14285714  0.00000000       0.003
   0.42857143  0.14285714  0.00000000       0.003
  -0.42857143  0.14285714 -0.00000000       0.003
  -0.28571429  0.14285714 -0.00000000       0.003
  -0.14285714  0.14285714 -0.00000000       0.003
   0.00000000  0.28571429 -0.00000000       0.003
   0.14285714  0.28571429  0.00000000       0.003
   0.28571429  0.28571429  0.00000000       0.003
   0.42857143  0.28571429  0.00000000       0.003
  -0.42857143  0.28571429 -0.00000000       0.003
  -0.28571429  0.28571429  0.00000000       0.003
  -0.14285714  0.28571429  0.00000000       0.003
   0.00000000  0.42857143 -0.00000000       0.003
   0.14285714  0.42857143 -0.00000000       0.003
   0.28571429  0.42857143  0.00000000       0.003
   0.42857143  0.42857143 -0.00000000       0.003
  -0.42857143  0.42857143 -0.00000000       0.003
  -0.28571429  0.42857143 -0.00000000       0.003
  -0.14285714  0.42857143 -0.00000000       0.003
   0.00000000 -0.42857143  0.00000000       0.003
   0.14285714 -0.42857143  0.00000000       0.003
   0.28571429 -0.42857143  0.00000000       0.003
   0.42857143 -0.42857143  0.00000000       0.003
  -0.42857143 -0.42857143  0.00000000       0.003
  -0.28571429 -0.42857143  0.00000000       0.003
  -0.14285714 -0.42857143  0.00000000       0.003
  -0.00000000 -0.28571429  0.00000000       0.003
   0.14285714 -0.28571429 -0.00000000       0.003
   0.28571429 -0.28571429 -0.00000000       0.003
   0.42857143 -0.28571429  0.00000000       0.003
  -0.42857143 -0.28571429 -0.00000000       0.003
  -0.28571429 -0.28571429  0.00000000       0.003
  -0.14285714 -0.28571429 -0.00000000       0.003
   0.00000000 -0.14285714  0.00000000       0.003
   0.14285714 -0.14285714  0.00000000       0.003
   0.28571429 -0.14285714  0.00000000       0.003
   0.42857143 -0.14285714  0.00000000       0.003
  -0.42857143 -0.14285714  0.00000000       0.003
  -0.28571429 -0.14285714 -0.00000000       0.003
  -0.14285714 -0.14285714  0.00000000       0.003
  -0.00000000  0.00000000  0.14285714       0.003
   0.14285714 -0.00000000  0.14285714       0.003
   0.28571429 -0.00000000  0.14285714       0.003
   0.42857143 -0.00000000  0.14285714       0.003
  -0.42857143 -0.00000000  0.14285714       0.003
  -0.28571429 -0.00000000  0.14285714       0.003
  -0.14285714 -0.00000000  0.14285714       0.003
  -0.00000000  0.14285714  0.14285714       0.003
   0.14285714  0.14285714  0.14285714       0.003
   0.28571429  0.14285714  0.14285714       0.003
   0.42857143  0.14285714  0.14285714       0.003
  -0.42857143  0.14285714  0.14285714       0.003
  -0.28571429  0.14285714  0.14285714       0.003
  -0.14285714  0.14285714  0.14285714       0.003
  -0.00000000  0.28571429  0.14285714       0.003
   0.14285714  0.28571429  0.14285714       0.003
   0.28571429  0.28571429  0.14285714       0.003
   0.42857143  0.28571429  0.14285714       0.003
  -0.42857143  0.28571429  0.14285714       0.003
  -0.28571429  0.28571429  0.14285714       0.003
  -0.14285714  0.28571429  0.14285714       0.003
  -0.00000000  0.42857143  0.14285714       0.003
   0.14285714  0.42857143  0.14285714       0.003
   0.28571429  0.42857143  0.14285714       0.003
   0.42857143  0.42857143  0.14285714       0.003
  -0.42857143  0.42857143  0.14285714       0.003
  -0.28571429  0.42857143  0.14285714       0.003
  -0.14285714  0.42857143  0.14285714       0.003
  -0.00000000 -0.42857143  0.14285714       0.003
   0.14285714 -0.42857143  0.14285714       0.003
   0.28571429 -0.42857143  0.14285714       0.003
   0.42857143 -0.42857143  0.14285714       0.003
  -0.42857143 -0.42857143  0.14285714       0.003
  -0.28571429 -0.42857143  0.14285714       0.003
  -0.14285714 -0.42857143  0.14285714       0.003
  -0.00000000 -0.28571429  0.14285714       0.003
   0.14285714 -0.28571429  0.14285714       0.003
   0.28571429 -0.28571429  0.14285714       0.003
   0.42857143 -0.28571429  0.14285714       0.003
  -0.42857143 -0.28571429  0.14285714       0.003
  -0.28571429 -0.28571429  0.14285714       0.003
  -0.14285714 -0.28571429  0.14285714       0.003
  -0.00000000 -0.14285714  0.14285714       0.003
   0.14285714 -0.14285714  0.14285714       0.003
   0.28571429 -0.14285714  0.14285714       0.003
   0.42857143 -0.14285714  0.14285714       0.003
  -0.42857143 -0.14285714  0.14285714       0.003
  -0.28571429 -0.14285714  0.14285714       0.003
  -0.14285714 -0.14285714  0.14285714       0.003
   0.00000000  0.00000000  0.28571429       0.003
   0.14285714  0.00000000  0.28571429       0.003
   0.28571429 -0.00000000  0.28571429       0.003
   0.42857143 -0.00000000  0.28571429       0.003
  -0.42857143 -0.00000000  0.28571429       0.003
  -0.28571429 -0.00000000  0.28571429       0.003
  -0.14285714  0.00000000  0.28571429       0.003
   0.00000000  0.14285714  0.28571429       0.003
   0.14285714  0.14285714  0.28571429       0.003
   0.28571429  0.14285714  0.28571429       0.003
   0.42857143  0.14285714  0.28571429       0.003
  -0.42857143  0.14285714  0.28571429       0.003
  -0.28571429  0.14285714  0.28571429       0.003
  -0.14285714  0.14285714  0.28571429       0.003
  -0.00000000  0.28571429  0.28571429       0.003
   0.14285714  0.28571429  0.28571429       0.003
   0.28571429  0.28571429  0.28571429       0.003
   0.42857143  0.28571429  0.28571429       0.003
  -0.42857143  0.28571429  0.28571429       0.003
  -0.28571429  0.28571429  0.28571429       0.003
  -0.14285714  0.28571429  0.28571429       0.003
   0.00000000  0.42857143  0.28571429       0.003
   0.14285714  0.42857143  0.28571429       0.003
   0.28571429  0.42857143  0.28571429       0.003
   0.42857143  0.42857143  0.28571429       0.003
  -0.42857143  0.42857143  0.28571429       0.003
  -0.28571429  0.42857143  0.28571429       0.003
  -0.14285714  0.42857143  0.28571429       0.003
  -0.00000000 -0.42857143  0.28571429       0.003
   0.14285714 -0.42857143  0.28571429       0.003
   0.28571429 -0.42857143  0.28571429       0.003
   0.42857143 -0.42857143  0.28571429       0.003
  -0.42857143 -0.42857143  0.28571429       0.003
  -0.28571429 -0.42857143  0.28571429       0.003
  -0.14285714 -0.42857143  0.28571429       0.003
   0.00000000 -0.28571429  0.28571429       0.003
   0.14285714 -0.28571429  0.28571429       0.003
   0.28571429 -0.28571429  0.28571429       0.003
   0.42857143 -0.28571429  0.28571429       0.003
  -0.42857143 -0.28571429  0.28571429       0.003
  -0.28571429 -0.28571429  0.28571429       0.003
  -0.14285714 -0.28571429  0.28571429       0.003
   0.00000000 -0.14285714  0.28571429       0.003
   0.14285714 -0.14285714  0.28571429       0.003
   0.28571429 -0.14285714  0.28571429       0.003
   0.42857143 -0.14285714  0.28571429       0.003
  -0.42857143 -0.14285714  0.28571429       0.003
  -0.28571429 -0.14285714  0.28571429       0.003
  -0.14285714 -0.14285714  0.28571429       0.003
   0.00000000  0.00000000  0.42857143       0.003
   0.14285714  0.00000000  0.42857143       0.003
   0.28571429  0.00000000  0.42857143       0.003
   0.42857143  0.00000000  0.42857143       0.003
  -0.42857143  0.00000000  0.42857143       0.003
  -0.28571429  0.00000000  0.42857143       0.003
  -0.14285714  0.00000000  0.42857143       0.003
   0.00000000  0.14285714  0.42857143       0.003
   0.14285714  0.14285714  0.42857143       0.003
   0.28571429  0.14285714  0.42857143       0.003
   0.42857143  0.14285714  0.42857143       0.003
  -0.42857143  0.14285714  0.42857143       0.003
  -0.28571429  0.14285714  0.42857143       0.003
  -0.14285714  0.14285714  0.42857143       0.003
   0.00000000  0.28571429  0.42857143       0.003
   0.14285714  0.28571429  0.42857143       0.003
   0.28571429  0.28571429  0.42857143       0.003
   0.42857143  0.28571429  0.42857143       0.003
  -0.42857143  0.28571429  0.42857143       0.003
  -0.28571429  0.28571429  0.42857143       0.003
  -0.14285714  0.28571429  0.42857143       0.003
  -0.00000000  0.42857143  0.42857143       0.003
   0.14285714  0.42857143  0.42857143       0.003
   0.28571429  0.42857143  0.42857143       0.003
   0.42857143  0.42857143  0.42857143       0.003
  -0.42857143  0.42857143  0.42857143       0.003
  -0.28571429  0.42857143  0.42857143       0.003
  -0.14285714  0.42857143  0.42857143       0.003
  -0.00000000 -0.42857143  0.42857143       0.003
   0.14285714 -0.42857143  0.42857143       0.003
   0.28571429 -0.42857143  0.42857143       0.003
   0.42857143 -0.42857143  0.42857143       0.003
  -0.42857143 -0.42857143  0.42857143       0.003
  -0.28571429 -0.42857143  0.42857143       0.003
  -0.14285714 -0.42857143  0.42857143       0.003
  -0.00000000 -0.28571429  0.42857143       0.003
   0.14285714 -0.28571429  0.42857143       0.003
   0.28571429 -0.28571429  0.42857143       0.003
   0.42857143 -0.28571429  0.42857143       0.003
  -0.42857143 -0.28571429  0.42857143       0.003
  -0.28571429 -0.28571429  0.42857143       0.003
  -0.14285714 -0.28571429  0.42857143       0.003
   0.00000000 -0.14285714  0.42857143       0.003
   0.14285714 -0.14285714  0.42857143       0.003
   0.28571429 -0.14285714  0.42857143       0.003
   0.42857143 -0.14285714  0.42857143       0.003
  -0.42857143 -0.14285714  0.42857143       0.003
  -0.28571429 -0.14285714  0.42857143       0.003
  -0.14285714 -0.14285714  0.42857143       0.003
   0.00000000 -0.00000000 -0.42857143       0.003
   0.14285714 -0.00000000 -0.42857143       0.003
   0.28571429 -0.00000000 -0.42857143       0.003
   0.42857143 -0.00000000 -0.42857143       0.003
  -0.42857143 -0.00000000 -0.42857143       0.003
  -0.28571429 -0.00000000 -0.42857143       0.003
  -0.14285714 -0.00000000 -0.42857143       0.003
   0.00000000  0.14285714 -0.42857143       0.003
   0.14285714  0.14285714 -0.42857143       0.003
   0.28571429  0.14285714 -0.42857143       0.003
   0.42857143  0.14285714 -0.42857143       0.003
  -0.42857143  0.14285714 -0.42857143       0.003
  -0.28571429  0.14285714 -0.42857143       0.003
  -0.14285714  0.14285714 -0.42857143       0.003
   0.00000000  0.28571429 -0.42857143       0.003
   0.14285714  0.28571429 -0.42857143       0.003
   0.28571429  0.28571429 -0.42857143       0.003
   0.42857143  0.28571429 -0.42857143       0.003
  -0.42857143  0.28571429 -0.42857143       0.003
  -0.28571429  0.28571429 -0.42857143       0.003
  -0.14285714  0.28571429 -0.42857143       0.003
   0.00000000  0.42857143 -0.42857143       0.003
   0.14285714  0.42857143 -0.42857143       0.003
   0.28571429  0.42857143 -0.42857143       0.003
   0.42857143  0.42857143 -0.42857143       0.003
  -0.42857143  0.42857143 -0.42857143       0.003
  -0.28571429  0.42857143 -0.42857143       0.003
  -0.14285714  0.42857143 -0.42857143       0.003
   0.00000000 -0.42857143 -0.42857143       0.003
   0.14285714 -0.42857143 -0.42857143       0.003
   0.28571429 -0.42857143 -0.42857143       0.003
   0.42857143 -0.42857143 -0.42857143       0.003
  -0.42857143 -0.42857143 -0.42857143       0.003
  -0.28571429 -0.42857143 -0.42857143       0.003
  -0.14285714 -0.42857143 -0.42857143       0.003
   0.00000000 -0.28571429 -0.42857143       0.003
   0.14285714 -0.28571429 -0.42857143       0.003
   0.28571429 -0.28571429 -0.42857143       0.003
   0.42857143 -0.28571429 -0.42857143       0.003
  -0.42857143 -0.28571429 -0.42857143       0.003
  -0.28571429 -0.28571429 -0.42857143       0.003
  -0.14285714 -0.28571429 -0.42857143       0.003
   0.00000000 -0.14285714 -0.42857143       0.003
   0.14285714 -0.14285714 -0.42857143       0.003
   0.28571429 -0.14285714 -0.42857143       0.003
   0.42857143 -0.14285714 -0.42857143       0.003
  -0.42857143 -0.14285714 -0.42857143       0.003
  -0.28571429 -0.14285714 -0.42857143       0.003
  -0.14285714 -0.14285714 -0.42857143       0.003
   0.00000000 -0.00000000 -0.28571429       0.003
   0.14285714 -0.00000000 -0.28571429       0.003
   0.28571429  0.00000000 -0.28571429       0.003
   0.42857143  0.00000000 -0.28571429       0.003
  -0.42857143  0.00000000 -0.28571429       0.003
  -0.28571429  0.00000000 -0.28571429       0.003
  -0.14285714 -0.00000000 -0.28571429       0.003
   0.00000000  0.14285714 -0.28571429       0.003
   0.14285714  0.14285714 -0.28571429       0.003
   0.28571429  0.14285714 -0.28571429       0.003
   0.42857143  0.14285714 -0.28571429       0.003
  -0.42857143  0.14285714 -0.28571429       0.003
  -0.28571429  0.14285714 -0.28571429       0.003
  -0.14285714  0.14285714 -0.28571429       0.003
   0.00000000  0.28571429 -0.28571429       0.003
   0.14285714  0.28571429 -0.28571429       0.003
   0.28571429  0.28571429 -0.28571429       0.003
   0.42857143  0.28571429 -0.28571429       0.003
  -0.42857143  0.28571429 -0.28571429       0.003
  -0.28571429  0.28571429 -0.28571429       0.003
  -0.14285714  0.28571429 -0.28571429       0.003
   0.00000000  0.42857143 -0.28571429       0.003
   0.14285714  0.42857143 -0.28571429       0.003
   0.28571429  0.42857143 -0.28571429       0.003
   0.42857143  0.42857143 -0.28571429       0.003
  -0.42857143  0.42857143 -0.28571429       0.003
  -0.28571429  0.42857143 -0.28571429       0.003
  -0.14285714  0.42857143 -0.28571429       0.003
   0.00000000 -0.42857143 -0.28571429       0.003
   0.14285714 -0.42857143 -0.28571429       0.003
   0.28571429 -0.42857143 -0.28571429       0.003
   0.42857143 -0.42857143 -0.28571429       0.003
  -0.42857143 -0.42857143 -0.28571429       0.003
  -0.28571429 -0.42857143 -0.28571429       0.003
  -0.14285714 -0.42857143 -0.28571429       0.003
   0.00000000 -0.28571429 -0.28571429       0.003
   0.14285714 -0.28571429 -0.28571429       0.003
   0.28571429 -0.28571429 -0.28571429       0.003
   0.42857143 -0.28571429 -0.28571429       0.003
  -0.42857143 -0.28571429 -0.28571429       0.003
  -0.28571429 -0.28571429 -0.28571429       0.003
  -0.14285714 -0.28571429 -0.28571429       0.003
[...]
    0.000000  555.395063  555.379254  555.392077   -0.179651   -0.939510   -0.098033
    0.541047    2.509084    2.509027    2.509046   -0.025138   -0.124474   -0.014324
    1.082093    1.771956    1.771932    1.771938   -0.003164   -0.015758   -0.001820
    1.623140    4.191023    4.191006    4.191010   -0.000957   -0.004856   -0.000546
    2.164187    3.141666    3.141653    3.141656   -0.000410   -0.002104   -0.000241
    2.705233    5.887355    5.887344    5.887347   -0.000213   -0.001132   -0.000127
    3.246280    2.712524    2.712514    2.712518   -0.000132   -0.000703   -0.000081
    3.787327    3.281244    3.281236    3.281238   -0.000086   -0.000484   -0.000054
    4.328373    3.472253    3.472245    3.472247   -0.000071   -0.000408   -0.000041
    4.869420    2.863043    2.863035    2.863037   -0.000062   -0.000350   -0.000038
    5.410466    8.546804    8.546796    8.546798   -0.000057   -0.000338   -0.000031
    5.951513    8.049315    8.049307    8.049310   -0.000050   -0.000351   -0.000015
    6.492560    4.889918    4.889910    4.889913   -0.000049   -0.000474    0.000021
    7.033606    1.831528    1.831519    1.831522   -0.000307    0.000233   -0.000697
    7.574653    3.460889    3.460879    3.460882    0.000222    0.000450    0.000289
    8.115700    2.991482    2.991469    2.991475    0.000074    0.000190    0.000073
    8.656746    1.213721    1.213703    1.213713    0.000048    0.000075    0.000031
    9.197793    1.715838    1.715807    1.715824    0.000052    0.000043    0.000026
    9.738840    1.104877    1.104798    1.104845    0.000068   -0.000087    0.000008
   10.279886    0.516586    0.515756    0.516302    0.000708   -0.000695   -0.000081
   10.820933    0.481397    0.481186    0.481310    0.000185   -0.000136    0.000028
   11.361980    0.452385    0.452196    0.452251    0.000208    0.000004    0.000133
   11.903026    0.326115    0.324776    0.325091    0.001558    0.000192    0.000985
   12.444073    0.084661    0.084593    0.084610    0.000083    0.000024    0.000046
   12.985119    0.094704    0.094684    0.094689    0.000029    0.000016    0.000015
   13.526166    0.169645    0.169635    0.169637    0.000016    0.000014    0.000008
   14.067213    0.512992    0.512986    0.512987    0.000011    0.000013    0.000006
   14.608259    0.354601    0.354597    0.354597    0.000009    0.000014    0.000004
   15.149306    0.216661    0.216657    0.216657    0.000008    0.000013    0.000004
   15.690353    0.319936    0.319933    0.319932    0.000007    0.000013    0.000004
   16.231399    0.543289    0.543286    0.543284    0.000007    0.000009    0.000004
   16.772446    0.262266    0.262263    0.262261    0.000008    0.000011    0.000004
   17.313493    0.416357    0.416353    0.416349    0.000011    0.000008    0.000001
   17.854539    0.600039    0.600032    0.600028    0.000012    0.000013    0.000008
   18.395586    0.392183    0.392173    0.392165    0.000019    0.000014    0.000012
   18.936633    0.250419    0.250398    0.250381    0.000038    0.000018    0.000023
   19.477679    0.129153    0.129077    0.129016    0.000129    0.000031    0.000083
   20.018726    0.242848    0.240667    0.238913    0.003590    0.000536    0.002451
   20.559772    0.086171    0.086103    0.086048    0.000114    0.000029    0.000082
   21.100819    0.040448    0.040431    0.040418    0.000030    0.000020    0.000023
   21.641866    0.015657    0.015650    0.015644    0.000015    0.000021    0.000011
   22.182912    0.005671    0.005667    0.005664    0.000011    0.000025    0.000008
   22.723959    0.003816    0.003813    0.003811    0.000011    0.000035    0.000007
   23.265006    0.003320    0.003319    0.003317    0.000014    0.000059    0.000009
   23.806052    0.005456    0.005455    0.005454    0.000036    0.000172    0.000022
   24.347099    0.004267    0.004266    0.004265   -0.000025   -0.000131   -0.000014
   24.888146    0.004627    0.004626    0.004626   -0.000010   -0.000055   -0.000005
   25.429192    0.043369    0.043369    0.043368   -0.000007   -0.000037   -0.000003
   25.970239    0.018633    0.018633    0.018632   -0.000006   -0.000030   -0.000003
   26.511286    0.041409    0.041408    0.041408   -0.000005   -0.000029   -0.000003
   27.052332    0.105413    0.105413    0.105413   -0.000007   -0.000037   -0.000004
   27.593379    0.036460    0.036459    0.036459   -0.000014   -0.000072   -0.000007
   28.134426    0.013404    0.013404    0.013404    0.000004    0.000020    0.000002
   28.675472    0.071201    0.071201    0.071201    0.000001    0.000007    0.000001
   29.216519    0.051375    0.051375    0.051375    0.000000    0.000004    0.000000
   29.757565    0.038514    0.038514    0.038514    0.000000    0.000001    0.000000
   30.298612    0.161817    0.161817    0.161817   -0.000000    0.000000   -0.000000
   30.839659    0.080961    0.080960    0.080960   -0.000000    0.000000   -0.000000
   31.380705    0.056740    0.056739    0.056739   -0.000000   -0.000000   -0.000000
   31.921752    0.078542    0.078540    0.078540    0.000001   -0.000000   -0.000000
   32.462799    0.111231    0.111222    0.111220    0.000006    0.000001    0.000002
   33.003845    0.102778    0.102742    0.102737    0.000027   -0.000000    0.000010
   33.544892    0.064493    0.064490    0.064490    0.000001   -0.000000    0.000000
   34.085939    0.138045    0.138043    0.138043   -0.000001    0.000002   -0.000001
   34.626985    0.057183    0.057182    0.057182   -0.000002   -0.000003   -0.000001
   35.168032    0.086005    0.086004    0.086003   -0.000005   -0.000001   -0.000003
   35.709079    0.056945    0.056943    0.056942   -0.000013    0.000003   -0.000007
   36.250125    0.087229    0.087212    0.087206   -0.000098    0.000025   -0.000055
   36.791172    0.075896    0.075880    0.075874   -0.000094    0.000030   -0.000044
   37.332218    0.035543    0.035541    0.035540   -0.000012    0.000003   -0.000004
   37.873265    0.067912    0.067911    0.067911   -0.000004   -0.000000   -0.000001
   38.414312    0.015952    0.015952    0.015952   -0.000002   -0.000000   -0.000000
   38.955358    0.008936    0.008936    0.008936   -0.000001   -0.000001   -0.000000
   39.496405    0.016183    0.016182    0.016182   -0.000001   -0.000001   -0.000000
   40.037452    0.007544    0.007543    0.007544   -0.000001   -0.000001   -0.000000
   40.578498    0.019240    0.019239    0.019240   -0.000001   -0.000001   -0.000000
   41.119545    0.018574    0.018573    0.018574   -0.000001   -0.000005   -0.000001
   41.660592    0.015429    0.015428    0.015429   -0.000001   -0.000001   -0.000001
   42.201638    0.039707    0.039704    0.039706   -0.000002   -0.000002   -0.000002
   42.742685    0.036134    0.036119    0.036131   -0.000009   -0.000007   -0.000014
   43.283732    0.063963    0.063869    0.063944   -0.000109   -0.000024   -0.000116
   43.824778    0.016698    0.016692    0.016697   -0.000004   -0.000002   -0.000008
   44.365825    0.016524    0.016522    0.016524   -0.000001   -0.000001   -0.000003
   44.906871    0.007283    0.007282    0.007282   -0.000001   -0.000000   -0.000001
   45.447918    0.001452    0.001452    0.001452   -0.000000   -0.000000   -0.000001
   45.988965    0.000670    0.000670    0.000670   -0.000000   -0.000000   -0.000001
   46.530011    0.000435    0.000435    0.000435   -0.000000   -0.000000   -0.000000
   47.071058    0.000318    0.000318    0.000318   -0.000000   -0.000000   -0.000000
   47.612105    0.000248    0.000248    0.000248   -0.000000   -0.000000   -0.000000
   48.153151    0.000201    0.000201    0.000201   -0.000000   -0.000000   -0.000000
   48.694198    0.000167    0.000167    0.000167   -0.000000   -0.000000   -0.000000
   49.235245    0.000142    0.000142    0.000142   -0.000000   -0.000000   -0.000000
   49.776291    0.000123    0.000123    0.000123   -0.000000   -0.000000   -0.000000
   50.317338    0.000107    0.000107    0.000107   -0.000000   -0.000000   -0.000000
   50.858385    0.000095    0.000094    0.000094   -0.000000   -0.000000   -0.000000
   51.399431    0.000084    0.000084    0.000084   -0.000000   -0.000000   -0.000000
   51.940478    0.000075    0.000075    0.000075   -0.000000   -0.000000   -0.000000
   52.481525    0.000068    0.000068    0.000068   -0.000000   -0.000000   -0.000000
   53.022571    0.000061    0.000061    0.000061   -0.000000   -0.000000   -0.000000
   53.563618    0.000056    0.000056    0.000056   -0.000000   -0.000000   -0.000000

  frequency dependent      REAL DIELECTRIC FUNCTION (independent particle, no local field effects) current-current (2nd set in vasprun.xml)
     E(ev)        X           Y           Z          XY          YZ          ZX
  --------------------------------------------------------------------------------------------------------------
    0.000000 -135.038064 -135.034140 -135.037468   -0.867287   -4.272270   -0.494122
    0.541047   -4.760113   -4.759914   -4.760155    0.057382    0.283836    0.032494
    1.082093    5.088395    5.088343    5.088310    0.015405    0.075647    0.008710
    1.623140    0.994217    0.994120    0.994124    0.006990    0.033913    0.003945
    2.164187    5.647984    5.647870    5.647887    0.003999    0.019126    0.002233
    2.705233    6.459219    6.459095    6.459119    0.002616    0.012234    0.001458
    3.246280    5.355035    5.354904    5.354933    0.001869    0.008507    0.001033
    3.787327    7.392287    7.392149    7.392181    0.001414    0.006228    0.000774
    4.328373    1.510760    1.510616    1.510652    0.001122    0.004756    0.000607
    4.869420    2.525173    2.525021    2.525061    0.000927    0.003757    0.000494
    5.410466    1.812064    1.811903    1.811947    0.000790    0.003030    0.000417
    5.951513    1.753584    1.753412    1.753461    0.000699    0.002528    0.000357
    6.492560   -2.474355   -2.474541   -2.474485    0.000624    0.002162    0.000288
    7.033606   -0.778833   -0.779036   -0.778972    0.000463    0.002810   -0.000250
    7.574653   -0.733462   -0.733690   -0.733613    0.000655    0.001656    0.000421
    8.115700   -1.615340   -1.615600   -1.615506    0.000551    0.001290    0.000252
    8.656746   -1.792886   -1.793197   -1.793079    0.000550    0.001071    0.000228
    9.197793   -0.398576   -0.398975   -0.398806    0.000598    0.000871    0.000212
    9.738840   -1.047004   -1.047602   -1.047314    0.000714    0.000363    0.000202
   10.279886   -1.041944   -1.043458   -1.042581    0.001500   -0.000277    0.000156
   10.820933   -0.575597   -0.575244   -0.575662   -0.000013    0.001461    0.000429
   11.361980   -0.312663   -0.313057   -0.313127    0.000704    0.001064    0.000631
   11.903026   -0.057246   -0.055626   -0.056119   -0.001658    0.000650   -0.000989
   12.444073    0.030867    0.031390    0.031174   -0.000434    0.000660   -0.000205
   12.985119    0.322181    0.322475    0.322323   -0.000188    0.000610   -0.000064
   13.526166    0.441758    0.441954    0.441831   -0.000088    0.000560   -0.000011
   14.067213    0.716161    0.716301    0.716194   -0.000034    0.000516    0.000016
   14.608259    0.405536    0.405637    0.405540    0.000002    0.000477    0.000033
   15.149306    0.423095    0.423167    0.423075    0.000028    0.000443    0.000047
   15.690353    0.749287    0.749336    0.749247    0.000049    0.000414    0.000057
   16.231399    0.689852    0.689879    0.689790    0.000072    0.000384    0.000070
   16.772446    0.463461    0.463468    0.463375    0.000094    0.000365    0.000082
   17.313493    0.758154    0.758139    0.758039    0.000130    0.000329    0.000087
   17.854539    0.453098    0.453056    0.452943    0.000157    0.000329    0.000122
   18.395586    0.386593    0.386511    0.386374    0.000215    0.000320    0.000160
   18.936633    0.487497    0.487343    0.487155    0.000325    0.000320    0.000234
   19.477679    0.464353    0.464006    0.463667    0.000639    0.000351    0.000448
   20.018726    0.484045    0.484106    0.484099   -0.000045    0.000231    0.000007
   20.559772    0.429281    0.429705    0.429997   -0.000641    0.000136   -0.000428
   21.100819    0.513230    0.513461    0.513601   -0.000327    0.000171   -0.000215
   21.641866    0.545646    0.545808    0.545897   -0.000218    0.000175   -0.000141
   22.182912    0.607449    0.607576    0.607638   -0.000163    0.000173   -0.000104
   22.723959    0.649663    0.649767    0.649814   -0.000130    0.000167   -0.000082
   23.265006    0.684192    0.684281    0.684318   -0.000109    0.000156   -0.000068
   23.806052    0.717504    0.717581    0.717612   -0.000108    0.000077   -0.000066
   24.347099    0.735735    0.735803    0.735828   -0.000087    0.000114   -0.000054
   24.888146    0.767908    0.767969    0.767991   -0.000072    0.000142   -0.000044
   25.429192    0.792450    0.792505    0.792523   -0.000064    0.000139   -0.000039
   25.970239    0.802372    0.802422    0.802438   -0.000058    0.000136   -0.000035
   26.511286    0.831478    0.831523    0.831537   -0.000053    0.000132   -0.000032
   27.052332    0.784846    0.784888    0.784900   -0.000048    0.000130   -0.000029
   27.593379    0.802294    0.802332    0.802344   -0.000023    0.000236   -0.000016
   28.134426    0.835525    0.835560    0.835571   -0.000043    0.000125   -0.000026
   28.675472    0.885556    0.885588    0.885597   -0.000041    0.000115   -0.000024
   29.216519    0.852956    0.852985    0.852994   -0.000040    0.000113   -0.000023
   29.757565    0.892838    0.892864    0.892872   -0.000037    0.000107   -0.000022
   30.298612    0.880545    0.880568    0.880575   -0.000036    0.000104   -0.000022
   30.839659    0.799683    0.799703    0.799709   -0.000034    0.000101   -0.000021
   31.380705    0.860812    0.860827    0.860832   -0.000033    0.000098   -0.000020
   31.921752    0.840543    0.840551    0.840555   -0.000029    0.000096   -0.000019
   32.462799    0.856124    0.856113    0.856113   -0.000016    0.000094   -0.000015
   33.003845    0.820984    0.821061    0.821075   -0.000088    0.000088   -0.000041
   33.544892    0.893064    0.893099    0.893107   -0.000060    0.000089   -0.000031
   34.085939    0.831424    0.831450    0.831455   -0.000060    0.000086   -0.000032
   34.626985    0.821341    0.821360    0.821365   -0.000066    0.000089   -0.000035
   35.168032    0.873096    0.873110    0.873113   -0.000080    0.000093   -0.000042
   35.709079    0.814568    0.814573    0.814574   -0.000117    0.000101   -0.000062
   36.250125    0.852339    0.852316    0.852307   -0.000278    0.000153   -0.000141
   36.791172    0.763749    0.763810    0.763833    0.000241   -0.000019    0.000118
   37.332218    0.830592    0.830624    0.830638    0.000079    0.000034    0.000036
   37.873265    0.797654    0.797679    0.797690    0.000041    0.000044    0.000017
   38.414312    0.822120    0.822141    0.822151    0.000025    0.000047    0.000008
   38.955358    0.852911    0.852929    0.852939    0.000015    0.000049    0.000003
   39.496405    0.861474    0.861489    0.861499    0.000009    0.000048   -0.000001
   40.037452    0.868011    0.868023    0.868034    0.000005    0.000047   -0.000004
   40.578498    0.882869    0.882878    0.882890    0.000001    0.000046   -0.000007
   41.119545    0.877026    0.877031    0.877045   -0.000002    0.000047   -0.000011
   41.660592    0.891163    0.891163    0.891180   -0.000007    0.000042   -0.000017
   42.201638    0.895836    0.895825    0.895850   -0.000014    0.000038   -0.000028
   42.742685    0.904192    0.904146    0.904199   -0.000036    0.000026   -0.000065
   43.283732    0.872819    0.872981    0.872867    0.000094    0.000091    0.000144
   43.824778    0.864329    0.864384    0.864355    0.000031    0.000058    0.000044
   44.365825    0.885424    0.885461    0.885446    0.000017    0.000051    0.000025
   44.906871    0.879596    0.879626    0.879616    0.000012    0.000048    0.000017
   45.447918    0.885679    0.885705    0.885698    0.000009    0.000046    0.000013
   45.988965    0.893388    0.893411    0.893405    0.000007    0.000044    0.000010
   46.530011    0.898707    0.898729    0.898724    0.000006    0.000043    0.000009
   47.071058    0.903002    0.903022    0.903018    0.000005    0.000042    0.000007
   47.612105    0.906693    0.906711    0.906708    0.000004    0.000041    0.000006
   48.153151    0.909970    0.909988    0.909985    0.000003    0.000040    0.000006
   48.694198    0.912940    0.912957    0.912955    0.000003    0.000039    0.000005
   49.235245    0.915669    0.915684    0.915682    0.000002    0.000038    0.000004
   49.776291    0.918199    0.918214    0.918212    0.000002    0.000037    0.000004
   50.317338    0.920562    0.920577    0.920575    0.000002    0.000036    0.000004
   50.858385    0.922782    0.922796    0.922795    0.000002    0.000035    0.000003
   51.399431    0.924876    0.924889    0.924888    0.000001    0.000035    0.000003
   51.940478    0.926858    0.926871    0.926870    0.000001    0.000034    0.000003
   52.481525    0.928740    0.928753    0.928752    0.000001    0.000033    0.000003
   53.022571    0.930532    0.930544    0.930543    0.000001    0.000032    0.000002
   53.563618    0.932240    0.932252    0.932251    0.000001    0.000032    0.000002
 
 The outermost node in the dielectric function lies at epsilon=  12.4


--------------------------------------------------------------------------------------------------------


    OPTICS:  cpu time    0.4570: real time    0.4767
    4ORBIT:  cpu time    0.0000: real time    0.0000

 Spin-Orbit-Coupling matrix elements

 Ion:    1  E_soc:    -33.0009406
 l=   1
     0.0000000    -5.0820228    -5.0820228
    -5.0820228     0.0000000    -5.0820229
    -5.0820228    -5.0820229     0.0000000
 l=   2
     0.0000000    -0.0836327     0.0000000    -0.0836327    -0.3344914
    -0.0836327     0.0000000    -0.2508686    -0.0836425    -0.0836327
     0.0000000    -0.2508686     0.0000000    -0.2508686     0.0000000
    -0.0836327    -0.0836425    -0.2508686     0.0000000    -0.0836327
    -0.3344914    -0.0836327     0.0000000    -0.0836327     0.0000000
 l=   3
     0.0000000     0.0000000     0.0000000     0.0000000     0.0000000     0.0000000     0.0000000
     0.0000000     0.0000000     0.0000000     0.0000000     0.0000000     0.0000000     0.0000000
     0.0000000     0.0000000     0.0000000     0.0000000     0.0000000     0.0000000     0.0000000
     0.0000000     0.0000000     0.0000000     0.0000000     0.0000000     0.0000000     0.0000000
     0.0000000     0.0000000     0.0000000     0.0000000     0.0000000     0.0000000     0.0000000
     0.0000000     0.0000000     0.0000000     0.0000000     0.0000000     0.0000000     0.0000000
     0.0000000     0.0000000     0.0000000     0.0000000     0.0000000     0.0000000     0.0000000

 total amount of memory used by VASP MPI-rank0    63754. kBytes
=======================================================================

   base      :      30000. kBytes
   nonl-proj :       9881. kBytes
   fftplans  :       3396. kBytes
   grid      :       3512. kBytes
   one-center:         62. kBytes
   wavefun   :      16903. kBytes
 
  
  
 General timing and accounting informations for this job:
 ========================================================
  
                  Total CPU time used (sec):       17.077
                            User time (sec):       15.973
                          System time (sec):        1.103
                         Elapsed time (sec):       17.903
  
                   Maximum memory used (kb):      194656.
                   Average memory used (kb):           0.
  
                          Minor page faults:       101392
                          Major page faults:           15
                 Voluntary context switches:         1941
