   1   1   0   0
  0.1628488E+02  0.2845115E-09  0.2845115E-09  0.2845115E-09  0.1000000E-15
  1.000000000000000E-004
  CAR 
 Og_FCC                                  
    243.12759472    -28.13729327  301    -14.34799480      1.00000000
    -28.137  0.0000E+00  0.0000E+00
    -27.233  0.0000E+00  0.0000E+00
    -26.329  0.0000E+00  0.0000E+00
    -25.425  0.0000E+00  0.0000E+00
    -24.520  0.0000E+00  0.0000E+00
    -23.616  0.0000E+00  0.0000E+00
    -22.712  0.0000E+00  0.0000E+00
    -21.808  0.0000E+00  0.0000E+00
    -20.904  0.0000E+00  0.0000E+00
    -19.999  0.0000E+00  0.0000E+00
    -19.095  0.0000E+00  0.0000E+00
    -18.191  0.0000E+00  0.0000E+00
    -17.287  0.0000E+00  0.0000E+00
    -16.382  0.0000E+00  0.0000E+00
    -15.478  0.0000E+00  0.8746E-01
    -14.574  0.0000E+00  0.2000E+01
    -13.670  0.0000E+00  0.2000E+01
    -12.766  0.0000E+00  0.2000E+01
    -11.861  0.0000E+00  0.2000E+01
    -10.957  0.0000E+00  0.2000E+01
    -10.053  0.0000E+00  0.2000E+01
     -9.149  0.0000E+00  0.2000E+01
     -8.245  0.0000E+00  0.2000E+01
     -7.340  0.0000E+00  0.2000E+01
     -6.436  0.0000E+00  0.2000E+01
     -5.532  0.0000E+00  0.2000E+01
     -4.628  0.0000E+00  0.2000E+01
     -3.723  0.0000E+00  0.2000E+01
     -2.819  0.0000E+00  0.2000E+01
     -1.915  0.0000E+00  0.2000E+01
     -1.011  0.0000E+00  0.2000E+01
     -0.107  0.0000E+00  0.2000E+01
      0.798  0.0000E+00  0.2000E+01
      1.702  0.0000E+00  0.2000E+01
      2.606  0.0000E+00  0.2000E+01
      3.510  0.2321E+00  0.2443E+01
      4.414  0.3095E+00  0.3475E+01
      5.319  0.0000E+00  0.3790E+01
      6.223  0.0000E+00  0.3860E+01
      7.127  0.0000E+00  0.4140E+01
      8.031  0.0000E+00  0.4280E+01
      8.936  0.0000E+00  0.4700E+01
      9.840  0.0000E+00  0.5120E+01
     10.744  0.0000E+00  0.5446E+01
     11.648  0.0000E+00  0.5901E+01
     12.552  0.0000E+00  0.5971E+01
     13.457  0.0000E+00  0.6367E+01
     14.361  0.0000E+00  0.7277E+01
     15.265  0.0000E+00  0.7487E+01
     16.169  0.0000E+00  0.7557E+01
     17.074  0.0000E+00  0.8548E+01
     17.978  0.0000E+00  0.9248E+01
     18.882  0.0000E+00  0.9784E+01
     19.786  0.0000E+00  0.1016E+02
     20.690  0.0000E+00  0.1040E+02
     21.595  0.0000E+00  0.1084E+02
     22.499  0.0000E+00  0.1153E+02
     23.403  0.0000E+00  0.1224E+02
     24.307  0.0000E+00  0.1254E+02
     25.211  0.1611E-01  0.1305E+02
     26.116  0.0000E+00  0.1398E+02
     27.020  0.0000E+00  0.1433E+02
     27.924  0.0000E+00  0.1455E+02
     28.828  0.0000E+00  0.1553E+02
     29.733  0.0000E+00  0.1616E+02
     30.637  0.0000E+00  0.1651E+02
     31.541  0.0000E+00  0.1708E+02
     32.445  0.0000E+00  0.1785E+02
     33.349  0.7498E-04  0.1841E+02
     34.254  0.0000E+00  0.1900E+02
     35.158  0.0000E+00  0.1963E+02
     36.062  0.0000E+00  0.2011E+02
     36.966  0.0000E+00  0.2095E+02
     37.870  0.0000E+00  0.2152E+02
     38.775  0.0000E+00  0.2221E+02
     39.679  0.0000E+00  0.2276E+02
     40.583  0.0000E+00  0.2353E+02
     41.487  0.0000E+00  0.2412E+02
     42.392  0.0000E+00  0.2482E+02
     43.296  0.0000E+00  0.2551E+02
     44.200  0.0000E+00  0.2638E+02
     45.104  0.0000E+00  0.2731E+02
     46.008  0.0000E+00  0.2764E+02
     46.913  0.0000E+00  0.2874E+02
     47.817  0.0000E+00  0.2934E+02
     48.721  0.0000E+00  0.2973E+02
     49.625  0.0000E+00  0.3008E+02
     50.530  0.0000E+00  0.3143E+02
     51.434  0.0000E+00  0.3227E+02
     52.338  0.0000E+00  0.3273E+02
     53.242  0.0000E+00  0.3417E+02
     54.146  0.0000E+00  0.3490E+02
     55.051  0.0000E+00  0.3529E+02
     55.955  0.0000E+00  0.3606E+02
     56.859  0.2577E-16  0.3694E+02
     57.763  0.0000E+00  0.3720E+02
     58.667  0.0000E+00  0.3787E+02
     59.572  0.0000E+00  0.3880E+02
     60.476  0.0000E+00  0.3974E+02
     61.380  0.0000E+00  0.4086E+02
     62.284  0.0000E+00  0.4170E+02
     63.189  0.0000E+00  0.4272E+02
     64.093  0.0000E+00  0.4381E+02
     64.997  0.0000E+00  0.4437E+02
     65.901  0.0000E+00  0.4515E+02
     66.805  0.0000E+00  0.4573E+02
     67.710  0.0000E+00  0.4615E+02
     68.614  0.0000E+00  0.4703E+02
     69.518  0.1414E+00  0.4786E+02
     70.422  0.0000E+00  0.4930E+02
     71.326  0.0000E+00  0.5040E+02
     72.231  0.0000E+00  0.5108E+02
     73.135  0.2602E-05  0.5224E+02
     74.039  0.0000E+00  0.5303E+02
     74.943  0.0000E+00  0.5443E+02
     75.848  0.0000E+00  0.5485E+02
     76.752  0.1174E-08  0.5541E+02
     77.656  0.0000E+00  0.5567E+02
     78.560  0.0000E+00  0.5701E+02
     79.464  0.0000E+00  0.5729E+02
     80.369  0.0000E+00  0.5898E+02
     81.273  0.0000E+00  0.5992E+02
     82.177  0.0000E+00  0.6104E+02
     83.081  0.0000E+00  0.6240E+02
     83.986  0.0000E+00  0.6348E+02
     84.890  0.0000E+00  0.6385E+02
     85.794  0.0000E+00  0.6518E+02
     86.698  0.0000E+00  0.6592E+02
     87.602  0.0000E+00  0.6655E+02
     88.507  0.0000E+00  0.6709E+02
     89.411  0.7735E-01  0.6821E+02
     90.315  0.0000E+00  0.6907E+02
     91.219  0.0000E+00  0.7017E+02
     92.123  0.0000E+00  0.7141E+02
     93.028  0.0000E+00  0.7212E+02
     93.932  0.0000E+00  0.7331E+02
     94.836  0.0000E+00  0.7433E+02
     95.740  0.0000E+00  0.7590E+02
     96.645  0.0000E+00  0.7695E+02
     97.549  0.0000E+00  0.7821E+02
     98.453  0.0000E+00  0.7910E+02
     99.357  0.0000E+00  0.7964E+02
    100.261  0.0000E+00  0.8066E+02
    101.166  0.0000E+00  0.8094E+02
    102.070  0.0000E+00  0.8220E+02
    102.974  0.0000E+00  0.8350E+02
    103.878  0.0000E+00  0.8429E+02
    104.783  0.0000E+00  0.8541E+02
    105.687  0.3485E-06  0.8634E+02
    106.591  0.0000E+00  0.8825E+02
    107.495  0.0000E+00  0.8910E+02
    108.399  0.0000E+00  0.9012E+02
    109.304  0.0000E+00  0.9117E+02
    110.208  0.0000E+00  0.9239E+02
    111.112  0.0000E+00  0.9373E+02
    112.016  0.0000E+00  0.9461E+02
    112.920  0.1031E+00  0.9515E+02
    113.825  0.0000E+00  0.9625E+02
    114.729  0.0000E+00  0.9681E+02
    115.633  0.0000E+00  0.9814E+02
    116.537  0.0000E+00  0.9940E+02
    117.442  0.0000E+00  0.1004E+03
    118.346  0.0000E+00  0.1013E+03
    119.250  0.0000E+00  0.1028E+03
    120.154  0.0000E+00  0.1042E+03
    121.058  0.1548E+00  0.1057E+03
    121.963  0.0000E+00  0.1070E+03
    122.867  0.1454E+00  0.1078E+03
    123.771  0.0000E+00  0.1088E+03
    124.675  0.0000E+00  0.1098E+03
    125.579  0.0000E+00  0.1107E+03
    126.484  0.0000E+00  0.1117E+03
    127.388  0.0000E+00  0.1132E+03
    128.292  0.0000E+00  0.1139E+03
    129.196  0.0000E+00  0.1152E+03
    130.101  0.0000E+00  0.1162E+03
    131.005  0.0000E+00  0.1173E+03
    131.909  0.8274E-12  0.1182E+03
    132.813  0.0000E+00  0.1201E+03
    133.717  0.1548E+00  0.1212E+03
    134.622  0.0000E+00  0.1224E+03
    135.526  0.0000E+00  0.1239E+03
    136.430  0.0000E+00  0.1252E+03
    137.334  0.0000E+00  0.1269E+03
    138.239  0.0000E+00  0.1276E+03
    139.143  0.0000E+00  0.1290E+03
    140.047  0.0000E+00  0.1297E+03
    140.951  0.5159E-01  0.1302E+03
    141.855  0.0000E+00  0.1312E+03
    142.760  0.1548E+00  0.1325E+03
    143.664  0.5284E-08  0.1343E+03
    144.568  0.0000E+00  0.1357E+03
    145.472  0.0000E+00  0.1363E+03
    146.376  0.7738E-01  0.1373E+03
    147.281  0.0000E+00  0.1389E+03
    148.185  0.0000E+00  0.1401E+03
    149.089  0.2904E-02  0.1416E+03
    149.993  0.0000E+00  0.1430E+03
    150.898  0.7738E-01  0.1440E+03
    151.802  0.0000E+00  0.1460E+03
    152.706  0.1548E+00  0.1475E+03
    153.610  0.0000E+00  0.1482E+03
    154.514  0.0000E+00  0.1493E+03
    155.419  0.0000E+00  0.1502E+03
    156.323  0.0000E+00  0.1517E+03
    157.227  0.2148E-16  0.1527E+03
    158.131  0.0000E+00  0.1539E+03
    159.035  0.0000E+00  0.1552E+03
    159.940  0.1841E-12  0.1564E+03
    160.844  0.5235E-09  0.1572E+03
    161.748  0.0000E+00  0.1590E+03
    162.652  0.0000E+00  0.1602E+03
    163.557  0.5159E-01  0.1616E+03
    164.461  0.0000E+00  0.1632E+03
    165.365  0.7738E-01  0.1648E+03
    166.269  0.0000E+00  0.1662E+03
    167.173  0.0000E+00  0.1672E+03
    168.078  0.7580E-05  0.1685E+03
    168.982  0.0000E+00  0.1695E+03
    169.886  0.0000E+00  0.1709E+03
    170.790  0.0000E+00  0.1724E+03
    171.695  0.0000E+00  0.1737E+03
    172.599  0.0000E+00  0.1749E+03
    173.503  0.0000E+00  0.1762E+03
    174.407  0.0000E+00  0.1775E+03
    175.311  0.0000E+00  0.1787E+03
    176.216  0.1359E-04  0.1798E+03
    177.120  0.0000E+00  0.1806E+03
    178.024  0.0000E+00  0.1820E+03
    178.928  0.0000E+00  0.1830E+03
    179.832  0.0000E+00  0.1851E+03
    180.737  0.0000E+00  0.1869E+03
    181.641  0.6910E-01  0.1884E+03
    182.545  0.0000E+00  0.1900E+03
    183.449  0.0000E+00  0.1913E+03
    184.354  0.0000E+00  0.1926E+03
    185.258  0.0000E+00  0.1942E+03
    186.162  0.0000E+00  0.1950E+03
    187.066  0.5752E-02  0.1961E+03
    187.970  0.0000E+00  0.1974E+03
    188.875  0.0000E+00  0.1992E+03
    189.779  0.0000E+00  0.2006E+03
    190.683  0.3095E+00  0.2021E+03
    191.587  0.0000E+00  0.2031E+03
    192.491  0.0000E+00  0.2044E+03
    193.396  0.7738E-01  0.2062E+03
    194.300  0.0000E+00  0.2073E+03
    195.204  0.0000E+00  0.2084E+03
    196.108  0.0000E+00  0.2094E+03
    197.013  0.0000E+00  0.2112E+03
    197.917  0.0000E+00  0.2125E+03
    198.821  0.0000E+00  0.2142E+03
    199.725  0.0000E+00  0.2159E+03
    200.629  0.0000E+00  0.2175E+03
    201.534  0.0000E+00  0.2187E+03
    202.438  0.0000E+00  0.2200E+03
    203.342  0.0000E+00  0.2211E+03
    204.246  0.0000E+00  0.2227E+03
    205.151  0.0000E+00  0.2251E+03
    206.055  0.0000E+00  0.2255E+03
    206.959  0.0000E+00  0.2270E+03
    207.863  0.1370E+00  0.2287E+03
    208.767  0.0000E+00  0.2303E+03
    209.672  0.0000E+00  0.2314E+03
    210.576  0.0000E+00  0.2324E+03
    211.480  0.0000E+00  0.2339E+03
    212.384  0.0000E+00  0.2360E+03
    213.288  0.0000E+00  0.2368E+03
    214.193  0.0000E+00  0.2384E+03
    215.097  0.0000E+00  0.2397E+03
    216.001  0.0000E+00  0.2414E+03
    216.905  0.0000E+00  0.2431E+03
    217.810  0.0000E+00  0.2440E+03
    218.714  0.0000E+00  0.2461E+03
    219.618  0.0000E+00  0.2470E+03
    220.522  0.1548E+00  0.2485E+03
    221.426  0.0000E+00  0.2496E+03
    222.331  0.0000E+00  0.2511E+03
    223.235  0.0000E+00  0.2518E+03
    224.139  0.0000E+00  0.2526E+03
    225.043  0.0000E+00  0.2539E+03
    225.947  0.0000E+00  0.2544E+03
    226.852  0.0000E+00  0.2548E+03
    227.756  0.0000E+00  0.2556E+03
    228.660  0.0000E+00  0.2557E+03
    229.564  0.0000E+00  0.2559E+03
    230.469  0.0000E+00  0.2559E+03
    231.373  0.0000E+00  0.2560E+03
    232.277  0.0000E+00  0.2560E+03
    233.181  0.0000E+00  0.2560E+03
    234.085  0.0000E+00  0.2560E+03
    234.990  0.0000E+00  0.2560E+03
    235.894  0.0000E+00  0.2560E+03
    236.798  0.0000E+00  0.2560E+03
    237.702  0.0000E+00  0.2560E+03
    238.607  0.0000E+00  0.2560E+03
    239.511  0.0000E+00  0.2560E+03
    240.415  0.0000E+00  0.2560E+03
    241.319  0.0000E+00  0.2560E+03
    242.223  0.0000E+00  0.2560E+03
    243.128  0.0000E+00  0.2560E+03
