    1    1    1    1
  0.1628488E+02  0.2845115E-09  0.2845115E-09  0.2845115E-09  0.1000000E-15
  1.000000000000000E-004
  CAR 
 Og_FCC                                  
      2    172    128
 
  0.0000000E+00  0.0000000E+00  0.0000000E+00  0.2915452E-02
    1      -15.807071   1.000000
    2        3.750651   0.000000
    3       20.704395   0.000000
    4       20.704399   0.000000
    5       20.704399   0.000000
    6       24.010822   0.000000
    7       24.010826   0.000000
    8       24.010826   0.000000
    9       25.250548   0.000000
   10       31.785972   0.000000
   11       32.503110   0.000000
   12       32.503119   0.000000
   13       32.503119   0.000000
   14       32.563002   0.000000
   15       32.563002   0.000000
   16       56.850419   0.000000
   17       66.659639   0.000000
   18       66.659650   0.000000
   19       66.659650   0.000000
   20       69.352586   0.000000
   21       69.352597   0.000000
   22       69.352597   0.000000
   23       69.752931   0.000000
   24       69.752931   0.000000
   25       69.752944   0.000000
   26       69.788587   0.000000
   27       69.788587   0.000000
   28       86.221116   0.000000
   29       92.284589   0.000000
   30       92.284617   0.000000
   31       92.284617   0.000000
   32       95.648672   0.000000
   33       95.648672   0.000000
   34       97.281074   0.000000
   35       97.281080   0.000000
   36       97.281080   0.000000
   37       97.309838   0.000000
   38       97.309856   0.000000
   39       97.309856   0.000000
   40       97.667318   0.000000
   41       97.667318   0.000000
   42       97.667323   0.000000
   43       97.812005   0.000000
   44       97.812005   0.000000
   45       97.812023   0.000000
   46       98.501211   0.000000
   47       98.985922   0.000000
   48       98.985946   0.000000
   49       98.985946   0.000000
   50       99.047198   0.000000
   51       99.047198   0.000000
   52      106.717678   0.000000
   53      106.751665   0.000000
   54      106.751682   0.000000
   55      106.751682   0.000000
   56      107.202790   0.000000
   57      107.202804   0.000000
   58      107.202804   0.000000
   59      107.363171   0.000000
   60      141.482699   0.000000
   61      142.947838   0.000000
   62      142.947868   0.000000
   63      142.947868   0.000000
   64      144.641182   0.000000
   65      144.641182   0.000000
   66      160.032367   0.000000
   67      165.298058   0.000000
   68      165.298058   0.000000
   69      165.298060   0.000000
   70      170.021298   0.000000
   71      170.021298   0.000000
   72      170.021323   0.000000
   73      172.080941   0.000000
   74      172.080941   0.000000
   75      172.219313   0.000000
   76      172.360156   0.000000
   77      172.360179   0.000000
   78      172.360179   0.000000
   79      172.642903   0.000000
   80      172.642903   0.000000
   81      172.642914   0.000000
   82      172.711200   0.000000
   83      172.711251   0.000000
   84      172.711251   0.000000
   85      172.752417   0.000000
   86      172.752417   0.000000
   87      174.936797   0.000000
   88      174.936816   0.000000
   89      174.936816   0.000000
   90      179.822224   0.000000
   91      179.964276   0.000000
   92      179.964319   0.000000
   93      179.964319   0.000000
   94      181.106962   0.000000
   95      181.106962   0.000000
   96      181.106981   0.000000
   97      181.145122   0.000000
   98      181.145122   0.000000
   99      181.145128   0.000000
  100      181.366970   0.000000
  101      181.367010   0.000000
  102      181.367010   0.000000
  103      181.419644   0.000000
  104      181.617629   0.000000
  105      181.617629   0.000000
  106      181.617669   0.000000
  107      181.709371   0.000000
  108      181.709371   0.000000
  109      183.770818   0.000000
  110      183.770848   0.000000
  111      183.770848   0.000000
  112      185.156992   0.000000
  113      185.156992   0.000000
  114      213.979749   0.000000
  115      215.506926   0.000000
  116      215.506963   0.000000
  117      215.506963   0.000000
  118      217.516857   0.000000
  119      218.159945   0.000000
  120      218.159945   0.000000
  121      218.159997   0.000000
  122      218.231480   0.000000
  123      218.231493   0.000000
  124      218.231493   0.000000
  125      218.285083   0.000000
  126      218.285122   0.000000
  127      218.285122   0.000000
  128      218.508754   0.000000
 
  0.1428571E+00  0.1387779E-16  0.6938894E-17  0.5830904E-02
    1      -15.634069   1.000000
    2        3.630889   0.000000
    3       16.929265   0.000000
    4       19.750799   0.000000
    5       19.750803   0.000000
    6       24.050920   0.000000
    7       25.595535   0.000000
    8       25.595543   0.000000
    9       28.023676   0.000000
   10       28.429200   0.000000
   11       28.429201   0.000000
   12       31.105424   0.000000
   13       37.829992   0.000000
   14       38.268917   0.000000
   15       38.268921   0.000000
   16       53.023471   0.000000
   17       59.137614   0.000000
   18       59.137617   0.000000
   19       64.045766   0.000000
   20       67.968467   0.000000
   21       67.968478   0.000000
   22       70.130607   0.000000
   23       70.130623   0.000000
   24       70.314014   0.000000
   25       76.933224   0.000000
   26       80.149230   0.000000
   27       80.487247   0.000000
   28       80.487251   0.000000
   29       84.200845   0.000000
   30       84.200849   0.000000
   31       87.905601   0.000000
   32       88.728609   0.000000
   33       88.728625   0.000000
   34       90.276181   0.000000
   35       90.276192   0.000000
   36       90.361303   0.000000
   37       91.838190   0.000000
   38       94.761237   0.000000
   39       95.152496   0.000000
   40       95.152511   0.000000
   41       97.569410   0.000000
   42       98.874713   0.000000
   43       98.874729   0.000000
   44      102.614455   0.000000
   45      102.772542   0.000000
   46      102.772555   0.000000
   47      103.588992   0.000000
   48      105.079759   0.000000
   49      105.079769   0.000000
   50      106.169573   0.000000
   51      106.169583   0.000000
   52      106.262864   0.000000
   53      110.389635   0.000000
   54      111.683382   0.000000
   55      111.683387   0.000000
   56      112.918204   0.000000
   57      112.918218   0.000000
   58      113.005754   0.000000
   59      123.359700   0.000000
   60      132.232530   0.000000
   61      133.654161   0.000000
   62      133.654176   0.000000
   63      148.465563   0.000000
   64      153.253912   0.000000
   65      153.253913   0.000000
   66      153.496093   0.000000
   67      155.228344   0.000000
   68      155.228362   0.000000
   69      158.025557   0.000000
   70      158.901394   0.000000
   71      158.901404   0.000000
   72      164.337348   0.000000
   73      165.254817   0.000000
   74      165.254825   0.000000
   75      165.968155   0.000000
   76      166.195334   0.000000
   77      166.195353   0.000000
   78      167.205236   0.000000
   79      167.205249   0.000000
   80      168.135733   0.000000
   81      168.935962   0.000000
   82      170.681042   0.000000
   83      170.681078   0.000000
   84      173.033609   0.000000
   85      174.281977   0.000000
   86      174.282013   0.000000
   87      174.459209   0.000000
   88      176.312127   0.000000
   89      176.312147   0.000000
   90      176.895952   0.000000
   91      177.087404   0.000000
   92      177.390824   0.000000
   93      177.390835   0.000000
   94      177.501551   0.000000
   95      177.501574   0.000000
   96      182.917002   0.000000
   97      186.311908   0.000000
   98      186.311922   0.000000
   99      186.882485   0.000000
  100      187.067042   0.000000
  101      187.271489   0.000000
  102      187.271511   0.000000
  103      188.490749   0.000000
  104      188.490766   0.000000
  105      190.960886   0.000000
  106      191.250092   0.000000
  107      191.250099   0.000000
  108      196.893237   0.000000
  109      197.455055   0.000000
  110      197.455056   0.000000
  111      197.843385   0.000000
  112      198.172604   0.000000
  113      198.172627   0.000000
  114      199.098469   0.000000
  115      199.372342   0.000000
  116      199.372353   0.000000
  117      207.512264   0.000000
  118      208.151980   0.000000
  119      209.025114   0.000000
  120      209.025141   0.000000
  121      209.855987   0.000000
  122      209.855988   0.000000
  123      217.868483   0.000000
  124      217.868528   0.000000
  125      218.615215   0.000000
  126      219.213767   0.000000
  127      221.413064   0.000000
  128      221.413102   0.000000
 
  0.2857143E+00  0.5551115E-16  0.2775558E-16  0.5830904E-02
    1      -15.263810   1.000000
    2        3.330848   0.000000
    3       12.724506   0.000000
    4       18.818851   0.000000
    5       18.818853   0.000000
    6       24.108081   0.000000
    7       24.108090   0.000000
    8       24.338138   0.000000
    9       27.624323   0.000000
   10       30.696960   0.000000
   11       30.696960   0.000000
   12       38.903801   0.000000
   13       44.428880   0.000000
   14       45.192434   0.000000
   15       45.192437   0.000000
   16       46.747517   0.000000
   17       50.312789   0.000000
   18       50.312792   0.000000
   19       63.098424   0.000000
   20       69.259312   0.000000
   21       69.259321   0.000000
   22       71.008953   0.000000
   23       71.792644   0.000000
   24       71.792662   0.000000
   25       71.986094   0.000000
   26       73.137794   0.000000
   27       73.137801   0.000000
   28       77.988054   0.000000
   29       81.261765   0.000000
   30       82.667787   0.000000
   31       82.667803   0.000000
   32       84.050944   0.000000
   33       84.050952   0.000000
   34       84.143069   0.000000
   35       88.627209   0.000000
   36       92.717532   0.000000
   37       92.717533   0.000000
   38       94.157877   0.000000
   39       94.157893   0.000000
   40       94.185848   0.000000
   41       97.659272   0.000000
   42       97.817095   0.000000
   43       97.817111   0.000000
   44      104.037923   0.000000
   45      104.754344   0.000000
   46      104.754357   0.000000
   47      111.819197   0.000000
   48      114.330096   0.000000
   49      114.330107   0.000000
   50      115.844890   0.000000
   51      115.844901   0.000000
   52      115.926077   0.000000
   53      120.180794   0.000000
   54      120.180808   0.000000
   55      120.276996   0.000000
   56      123.175200   0.000000
   57      124.687341   0.000000
   58      124.687357   0.000000
   59      124.923684   0.000000
   60      126.582086   0.000000
   61      126.582088   0.000000
   62      133.152170   0.000000
   63      136.774137   0.000000
   64      136.774141   0.000000
   65      140.906898   0.000000
   66      144.950810   0.000000
   67      146.879611   0.000000
   68      146.879625   0.000000
   69      151.381912   0.000000
   70      151.620878   0.000000
   71      151.620889   0.000000
   72      151.751665   0.000000
   73      152.225318   0.000000
   74      152.225333   0.000000
   75      163.552384   0.000000
   76      164.962983   0.000000
   77      164.962987   0.000000
   78      167.970298   0.000000
   79      167.980547   0.000000
   80      167.980563   0.000000
   81      168.080211   0.000000
   82      169.747499   0.000000
   83      169.747536   0.000000
   84      172.165815   0.000000
   85      172.850522   0.000000
   86      172.933837   0.000000
   87      172.933880   0.000000
   88      174.042204   0.000000
   89      174.042224   0.000000
   90      177.517937   0.000000
   91      178.269494   0.000000
   92      178.269507   0.000000
   93      179.011792   0.000000
   94      179.487030   0.000000
   95      179.677835   0.000000
   96      179.677857   0.000000
   97      180.557769   0.000000
   98      180.557797   0.000000
   99      192.162884   0.000000
  100      193.969048   0.000000
  101      193.969073   0.000000
  102      194.036924   0.000000
  103      195.075468   0.000000
  104      195.075488   0.000000
  105      197.479069   0.000000
  106      198.523431   0.000000
  107      198.523448   0.000000
  108      199.169032   0.000000
  109      199.226049   0.000000
  110      200.392756   0.000000
  111      200.392772   0.000000
  112      201.762558   0.000000
  113      203.027339   0.000000
  114      203.027350   0.000000
  115      209.885995   0.000000
  116      210.770821   0.000000
  117      210.770829   0.000000
  118      211.606196   0.000000
  119      212.533605   0.000000
  120      212.533608   0.000000
  121      215.235802   0.000000
  122      215.469816   0.000000
  123      215.738292   0.000000
  124      215.738314   0.000000
  125      216.857838   0.000000
  126      216.857854   0.000000
  127      219.328773   0.000000
  128      219.328813   0.000000
 
  0.4285714E+00  0.2775558E-16  0.0000000E+00  0.5830904E-02
    1      -14.918929   1.000000
    2        3.135117   0.000000
    3       10.405539   0.000000
    4       18.540554   0.000000
    5       18.540556   0.000000
    6       22.290951   0.000000
    7       22.290960   0.000000
    8       23.177369   0.000000
    9       31.277678   0.000000
   10       36.004417   0.000000
   11       36.004418   0.000000
   12       38.787512   0.000000
   13       42.576118   0.000000
   14       42.576121   0.000000
   15       48.120318   0.000000
   16       53.282751   0.000000
   17       53.282754   0.000000
   18       54.394341   0.000000
   19       57.566696   0.000000
   20       62.480257   0.000000
   21       62.480263   0.000000
   22       65.460603   0.000000
   23       68.128404   0.000000
   24       71.651331   0.000000
   25       71.651342   0.000000
   26       74.410005   0.000000
   27       74.410031   0.000000
   28       74.650668   0.000000
   29       77.862317   0.000000
   30       78.408982   0.000000
   31       78.409000   0.000000
   32       79.157447   0.000000
   33       79.157448   0.000000
   34       79.206578   0.000000
   35       92.816863   0.000000
   36       94.042676   0.000000
   37       94.042692   0.000000
   38       95.585516   0.000000
   39       95.585531   0.000000
   40       95.595405   0.000000
   41      102.233971   0.000000
   42      106.316787   0.000000
   43      106.316787   0.000000
   44      109.691119   0.000000
   45      110.117159   0.000000
   46      110.117174   0.000000
   47      114.151188   0.000000
   48      116.778637   0.000000
   49      116.778651   0.000000
   50      119.096395   0.000000
   51      120.962489   0.000000
   52      120.962490   0.000000
   53      122.114260   0.000000
   54      124.795013   0.000000
   55      124.795029   0.000000
   56      126.647775   0.000000
   57      126.647786   0.000000
   58      126.728260   0.000000
   59      128.932869   0.000000
   60      128.932884   0.000000
   61      129.116921   0.000000
   62      133.176885   0.000000
   63      135.840118   0.000000
   64      135.840132   0.000000
   65      138.571611   0.000000
   66      138.571625   0.000000
   67      138.675726   0.000000
   68      139.422606   0.000000
   69      139.591358   0.000000
   70      139.591372   0.000000
   71      140.943872   0.000000
   72      142.742397   0.000000
   73      142.742404   0.000000
   74      157.615485   0.000000
   75      159.420173   0.000000
   76      159.944609   0.000000
   77      159.944615   0.000000
   78      164.900149   0.000000
   79      164.900168   0.000000
   80      166.788853   0.000000
   81      167.786739   0.000000
   82      169.763256   0.000000
   83      169.763298   0.000000
   84      170.801762   0.000000
   85      170.918675   0.000000
   86      171.124922   0.000000
   87      171.124960   0.000000
   88      171.769292   0.000000
   89      171.769318   0.000000
   90      179.387308   0.000000
   91      179.861215   0.000000
   92      181.320714   0.000000
   93      181.320724   0.000000
   94      184.396045   0.000000
   95      184.504625   0.000000
   96      184.504639   0.000000
   97      184.868162   0.000000
   98      185.822534   0.000000
   99      185.822565   0.000000
  100      189.789370   0.000000
  101      191.470140   0.000000
  102      191.715276   0.000000
  103      191.715310   0.000000
  104      193.020944   0.000000
  105      193.020964   0.000000
  106      195.116160   0.000000
  107      196.011077   0.000000
  108      196.011090   0.000000
  109      200.853414   0.000000
  110      202.168515   0.000000
  111      202.626632   0.000000
  112      202.626665   0.000000
  113      203.630067   0.000000
  114      203.630098   0.000000
  115      210.181418   0.000000
  116      211.466818   0.000000
  117      211.764062   0.000000
  118      211.764103   0.000000
  119      213.394410   0.000000
  120      213.394421   0.000000
  121      215.469266   0.000000
  122      217.983869   0.000000
  123      217.983879   0.000000
  124      222.032536   0.000000
  125      222.032590   0.000000
  126      222.637655   0.000000
  127      222.887496   0.000000
  128      225.980879   0.000000
 
  0.0000000E+00  0.1428571E+00  0.0000000E+00  0.5830904E-02
    1      -15.634069   1.000000
    2        3.630889   0.000000
    3       16.929265   0.000000
    4       19.750799   0.000000
    5       19.750803   0.000000
    6       24.050920   0.000000
    7       25.595535   0.000000
    8       25.595543   0.000000
    9       28.023676   0.000000
   10       28.429200   0.000000
   11       28.429201   0.000000
   12       31.105424   0.000000
   13       37.829992   0.000000
   14       38.268917   0.000000
   15       38.268921   0.000000
   16       53.023471   0.000000
   17       59.137614   0.000000
   18       59.137617   0.000000
   19       64.045766   0.000000
   20       67.968467   0.000000
   21       67.968478   0.000000
   22       70.130607   0.000000
   23       70.130623   0.000000
   24       70.314015   0.000000
   25       76.933224   0.000000
   26       80.149230   0.000000
   27       80.487247   0.000000
   28       80.487251   0.000000
   29       84.200845   0.000000
   30       84.200849   0.000000
   31       87.905601   0.000000
   32       88.728609   0.000000
   33       88.728625   0.000000
   34       90.276181   0.000000
   35       90.276192   0.000000
   36       90.361303   0.000000
   37       91.838190   0.000000
   38       94.761237   0.000000
   39       95.152496   0.000000
   40       95.152511   0.000000
   41       97.569410   0.000000
   42       98.874713   0.000000
   43       98.874729   0.000000
   44      102.614455   0.000000
   45      102.772542   0.000000
   46      102.772555   0.000000
   47      103.588992   0.000000
   48      105.079759   0.000000
   49      105.079769   0.000000
   50      106.169573   0.000000
   51      106.169583   0.000000
   52      106.262864   0.000000
   53      110.389635   0.000000
   54      111.683382   0.000000
   55      111.683387   0.000000
   56      112.918204   0.000000
   57      112.918218   0.000000
   58      113.005754   0.000000
   59      123.359700   0.000000
   60      132.232530   0.000000
   61      133.654161   0.000000
   62      133.654176   0.000000
   63      148.465563   0.000000
   64      153.253912   0.000000
   65      153.253913   0.000000
   66      153.496093   0.000000
   67      155.228344   0.000000
   68      155.228362   0.000000
   69      158.025557   0.000000
   70      158.901394   0.000000
   71      158.901404   0.000000
   72      164.337348   0.000000
   73      165.254817   0.000000
   74      165.254825   0.000000
   75      165.968155   0.000000
   76      166.195334   0.000000
   77      166.195353   0.000000
   78      167.205236   0.000000
   79      167.205249   0.000000
   80      168.135733   0.000000
   81      168.935962   0.000000
   82      170.681042   0.000000
   83      170.681078   0.000000
   84      173.033609   0.000000
   85      174.281977   0.000000
   86      174.282013   0.000000
   87      174.459209   0.000000
   88      176.312127   0.000000
   89      176.312147   0.000000
   90      176.895952   0.000000
   91      177.087404   0.000000
   92      177.390824   0.000000
   93      177.390835   0.000000
   94      177.501551   0.000000
   95      177.501574   0.000000
   96      182.917002   0.000000
   97      186.311908   0.000000
   98      186.311922   0.000000
   99      186.882485   0.000000
  100      187.067042   0.000000
  101      187.271489   0.000000
  102      187.271511   0.000000
  103      188.490749   0.000000
  104      188.490766   0.000000
  105      190.960886   0.000000
  106      191.250092   0.000000
  107      191.250099   0.000000
  108      196.893237   0.000000
  109      197.455055   0.000000
  110      197.455056   0.000000
  111      197.843385   0.000000
  112      198.172604   0.000000
  113      198.172627   0.000000
  114      199.098469   0.000000
  115      199.372342   0.000000
  116      199.372353   0.000000
  117      207.512264   0.000000
  118      208.151980   0.000000
  119      209.025114   0.000000
  120      209.025141   0.000000
  121      209.855987   0.000000
  122      209.855988   0.000000
  123      217.868483   0.000000
  124      217.868528   0.000000
  125      218.615215   0.000000
  126      219.213767   0.000000
  127      221.413064   0.000000
  128      221.413102   0.000000
 
  0.1428571E+00  0.1428571E+00  0.2775558E-16  0.5830904E-02
    1      -15.591173   1.000000
    2        3.613695   0.000000
    3       17.694088   0.000000
    4       17.694091   0.000000
    5       20.045133   0.000000
    6       21.713752   0.000000
    7       23.312608   0.000000
    8       28.198284   0.000000
    9       28.198287   0.000000
   10       30.731908   0.000000
   11       33.317084   0.000000
   12       33.351457   0.000000
   13       33.583159   0.000000
   14       33.583165   0.000000
   15       43.268651   0.000000
   16       52.492602   0.000000
   17       58.811321   0.000000
   18       58.811326   0.000000
   19       59.925919   0.000000
   20       65.874818   0.000000
   21       68.923894   0.000000
   22       68.923909   0.000000
   23       70.101087   0.000000
   24       76.067587   0.000000
   25       77.973464   0.000000
   26       80.142701   0.000000
   27       80.142704   0.000000
   28       81.131992   0.000000
   29       82.221068   0.000000
   30       82.221072   0.000000
   31       83.728982   0.000000
   32       87.914136   0.000000
   33       89.796314   0.000000
   34       89.796330   0.000000
   35       92.030284   0.000000
   36       93.108067   0.000000
   37       93.544515   0.000000
   38       93.544534   0.000000
   39       93.761241   0.000000
   40       97.316507   0.000000
   41       97.476052   0.000000
   42       97.476059   0.000000
   43       97.708163   0.000000
   44       99.555199   0.000000
   45      101.810404   0.000000
   46      101.810415   0.000000
   47      102.965034   0.000000
   48      104.272001   0.000000
   49      104.368471   0.000000
   50      104.368488   0.000000
   51      104.469687   0.000000
   52      109.844679   0.000000
   53      113.944135   0.000000
   54      113.944136   0.000000
   55      115.303253   0.000000
   56      118.233777   0.000000
   57      118.431950   0.000000
   58      118.431962   0.000000
   59      118.835597   0.000000
   60      122.762813   0.000000
   61      142.364497   0.000000
   62      143.630621   0.000000
   63      143.630640   0.000000
   64      145.398641   0.000000
   65      149.090118   0.000000
   66      154.924095   0.000000
   67      154.924099   0.000000
   68      155.756187   0.000000
   69      157.458391   0.000000
   70      157.458407   0.000000
   71      157.529019   0.000000
   72      157.595114   0.000000
   73      160.812096   0.000000
   74      161.217541   0.000000
   75      161.217554   0.000000
   76      161.343737   0.000000
   77      163.913429   0.000000
   78      165.359419   0.000000
   79      165.359435   0.000000
   80      167.578182   0.000000
   81      168.690985   0.000000
   82      171.003260   0.000000
   83      171.003281   0.000000
   84      171.138203   0.000000
   85      172.064607   0.000000
   86      174.924622   0.000000
   87      176.844189   0.000000
   88      176.844211   0.000000
   89      179.437994   0.000000
   90      181.435337   0.000000
   91      181.639995   0.000000
   92      181.640022   0.000000
   93      181.898804   0.000000
   94      182.183608   0.000000
   95      182.183632   0.000000
   96      183.221151   0.000000
   97      184.155858   0.000000
   98      185.026961   0.000000
   99      188.389759   0.000000
  100      188.419833   0.000000
  101      188.419844   0.000000
  102      189.379376   0.000000
  103      189.517810   0.000000
  104      189.517826   0.000000
  105      189.746189   0.000000
  106      192.899012   0.000000
  107      192.899036   0.000000
  108      193.140397   0.000000
  109      193.919777   0.000000
  110      196.706261   0.000000
  111      198.253857   0.000000
  112      199.057868   0.000000
  113      199.057873   0.000000
  114      203.167760   0.000000
  115      203.566991   0.000000
  116      203.628301   0.000000
  117      203.628319   0.000000
  118      207.697324   0.000000
  119      208.492920   0.000000
  120      208.492945   0.000000
  121      208.531350   0.000000
  122      209.361208   0.000000
  123      209.361230   0.000000
  124      210.284247   0.000000
  125      211.455470   0.000000
  126      220.848588   0.000000
  127      220.868696   0.000000
  128      220.868700   0.000000
 
  0.2857143E+00  0.1428571E+00  0.5551115E-16  0.5830904E-02
    1      -15.295760   1.000000
    2        3.502951   0.000000
    3       13.695979   0.000000
    4       16.447767   0.000000
    5       19.382374   0.000000
    6       21.116683   0.000000
    7       23.050518   0.000000
    8       28.544620   0.000000
    9       29.957766   0.000000
   10       31.100342   0.000000
   11       33.185506   0.000000
   12       36.848374   0.000000
   13       39.877084   0.000000
   14       40.641172   0.000000
   15       46.208165   0.000000
   16       50.005272   0.000000
   17       50.119985   0.000000
   18       57.101013   0.000000
   19       59.655647   0.000000
   20       60.685050   0.000000
   21       67.265456   0.000000
   22       70.079082   0.000000
   23       70.144573   0.000000
   24       74.406539   0.000000
   25       75.648693   0.000000
   26       76.717277   0.000000
   27       79.577249   0.000000
   28       80.465120   0.000000
   29       80.576187   0.000000
   30       81.579819   0.000000
   31       82.037860   0.000000
   32       83.459373   0.000000
   33       85.557284   0.000000
   34       85.651085   0.000000
   35       89.870502   0.000000
   36       91.968284   0.000000
   37       92.329381   0.000000
   38       92.898083   0.000000
   39       95.382051   0.000000
   40       96.367281   0.000000
   41       96.685154   0.000000
   42       97.004947   0.000000
   43      100.092731   0.000000
   44      101.885018   0.000000
   45      101.953586   0.000000
   46      102.421601   0.000000
   47      104.726314   0.000000
   48      110.916378   0.000000
   49      112.211585   0.000000
   50      113.279203   0.000000
   51      113.483881   0.000000
   52      116.985876   0.000000
   53      118.012295   0.000000
   54      118.429215   0.000000
   55      121.714155   0.000000
   56      122.798085   0.000000
   57      125.492717   0.000000
   58      125.629927   0.000000
   59      128.568439   0.000000
   60      132.648306   0.000000
   61      135.134120   0.000000
   62      135.495136   0.000000
   63      136.766864   0.000000
   64      139.045731   0.000000
   65      143.081679   0.000000
   66      144.180737   0.000000
   67      146.717825   0.000000
   68      146.840074   0.000000
   69      149.188431   0.000000
   70      151.234117   0.000000
   71      154.192789   0.000000
   72      156.054257   0.000000
   73      156.094507   0.000000
   74      156.603829   0.000000
   75      157.313219   0.000000
   76      157.366623   0.000000
   77      157.647486   0.000000
   78      160.584277   0.000000
   79      161.122021   0.000000
   80      163.527221   0.000000
   81      164.333187   0.000000
   82      166.718520   0.000000
   83      167.596200   0.000000
   84      168.341759   0.000000
   85      175.537578   0.000000
   86      176.482821   0.000000
   87      177.264219   0.000000
   88      177.766700   0.000000
   89      178.671844   0.000000
   90      179.334204   0.000000
   91      181.054516   0.000000
   92      181.974811   0.000000
   93      182.337341   0.000000
   94      184.830856   0.000000
   95      186.360783   0.000000
   96      187.267347   0.000000
   97      188.310823   0.000000
   98      188.732243   0.000000
   99      188.762062   0.000000
  100      189.189446   0.000000
  101      189.428283   0.000000
  102      189.470402   0.000000
  103      190.378118   0.000000
  104      192.623496   0.000000
  105      193.535980   0.000000
  106      196.746553   0.000000
  107      198.646984   0.000000
  108      199.167424   0.000000
  109      199.777470   0.000000
  110      200.164426   0.000000
  111      200.321866   0.000000
  112      201.970361   0.000000
  113      204.065257   0.000000
  114      204.265809   0.000000
  115      207.370069   0.000000
  116      207.819709   0.000000
  117      208.368259   0.000000
  118      208.455367   0.000000
  119      209.171208   0.000000
  120      209.527757   0.000000
  121      210.354819   0.000000