   1   1   0   0
  0.6008441E+02  0.4396350E-09  0.4396350E-09  0.4396350E-09  0.1000000E-15
  1.000000000000000E-004
  CAR 
 Og_FCC                                  
     95.22744439    -36.75490656  301      3.55765352      1.00000000
    -36.755  0.0000E+00  0.0000E+00
    -36.315  0.0000E+00  0.0000E+00
    -35.875  0.0000E+00  0.0000E+00
    -35.435  0.0000E+00  0.0000E+00
    -34.995  0.0000E+00  0.0000E+00
    -34.555  0.0000E+00  0.0000E+00
    -34.115  0.0000E+00  0.0000E+00
    -33.675  0.0000E+00  0.0000E+00
    -33.235  0.0000E+00  0.0000E+00
    -32.795  0.0000E+00  0.0000E+00
    -32.355  0.0000E+00  0.0000E+00
    -31.916  0.0000E+00  0.0000E+00
    -31.476  0.0000E+00  0.0000E+00
    -31.036  0.0000E+00  0.0000E+00
    -30.596  0.0000E+00  0.4000E+01
    -30.156  0.0000E+00  0.4000E+01
    -29.716  0.0000E+00  0.4000E+01
    -29.276  0.0000E+00  0.4000E+01
    -28.836  0.0000E+00  0.4000E+01
    -28.396  0.0000E+00  0.4000E+01
    -27.956  0.0000E+00  0.4000E+01
    -27.516  0.0000E+00  0.4000E+01
    -27.076  0.0000E+00  0.4000E+01
    -26.636  0.0000E+00  0.4000E+01
    -26.196  0.0000E+00  0.4000E+01
    -25.756  0.0000E+00  0.4000E+01
    -25.316  0.0000E+00  0.4000E+01
    -24.876  0.0000E+00  0.4000E+01
    -24.437  0.0000E+00  0.4000E+01
    -23.997  0.0000E+00  0.1000E+02
    -23.557  0.0000E+00  0.1000E+02
    -23.117  0.0000E+00  0.1000E+02
    -22.677  0.0000E+00  0.1000E+02
    -22.237  0.0000E+00  0.1000E+02
    -21.797  0.0000E+00  0.1000E+02
    -21.357  0.0000E+00  0.1000E+02
    -20.917  0.0000E+00  0.1000E+02
    -20.477  0.1335E-15  0.1000E+02
    -20.037  0.0000E+00  0.1200E+02
    -19.597  0.0000E+00  0.1200E+02
    -19.157  0.0000E+00  0.1200E+02
    -18.717  0.0000E+00  0.1200E+02
    -18.277  0.0000E+00  0.1200E+02
    -17.837  0.0000E+00  0.1200E+02
    -17.397  0.0000E+00  0.1200E+02
    -16.958  0.0000E+00  0.1200E+02
    -16.518  0.0000E+00  0.1200E+02
    -16.078  0.0000E+00  0.1200E+02
    -15.638  0.0000E+00  0.1200E+02
    -15.198  0.0000E+00  0.1200E+02
    -14.758  0.0000E+00  0.1200E+02
    -14.318  0.0000E+00  0.1200E+02
    -13.878  0.0000E+00  0.1200E+02
    -13.438  0.0000E+00  0.1200E+02
    -12.998  0.0000E+00  0.1200E+02
    -12.558  0.0000E+00  0.1200E+02
    -12.118  0.0000E+00  0.1200E+02
    -11.678  0.0000E+00  0.1200E+02
    -11.238  0.0000E+00  0.1200E+02
    -10.798  0.0000E+00  0.1200E+02
    -10.358  0.0000E+00  0.1200E+02
     -9.918  0.0000E+00  0.1200E+02
     -9.479  0.0000E+00  0.1200E+02
     -9.039  0.0000E+00  0.1200E+02
     -8.599  0.0000E+00  0.1200E+02
     -8.159  0.0000E+00  0.1200E+02
     -7.719  0.0000E+00  0.1200E+02
     -7.279  0.1060E+00  0.1399E+02
     -6.839  0.0000E+00  0.1400E+02
     -6.399  0.0000E+00  0.1400E+02
     -5.959  0.0000E+00  0.1400E+02
     -5.519  0.0000E+00  0.1400E+02
     -5.079  0.0000E+00  0.1400E+02
     -4.639  0.0000E+00  0.1400E+02
     -4.199  0.0000E+00  0.1400E+02
     -3.759  0.0000E+00  0.1400E+02
     -3.319  0.0000E+00  0.1400E+02
     -2.879  0.0000E+00  0.1400E+02
     -2.439  0.0000E+00  0.1400E+02
     -2.000  0.0000E+00  0.1400E+02
     -1.560  0.0000E+00  0.1400E+02
     -1.120  0.0000E+00  0.1400E+02
     -0.680  0.0000E+00  0.1400E+02
     -0.240  0.0000E+00  0.1400E+02
      0.200  0.0000E+00  0.1400E+02
      0.640  0.6362E+00  0.1471E+02
      1.080  0.0000E+00  0.1566E+02
      1.520  0.1626E-02  0.1591E+02
      1.960  0.0000E+00  0.1640E+02
      2.400  0.0000E+00  0.1715E+02
      2.840  0.0000E+00  0.1760E+02
      3.280  0.0000E+00  0.1794E+02
      3.720  0.0000E+00  0.1801E+02
      4.160  0.0000E+00  0.1801E+02
      4.600  0.0000E+00  0.1801E+02
      5.040  0.0000E+00  0.1805E+02
      5.479  0.0000E+00  0.1809E+02
      5.919  0.0000E+00  0.1820E+02
      6.359  0.0000E+00  0.1843E+02
      6.799  0.0000E+00  0.1909E+02
      7.239  0.0000E+00  0.1951E+02
      7.679  0.0000E+00  0.2003E+02
      8.119  0.0000E+00  0.2028E+02
      8.559  0.0000E+00  0.2091E+02
      8.999  0.0000E+00  0.2161E+02
      9.439  0.0000E+00  0.2203E+02
      9.879  0.6361E+00  0.2282E+02
     10.319  0.1590E+00  0.2358E+02
     10.759  0.0000E+00  0.2433E+02
     11.199  0.0000E+00  0.2500E+02
     11.639  0.0000E+00  0.2578E+02
     12.079  0.0000E+00  0.2615E+02
     12.519  0.2651E+00  0.2713E+02
     12.958  0.0000E+00  0.2795E+02
     13.398  0.0000E+00  0.2864E+02
     13.838  0.0000E+00  0.2970E+02
     14.278  0.0000E+00  0.3035E+02
     14.718  0.0000E+00  0.3126E+02
     15.158  0.0000E+00  0.3222E+02
     15.598  0.0000E+00  0.3248E+02
     16.038  0.0000E+00  0.3285E+02
     16.478  0.2904E+00  0.3350E+02
     16.918  0.1006E+00  0.3536E+02
     17.358  0.0000E+00  0.3686E+02
     17.798  0.7353E-03  0.3785E+02
     18.238  0.0000E+00  0.4017E+02
     18.678  0.1577E+00  0.4210E+02
     19.118  0.0000E+00  0.4259E+02
     19.558  0.0000E+00  0.4386E+02
     19.998  0.3171E+00  0.4567E+02
     20.437  0.0000E+00  0.4619E+02
     20.877  0.0000E+00  0.4629E+02
     21.317  0.0000E+00  0.4700E+02
     21.757  0.0000E+00  0.4781E+02
     22.197  0.9509E-02  0.4793E+02
     22.637  0.4771E+00  0.4908E+02
     23.077  0.0000E+00  0.4996E+02
     23.517  0.0000E+00  0.5072E+02
     23.957  0.0000E+00  0.5201E+02
     24.397  0.3153E+00  0.5391E+02
     24.837  0.0000E+00  0.5543E+02
     25.277  0.3180E+00  0.5647E+02
     25.717  0.0000E+00  0.5698E+02
     26.157  0.0000E+00  0.5798E+02
     26.597  0.0000E+00  0.5904E+02
     27.037  0.0000E+00  0.6009E+02
     27.477  0.0000E+00  0.6071E+02
     27.916  0.0000E+00  0.6134E+02
     28.356  0.0000E+00  0.6220E+02
     28.796  0.0000E+00  0.6327E+02
     29.236  0.1121E+00  0.6410E+02
     29.676  0.0000E+00  0.6532E+02
     30.116  0.0000E+00  0.6597E+02
     30.556  0.0000E+00  0.6692E+02
     30.996  0.0000E+00  0.6844E+02
     31.436  0.1060E+00  0.6996E+02
     31.876  0.0000E+00  0.7127E+02
     32.316  0.0000E+00  0.7235E+02
     32.756  0.0000E+00  0.7355E+02
     33.196  0.0000E+00  0.7401E+02
     33.636  0.0000E+00  0.7565E+02
     34.076  0.0000E+00  0.7635E+02
     34.516  0.6359E+00  0.7826E+02
     34.956  0.9371E-13  0.7928E+02
     35.395  0.0000E+00  0.8051E+02
     35.835  0.0000E+00  0.8208E+02
     36.275  0.0000E+00  0.8345E+02
     36.715  0.0000E+00  0.8356E+02
     37.155  0.0000E+00  0.8550E+02
     37.595  0.6314E-01  0.8581E+02
     38.035  0.0000E+00  0.8700E+02
     38.475  0.3181E+00  0.8833E+02
     38.915  0.0000E+00  0.8920E+02
     39.355  0.3181E+00  0.8997E+02
     39.795  0.0000E+00  0.9127E+02
     40.235  0.0000E+00  0.9295E+02
     40.675  0.0000E+00  0.9409E+02
     41.115  0.0000E+00  0.9495E+02
     41.555  0.0000E+00  0.9651E+02
     41.995  0.5870E-03  0.9778E+02
     42.435  0.0000E+00  0.9943E+02
     42.874  0.3181E+00  0.9996E+02
     43.314  0.0000E+00  0.1012E+03
     43.754  0.0000E+00  0.1025E+03
     44.194  0.0000E+00  0.1034E+03
     44.634  0.7952E-01  0.1052E+03
     45.074  0.1763E-01  0.1065E+03
     45.514  0.8191E-02  0.1079E+03
     45.954  0.1325E-01  0.1093E+03
     46.394  0.7952E-01  0.1101E+03
     46.834  0.0000E+00  0.1116E+03
     47.274  0.0000E+00  0.1130E+03
     47.714  0.0000E+00  0.1139E+03
     48.154  0.0000E+00  0.1154E+03
     48.594  0.0000E+00  0.1170E+03
     49.034  0.0000E+00  0.1183E+03
     49.474  0.2386E+00  0.1195E+03
     49.914  0.0000E+00  0.1206E+03
     50.353  0.0000E+00  0.1220E+03
     50.793  0.0000E+00  0.1235E+03
     51.233  0.4369E-06  0.1250E+03
     51.673  0.3181E+00  0.1269E+03
     52.113  0.0000E+00  0.1280E+03
     52.553  0.0000E+00  0.1295E+03
     52.993  0.0000E+00  0.1306E+03
     53.433  0.0000E+00  0.1321E+03
     53.873  0.2076E-07  0.1331E+03
     54.313  0.0000E+00  0.1352E+03
     54.753  0.0000E+00  0.1365E+03
     55.193  0.0000E+00  0.1373E+03
     55.633  0.0000E+00  0.1390E+03
     56.073  0.0000E+00  0.1402E+03
     56.513  0.2868E-02  0.1412E+03
     56.953  0.0000E+00  0.1427E+03
     57.393  0.5881E-01  0.1440E+03
     57.832  0.2160E+00  0.1455E+03
     58.272  0.0000E+00  0.1475E+03
     58.712  0.7952E-01  0.1488E+03
     59.152  0.0000E+00  0.1502E+03
     59.592  0.2243E-07  0.1519E+03
     60.032  0.0000E+00  0.1532E+03
     60.472  0.0000E+00  0.1544E+03
     60.912  0.0000E+00  0.1557E+03
     61.352  0.0000E+00  0.1573E+03
     61.792  0.3974E-08  0.1586E+03
     62.232  0.0000E+00  0.1601E+03
     62.672  0.0000E+00  0.1614E+03
     63.112  0.2879E-14  0.1631E+03
     63.552  0.0000E+00  0.1649E+03
     63.992  0.0000E+00  0.1669E+03
     64.432  0.0000E+00  0.1679E+03
     64.872  0.1829E-01  0.1689E+03
     65.311  0.0000E+00  0.1714E+03
     65.751  0.0000E+00  0.1729E+03
     66.191  0.0000E+00  0.1742E+03
     66.631  0.0000E+00  0.1757E+03
     67.071  0.0000E+00  0.1768E+03
     67.511  0.4099E-06  0.1785E+03
     67.951  0.3181E+00  0.1801E+03
     68.391  0.0000E+00  0.1812E+03
     68.831  0.5347E-07  0.1830E+03
     69.271  0.1060E+00  0.1847E+03
     69.711  0.7710E-11  0.1860E+03
     70.151  0.0000E+00  0.1878E+03
     70.591  0.2651E-01  0.1893E+03
     71.031  0.1590E+00  0.1908E+03
     71.471  0.0000E+00  0.1931E+03
     71.911  0.0000E+00  0.1945E+03
     72.351  0.3265E-08  0.1955E+03
     72.790  0.2019E+00  0.1971E+03
     73.230  0.1812E-10  0.1986E+03
     73.670  0.0000E+00  0.2005E+03
     74.110  0.0000E+00  0.2025E+03
     74.550  0.0000E+00  0.2039E+03
     74.990  0.1060E+00  0.2055E+03
     75.430  0.0000E+00  0.2071E+03
     75.870  0.1590E+00  0.2084E+03
     76.310  0.7952E-01  0.2101E+03
     76.750  0.3181E+00  0.2115E+03
     77.190  0.3745E-02  0.2134E+03
     77.630  0.0000E+00  0.2155E+03
     78.070  0.4931E-02  0.2182E+03
     78.510  0.3181E+00  0.2206E+03
     78.950  0.3181E+00  0.2224E+03
     79.390  0.3181E+00  0.2237E+03
     79.830  0.4460E-01  0.2257E+03
     80.269  0.6361E+00  0.2272E+03
     80.709  0.0000E+00  0.2281E+03
     81.149  0.0000E+00  0.2299E+03
     81.589  0.0000E+00  0.2318E+03
     82.029  0.0000E+00  0.2335E+03
     82.469  0.0000E+00  0.2354E+03
     82.909  0.0000E+00  0.2372E+03
     83.349  0.0000E+00  0.2386E+03
     83.789  0.3181E+00  0.2405E+03
     84.229  0.4323E-07  0.2419E+03
     84.669  0.0000E+00  0.2431E+03
     85.109  0.0000E+00  0.2453E+03
     85.549  0.0000E+00  0.2473E+03
     85.989  0.0000E+00  0.2489E+03
     86.429  0.0000E+00  0.2512E+03
     86.869  0.0000E+00  0.2527E+03
     87.309  0.0000E+00  0.2533E+03
     87.748  0.0000E+00  0.2545E+03
     88.188  0.0000E+00  0.2554E+03
     88.628  0.0000E+00  0.2559E+03
     89.068  0.0000E+00  0.2559E+03
     89.508  0.0000E+00  0.2560E+03
     89.948  0.0000E+00  0.2560E+03
     90.388  0.0000E+00  0.2560E+03
     90.828  0.0000E+00  0.2560E+03
     91.268  0.0000E+00  0.2560E+03
     91.708  0.0000E+00  0.2560E+03
     92.148  0.0000E+00  0.2560E+03
     92.588  0.0000E+00  0.2560E+03
     93.028  0.0000E+00  0.2560E+03
     93.468  0.0000E+00  0.2560E+03
     93.908  0.0000E+00  0.2560E+03
     94.348  0.0000E+00  0.2560E+03
     94.788  0.0000E+00  0.2560E+03
     95.227  0.0000E+00  0.2560E+03
