   1   1   0   0
  0.2224118E+02  0.3156634E-09  0.3156634E-09  0.3156634E-09  0.1000000E-15
  1.000000000000000E-004
  CAR 
 Og_FCC                                  
    119.67554068    -42.89822150  301    -10.78990347      1.00000000
    -42.898  0.0000E+00  0.0000E+00
    -42.356  0.0000E+00  0.0000E+00
    -41.814  0.0000E+00  0.0000E+00
    -41.272  0.0000E+00  0.0000E+00
    -40.731  0.0000E+00  0.0000E+00
    -40.189  0.0000E+00  0.0000E+00
    -39.647  0.0000E+00  0.0000E+00
    -39.105  0.0000E+00  0.0000E+00
    -38.563  0.0000E+00  0.0000E+00
    -38.021  0.0000E+00  0.0000E+00
    -37.479  0.0000E+00  0.0000E+00
    -36.937  0.0000E+00  0.0000E+00
    -36.395  0.0000E+00  0.0000E+00
    -35.853  0.0000E+00  0.0000E+00
    -35.311  0.0000E+00  0.2000E+01
    -34.770  0.0000E+00  0.2000E+01
    -34.228  0.0000E+00  0.2000E+01
    -33.686  0.0000E+00  0.2000E+01
    -33.144  0.0000E+00  0.2000E+01
    -32.602  0.0000E+00  0.2000E+01
    -32.060  0.0000E+00  0.2000E+01
    -31.518  0.0000E+00  0.2000E+01
    -30.976  0.0000E+00  0.2000E+01
    -30.434  0.0000E+00  0.2000E+01
    -29.892  0.0000E+00  0.2000E+01
    -29.350  0.0000E+00  0.2000E+01
    -28.808  0.0000E+00  0.2000E+01
    -28.267  0.0000E+00  0.2000E+01
    -27.725  0.0000E+00  0.2000E+01
    -27.183  0.0000E+00  0.2000E+01
    -26.641  0.0000E+00  0.2000E+01
    -26.099  0.0000E+00  0.2000E+01
    -25.557  0.0000E+00  0.2000E+01
    -25.015  0.0000E+00  0.2000E+01
    -24.473  0.0000E+00  0.2000E+01
    -23.931  0.0000E+00  0.2000E+01
    -23.389  0.0000E+00  0.2000E+01
    -22.847  0.0000E+00  0.2000E+01
    -22.306  0.0000E+00  0.2000E+01
    -21.764  0.0000E+00  0.2000E+01
    -21.222  0.0000E+00  0.2000E+01
    -20.680  0.0000E+00  0.2000E+01
    -20.138  0.0000E+00  0.2000E+01
    -19.596  0.0000E+00  0.2000E+01
    -19.054  0.0000E+00  0.2000E+01
    -18.512  0.0000E+00  0.2000E+01
    -17.970  0.0000E+00  0.2000E+01
    -17.428  0.0000E+00  0.2000E+01
    -16.886  0.0000E+00  0.2000E+01
    -16.345  0.0000E+00  0.2000E+01
    -15.803  0.0000E+00  0.2000E+01
    -15.261  0.0000E+00  0.2000E+01
    -14.719  0.0000E+00  0.2000E+01
    -14.177  0.0000E+00  0.2000E+01
    -13.635  0.0000E+00  0.2000E+01
    -13.093  0.0000E+00  0.2000E+01
    -12.551  0.0000E+00  0.2000E+01
    -12.009  0.0000E+00  0.2000E+01
    -11.467  0.2582E+00  0.5487E+01
    -10.925  0.0000E+00  0.8000E+01
    -10.383  0.0000E+00  0.8000E+01
     -9.842  0.0000E+00  0.8000E+01
     -9.300  0.0000E+00  0.8000E+01
     -8.758  0.0000E+00  0.8000E+01
     -8.216  0.0000E+00  0.8000E+01
     -7.674  0.0000E+00  0.8000E+01
     -7.132  0.0000E+00  0.8000E+01
     -6.590  0.0000E+00  0.8000E+01
     -6.048  0.0000E+00  0.8000E+01
     -5.506  0.0000E+00  0.8000E+01
     -4.964  0.0000E+00  0.8000E+01
     -4.422  0.0000E+00  0.8000E+01
     -3.881  0.0000E+00  0.8000E+01
     -3.339  0.0000E+00  0.8000E+01
     -2.797  0.0000E+00  0.8000E+01
     -2.255  0.0000E+00  0.8000E+01
     -1.713  0.0000E+00  0.8000E+01
     -1.171  0.0000E+00  0.8000E+01
     -0.629  0.0000E+00  0.8000E+01
     -0.087  0.0000E+00  0.8000E+01
      0.455  0.0000E+00  0.8006E+01
      0.997  0.0000E+00  0.8052E+01
      1.539  0.0000E+00  0.8087E+01
      2.081  0.0000E+00  0.8157E+01
      2.622  0.0000E+00  0.8344E+01
      3.164  0.0000E+00  0.8344E+01
      3.706  0.2541E-02  0.8380E+01
      4.248  0.0000E+00  0.8659E+01
      4.790  0.0000E+00  0.8799E+01
      5.332  0.0000E+00  0.8985E+01
      5.874  0.0000E+00  0.9055E+01
      6.416  0.0000E+00  0.9510E+01
      6.958  0.0000E+00  0.9650E+01
      7.500  0.0000E+00  0.9930E+01
      8.042  0.0000E+00  0.1019E+02
      8.583  0.0000E+00  0.1040E+02
      9.125  0.0000E+00  0.1082E+02
      9.667  0.0000E+00  0.1113E+02
     10.209  0.0000E+00  0.1134E+02
     10.751  0.0000E+00  0.1169E+02
     11.293  0.0000E+00  0.1209E+02
     11.835  0.0000E+00  0.1223E+02
     12.377  0.0000E+00  0.1268E+02
     12.919  0.0000E+00  0.1296E+02
     13.461  0.0000E+00  0.1307E+02
     14.003  0.0000E+00  0.1366E+02
     14.545  0.1816E-15  0.1366E+02
     15.086  0.0000E+00  0.1385E+02
     15.628  0.0000E+00  0.1423E+02
     16.170  0.2426E+00  0.1499E+02
     16.712  0.0000E+00  0.1535E+02
     17.254  0.0000E+00  0.1594E+02
     17.796  0.0000E+00  0.1624E+02
     18.338  0.0000E+00  0.1647E+02
     18.880  0.0000E+00  0.1673E+02
     19.422  0.0000E+00  0.1706E+02
     19.964  0.0000E+00  0.1739E+02
     20.506  0.0000E+00  0.1785E+02
     21.047  0.0000E+00  0.1803E+02
     21.589  0.0000E+00  0.1817E+02
     22.131  0.1722E+00  0.1891E+02
     22.673  0.0000E+00  0.1919E+02
     23.215  0.0000E+00  0.1970E+02
     23.757  0.0000E+00  0.2047E+02
     24.299  0.0000E+00  0.2069E+02
     24.841  0.0000E+00  0.2092E+02
     25.383  0.0000E+00  0.2152E+02
     25.925  0.0000E+00  0.2222E+02
     26.467  0.0000E+00  0.2250E+02
     27.008  0.0000E+00  0.2306E+02
     27.550  0.1220E-08  0.2396E+02
     28.092  0.0000E+00  0.2434E+02
     28.634  0.0000E+00  0.2481E+02
     29.176  0.0000E+00  0.2572E+02
     29.718  0.0000E+00  0.2644E+02
     30.260  0.0000E+00  0.2690E+02
     30.802  0.0000E+00  0.2750E+02
     31.344  0.0000E+00  0.2769E+02
     31.886  0.0000E+00  0.2813E+02
     32.428  0.0000E+00  0.2841E+02
     32.970  0.0000E+00  0.2878E+02
     33.511  0.0000E+00  0.2927E+02
     34.053  0.0000E+00  0.2969E+02
     34.595  0.3871E-07  0.3039E+02
     35.137  0.0000E+00  0.3121E+02
     35.679  0.0000E+00  0.3131E+02
     36.221  0.0000E+00  0.3162E+02
     36.763  0.0000E+00  0.3190E+02
     37.305  0.0000E+00  0.3252E+02
     37.847  0.0000E+00  0.3326E+02
     38.389  0.5803E-13  0.3354E+02
     38.931  0.0000E+00  0.3438E+02
     39.472  0.0000E+00  0.3455E+02
     40.014  0.0000E+00  0.3518E+02
     40.556  0.0000E+00  0.3613E+02
     41.098  0.1156E+00  0.3658E+02
     41.640  0.0000E+00  0.3733E+02
     42.182  0.0000E+00  0.3805E+02
     42.724  0.0000E+00  0.3819E+02
     43.266  0.0000E+00  0.3885E+02
     43.808  0.0000E+00  0.3960E+02
     44.350  0.0000E+00  0.4016E+02
     44.892  0.0000E+00  0.4055E+02
     45.434  0.0000E+00  0.4108E+02
     45.975  0.0000E+00  0.4134E+02
     46.517  0.0000E+00  0.4217E+02
     47.059  0.3637E-04  0.4242E+02
     47.601  0.0000E+00  0.4377E+02
     48.143  0.0000E+00  0.4433E+02
     48.685  0.0000E+00  0.4475E+02
     49.227  0.0000E+00  0.4536E+02
     49.769  0.0000E+00  0.4560E+02
     50.311  0.0000E+00  0.4665E+02
     50.853  0.0000E+00  0.4721E+02
     51.395  0.0000E+00  0.4763E+02
     51.936  0.0000E+00  0.4827E+02
     52.478  0.0000E+00  0.4871E+02
     53.020  0.0000E+00  0.4924E+02
     53.562  0.0000E+00  0.5012E+02
     54.104  0.0000E+00  0.5081E+02
     54.646  0.0000E+00  0.5201E+02
     55.188  0.0000E+00  0.5273E+02
     55.730  0.0000E+00  0.5310E+02
     56.272  0.0000E+00  0.5390E+02
     56.814  0.0000E+00  0.5434E+02
     57.356  0.0000E+00  0.5483E+02
     57.898  0.0000E+00  0.5595E+02
     58.439  0.0000E+00  0.5626E+02
     58.981  0.1387E+00  0.5738E+02
     59.523  0.0000E+00  0.5824E+02
     60.065  0.0000E+00  0.5852E+02
     60.607  0.0000E+00  0.5957E+02
     61.149  0.2582E+00  0.6020E+02
     61.691  0.0000E+00  0.6051E+02
     62.233  0.0000E+00  0.6121E+02
     62.775  0.0000E+00  0.6185E+02
     63.317  0.0000E+00  0.6260E+02
     63.859  0.2582E+00  0.6338E+02
     64.400  0.0000E+00  0.6394E+02
     64.942  0.0000E+00  0.6454E+02
     65.484  0.0000E+00  0.6533E+02
     66.026  0.0000E+00  0.6596E+02
     66.568  0.0000E+00  0.6637E+02
     67.110  0.0000E+00  0.6696E+02
     67.652  0.0000E+00  0.6767E+02
     68.194  0.0000E+00  0.6854E+02
     68.736  0.0000E+00  0.6914E+02
     69.278  0.0000E+00  0.6962E+02
     69.820  0.0000E+00  0.7049E+02
     70.361  0.0000E+00  0.7129E+02
     70.903  0.2578E-01  0.7193E+02
     71.445  0.0000E+00  0.7241E+02
     71.987  0.0000E+00  0.7322E+02
     72.529  0.0000E+00  0.7408E+02
     73.071  0.0000E+00  0.7510E+02
     73.613  0.0000E+00  0.7582E+02
     74.155  0.0000E+00  0.7690E+02
     74.697  0.0000E+00  0.7754E+02
     75.239  0.0000E+00  0.7812E+02
     75.781  0.0000E+00  0.7937E+02
     76.323  0.0000E+00  0.8005E+02
     76.864  0.0000E+00  0.8089E+02
     77.406  0.0000E+00  0.8109E+02
     77.948  0.0000E+00  0.8155E+02
     78.490  0.0000E+00  0.8215E+02
     79.032  0.0000E+00  0.8266E+02
     79.574  0.0000E+00  0.8336E+02
     80.116  0.2389E-16  0.8387E+02
     80.658  0.0000E+00  0.8502E+02
     81.200  0.0000E+00  0.8655E+02
     81.742  0.0000E+00  0.8776E+02
     82.284  0.0000E+00  0.8818E+02
     82.825  0.0000E+00  0.8888E+02
     83.367  0.0000E+00  0.8949E+02
     83.909  0.0000E+00  0.9026E+02
     84.451  0.0000E+00  0.9075E+02
     84.993  0.0000E+00  0.9171E+02
     85.535  0.0000E+00  0.9234E+02
     86.077  0.0000E+00  0.9324E+02
     86.619  0.0000E+00  0.9471E+02
     87.161  0.0000E+00  0.9524E+02
     87.703  0.8674E-02  0.9601E+02
     88.245  0.0000E+00  0.9702E+02
     88.787  0.2582E+00  0.9772E+02
     89.328  0.0000E+00  0.9849E+02
     89.870  0.0000E+00  0.9911E+02
     90.412  0.0000E+00  0.1002E+03
     90.954  0.0000E+00  0.1006E+03
     91.496  0.0000E+00  0.1009E+03
     92.038  0.0000E+00  0.1017E+03
     92.580  0.0000E+00  0.1026E+03
     93.122  0.0000E+00  0.1040E+03
     93.664  0.0000E+00  0.1054E+03
     94.206  0.0000E+00  0.1063E+03
     94.748  0.0000E+00  0.1069E+03
     95.289  0.0000E+00  0.1081E+03
     95.831  0.0000E+00  0.1086E+03
     96.373  0.0000E+00  0.1094E+03
     96.915  0.0000E+00  0.1100E+03
     97.457  0.0000E+00  0.1109E+03
     97.999  0.0000E+00  0.1114E+03
     98.541  0.0000E+00  0.1118E+03
     99.083  0.0000E+00  0.1127E+03
     99.625  0.0000E+00  0.1137E+03
    100.167  0.0000E+00  0.1152E+03
    100.709  0.0000E+00  0.1157E+03
    101.251  0.1291E+00  0.1161E+03
    101.792  0.0000E+00  0.1170E+03
    102.334  0.0000E+00  0.1179E+03
    102.876  0.0000E+00  0.1191E+03
    103.418  0.0000E+00  0.1197E+03
    103.960  0.0000E+00  0.1212E+03
    104.502  0.0000E+00  0.1219E+03
    105.044  0.0000E+00  0.1235E+03
    105.586  0.0000E+00  0.1239E+03
    106.128  0.0000E+00  0.1246E+03
    106.670  0.1331E-04  0.1251E+03
    107.212  0.0000E+00  0.1256E+03
    107.753  0.0000E+00  0.1264E+03
    108.295  0.0000E+00  0.1273E+03
    108.837  0.0000E+00  0.1277E+03
    109.379  0.0000E+00  0.1280E+03
    109.921  0.0000E+00  0.1280E+03
    110.463  0.0000E+00  0.1280E+03
    111.005  0.0000E+00  0.1280E+03
    111.547  0.0000E+00  0.1280E+03
    112.089  0.0000E+00  0.1280E+03
    112.631  0.0000E+00  0.1280E+03
    113.173  0.0000E+00  0.1280E+03
    113.715  0.0000E+00  0.1280E+03
    114.256  0.0000E+00  0.1280E+03
    114.798  0.0000E+00  0.1280E+03
    115.340  0.0000E+00  0.1280E+03
    115.882  0.0000E+00  0.1280E+03
    116.424  0.0000E+00  0.1280E+03
    116.966  0.0000E+00  0.1280E+03
    117.508  0.0000E+00  0.1280E+03
    118.050  0.0000E+00  0.1280E+03
    118.592  0.0000E+00  0.1280E+03
    119.134  0.0000E+00  0.1280E+03
    119.676  0.0000E+00  0.1280E+03
