    1    1    1    1
  0.2224118E+02  0.3156634E-09  0.3156634E-09  0.3156634E-09  0.1000000E-15
  1.000000000000000E-004
  CAR 
 Og_FCC                                  
      8    343    128
 
  0.0000000E+00  0.0000000E+00  0.0000000E+00  0.2915452E-02
    1      -35.502023   1.000000
    2      -35.502023   1.000000
    3      -11.209822   1.000000
    4      -11.209822   1.000000
    5      -11.115068   1.000000
    6      -11.115068   1.000000
    7      -11.115067   1.000000
    8      -11.115067   1.000000
    9        0.388563   0.000000
   10        0.388563   0.000000
   11       18.451476   0.000000
   12       18.451476   0.000000
   13       18.451515   0.000000
   14       18.451515   0.000000
   15       18.451681   0.000000
   16       18.451681   0.000000
   17       20.333772   0.000000
   18       20.333772   0.000000
   19       22.931175   0.000000
   20       22.931175   0.000000
   21       22.941615   0.000000
   22       22.941615   0.000000
   23       22.941706   0.000000
   24       22.941706   0.000000
   25       24.756919   0.000000
   26       24.756919   0.000000
   27       24.756957   0.000000
   28       24.756957   0.000000
   29       25.627753   0.000000
   30       25.627753   0.000000
   31       31.379593   0.000000
   32       31.379593   0.000000
   33       31.407831   0.000000
   34       31.407831   0.000000
   35       31.407883   0.000000
   36       31.407883   0.000000
   37       43.672036   0.000000
   38       43.672036   0.000000
   39       52.405092   0.000000
   40       52.405092   0.000000
   41       52.405150   0.000000
   42       52.405150   0.000000
   43       52.406329   0.000000
   44       52.406329   0.000000
   45       54.349825   0.000000
   46       54.349825   0.000000
   47       54.349881   0.000000
   48       54.349881   0.000000
   49       55.371158   0.000000
   50       55.371158   0.000000
   51       55.371343   0.000000
   52       55.371343   0.000000
   53       55.371345   0.000000
   54       55.371345   0.000000
   55       62.382956   0.000000
   56       62.382956   0.000000
   57       62.398631   0.000000
   58       62.398631   0.000000
   59       62.398825   0.000000
   60       62.398825   0.000000
   61       69.255431   0.000000
   62       69.255431   0.000000
   63       71.184830   0.000000
   64       71.184830   0.000000
   65       71.184862   0.000000
   66       71.184862   0.000000
   67       73.876109   0.000000
   68       73.876109   0.000000
   69       73.876266   0.000000
   70       73.876266   0.000000
   71       73.877781   0.000000
   72       73.877781   0.000000
   73       76.952984   0.000000
   74       76.952984   0.000000
   75       76.953167   0.000000
   76       76.953167   0.000000
   77       76.953263   0.000000
   78       76.953263   0.000000
   79       77.981544   0.000000
   80       77.981544   0.000000
   81       78.341036   0.000000
   82       78.341036   0.000000
   83       78.341154   0.000000
   84       78.341154   0.000000
   85       78.341233   0.000000
   86       78.341233   0.000000
   87       78.368310   0.000000
   88       78.368310   0.000000
   89       78.368586   0.000000
   90       78.368586   0.000000
   91       78.368645   0.000000
   92       78.368645   0.000000
   93       79.921992   0.000000
   94       79.921992   0.000000
   95       79.922080   0.000000
   96       79.922080   0.000000
   97       79.922128   0.000000
   98       79.922128   0.000000
   99       80.309878   0.000000
  100       80.309878   0.000000
  101       80.309921   0.000000
  102       80.309921   0.000000
  103       85.148965   0.000000
  104       85.148965   0.000000
  105       85.152923   0.000000
  106       85.152923   0.000000
  107       85.153237   0.000000
  108       85.153237   0.000000
  109       85.788174   0.000000
  110       85.788174   0.000000
  111       85.788320   0.000000
  112       85.788320   0.000000
  113       85.788558   0.000000
  114       85.788558   0.000000
  115       85.981717   0.000000
  116       85.981717   0.000000
  117       86.142621   0.000000
  118       86.142621   0.000000
  119       96.698367   0.000000
  120       96.698367   0.000000
  121       96.750484   0.000000
  122       96.750484   0.000000
  123       96.750599   0.000000
  124       96.750599   0.000000
  125      112.134055   0.000000
  126      112.134055   0.000000
  127      112.134084   0.000000
  128      112.134084   0.000000
 
  0.1428571E+00 -0.1387779E-16 -0.1387779E-16  0.2915452E-02
    1      -35.508505   1.000000
    2      -35.508505   1.000000
    3      -11.525846   1.000000
    4      -11.525846   1.000000
    5      -11.416609   1.000000
    6      -11.416609   1.000000
    7      -11.375907   1.000000
    8      -11.375907   1.000000
    9        0.953825   0.000000
   10        0.953825   0.000000
   11       15.036376   0.000000
   12       15.036376   0.000000
   13       18.274748   0.000000
   14       18.274748   0.000000
   15       18.276132   0.000000
   16       18.276132   0.000000
   17       20.714664   0.000000
   18       20.714664   0.000000
   19       22.125406   0.000000
   20       22.125406   0.000000
   21       22.125652   0.000000
   22       22.125652   0.000000
   23       24.155378   0.000000
   24       24.155378   0.000000
   25       25.716773   0.000000
   26       25.716773   0.000000
   27       25.729201   0.000000
   28       25.729201   0.000000
   29       28.191967   0.000000
   30       28.191967   0.000000
   31       31.286625   0.000000
   32       31.286625   0.000000
   33       32.738286   0.000000
   34       32.738286   0.000000
   35       32.749727   0.000000
   36       32.749727   0.000000
   37       44.683335   0.000000
   38       44.683335   0.000000
   39       47.240560   0.000000
   40       47.240560   0.000000
   41       47.242215   0.000000
   42       47.242215   0.000000
   43       51.439954   0.000000
   44       51.439954   0.000000
   45       53.778815   0.000000
   46       53.778815   0.000000
   47       53.780089   0.000000
   48       53.780089   0.000000
   49       55.809466   0.000000
   50       55.809466   0.000000
   51       60.490017   0.000000
   52       60.490017   0.000000
   53       60.519414   0.000000
   54       60.519414   0.000000
   55       60.525315   0.000000
   56       60.525315   0.000000
   57       62.955929   0.000000
   58       62.955929   0.000000
   59       62.957138   0.000000
   60       62.957138   0.000000
   61       67.923909   0.000000
   62       67.923909   0.000000
   63       67.925985   0.000000
   64       67.925985   0.000000
   65       68.633391   0.000000
   66       68.633391   0.000000
   67       70.802199   0.000000
   68       70.802199   0.000000
   69       70.802787   0.000000
   70       70.802787   0.000000
   71       72.397053   0.000000
   72       72.397053   0.000000
   73       72.502098   0.000000
   74       72.502098   0.000000
   75       73.147356   0.000000
   76       73.147356   0.000000
   77       73.150532   0.000000
   78       73.150532   0.000000
   79       74.138663   0.000000
   80       74.138663   0.000000
   81       75.874029   0.000000
   82       75.874029   0.000000
   83       75.874568   0.000000
   84       75.874568   0.000000
   85       76.198114   0.000000
   86       76.198114   0.000000
   87       79.002026   0.000000
   88       79.002026   0.000000
   89       81.009524   0.000000
   90       81.009524   0.000000
   91       81.009965   0.000000
   92       81.009965   0.000000
   93       82.633488   0.000000
   94       82.633488   0.000000
   95       82.634465   0.000000
   96       82.634465   0.000000
   97       83.264214   0.000000
   98       83.264214   0.000000
   99       84.484013   0.000000
  100       84.484013   0.000000
  101       84.484176   0.000000
  102       84.484176   0.000000
  103       85.255149   0.000000
  104       85.255149   0.000000
  105       86.092836   0.000000
  106       86.092836   0.000000
  107       89.687079   0.000000
  108       89.687079   0.000000
  109       89.687117   0.000000
  110       89.687117   0.000000
  111       90.146502   0.000000
  112       90.146502   0.000000
  113       90.150123   0.000000
  114       90.150123   0.000000
  115       90.696668   0.000000
  116       90.696668   0.000000
  117       94.466307   0.000000
  118       94.466307   0.000000
  119       95.656849   0.000000
  120       95.656849   0.000000
  121       95.682350   0.000000
  122       95.682350   0.000000
  123       99.423253   0.000000
  124       99.423253   0.000000
  125      108.381160   0.000000
  126      108.381160   0.000000
  127      108.389021   0.000000
  128      108.389021   0.000000
 
  0.2857143E+00 -0.2775558E-16 -0.1387779E-16  0.2915452E-02
    1      -35.473337   1.000000
    2      -35.473337   1.000000
    3      -11.681312   1.000000
    4      -11.681312   1.000000
    5      -11.439026   1.000000
    6      -11.439026   1.000000
    7      -11.382567   1.000000
    8      -11.382567   1.000000
    9        2.556707   0.000000
   10        2.556707   0.000000
   11       11.185341   0.000000
   12       11.185341   0.000000
   13       17.690782   0.000000
   14       17.690782   0.000000
   15       17.692072   0.000000
   16       17.692072   0.000000
   17       19.500491   0.000000
   18       19.500491   0.000000
   19       21.728906   0.000000
   20       21.728906   0.000000
   21       21.734036   0.000000
   22       21.734036   0.000000
   23       25.592434   0.000000
   24       25.592434   0.000000
   25       27.342184   0.000000
   26       27.342184   0.000000
   27       27.355391   0.000000
   28       27.355391   0.000000
   29       30.366412   0.000000
   30       30.366412   0.000000
   31       36.142791   0.000000
   32       36.142791   0.000000
   33       36.205176   0.000000
   34       36.205176   0.000000
   35       36.206884   0.000000
   36       36.206884   0.000000
   37       41.764418   0.000000
   38       41.764418   0.000000
   39       41.770595   0.000000
   40       41.770595   0.000000
   41       45.715251   0.000000
   42       45.715251   0.000000
   43       49.038111   0.000000
   44       49.038111   0.000000
   45       54.703446   0.000000
   46       54.703446   0.000000
   47       54.704915   0.000000
   48       54.704915   0.000000
   49       57.097031   0.000000
   50       57.097031   0.000000
   51       57.202638   0.000000
   52       57.202638   0.000000
   53       57.203013   0.000000
   54       57.203013   0.000000
   55       58.767594   0.000000
   56       58.767594   0.000000
   57       62.611568   0.000000
   58       62.611568   0.000000
   59       62.616613   0.000000
   60       62.616613   0.000000
   61       62.694512   0.000000
   62       62.694512   0.000000
   63       65.210901   0.000000
   64       65.210901   0.000000
   65       66.251618   0.000000
   66       66.251618   0.000000
   67       66.252126   0.000000
   68       66.252126   0.000000
   69       67.428424   0.000000
   70       67.428424   0.000000
   71       68.850609   0.000000
   72       68.850609   0.000000
   73       68.856510   0.000000
   74       68.856510   0.000000
   75       74.464952   0.000000
   76       74.464952   0.000000
   77       74.466167   0.000000
   78       74.466167   0.000000
   79       74.806507   0.000000
   80       74.806507   0.000000
   81       75.263500   0.000000
   82       75.263500   0.000000
   83       75.263960   0.000000
   84       75.263960   0.000000
   85       77.340654   0.000000
   86       77.340654   0.000000
   87       78.993952   0.000000
   88       78.993952   0.000000
   89       81.441377   0.000000
   90       81.441377   0.000000
   91       81.444457   0.000000
   92       81.444457   0.000000
   93       85.174790   0.000000
   94       85.174790   0.000000
   95       86.348570   0.000000
   96       86.348570   0.000000
   97       86.354683   0.000000
   98       86.354683   0.000000
   99       91.597867   0.000000
  100       91.597867   0.000000
  101       91.815878   0.000000
  102       91.815878   0.000000
  103       91.816261   0.000000
  104       91.816261   0.000000
  105       92.738694   0.000000
  106       92.738694   0.000000
  107       92.748593   0.000000
  108       92.748593   0.000000
  109       93.087482   0.000000
  110       93.087482   0.000000
  111       96.237253   0.000000
  112       96.237253   0.000000
  113       97.077778   0.000000
  114       97.077778   0.000000
  115       97.077927   0.000000
  116       97.077927   0.000000
  117       98.220145   0.000000
  118       98.220145   0.000000
  119      100.993978   0.000000
  120      100.993978   0.000000
  121      101.193866   0.000000
  122      101.193866   0.000000
  123      101.194901   0.000000
  124      101.194901   0.000000
  125      103.054325   0.000000
  126      103.054325   0.000000
  127      103.060595   0.000000
  128      103.060595   0.000000
 
  0.4285714E+00  0.0000000E+00  0.2775558E-16  0.2915452E-02
    1      -35.454769   1.000000
    2      -35.454769   1.000000
    3      -11.804712   1.000000
    4      -11.804712   1.000000
    5      -11.574304   1.000000
    6      -11.574304   1.000000
    7      -11.517227   1.000000
    8      -11.517227   1.000000
    9        4.914160   0.000000
   10        4.914160   0.000000
   11        7.787878   0.000000
   12        7.787878   0.000000
   13       17.155134   0.000000
   14       17.155134   0.000000
   15       17.155186   0.000000
   16       17.155186   0.000000
   17       19.080937   0.000000
   18       19.080937   0.000000
   19       21.787433   0.000000
   20       21.787433   0.000000
   21       21.800922   0.000000
   22       21.800922   0.000000
   23       24.442353   0.000000
   24       24.442353   0.000000
   25       29.246813   0.000000
   26       29.246813   0.000000
   27       29.250254   0.000000
   28       29.250254   0.000000
   29       34.780617   0.000000
   30       34.780617   0.000000
   31       35.895111   0.000000
   32       35.895111   0.000000
   33       35.902158   0.000000
   34       35.902158   0.000000
   35       41.568293   0.000000
   36       41.568293   0.000000
   37       42.977524   0.000000
   38       42.977524   0.000000
   39       42.980300   0.000000
   40       42.980300   0.000000
   41       43.698295   0.000000
   42       43.698295   0.000000
   43       50.147368   0.000000
   44       50.147368   0.000000
   45       50.148956   0.000000
   46       50.148956   0.000000
   47       50.182968   0.000000
   48       50.182968   0.000000
   49       53.187581   0.000000
   50       53.187581   0.000000
   51       56.181531   0.000000
   52       56.181531   0.000000
   53       56.291864   0.000000
   54       56.291864   0.000000
   55       56.293533   0.000000
   56       56.293533   0.000000
   57       58.963830   0.000000
   58       58.963830   0.000000
   59       61.666372   0.000000
   60       61.666372   0.000000
   61       61.667333   0.000000
   62       61.667333   0.000000
   63       63.180512   0.000000
   64       63.180512   0.000000
   65       63.180762   0.000000
   66       63.180762   0.000000
   67       63.716110   0.000000
   68       63.716110   0.000000
   69       65.323342   0.000000
   70       65.323342   0.000000
   71       69.239527   0.000000
   72       69.239527   0.000000
   73       69.252677   0.000000
   74       69.252677   0.000000
   75       74.645994   0.000000
   76       74.645994   0.000000
   77       74.646748   0.000000
   78       74.646748   0.000000
   79       74.726878   0.000000
   80       74.726878   0.000000
   81       75.851603   0.000000
   82       75.851603   0.000000
   83       80.134633   0.000000
   84       80.134633   0.000000
   85       80.140346   0.000000
   86       80.140346   0.000000
   87       82.323740   0.000000
   88       82.323740   0.000000
   89       85.078876   0.000000
   90       85.078876   0.000000
   91       85.084600   0.000000
   92       85.084600   0.000000
   93       87.703605   0.000000
   94       87.703605   0.000000
   95       87.705531   0.000000
   96       87.705531   0.000000
   97       87.721376   0.000000
   98       87.721376   0.000000
   99       93.603420   0.000000
  100       93.603420   0.000000
  101       94.667974   0.000000
  102       94.667974   0.000000
  103       94.671175   0.000000
  104       94.671175   0.000000
  105       94.772429   0.000000
  106       94.772429   0.000000
  107       94.772506   0.000000
  108       94.772506   0.000000
  109       95.789745   0.000000
  110       95.789745   0.000000
  111      100.195926   0.000000
  112      100.195926   0.000000
  113      100.196030   0.000000
  114      100.196030   0.000000
  115      101.846357   0.000000
  116      101.846357   0.000000
  117      102.391459   0.000000
  118      102.391459   0.000000
  119      102.397183   0.000000
  120      102.397183   0.000000
  121      103.182927   0.000000
  122      103.182927   0.000000
  123      104.386955   0.000000
  124      104.386955   0.000000
  125      104.387020   0.000000
  126      104.387020   0.000000
  127      104.585888   0.000000
  128      104.585888   0.000000
 
 -0.4285714E+00  0.0000000E+00 -0.2775558E-16  0.2915452E-02
    1      -35.454769   1.000000
    2      -35.454769   1.000000
    3      -11.804712   1.000000
    4      -11.804712   1.000000
    5      -11.574304   1.000000
    6      -11.574304   1.000000
    7      -11.517227   1.000000
    8      -11.517227   1.000000
    9        4.914160   0.000000
   10        4.914160   0.000000
   11        7.787878   0.000000
   12        7.787878   0.000000
   13       17.155134   0.000000
   14       17.155134   0.000000
   15       17.155186   0.000000
   16       17.155186   0.000000
   17       19.080937   0.000000
   18       19.080937   0.000000
   19       21.787433   0.000000
   20       21.787433   0.000000
   21       21.800922   0.000000
   22       21.800922   0.000000
   23       24.442353   0.000000
   24       24.442353   0.000000
   25       29.246813   0.000000
   26       29.246813   0.000000
   27       29.250254   0.000000
   28       29.250254   0.000000
   29       34.780617   0.000000
   30       34.780617   0.000000
   31       35.895111   0.000000
   32       35.895111   0.000000
   33       35.902158   0.000000
   34       35.902158   0.000000
   35       41.568293   0.000000
   36       41.568293   0.000000
   37       42.977524   0.000000
   38       42.977524   0.000000
   39       42.980300   0.000000
   40       42.980300   0.000000
   41       43.698295   0.000000
   42       43.698295   0.000000
   43       50.147368   0.000000
   44       50.147368   0.000000
   45       50.148956   0.000000
   46       50.148956   0.000000
   47       50.182968   0.000000
   48       50.182968   0.000000
   49       53.187581   0.000000
   50       53.187581   0.000000
   51       56.181531   0.000000
   52       56.181531   0.000000
   53       56.291864   0.000000
   54       56.291864   0.000000
   55       56.293533   0.000000
   56       56.293533   0.000000
   57       58.963830   0.000000
   58       58.963830   0.000000
   59       61.666372   0.000000
   60       61.666372   0.000000
   61       61.667333   0.000000
   62       61.667333   0.000000
   63       63.180512   0.000000
   64       63.180512   0.000000
   65       63.180762   0.000000
   66       63.180762   0.000000
   67       63.716110   0.000000
   68       63.716110   0.000000
   69       65.323342   0.000000
   70       65.323342   0.000000
   71       69.239527   0.000000
   72       69.239527   0.000000
   73       69.252677   0.000000
   74       69.252677   0.000000
   75       74.645994   0.000000
   76       74.645994   0.000000
   77       74.646748   0.000000
   78       74.646748   0.000000
   79       74.726878   0.000000
   80       74.726878   0.000000
   81       75.851603   0.000000
   82       75.851603   0.000000
   83       80.134633   0.000000
   84       80.134633   0.000000
   85       80.140346   0.000000
   86       80.140346   0.000000
   87       82.323740   0.000000
   88       82.323740   0.000000
   89       85.078876   0.000000
   90       85.078876   0.000000
   91       85.084600   0.000000
   92       85.084600   0.000000
   93       87.703605   0.000000
   94       87.703605   0.000000
   95       87.705531   0.000000
   96       87.705531   0.000000
   97       87.721376   0.000000
   98       87.721376   0.000000
   99       93.603420   0.000000
  100       93.603420   0.000000
  101       94.667974   0.000000
  102       94.667974   0.000000
  103       94.671175   0.000000
  104       94.671175   0.000000
  105       94.772429   0.000000
  106       94.772429   0.000000
  107       94.772506   0.000000
  108       94.772506   0.000000
  109       95.789745   0.000000
  110       95.789745   0.000000
  111      100.195926   0.000000
  112      100.195926   0.000000
  113      100.196030   0.000000
  114      100.196030   0.000000
  115      101.846357   0.000000
  116      101.846357   0.000000
  117      102.391459   0.000000
  118      102.391459   0.000000
  119      102.397183   0.000000
  120      102.397183   0.000000
  121      103.182927   0.000000
  122      103.182927   0.000000
  123      104.386955   0.000000
  124      104.386955   0.000000
  125      104.387020   0.000000
  126      104.387020   0.000000
  127      104.585888   0.000000
  128      104.585888   0.000000
 
 -0.2857143E+00  0.2775558E-16  0.1387779E-16  0.2915452E-02
    1      -35.473337   1.000000
    2      -35.473337   1.000000
    3      -11.681312   1.000000
    4      -11.681312   1.000000
    5      -11.439026   1.000000
    6      -11.439026   1.000000
    7      -11.382567   1.000000
    8      -11.382567   1.000000
    9        2.556707   0.000000
   10        2.556707   0.000000
   11       11.185341   0.000000
   12       11.185341   0.000000
   13       17.690782   0.000000
   14       17.690782   0.000000
   15       17.692072   0.000000
   16       17.692072   0.000000
   17       19.500491   0.000000
   18       19.500491   0.000000
   19       21.728906   0.000000
   20       21.728906   0.000000
   21       21.734036   0.000000
   22       21.734036   0.000000
   23       25.592434   0.000000
   24       25.592434   0.000000
   25       27.342184   0.000000
   26       27.342184   0.000000
   27       27.355391   0.000000
   28       27.355391   0.000000
   29       30.366412   0.000000
   30       30.366412   0.000000
   31       36.142791   0.000000
   32       36.142791   0.000000
   33       36.205176   0.000000
   34       36.205176   0.000000
   35       36.206884   0.000000
   36       36.206884   0.000000
   37       41.764418   0.000000
   38       41.764418   0.000000
   39       41.770595   0.000000
   40       41.770595   0.000000
   41       45.715251   0.000000
   42       45.715251   0.000000
   43       49.038111   0.000000
   44       49.038111   0.000000
   45       54.703446   0.000000
   46       54.703446   0.000000
   47       54.704915   0.000000
   48       54.704915   0.000000
   49       57.097031   0.000000
   50       57.097031   0.000000
   51       57.202638   0.000000
   52       57.202638   0.000000
   53       57.203013   0.000000
   54       57.203013   0.000000
   55       58.767594   0.000000
   56       58.767594   0.000000
   57       62.611568   0.000000
   58       62.611568   0.000000
   59       62.616613   0.000000
   60       62.616613   0.000000
   61       62.694512   0.000000
   62       62.694512   0.000000
   63       65.210901   0.000000
   64       65.210901   0.000000
   65       66.251618   0.000000
   66       66.251618   0.000000
   67       66.252126   0.000000
   68       66.252126   0.000000
   69       67.428424   0.000000
   70       67.428424   0.000000
   71       68.850609   0.000000
   72       68.850609   0.000000
   73       68.856510   0.000000
   74       68.856510   0.000000
   75       74.464952   0.000000
   76       74.464952   0.000000
   77       74.466167   0.000000
   78       74.466167   0.000000
   79       74.806507   0.000000
   80       74.806507   0.000000
   81       75.263500   0.000000
   82       75.263500   0.000000
   83       75.263960   0.000000
   84       75.263960   0.000000
   85       77.340654   0.000000
   86       77.340654   0.000000
   87       78.993952   0.000000
   88       78.993952   0.000000
   89       81.441377   0.000000
   90       81.441377   0.000000
   91       81.444457   0.000000
   92       81.444457   0.000000
   93       85.174790   0.000000
   94       85.174790   0.000000
   95       86.348570   0.000000
   96       86.348570   0.000000
   97       86.354683   0.000000
   98       86.354683   0.000000
   99       91.597867   0.000000
  100       91.597867   0.000000
  101       91.815878   0.000000
  102       91.815878   0.000000
  103       91.816261   0.000000
  104       91.816261   0.000000
  105       92.738694   0.000000
  106       92.738694   0.000000
  107       92.748593   0.000000
  108       92.748593   0.000000
  109       93.087482   0.000000
  110       93.087482   0.000000
  111       96.237253   0.000000
  112       96.237253   0.000000
  113       97.077778   0.000000
  114       97.077778   0.000000
  115       97.077927   0.000000
  116       97.077927   0.000000
  117       98.220145   0.000000
  118       98.220145   0.000000
  119      100.993978   0.000000
  120      100.993978   0.000000
  121      101.193866   0.000000
  122      101.193866   0.000000
  123      101.194901   0.000000
  124      101.194901   0.000000
  125      103.054325   0.000000
  126      103.054325   0.000000
  127      103.060595   0.000000
  128      103.060595   0.000000
 
 -0.1428571E+00 -0.1387779E-16  0.0000000E+00  0.2915452E-02
    1      -35.508505   1.000000
    2      -35.508505   1.000000
    3      -11.525846   1.000000
    4      -11.525846   1.000000
    5      -11.416609   1.000000
    6      -11.416609   1.000000
    7      -11.375907   1.000000
    8      -11.375907   1.000000
    9        0.953825   0.000000
   10        0.953825   0.000000
   11       15.036376   0.000000
   12       15.036376   0.000000
   13       18.274748   0.000000
   14       18.274748   0.000000
   15       18.276132   0.000000
   16       18.276132   0.000000
   17       20.714664   0.000000
   18       20.714664   0.000000
   19       22.125406   0.000000
   20       22.125406   0.000000
   21       22.125652   0.000000
   22       22.125652   0.000000
   23       24.155378   0.000000
   24       24.155378   0.000000
   25       25.716773   0.000000
   26       25.716773   0.000000
   27       25.729201   0.000000
   28       25.729201   0.000000
   29       28.191967   0.000000
   30       28.191967   0.000000
   31       31.286625   0.000000
   32       31.286625   0.000000
   33       32.738286   0.000000
   34       32.738286   0.000000
   35       32.749727   0.000000
   36       32.749727   0.000000
   37       44.683335   0.000000
   38       44.683335   0.000000
   39       47.240560   0.000000
   40       47.240560   0.000000
   41       47.242215   0.000000
   42       47.242215   0.000000
   43       51.439954   0.000000
   44       51.439954   0.000000
   45       53.778815   0.000000
   46       53.778815   0.000000
   47       53.780089   0.000000
   48       53.780089   0.000000
   49       55.809466   0.000000
   50       55.809466   0.000000
   51       60.490017   0.000000
   52       60.490017   0.000000
   53       60.519414   0.000000
   54       60.519414   0.000000
   55       60.525315   0.000000
   56       60.525315   0.000000
   57       62.955929   0.000000
   58       62.955929   0.000000
   59       62.957138   0.000000
   60       62.957138   0.000000
   61       67.923909   0.000000
   62       67.923909   0.000000
   63       67.925985   0.000000
   64       67.925985   0.000000
   65       68.633391   0.000000
   66       68.633391   0.000000
   67       70.802199   0.000000
   68       70.802199   0.000000
   69       70.802787   0.000000
   70       70.802787   0.000000
   71       72.397053   0.000000
   72       72.397053   0.000000
   73       72.502098   0.000000
   74       72.502098   0.000000
   75       73.147356   0.000000
   76       73.147356   0.000000
   77       73.150532   0.000000
   78       73.150532   0.000000
   79       74.138663   0.000000
   80       74.138663   0.000000
   81       75.874029   0.000000
   82       75.874029   0.000000
   83       75.874568   0.000000
   84       75.874568   0.000000
   85       76.198114   0.000000
   86       76.198114   0.000000
   87       79.002026   0.000000
   88       79.002026   0.000000
   89       81.009524   0.000000
   90       81.009524   0.000000
   91       81.009965   0.000000
   92       81.009965   0.000000
   93       82.633488   0.000000
   94       82.633488   0.000000
   95       82.634465   0.000000
   96       82.634465   0.000000
   97       83.264214   0.000000
   98       83.264214   0.000000
   99       84.484013   0.000000
  100       84.484013   0.000000
  101       84.484176   0.000000
  102       84.484176   0.000000
  103       85.255149   0.000000
  104       85.255149   0.000000
  105       86.092836   0.000000
  106       86.092836   0.000000
  107       89.687079   0.000000
  108       89.687079   0.000000
  109       89.687117   0.000000
  110       89.687117   0.000000
  111       90.146502   0.000000
  112       90.146502   0.000000
  113       90.150123   0.000000
  114       90.150123   0.000000
  115       90.696668   0.000000
  116       90.696668   0.000000
  117       94.466307   0.000000
  118       94.466307   0.000000
  119       95.656849   0.000000
  120       95.656849   0.000000
  121       95.682350   0.000000