 vasp.5.4.4.18Apr17-6-g9f103f2a35 (build Nov 03 2018 10:20:46) complex          
  
 executed on             LinuxIFC date 2018.12.06  15:34:06
 running on   32 total cores
 distrk:  each k-point on    8 cores,    4 groups
 distr:  one band on NCORES_PER_BAND=   4 cores,    2 groups


--------------------------------------------------------------------------------------------------------


 INCAR:
 POTCAR:    PAW_PBE Ne_GW 22Sep2014               

 ----------------------------------------------------------------------------- 
|                                                                             |
|           W    W    AA    RRRRR   N    N  II  N    N   GGGG   !!!           |
|           W    W   A  A   R    R  NN   N  II  NN   N  G    G  !!!           |
|           W    W  A    A  R    R  N N  N  II  N N  N  G       !!!           |
|           W WW W  AAAAAA  RRRRR   N  N N  II  N  N N  G  GGG   !            |
|           WW  WW  A    A  R   R   N   NN  II  N   NN  G    G                |
|           W    W  A    A  R    R  N    N  II  N    N   GGGG   !!!           |
|                                                                             |
|      You have enabled k-point parallelism (KPAR>1).                         |
|      This developmental code was originally  written by Paul Kent at ORNL,  |
|      and carefully double checked in Vienna.                                |
|      GW as well as linear response parallelism added by Martijn Marsman     |
|      and Georg Kresse.                                                      |
|      Carefully verify results versus KPAR=1.                                |
|      Report problems to Paul Kent and Vienna.                               |
|                                                                             |
 ----------------------------------------------------------------------------- 

 POTCAR:    PAW_PBE Ne_GW 22Sep2014               
   VRHFIN =Ne: s2p6                                                             
   LEXCH  = PE                                                                  
   EATOM  =   955.3367 eV,   70.2153 Ry                                         
                                                                                
   TITEL  = PAW_PBE Ne_GW 22Sep2014                                             
   LULTRA =        F    use ultrasoft PP ?                                      
   IUNSCR =        1    unscreen: 0-lin 1-nonlin 2-no                           
   RPACOR =    0.800    partial core radius                                     
   POMASS =   20.180; ZVAL   =    8.000    mass and valenz                      
   RCORE  =    1.600    outmost cutoff radius                                   
   RWIGS  =    1.600; RWIGS  =    0.847    wigner-seitz radius (au A)           
   ENMAX  =  432.275; ENMIN  =  324.206 eV                                      
   RCLOC  =    1.003    cutoff for local pot                                    
   LCOR   =        T    correct aug charges                                     
   LPAW   =        T    paw PP                                                  
   EAUG   =  755.753                                                            
   RMAX   =    1.638    core radius for proj-oper                               
   RAUG   =    1.300    factor for augmentation sphere                          
   RDEP   =    1.674    radius for radial grids                                 
   RDEPT  =    1.500    core radius for aug-charge                              
                                                                                
   Atomic configuration                                                         
    5 entries                                                                   
     n  l   j            E        occ.                                          
     1  0  0.50      -830.7932   2.0000                                         
     2  0  0.50       -36.4050   2.0000                                         
     2  1  0.50       -13.3338   6.0000                                         
     3  2  1.50       -13.6058   0.0000                                         
     4  3  2.50        -1.3606   0.0000                                         
   Description                                                                  
     l       E           TYP  RCUT    TYP  RCUT                                 
     0    -36.4049700     23  1.400                                             
     0    -40.8174780     23  1.400                                             
     0    258.5106940     23  1.400                                             
     1    -13.3337612     23  1.500                                             
     1     -9.5240782     23  1.500                                             
     1    190.4815640     23  1.500                                             
     2     40.8174780     23  1.500                                             
     2    190.4815640     23  1.600                                             
  local pseudopotential read in
  partial core-charges read in
  partial kinetic energy density read in
  kinetic energy density of atom read in
  atomic valenz-charges read in
  non local Contribution for L=           0  read in
    real space projection operators read in
  non local Contribution for L=           0  read in
    real space projection operators read in
  non local Contribution for L=           0  read in
    real space projection operators read in
  non local Contribution for L=           1  read in
    real space projection operators read in
  non local Contribution for L=           1  read in
    real space projection operators read in
  non local Contribution for L=           1  read in
    real space projection operators read in
  non local Contribution for L=           2  read in
    real space projection operators read in
  non local Contribution for L=           2  read in
    real space projection operators read in
    PAW grid and wavefunctions read in
 
   number of l-projection  operators is LMAX  =           8
   number of lm-projection operators is LMMAX =          22
 
  PAW_PBE Ne_GW 22Sep2014               :
 energy of atom  1       EATOM= -955.3367
 kinetic energy error for atom=    2.6586 (will be added to EATOM!!)
 
 
 POSCAR: Ne_FCC                                  
  positions in direct lattice
  velocities in cartesian coordinates
 exchange correlation table for  LEXCH =        8
   RHO(1)=    0.500       N(1)  =     2000
   RHO(2)=  100.500       N(2)  =     4000
 


--------------------------------------------------------------------------------------------------------


 ion  position               nearest neighbor table
   1  0.000  0.000  0.000-
 

IMPORTANT INFORMATION: All symmetrisations will be switched off!
NOSYMM: (Re-)initialisation of all symmetry stuff for point group C_1.

 
 
 KPOINTS: k-points                                

Automatic generation of k-mesh.
Space group operators:
 irot       det(A)        alpha          n_x          n_y          n_z        tau_x        tau_y        tau_z
    1     1.000000     0.000000     1.000000     0.000000     0.000000     0.000000     0.000000     0.000000
 
 Subroutine IBZKPT returns following result:
 ===========================================
 
 Found    343 irreducible k-points:
 
 Following reciprocal coordinates:
            Coordinates               Weight
  0.000000  0.000000  0.000000      1.000000
  0.142857 -0.000000 -0.000000      1.000000
  0.285714 -0.000000 -0.000000      1.000000
  0.428571  0.000000  0.000000      1.000000
 -0.428571  0.000000 -0.000000      1.000000
 -0.285714  0.000000  0.000000      1.000000
 -0.142857 -0.000000  0.000000      1.000000
  0.000000  0.142857  0.000000      1.000000
  0.142857  0.142857  0.000000      1.000000
  0.285714  0.142857  0.000000      1.000000
  0.428571  0.142857 -0.000000      1.000000
 -0.428571  0.142857  0.000000      1.000000
 -0.285714  0.142857  0.000000      1.000000
 -0.142857  0.142857 -0.000000      1.000000
  0.000000  0.285714  0.000000      1.000000
  0.142857  0.285714 -0.000000      1.000000
  0.285714  0.285714 -0.000000      1.000000
  0.428571  0.285714 -0.000000      1.000000
 -0.428571  0.285714  0.000000      1.000000
 -0.285714  0.285714  0.000000      1.000000
 -0.142857  0.285714 -0.000000      1.000000
  0.000000  0.428571  0.000000      1.000000
  0.142857  0.428571 -0.000000      1.000000
  0.285714  0.428571  0.000000      1.000000
  0.428571  0.428571  0.000000      1.000000
 -0.428571  0.428571  0.000000      1.000000
 -0.285714  0.428571 -0.000000      1.000000
 -0.142857  0.428571 -0.000000      1.000000
  0.000000 -0.428571  0.000000      1.000000
  0.142857 -0.428571  0.000000      1.000000
  0.285714 -0.428571  0.000000      1.000000
  0.428571 -0.428571 -0.000000      1.000000
 -0.428571 -0.428571  0.000000      1.000000
 -0.285714 -0.428571  0.000000      1.000000
 -0.142857 -0.428571  0.000000      1.000000
  0.000000 -0.285714  0.000000      1.000000
  0.142857 -0.285714  0.000000      1.000000
  0.285714 -0.285714 -0.000000      1.000000
  0.428571 -0.285714  0.000000      1.000000
 -0.428571 -0.285714  0.000000      1.000000
 -0.285714 -0.285714  0.000000      1.000000
 -0.142857 -0.285714  0.000000      1.000000
  0.000000 -0.142857  0.000000      1.000000
  0.142857 -0.142857 -0.000000      1.000000
  0.285714 -0.142857 -0.000000      1.000000
  0.428571 -0.142857 -0.000000      1.000000
 -0.428571 -0.142857 -0.000000      1.000000
 -0.285714 -0.142857  0.000000      1.000000
 -0.142857 -0.142857  0.000000      1.000000
  0.000000  0.000000  0.142857      1.000000
  0.142857 -0.000000  0.142857      1.000000
  0.285714 -0.000000  0.142857      1.000000
  0.428571  0.000000  0.142857      1.000000
 -0.428571  0.000000  0.142857      1.000000
 -0.285714  0.000000  0.142857      1.000000
 -0.142857 -0.000000  0.142857      1.000000
  0.000000  0.142857  0.142857      1.000000
  0.142857  0.142857  0.142857      1.000000
  0.285714  0.142857  0.142857      1.000000
  0.428571  0.142857  0.142857      1.000000
 -0.428571  0.142857  0.142857      1.000000
 -0.285714  0.142857  0.142857      1.000000
 -0.142857  0.142857  0.142857      1.000000
  0.000000  0.285714  0.142857      1.000000
  0.142857  0.285714  0.142857      1.000000
  0.285714  0.285714  0.142857      1.000000
  0.428571  0.285714  0.142857      1.000000
 -0.428571  0.285714  0.142857      1.000000
 -0.285714  0.285714  0.142857      1.000000
 -0.142857  0.285714  0.142857      1.000000
  0.000000  0.428571  0.142857      1.000000
  0.142857  0.428571  0.142857      1.000000
  0.285714  0.428571  0.142857      1.000000
  0.428571  0.428571  0.142857      1.000000
 -0.428571  0.428571  0.142857      1.000000
 -0.285714  0.428571  0.142857      1.000000
 -0.142857  0.428571  0.142857      1.000000
  0.000000 -0.428571  0.142857      1.000000
  0.142857 -0.428571  0.142857      1.000000
  0.285714 -0.428571  0.142857      1.000000
  0.428571 -0.428571  0.142857      1.000000
 -0.428571 -0.428571  0.142857      1.000000
 -0.285714 -0.428571  0.142857      1.000000
 -0.142857 -0.428571  0.142857      1.000000
  0.000000 -0.285714  0.142857      1.000000
  0.142857 -0.285714  0.142857      1.000000
  0.285714 -0.285714  0.142857      1.000000
  0.428571 -0.285714  0.142857      1.000000
 -0.428571 -0.285714  0.142857      1.000000
 -0.285714 -0.285714  0.142857      1.000000
 -0.142857 -0.285714  0.142857      1.000000
  0.000000 -0.142857  0.142857      1.000000
  0.142857 -0.142857  0.142857      1.000000
  0.285714 -0.142857  0.142857      1.000000
  0.428571 -0.142857  0.142857      1.000000
 -0.428571 -0.142857  0.142857      1.000000
 -0.285714 -0.142857  0.142857      1.000000
 -0.142857 -0.142857  0.142857      1.000000
  0.000000  0.000000  0.285714      1.000000
  0.142857 -0.000000  0.285714      1.000000
  0.285714 -0.000000  0.285714      1.000000
  0.428571  0.000000  0.285714      1.000000
 -0.428571  0.000000  0.285714      1.000000
 -0.285714  0.000000  0.285714      1.000000
 -0.142857 -0.000000  0.285714      1.000000
  0.000000  0.142857  0.285714      1.000000
  0.142857  0.142857  0.285714      1.000000
  0.285714  0.142857  0.285714      1.000000
  0.428571  0.142857  0.285714      1.000000
 -0.428571  0.142857  0.285714      1.000000
 -0.285714  0.142857  0.285714      1.000000
 -0.142857  0.142857  0.285714      1.000000
  0.000000  0.285714  0.285714      1.000000
  0.142857  0.285714  0.285714      1.000000
  0.285714  0.285714  0.285714      1.000000
  0.428571  0.285714  0.285714      1.000000
 -0.428571  0.285714  0.285714      1.000000
 -0.285714  0.285714  0.285714      1.000000
 -0.142857  0.285714  0.285714      1.000000
  0.000000  0.428571  0.285714      1.000000
  0.142857  0.428571  0.285714      1.000000
  0.285714  0.428571  0.285714      1.000000
  0.428571  0.428571  0.285714      1.000000
 -0.428571  0.428571  0.285714      1.000000
 -0.285714  0.428571  0.285714      1.000000
 -0.142857  0.428571  0.285714      1.000000
  0.000000 -0.428571  0.285714      1.000000
  0.142857 -0.428571  0.285714      1.000000
  0.285714 -0.428571  0.285714      1.000000
  0.428571 -0.428571  0.285714      1.000000
 -0.428571 -0.428571  0.285714      1.000000
 -0.285714 -0.428571  0.285714      1.000000
 -0.142857 -0.428571  0.285714      1.000000
  0.000000 -0.285714  0.285714      1.000000
  0.142857 -0.285714  0.285714      1.000000
  0.285714 -0.285714  0.285714      1.000000
  0.428571 -0.285714  0.285714      1.000000
 -0.428571 -0.285714  0.285714      1.000000
 -0.285714 -0.285714  0.285714      1.000000
 -0.142857 -0.285714  0.285714      1.000000
  0.000000 -0.142857  0.285714      1.000000
  0.142857 -0.142857  0.285714      1.000000
  0.285714 -0.142857  0.285714      1.000000
  0.428571 -0.142857  0.285714      1.000000
 -0.428571 -0.142857  0.285714      1.000000
 -0.285714 -0.142857  0.285714      1.000000
 -0.142857 -0.142857  0.285714      1.000000
  0.000000  0.000000  0.428571      1.000000
  0.142857 -0.000000  0.428571      1.000000
  0.285714 -0.000000  0.428571      1.000000
  0.428571  0.000000  0.428571      1.000000
 -0.428571  0.000000  0.428571      1.000000
 -0.285714  0.000000  0.428571      1.000000
 -0.142857 -0.000000  0.428571      1.000000
  0.000000  0.142857  0.428571      1.000000
  0.142857  0.142857  0.428571      1.000000
  0.285714  0.142857  0.428571      1.000000
  0.428571  0.142857  0.428571      1.000000
 -0.428571  0.142857  0.428571      1.000000
 -0.285714  0.142857  0.428571      1.000000
 -0.142857  0.142857  0.428571      1.000000
  0.000000  0.285714  0.428571      1.000000
  0.142857  0.285714  0.428571      1.000000
  0.285714  0.285714  0.428571      1.000000
  0.428571  0.285714  0.428571      1.000000
 -0.428571  0.285714  0.428571      1.000000
 -0.285714  0.285714  0.428571      1.000000
 -0.142857  0.285714  0.428571      1.000000
  0.000000  0.428571  0.428571      1.000000
  0.142857  0.428571  0.428571      1.000000
  0.285714  0.428571  0.428571      1.000000
  0.428571  0.428571  0.428571      1.000000
 -0.428571  0.428571  0.428571      1.000000
 -0.285714  0.428571  0.428571      1.000000
 -0.142857  0.428571  0.428571      1.000000
  0.000000 -0.428571  0.428571      1.000000
  0.142857 -0.428571  0.428571      1.000000
  0.285714 -0.428571  0.428571      1.000000
  0.428571 -0.428571  0.428571      1.000000
 -0.428571 -0.428571  0.428571      1.000000
 -0.285714 -0.428571  0.428571      1.000000
 -0.142857 -0.428571  0.428571      1.000000
  0.000000 -0.285714  0.428571      1.000000
  0.142857 -0.285714  0.428571      1.000000
  0.285714 -0.285714  0.428571      1.000000
  0.428571 -0.285714  0.428571      1.000000
 -0.428571 -0.285714  0.428571      1.000000
 -0.285714 -0.285714  0.428571      1.000000
 -0.142857 -0.285714  0.428571      1.000000
  0.000000 -0.142857  0.428571      1.000000
  0.142857 -0.142857  0.428571      1.000000
  0.285714 -0.142857  0.428571      1.000000
  0.428571 -0.142857  0.428571      1.000000
 -0.428571 -0.142857  0.428571      1.000000
 -0.285714 -0.142857  0.428571      1.000000
 -0.142857 -0.142857  0.428571      1.000000
  0.000000  0.000000 -0.428571      1.000000
  0.142857 -0.000000 -0.428571      1.000000
  0.285714 -0.000000 -0.428571      1.000000
  0.428571  0.000000 -0.428571      1.000000
 -0.428571  0.000000 -0.428571      1.000000
 -0.285714  0.000000 -0.428571      1.000000
 -0.142857 -0.000000 -0.428571      1.000000
  0.000000  0.142857 -0.428571      1.000000
  0.142857  0.142857 -0.428571      1.000000
  0.285714  0.142857 -0.428571      1.000000
  0.428571  0.142857 -0.428571      1.000000
 -0.428571  0.142857 -0.428571      1.000000
 -0.285714  0.142857 -0.428571      1.000000
 -0.142857  0.142857 -0.428571      1.000000
  0.000000  0.285714 -0.428571      1.000000
  0.142857  0.285714 -0.428571      1.000000
  0.285714  0.285714 -0.428571      1.000000
  0.428571  0.285714 -0.428571      1.000000
 -0.428571  0.285714 -0.428571      1.000000
 -0.285714  0.285714 -0.428571      1.000000
 -0.142857  0.285714 -0.428571      1.000000
  0.000000  0.428571 -0.428571      1.000000
  0.142857  0.428571 -0.428571      1.000000
  0.285714  0.428571 -0.428571      1.000000
  0.428571  0.428571 -0.428571      1.000000
 -0.428571  0.428571 -0.428571      1.000000
 -0.285714  0.428571 -0.428571      1.000000
 -0.142857  0.428571 -0.428571      1.000000
  0.000000 -0.428571 -0.428571      1.000000
  0.142857 -0.428571 -0.428571      1.000000
  0.285714 -0.428571 -0.428571      1.000000
  0.428571 -0.428571 -0.428571      1.000000
 -0.428571 -0.428571 -0.428571      1.000000
 -0.285714 -0.428571 -0.428571      1.000000
 -0.142857 -0.428571 -0.428571      1.000000
  0.000000 -0.285714 -0.428571      1.000000
  0.142857 -0.285714 -0.428571      1.000000
  0.285714 -0.285714 -0.428571      1.000000
  0.428571 -0.285714 -0.428571      1.000000
 -0.428571 -0.285714 -0.428571      1.000000
 -0.285714 -0.285714 -0.428571      1.000000
 -0.142857 -0.285714 -0.428571      1.000000
  0.000000 -0.142857 -0.428571      1.000000
  0.142857 -0.142857 -0.428571      1.000000
  0.285714 -0.142857 -0.428571      1.000000
  0.428571 -0.142857 -0.428571      1.000000
 -0.428571 -0.142857 -0.428571      1.000000
 -0.285714 -0.142857 -0.428571      1.000000
 -0.142857 -0.142857 -0.428571      1.000000
  0.000000  0.000000 -0.285714      1.000000
  0.142857 -0.000000 -0.285714      1.000000
  0.285714 -0.000000 -0.285714      1.000000
  0.428571  0.000000 -0.285714      1.000000
 -0.428571  0.000000 -0.285714      1.000000
 -0.285714  0.000000 -0.285714      1.000000
 -0.142857 -0.000000 -0.285714      1.000000
  0.000000  0.142857 -0.285714      1.000000
  0.142857  0.142857 -0.285714      1.000000
  0.285714  0.142857 -0.285714      1.000000
  0.428571  0.142857 -0.285714      1.000000
 -0.428571  0.142857 -0.285714      1.000000
 -0.285714  0.142857 -0.285714      1.000000
 -0.142857  0.142857 -0.285714      1.000000
  0.000000  0.285714 -0.285714      1.000000
  0.142857  0.285714 -0.285714      1.000000
  0.285714  0.285714 -0.285714      1.000000
  0.428571  0.285714 -0.285714      1.000000
 -0.428571  0.285714 -0.285714      1.000000
 -0.285714  0.285714 -0.285714      1.000000
 -0.142857  0.285714 -0.285714      1.000000
  0.000000  0.428571 -0.285714      1.000000
  0.142857  0.428571 -0.285714      1.000000
  0.285714  0.428571 -0.285714      1.000000
  0.428571  0.428571 -0.285714      1.000000
 -0.428571  0.428571 -0.285714      1.000000
 -0.285714  0.428571 -0.285714      1.000000
 -0.142857  0.428571 -0.285714      1.000000
  0.000000 -0.428571 -0.285714      1.000000
  0.142857 -0.428571 -0.285714      1.000000
  0.285714 -0.428571 -0.285714      1.000000
  0.428571 -0.428571 -0.285714      1.000000
 -0.428571 -0.428571 -0.285714      1.000000
 -0.285714 -0.428571 -0.285714      1.000000
 -0.142857 -0.428571 -0.285714      1.000000
  0.000000 -0.285714 -0.285714      1.000000
  0.142857 -0.285714 -0.285714      1.000000
  0.285714 -0.285714 -0.285714      1.000000
  0.428571 -0.285714 -0.285714      1.000000
 -0.428571 -0.285714 -0.285714      1.000000
 -0.285714 -0.285714 -0.285714      1.000000
 -0.142857 -0.285714 -0.285714      1.000000
  0.000000 -0.142857 -0.285714      1.000000
  0.142857 -0.142857 -0.285714      1.000000
  0.285714 -0.142857 -0.285714      1.000000
  0.428571 -0.142857 -0.285714      1.000000
 -0.428571 -0.142857 -0.285714      1.000000
 -0.285714 -0.142857 -0.285714      1.000000
 -0.142857 -0.142857 -0.285714      1.000000
  0.000000  0.000000 -0.142857      1.000000
  0.142857 -0.000000 -0.142857      1.000000
  0.285714 -0.000000 -0.142857      1.000000
  0.428571  0.000000 -0.142857      1.000000
 -0.428571  0.000000 -0.142857      1.000000
 -0.285714  0.000000 -0.142857      1.000000
 -0.142857 -0.000000 -0.142857      1.000000
  0.000000  0.142857 -0.142857      1.000000
  0.142857  0.142857 -0.142857      1.000000
  0.285714  0.142857 -0.142857      1.000000
  0.428571  0.142857 -0.142857      1.000000
 -0.428571  0.142857 -0.142857      1.000000
 -0.285714  0.142857 -0.142857      1.000000
 -0.142857  0.142857 -0.142857      1.000000
  0.000000  0.285714 -0.142857      1.000000
  0.142857  0.285714 -0.142857      1.000000
  0.285714  0.285714 -0.142857      1.000000
  0.428571  0.285714 -0.142857      1.000000
 -0.428571  0.285714 -0.142857      1.000000
 -0.285714  0.285714 -0.142857      1.000000
 -0.142857  0.285714 -0.142857      1.000000
  0.000000  0.428571 -0.142857      1.000000
  0.142857  0.428571 -0.142857      1.000000
  0.285714  0.428571 -0.142857      1.000000
  0.428571  0.428571 -0.142857      1.000000
 -0.428571  0.428571 -0.142857      1.000000
 -0.285714  0.428571 -0.142857      1.000000
 -0.142857  0.428571 -0.142857      1.000000
  0.000000 -0.428571 -0.142857      1.000000
  0.142857 -0.428571 -0.142857      1.000000
  0.285714 -0.428571 -0.142857      1.000000
  0.428571 -0.428571 -0.142857      1.000000
 -0.428571 -0.428571 -0.142857      1.000000
 -0.285714 -0.428571 -0.142857      1.000000
 -0.142857 -0.428571 -0.142857      1.000000
  0.000000 -0.285714 -0.142857      1.000000
  0.142857 -0.285714 -0.142857      1.000000
  0.285714 -0.285714 -0.142857      1.000000
  0.428571 -0.285714 -0.142857      1.000000
 -0.428571 -0.285714 -0.142857      1.000000
 -0.285714 -0.285714 -0.142857      1.000000
 -0.142857 -0.285714 -0.142857      1.000000
  0.000000 -0.142857 -0.142857      1.000000
  0.142857 -0.142857 -0.142857      1.000000
  0.285714 -0.142857 -0.142857      1.000000
  0.428571 -0.142857 -0.142857      1.000000
 -0.428571 -0.142857 -0.142857      1.000000
 -0.285714 -0.142857 -0.142857      1.000000
 -0.142857 -0.142857 -0.142857      1.000000
 
 Following cartesian coordinates:
            Coordinates               Weight
  0.000000  0.000000  0.000000      1.000000
  0.048032 -0.027731 -0.019609      1.000000
  0.096064 -0.055462 -0.039218      1.000000
  0.144095 -0.083193 -0.058827      1.000000
 -0.144095  0.083193  0.058827      1.000000
 -0.096064  0.055462  0.039218      1.000000
 -0.048032  0.027731  0.019609      1.000000
  0.000000  0.055462 -0.019609      1.000000
  0.048032  0.027731 -0.039218      1.000000
  0.096064  0.000000 -0.058827      1.000000
  0.144095 -0.027731 -0.078436      1.000000
 -0.144095  0.138656  0.039218      1.000000
 -0.096064  0.110925  0.019609      1.000000
 -0.048032  0.083193  0.000000      1.000000
  0.000000  0.110925 -0.039218      1.000000
  0.048032  0.083193 -0.058827      1.000000
  0.096064  0.055462 -0.078436      1.000000
  0.144095  0.027731 -0.098044      1.000000
 -0.144095  0.194118  0.019609      1.000000
 -0.096064  0.166387  0.000000      1.000000
 -0.048032  0.138656 -0.019609      1.000000
  0.000000  0.166387 -0.058827      1.000000
  0.048032  0.138656 -0.078436      1.000000
  0.096064  0.110925 -0.098044      1.000000
  0.144095  0.083193 -0.117653      1.000000
 -0.144095  0.249580  0.000000      1.000000
 -0.096064  0.221849 -0.019609      1.000000
 -0.048032  0.194118 -0.039218      1.000000
  0.000000 -0.166387  0.058827      1.000000
  0.048032 -0.194118  0.039218      1.000000
  0.096064 -0.221849  0.019609      1.000000
  0.144095 -0.249580 -0.000000      1.000000
 -0.144095 -0.083193  0.117653      1.000000
 -0.096064 -0.110925  0.098044      1.000000
 -0.048032 -0.138656  0.078436      1.000000
  0.000000 -0.110925  0.039218      1.000000
  0.048032 -0.138656  0.019609      1.000000
  0.096064 -0.166387 -0.000000      1.000000
  0.144095 -0.194118 -0.019609      1.000000
 -0.144095 -0.027731  0.098044      1.000000
 -0.096064 -0.055462  0.078436      1.000000
 -0.048032 -0.083193  0.058827      1.000000
  0.000000 -0.055462  0.019609      1.000000
  0.048032 -0.083193 -0.000000      1.000000
  0.096064 -0.110925 -0.019609      1.000000
  0.144095 -0.138656 -0.039218      1.000000
 -0.144095  0.027731  0.078436      1.000000
 -0.096064  0.000000  0.058827      1.000000
 -0.048032 -0.027731  0.039218      1.000000
  0.000000  0.000000  0.058827      1.000000
  0.048032 -0.027731  0.039218      1.000000
  0.096064 -0.055462  0.019609      1.000000
  0.144095 -0.083193 -0.000000      1.000000
 -0.144095  0.083193  0.117653      1.000000
 -0.096064  0.055462  0.098044      1.000000
 -0.048032  0.027731  0.078436      1.000000
  0.000000  0.055462  0.039218      1.000000
  0.048032  0.027731  0.019609      1.000000
  0.096064  0.000000  0.000000      1.000000
  0.144095 -0.027731 -0.019609      1.000000
 -0.144095  0.138656  0.098044      1.000000
 -0.096064  0.110925  0.078436      1.000000
 -0.048032  0.083193  0.058827      1.000000
  0.000000  0.110925  0.019609      1.000000
  0.048032  0.083193  0.000000      1.000000
  0.096064  0.055462 -0.019609      1.000000
  0.144095  0.027731 -0.039218      1.000000
 -0.144095  0.194118  0.078436      1.000000
 -0.096064  0.166387  0.058827      1.000000
 -0.048032  0.138656  0.039218      1.000000
  0.000000  0.166387  0.000000      1.000000
  0.048032  0.138656 -0.019609      1.000000
  0.096064  0.110925 -0.039218      1.000000
  0.144095  0.083193 -0.058827      1.000000
 -0.144095  0.249580  0.058827      1.000000
 -0.096064  0.221849  0.039218      1.000000
 -0.048032  0.194118  0.019609      1.000000
  0.000000 -0.166387  0.117653      1.000000
  0.048032 -0.194118  0.098044      1.000000
  0.096064 -0.221849  0.078436      1.000000
  0.144095 -0.249580  0.058827      1.000000
 -0.144095 -0.083193  0.176480      1.000000
 -0.096064 -0.110925  0.156871      1.000000
 -0.048032 -0.138656  0.137262      1.000000
  0.000000 -0.110925  0.098044      1.000000
  0.048032 -0.138656  0.078436      1.000000
  0.096064 -0.166387  0.058827      1.000000
  0.144095 -0.194118  0.039218      1.000000
 -0.144095 -0.027731  0.156871      1.000000
 -0.096064 -0.055462  0.137262      1.000000
 -0.048032 -0.083193  0.117653      1.000000
  0.000000 -0.055462  0.078436      1.000000
  0.048032 -0.083193  0.058827      1.000000
  0.096064 -0.110925  0.039218      1.000000
  0.144095 -0.138656  0.019609      1.000000
 -0.144095  0.027731  0.137262      1.000000
 -0.096064  0.000000  0.117653      1.000000
 -0.048032 -0.027731  0.098044      1.000000
  0.000000  0.000000  0.117653      1.000000
  0.048032 -0.027731  0.098044      1.000000
  0.096064 -0.055462  0.078436      1.000000
  0.144095 -0.083193  0.058827      1.000000
 -0.144095  0.083193  0.176480      1.000000
 -0.096064  0.055462  0.156871      1.000000
 -0.048032  0.027731  0.137262      1.000000
  0.000000  0.055462  0.098044      1.000000
  0.048032  0.027731  0.078436      1.000000
  0.096064  0.000000  0.058827      1.000000
  0.144095 -0.027731  0.039218      1.000000
 -0.144095  0.138656  0.156871      1.000000
 -0.096064  0.110925  0.137262      1.000000
 -0.048032  0.083193  0.117653      1.000000
  0.000000  0.110925  0.078436      1.000000
  0.048032  0.083193  0.058827      1.000000
  0.096064  0.055462  0.039218      1.000000
  0.144095  0.027731  0.019609      1.000000
 -0.144095  0.194118  0.137262      1.000000
 -0.096064  0.166387  0.117653      1.000000
 -0.048032  0.138656  0.098044      1.000000
  0.000000  0.166387  0.058827      1.000000
  0.048032  0.138656  0.039218      1.000000
  0.096064  0.110925  0.019609      1.000000
  0.144095  0.083193  0.000000      1.000000
 -0.144095  0.249580  0.117653      1.000000
 -0.096064  0.221849  0.098044      1.000000
 -0.048032  0.194118  0.078436      1.000000
  0.000000 -0.166387  0.176480      1.000000
  0.048032 -0.194118  0.156871      1.000000
  0.096064 -0.221849  0.137262      1.000000
  0.144095 -0.249580  0.117653      1.000000
 -0.144095 -0.083193  0.235307      1.000000
 -0.096064 -0.110925  0.215698      1.000000
 -0.048032 -0.138656  0.196089      1.000000
  0.000000 -0.110925  0.156871      1.000000
  0.048032 -0.138656  0.137262      1.000000
  0.096064 -0.166387  0.117653      1.000000
  0.144095 -0.194118  0.098044      1.000000
 -0.144095 -0.027731  0.215698      1.000000
 -0.096064 -0.055462  0.196089      1.000000
 -0.048032 -0.083193  0.176480      1.000000
  0.000000 -0.055462  0.137262      1.000000
  0.048032 -0.083193  0.117653      1.000000
  0.096064 -0.110925  0.098044      1.000000
  0.144095 -0.138656  0.078436      1.000000
 -0.144095  0.027731  0.196089      1.000000
 -0.096064  0.000000  0.176480      1.000000
 -0.048032 -0.027731  0.156871      1.000000
  0.000000  0.000000  0.176480      1.000000
  0.048032 -0.027731  0.156871      1.000000
  0.096064 -0.055462  0.137262      1.000000
  0.144095 -0.083193  0.117653      1.000000
 -0.144095  0.083193  0.235307      1.000000
 -0.096064  0.055462  0.215698      1.000000
 -0.048032  0.027731  0.196089      1.000000
  0.000000  0.055462  0.156871      1.000000
  0.048032  0.027731  0.137262      1.000000
  0.096064  0.000000  0.117653      1.000000
  0.144095 -0.027731  0.098044      1.000000
 -0.144095  0.138656  0.215698      1.000000
 -0.096064  0.110925  0.196089      1.000000
 -0.048032  0.083193  0.176480      1.000000
  0.000000  0.110925  0.137262      1.000000
  0.048032  0.083193  0.117653      1.000000
  0.096064  0.055462  0.098044      1.000000
  0.144095  0.027731  0.078436      1.000000
 -0.144095  0.194118  0.196089      1.000000
 -0.096064  0.166387  0.176480      1.000000
 -0.048032  0.138656  0.156871      1.000000
  0.000000  0.166387  0.117653      1.000000
  0.048032  0.138656  0.098044      1.000000
  0.096064  0.110925  0.078436      1.000000
  0.144095  0.083193  0.058827      1.000000
 -0.144095  0.249580  0.176480      1.000000
 -0.096064  0.221849  0.156871      1.000000
 -0.048032  0.194118  0.137262      1.000000
  0.000000 -0.166387  0.235307      1.000000
  0.048032 -0.194118  0.215698      1.000000
  0.096064 -0.221849  0.196089      1.000000
  0.144095 -0.249580  0.176480      1.000000
 -0.144095 -0.083193  0.294133      1.000000
 -0.096064 -0.110925  0.274525      1.000000
 -0.048032 -0.138656  0.254916      1.000000
  0.000000 -0.110925  0.215698      1.000000
  0.048032 -0.138656  0.196089      1.000000
  0.096064 -0.166387  0.176480      1.000000
  0.144095 -0.194118  0.156871      1.000000
 -0.144095 -0.027731  0.274525      1.000000
 -0.096064 -0.055462  0.254916      1.000000
 -0.048032 -0.083193  0.235307      1.000000
  0.000000 -0.055462  0.196089      1.000000
  0.048032 -0.083193  0.176480      1.000000
  0.096064 -0.110925  0.156871      1.000000
  0.144095 -0.138656  0.137262      1.000000
 -0.144095  0.027731  0.254916      1.000000
 -0.096064  0.000000  0.235307      1.000000
 -0.048032 -0.027731  0.215698      1.000000
  0.000000  0.000000 -0.176480      1.000000
  0.048032 -0.027731 -0.196089      1.000000
  0.096064 -0.055462 -0.215698      1.000000
  0.144095 -0.083193 -0.235307      1.000000
 -0.144095  0.083193 -0.117653      1.000000
 -0.096064  0.055462 -0.137262      1.000000
 -0.048032  0.027731 -0.156871      1.000000
  0.000000  0.055462 -0.196089      1.000000
  0.048032  0.027731 -0.215698      1.000000
  0.096064  0.000000 -0.235307      1.000000
  0.144095 -0.027731 -0.254916      1.000000
 -0.144095  0.138656 -0.137262      1.000000
 -0.096064  0.110925 -0.156871      1.000000
 -0.048032  0.083193 -0.176480      1.000000
  0.000000  0.110925 -0.215698      1.000000
  0.048032  0.083193 -0.235307      1.000000
  0.096064  0.055462 -0.254916      1.000000
  0.144095  0.027731 -0.274525      1.000000
 -0.144095  0.194118 -0.156871      1.000000
 -0.096064  0.166387 -0.176480      1.000000
 -0.048032  0.138656 -0.196089      1.000000
  0.000000  0.166387 -0.235307      1.000000
  0.048032  0.138656 -0.254916      1.000000
  0.096064  0.110925 -0.274525      1.000000
  0.144095  0.083193 -0.294133      1.000000
 -0.144095  0.249580 -0.176480      1.000000
 -0.096064  0.221849 -0.196089      1.000000
 -0.048032  0.194118 -0.215698      1.000000
  0.000000 -0.166387 -0.117653      1.000000
  0.048032 -0.194118 -0.137262      1.000000
  0.096064 -0.221849 -0.156871      1.000000
  0.144095 -0.249580 -0.176480      1.000000
 -0.144095 -0.083193 -0.058827      1.000000
 -0.096064 -0.110925 -0.078436      1.000000
 -0.048032 -0.138656 -0.098044      1.000000
  0.000000 -0.110925 -0.137262      1.000000
  0.048032 -0.138656 -0.156871      1.000000
  0.096064 -0.166387 -0.176480      1.000000
  0.144095 -0.194118 -0.196089      1.000000
 -0.144095 -0.027731 -0.078436      1.000000
 -0.096064 -0.055462 -0.098044      1.000000
 -0.048032 -0.083193 -0.117653      1.000000
  0.000000 -0.055462 -0.156871      1.000000
  0.048032 -0.083193 -0.176480      1.000000
  0.096064 -0.110925 -0.196089      1.000000
  0.144095 -0.138656 -0.215698      1.000000
 -0.144095  0.027731 -0.098044      1.000000
 -0.096064  0.000000 -0.117653      1.000000
 -0.048032 -0.027731 -0.137262      1.000000
  0.000000  0.000000 -0.117653      1.000000
  0.048032 -0.027731 -0.137262      1.000000
  0.096064 -0.055462 -0.156871      1.000000
  0.144095 -0.083193 -0.176480      1.000000
 -0.144095  0.083193 -0.058827      1.000000
 -0.096064  0.055462 -0.078436      1.000000
 -0.048032  0.027731 -0.098044      1.000000
  0.000000  0.055462 -0.137262      1.000000
  0.048032  0.027731 -0.156871      1.000000
  0.096064  0.000000 -0.176480      1.000000
  0.144095 -0.027731 -0.196089      1.000000
 -0.144095  0.138656 -0.078436      1.000000
 -0.096064  0.110925 -0.098044      1.000000
 -0.048032  0.083193 -0.117653      1.000000
  0.000000  0.110925 -0.156871      1.000000
  0.048032  0.083193 -0.176480      1.000000
  0.096064  0.055462 -0.196089      1.000000
  0.144095  0.027731 -0.215698      1.000000
 -0.144095  0.194118 -0.098044      1.000000
 -0.096064  0.166387 -0.117653      1.000000
 -0.048032  0.138656 -0.137262      1.000000
  0.000000  0.166387 -0.176480      1.000000
  0.048032  0.138656 -0.196089      1.000000
  0.096064  0.110925 -0.215698      1.000000
  0.144095  0.083193 -0.235307      1.000000
 -0.144095  0.249580 -0.117653      1.000000
 -0.096064  0.221849 -0.137262      1.000000
 -0.048032  0.194118 -0.156871      1.000000
  0.000000 -0.166387 -0.058827      1.000000
  0.048032 -0.194118 -0.078436      1.000000
  0.096064 -0.221849 -0.098044      1.000000
  0.144095 -0.249580 -0.117653      1.000000
 -0.144095 -0.083193 -0.000000      1.000000
 -0.096064 -0.110925 -0.019609      1.000000
 -0.048032 -0.138656 -0.039218      1.000000
  0.000000 -0.110925 -0.078436      1.000000
  0.048032 -0.138656 -0.098044      1.000000
  0.096064 -0.166387 -0.117653      1.000000
  0.144095 -0.194118 -0.137262      1.000000
 -0.144095 -0.027731 -0.019609      1.000000
 -0.096064 -0.055462 -0.039218      1.000000
 -0.048032 -0.083193 -0.058827      1.000000
  0.000000 -0.055462 -0.098044      1.000000
  0.048032 -0.083193 -0.117653      1.000000
  0.096064 -0.110925 -0.137262      1.000000
  0.144095 -0.138656 -0.156871      1.000000
 -0.144095  0.027731 -0.039218      1.000000
 -0.096064  0.000000 -0.058827      1.000000
 -0.048032 -0.027731 -0.078436      1.000000
  0.000000  0.000000 -0.058827      1.000000
  0.048032 -0.027731 -0.078436      1.000000
  0.096064 -0.055462 -0.098044      1.000000
  0.144095 -0.083193 -0.117653      1.000000
 -0.144095  0.083193  0.000000      1.000000
 -0.096064  0.055462 -0.019609      1.000000
 -0.048032  0.027731 -0.039218      1.000000
  0.000000  0.055462 -0.078436      1.000000
  0.048032  0.027731 -0.098044      1.000000
  0.096064  0.000000 -0.117653      1.000000
  0.144095 -0.027731 -0.137262      1.000000
 -0.144095  0.138656 -0.019609      1.000000
 -0.096064  0.110925 -0.039218      1.000000
 -0.048032  0.083193 -0.058827      1.000000
  0.000000  0.110925 -0.098044      1.000000
  0.048032  0.083193 -0.117653      1.000000
  0.096064  0.055462 -0.137262      1.000000
  0.144095  0.027731 -0.156871      1.000000
 -0.144095  0.194118 -0.039218      1.000000
 -0.096064  0.166387 -0.058827      1.000000
 -0.048032  0.138656 -0.078436      1.000000
  0.000000  0.166387 -0.117653      1.000000
  0.048032  0.138656 -0.137262      1.000000
  0.096064  0.110925 -0.156871      1.000000
  0.144095  0.083193 -0.176480      1.000000
 -0.144095  0.249580 -0.058827      1.000000
 -0.096064  0.221849 -0.078436      1.000000
 -0.048032  0.194118 -0.098044      1.000000
  0.000000 -0.166387 -0.000000      1.000000
  0.048032 -0.194118 -0.019609      1.000000
  0.096064 -0.221849 -0.039218      1.000000
  0.144095 -0.249580 -0.058827      1.000000
 -0.144095 -0.083193  0.058827      1.000000
 -0.096064 -0.110925  0.039218      1.000000
 -0.048032 -0.138656  0.019609      1.000000
  0.000000 -0.110925 -0.019609      1.000000
  0.048032 -0.138656 -0.039218      1.000000
  0.096064 -0.166387 -0.058827      1.000000
  0.144095 -0.194118 -0.078436      1.000000
 -0.144095 -0.027731  0.039218      1.000000
 -0.096064 -0.055462  0.019609      1.000000
 -0.048032 -0.083193 -0.000000      1.000000
  0.000000 -0.055462 -0.039218      1.000000
  0.048032 -0.083193 -0.058827      1.000000
  0.096064 -0.110925 -0.078436      1.000000
  0.144095 -0.138656 -0.098044      1.000000
 -0.144095  0.027731  0.019609      1.000000
 -0.096064  0.000000  0.000000      1.000000
 -0.048032 -0.027731 -0.019609      1.000000
 


--------------------------------------------------------------------------------------------------------




 Dimension of arrays:
   k-points           NKPTS =    343   k-points in BZ     NKDIM =    343   number of bands    NBANDS=    128
   number of dos      NEDOS =    301   number of ions     NIONS =      1
   non local maximal  LDIM  =      8   non local SUM 2l+1 LMDIM =     22
   total plane-waves  NPLWV =   5832
   max r-space proj   IRMAX =      1   max aug-charges    IRDMAX=  41786
   dimension x,y,z NGX =    18 NGY =   18 NGZ =   18
   dimension x,y,z NGXF=    36 NGYF=   36 NGZF=   36
   support grid    NGXF=    72 NGYF=   72 NGZF=   72
   ions per type =               1
   NGX,Y,Z   is equivalent  to a cutoff of   9.48,  9.48,  9.48 a.u.
   NGXF,Y,Z  is equivalent  to a cutoff of  18.96, 18.96, 18.96 a.u.

 SYSTEM =  Og_FCC                                  
 POSCAR =  Ne_FCC                                  

 Startparameter for this run:
   NWRITE =      2    write-flag & timer
   PREC   = accura    normal or accurate (medium, high low for compatibility)
   ISTART =      1    job   : 0-new  1-cont  2-samecut
   ICHARG =      0    charge: 1-file 2-atom 10-const
   ISPIN  =      1    spin polarized calculation?
   LNONCOLLINEAR =      T non collinear calculations
   LSORBIT =      T    spin-orbit coupling
   INIWAV =      1    electr: 0-lowe 1-rand  2-diag
   LASPH  =      F    aspherical Exc in radial PAW
   METAGGA=      F    non-selfconsistent MetaGGA calc.

 Electronic Relaxation 1
   ENCUT  =  300.0 eV  22.05 Ry    4.70 a.u.   4.46  4.46  4.46*2*pi/ulx,y,z
   ENINI  =  300.0     initial cutoff
   ENAUG  =  755.8 eV  augmentation charge cutoff
   NELM   =     50;   NELMIN=  2; NELMDL= -5     # of ELM steps 
   EDIFF  = 0.1E-07   stopping-criterion for ELM
   LREAL  =      F    real-space projection
   NLSPLINE    = F    spline interpolate recip. space projectors
   LCOMPAT=      F    compatible to vasp.4.4
   GGA_COMPAT  = F    GGA compatible to vasp.4.4-vasp.4.6
   LMAXPAW     = -100 max onsite density
   LMAXMIX     =    2 max onsite mixed and CHGCAR
   VOSKOWN=      0    Vosko Wilk Nusair interpolation
   ROPT   =    0.00000
 Ionic relaxation
   EDIFFG = 0.1E-04   stopping-criterion for IOM
   NSW    =      1    number of steps for IOM
   NBLOCK =      1;   KBLOCK =      1    inner block; outer block 
   IBRION =     -1    ionic relax: 0-MD 1-quasi-New 2-CG
   NFREE  =      5    steps in history (QN), initial steepest desc. (CG)
   ISIF   =      3    stress and relaxation
   IWAVPR =     10    prediction:  0-non 1-charg 2-wave 3-comb
   ISYM   =      0    0-nonsym 1-usesym 2-fastsym
   LCORR  =      T    Harris-Foulkes like correction to forces

   POTIM  = 0.1000    time-step for ionic-motion
   TEIN   =    0.0    initial temperature
   TEBEG  =    0.0;   TEEND  =   0.0 temperature during run
   SMASS  =  -3.00    Nose mass-parameter (am)
   estimated Nose-frequenzy (Omega)   =  0.10E-29 period in steps =****** mass=  -0.228E-27a.u.
   SCALEE = 1.0000    scale energy and forces
   NPACO  =    256;   APACO  = 16.0  distance and # of slots for P.C.
   PSTRESS=    0.0 pullay stress

  Mass of Ions in am
   POMASS =  20.18
  Ionic Valenz
   ZVAL   =   8.00
  Atomic Wigner-Seitz radii
   RWIGS  =  -1.00
  virtual crystal weights 
   VCA    =   1.00
   NELECT =       8.0000    total number of electrons
   NUPDOWN=      -1.0000    fix difference up-down

 DOS related values:
   EMIN   =  10.00;   EMAX   =-10.00  energy-range for DOS
   EFERMI =   0.00
   ISMEAR =     0;   SIGMA  =   0.00  broadening in eV -4-tet -1-fermi 0-gaus

 Electronic relaxation 2 (details)
   IALGO  =     90    algorithm
   LDIAG  =      T    sub-space diagonalisation (order eigenvalues)
   LSUBROT=      F    optimize rotation matrix (better conditioning)
   TURBO    =      0    0=normal 1=particle mesh
   IRESTART =      0    0=no restart 2=restart with 2 vectors
   NREBOOT  =      0    no. of reboots
   NMIN     =      0    reboot dimension
   EREF     =   0.00    reference energy to select bands
   IMIX   =      4    mixing-type and parameters
     AMIX     =   0.40;   BMIX     =  1.00
     AMIX_MAG =   1.60;   BMIX_MAG =  1.00
     AMIN     =   0.10
     WC   =   100.;   INIMIX=   1;  MIXPRE=   1;  MAXMIX=  50

 Intra band minimization:
   WEIMIN = 0.0000     energy-eigenvalue tresh-hold
   EBREAK =  0.20E-10  absolut break condition
   DEPER  =   0.30     relativ break condition  

   TIME   =   0.40     timestep for ELM

  volume/ion in A,a.u.               =      22.24       150.09
  Fermi-wavevector in a.u.,A,eV,Ry     =   1.164266  2.200144 18.442905  1.355515
  Thomas-Fermi vector in A             =   2.300806
 
 Write flags
   LWAVE        =      T    write WAVECAR
   LDOWNSAMPLE  =      F    k-point downsampling of WAVECAR
   LCHARG       =      F    write CHGCAR
   LVTOT        =      F    write LOCPOT, total local potential
   LVHAR        =      F    write LOCPOT, Hartree potential only
   LELF         =      F    write electronic localiz. function (ELF)
   LORBIT       =      0    0 simple, 1 ext, 2 COOP (PROOUT), +10 PAW based schemes


 Dipole corrections
   LMONO  =      F    monopole corrections only (constant potential shift)
   LDIPOL =      F    correct potential (dipole corrections)
   IDIPOL =      0    1-x, 2-y, 3-z, 4-all directions 
   EPSILON=  1.0000000 bulk dielectric constant

 Exchange correlation treatment:
   GGA     =    PE    GGA type
   LEXCH   =     8    internal setting for exchange type
   VOSKOWN=      0    Vosko Wilk Nusair interpolation
   LHFCALC =     F    Hartree Fock is set to
   LHFONE  =     F    Hartree Fock one center treatment
   AEXX    =    0.0000 exact exchange contribution

 Linear response parameters
   LEPSILON=     F    determine dielectric tensor
   LRPA    =     F    only Hartree local field effects (RPA)
   LNABLA  =     F    use nabla operator in PAW spheres
   LVEL    =     F    velocity operator in full k-point grid
   LINTERFAST=   F  fast interpolation
   KINTER  =     0    interpolate to denser k-point grid
   CSHIFT  =0.1000    complex shift for real part using Kramers Kronig
   OMEGAMAX=  -1.0    maximum frequency
   DEG_THRESHOLD= 0.2000000E-02 threshold for treating states as degnerate
   RTIME   =   -0.100 relaxation time in fs
  (WPLASMAI=    0.000 imaginary part of plasma frequency in eV, 0.658/RTIME)
   DFIELD  = 0.0000000 0.0000000 0.0000000 field for delta impulse in time
 
 Orbital magnetization related:
   ORBITALMAG=     F  switch on orbital magnetization
   LCHIMAG   =     F  perturbation theory with respect to B field
   DQ        =  0.001000  dq finite difference perturbation B field
   LLRAUG    =     F  two centre corrections for induced B field



--------------------------------------------------------------------------------------------------------


 Static calculation
 charge density and potential will be updated during run
 non collinear spin polarized calculation
 Exact diagonalization
 preconditioned conjugated gradient (Jacobi prec)
    charged. constant during bandupdate  
    band-by band algorithm
 perform sub-space diagonalisation
    after iterative eigenvector-optimisation
 modified Broyden-mixing scheme, WC =      100.0
 initial mixing is a Kerker type mixing with AMIX =  0.4000 and BMIX =      1.0000
 Hartree-type preconditioning will be used
 using additional bands          124
 reciprocal scheme for non local part
 use partial core corrections
 calculate Harris-corrections to forces 
   (improved forces if not selfconsistent)
 use gradient corrections 
 use of overlap-Matrix (Vanderbilt PP)
 Gauss-broadening in eV      SIGMA  =   0.00


--------------------------------------------------------------------------------------------------------


  energy-cutoff  :      300.00
  volume of cell :       22.24
      direct lattice vectors                 reciprocal lattice vectors
     3.156634414  0.000000000  0.000000000     0.316793100 -0.182900581 -0.129330241
     1.578317207  2.733725593  0.000000000     0.000000000  0.365801163 -0.129330241
     1.578317207  0.911241864  2.577381206     0.000000000  0.000000000  0.387990724

  length of vectors
     3.156634414  3.156634414  3.156634414     0.387990724  0.387990724  0.387990724


 
 old parameters found on file WAVECAR:
  energy-cutoff  :      300.00
  volume of cell :       22.24
      direct lattice vectors                 reciprocal lattice vectors
     3.156634414  0.000000000  0.000000000     0.316793100 -0.182900581 -0.129330241
     1.578317207  2.733725593  0.000000000     0.000000000  0.365801163 -0.129330241
     1.578317207  0.911241864  2.577381206     0.000000000  0.000000000  0.387990724

  length of vectors

 
 k-points in units of 2pi/SCALE and weight: k-points                                
   0.00000000  0.00000000  0.00000000       0.003
   0.04803179 -0.02773117 -0.01960889       0.003
   0.09606357 -0.05546233 -0.03921779       0.003
   0.14409536 -0.08319350 -0.05882668       0.003
  -0.14409536  0.08319350  0.05882668       0.003
  -0.09606357  0.05546233  0.03921779       0.003
  -0.04803179  0.02773117  0.01960889       0.003
   0.00000000  0.05546233 -0.01960889       0.003
   0.04803179  0.02773117 -0.03921779       0.003
   0.09606357  0.00000000 -0.05882668       0.003
   0.14409536 -0.02773117 -0.07843558       0.003
  -0.14409536  0.13865583  0.03921779       0.003
  -0.09606357  0.11092466  0.01960889       0.003
  -0.04803179  0.08319350  0.00000000       0.003
   0.00000000  0.11092466 -0.03921779       0.003
   0.04803179  0.08319350 -0.05882668       0.003
   0.09606357  0.05546233 -0.07843558       0.003
   0.14409536  0.02773117 -0.09804447       0.003
  -0.14409536  0.19411816  0.01960889       0.003
  -0.09606357  0.16638699  0.00000000       0.003
  -0.04803179  0.13865583 -0.01960889       0.003
   0.00000000  0.16638699 -0.05882668       0.003
   0.04803179  0.13865583 -0.07843558       0.003
   0.09606357  0.11092466 -0.09804447       0.003
   0.14409536  0.08319350 -0.11765337       0.003
  -0.14409536  0.24958049  0.00000000       0.003
  -0.09606357  0.22184932 -0.01960889       0.003
  -0.04803179  0.19411816 -0.03921779       0.003
   0.00000000 -0.16638699  0.05882668       0.003
   0.04803179 -0.19411816  0.03921779       0.003
   0.09606357 -0.22184932  0.01960889       0.003
   0.14409536 -0.24958049 -0.00000000       0.003
  -0.14409536 -0.08319350  0.11765337       0.003
  -0.09606357 -0.11092466  0.09804447       0.003
  -0.04803179 -0.13865583  0.07843558       0.003
   0.00000000 -0.11092466  0.03921779       0.003
   0.04803179 -0.13865583  0.01960889       0.003
   0.09606357 -0.16638699 -0.00000000       0.003
   0.14409536 -0.19411816 -0.01960889       0.003
  -0.14409536 -0.02773117  0.09804447       0.003
  -0.09606357 -0.05546233  0.07843558       0.003
  -0.04803179 -0.08319350  0.05882668       0.003
   0.00000000 -0.05546233  0.01960889       0.003
   0.04803179 -0.08319350 -0.00000000       0.003
   0.09606357 -0.11092466 -0.01960889       0.003
   0.14409536 -0.13865583 -0.03921779       0.003
  -0.14409536  0.02773117  0.07843558       0.003
  -0.09606357  0.00000000  0.05882668       0.003
  -0.04803179 -0.02773117  0.03921779       0.003
   0.00000000  0.00000000  0.05882668       0.003
   0.04803179 -0.02773117  0.03921779       0.003
   0.09606357 -0.05546233  0.01960889       0.003
   0.14409536 -0.08319350 -0.00000000       0.003
  -0.14409536  0.08319350  0.11765337       0.003
  -0.09606357  0.05546233  0.09804447       0.003
  -0.04803179  0.02773117  0.07843558       0.003
   0.00000000  0.05546233  0.03921779       0.003
   0.04803179  0.02773117  0.01960889       0.003
   0.09606357  0.00000000  0.00000000       0.003
   0.14409536 -0.02773117 -0.01960889       0.003
  -0.14409536  0.13865583  0.09804447       0.003
  -0.09606357  0.11092466  0.07843558       0.003
  -0.04803179  0.08319350  0.05882668       0.003
   0.00000000  0.11092466  0.01960889       0.003
   0.04803179  0.08319350  0.00000000       0.003
   0.09606357  0.05546233 -0.01960889       0.003
   0.14409536  0.02773117 -0.03921779       0.003
  -0.14409536  0.19411816  0.07843558       0.003
  -0.09606357  0.16638699  0.05882668       0.003
  -0.04803179  0.13865583  0.03921779       0.003
   0.00000000  0.16638699  0.00000000       0.003
   0.04803179  0.13865583 -0.01960889       0.003
   0.09606357  0.11092466 -0.03921779       0.003
   0.14409536  0.08319350 -0.05882668       0.003
  -0.14409536  0.24958049  0.05882668       0.003
  -0.09606357  0.22184932  0.03921779       0.003
  -0.04803179  0.19411816  0.01960889       0.003
   0.00000000 -0.16638699  0.11765337       0.003
   0.04803179 -0.19411816  0.09804447       0.003
   0.09606357 -0.22184932  0.07843558       0.003
   0.14409536 -0.24958049  0.05882668       0.003
  -0.14409536 -0.08319350  0.17648005       0.003
  -0.09606357 -0.11092466  0.15687116       0.003
  -0.04803179 -0.13865583  0.13726226       0.003
   0.00000000 -0.11092466  0.09804447       0.003
   0.04803179 -0.13865583  0.07843558       0.003
   0.09606357 -0.16638699  0.05882668       0.003
   0.14409536 -0.19411816  0.03921779       0.003
  -0.14409536 -0.02773117  0.15687116       0.003
  -0.09606357 -0.05546233  0.13726226       0.003
  -0.04803179 -0.08319350  0.11765337       0.003
   0.00000000 -0.05546233  0.07843558       0.003
   0.04803179 -0.08319350  0.05882668       0.003
   0.09606357 -0.11092466  0.03921779       0.003
   0.14409536 -0.13865583  0.01960889       0.003
  -0.14409536  0.02773117  0.13726226       0.003
  -0.09606357  0.00000000  0.11765337       0.003
  -0.04803179 -0.02773117  0.09804447       0.003
   0.00000000  0.00000000  0.11765337       0.003
   0.04803179 -0.02773117  0.09804447       0.003
   0.09606357 -0.05546233  0.07843558       0.003
   0.14409536 -0.08319350  0.05882668       0.003
  -0.14409536  0.08319350  0.17648005       0.003
  -0.09606357  0.05546233  0.15687116       0.003
  -0.04803179  0.02773117  0.13726226       0.003
   0.00000000  0.05546233  0.09804447       0.003
   0.04803179  0.02773117  0.07843558       0.003
   0.09606357  0.00000000  0.05882668       0.003
   0.14409536 -0.02773117  0.03921779       0.003
  -0.14409536  0.13865583  0.15687116       0.003
  -0.09606357  0.11092466  0.13726226       0.003
  -0.04803179  0.08319350  0.11765337       0.003
   0.00000000  0.11092466  0.07843558       0.003
   0.04803179  0.08319350  0.05882668       0.003
   0.09606357  0.05546233  0.03921779       0.003
   0.14409536  0.02773117  0.01960889       0.003
  -0.14409536  0.19411816  0.13726226       0.003
  -0.09606357  0.16638699  0.11765337       0.003
  -0.04803179  0.13865583  0.09804447       0.003
   0.00000000  0.16638699  0.05882668       0.003
   0.04803179  0.13865583  0.03921779       0.003
   0.09606357  0.11092466  0.01960889       0.003
   0.14409536  0.08319350  0.00000000       0.003
  -0.14409536  0.24958049  0.11765337       0.003
  -0.09606357  0.22184932  0.09804447       0.003
  -0.04803179  0.19411816  0.07843558       0.003
   0.00000000 -0.16638699  0.17648005       0.003
   0.04803179 -0.19411816  0.15687116       0.003
   0.09606357 -0.22184932  0.13726226       0.003
   0.14409536 -0.24958049  0.11765337       0.003
  -0.14409536 -0.08319350  0.23530674       0.003
  -0.09606357 -0.11092466  0.21569784       0.003
  -0.04803179 -0.13865583  0.19608895       0.003
   0.00000000 -0.11092466  0.15687116       0.003
   0.04803179 -0.13865583  0.13726226       0.003
   0.09606357 -0.16638699  0.11765337       0.003
   0.14409536 -0.19411816  0.09804447       0.003
  -0.14409536 -0.02773117  0.21569784       0.003
  -0.09606357 -0.05546233  0.19608895       0.003
  -0.04803179 -0.08319350  0.17648005       0.003
   0.00000000 -0.05546233  0.13726226       0.003
   0.04803179 -0.08319350  0.11765337       0.003
   0.09606357 -0.11092466  0.09804447       0.003
   0.14409536 -0.13865583  0.07843558       0.003
  -0.14409536  0.02773117  0.19608895       0.003
  -0.09606357  0.00000000  0.17648005       0.003
  -0.04803179 -0.02773117  0.15687116       0.003
   0.00000000  0.00000000  0.17648005       0.003
   0.04803179 -0.02773117  0.15687116       0.003
   0.09606357 -0.05546233  0.13726226       0.003
   0.14409536 -0.08319350  0.11765337       0.003
  -0.14409536  0.08319350  0.23530674       0.003
  -0.09606357  0.05546233  0.21569784       0.003
  -0.04803179  0.02773117  0.19608895       0.003
   0.00000000  0.05546233  0.15687116       0.003
   0.04803179  0.02773117  0.13726226       0.003
   0.09606357  0.00000000  0.11765337       0.003
   0.14409536 -0.02773117  0.09804447       0.003
  -0.14409536  0.13865583  0.21569784       0.003
  -0.09606357  0.11092466  0.19608895       0.003
  -0.04803179  0.08319350  0.17648005       0.003
   0.00000000  0.11092466  0.13726226       0.003
   0.04803179  0.08319350  0.11765337       0.003
   0.09606357  0.05546233  0.09804447       0.003
   0.14409536  0.02773117  0.07843558       0.003
  -0.14409536  0.19411816  0.19608895       0.003
  -0.09606357  0.16638699  0.17648005       0.003
  -0.04803179  0.13865583  0.15687116       0.003
   0.00000000  0.16638699  0.11765337       0.003
   0.04803179  0.13865583  0.09804447       0.003
   0.09606357  0.11092466  0.07843558       0.003
   0.14409536  0.08319350  0.05882668       0.003
  -0.14409536  0.24958049  0.17648005       0.003
  -0.09606357  0.22184932  0.15687116       0.003
  -0.04803179  0.19411816  0.13726226       0.003
   0.00000000 -0.16638699  0.23530674       0.003
   0.04803179 -0.19411816  0.21569784       0.003
   0.09606357 -0.22184932  0.19608895       0.003
   0.14409536 -0.24958049  0.17648005       0.003
  -0.14409536 -0.08319350  0.29413342       0.003
  -0.09606357 -0.11092466  0.27452453       0.003
  -0.04803179 -0.13865583  0.25491563       0.003
   0.00000000 -0.11092466  0.21569784       0.003
   0.04803179 -0.13865583  0.19608895       0.003
   0.09606357 -0.16638699  0.17648005       0.003
   0.14409536 -0.19411816  0.15687116       0.003
  -0.14409536 -0.02773117  0.27452453       0.003
  -0.09606357 -0.05546233  0.25491563       0.003
  -0.04803179 -0.08319350  0.23530674       0.003
   0.00000000 -0.05546233  0.19608895       0.003
   0.04803179 -0.08319350  0.17648005       0.003
   0.09606357 -0.11092466  0.15687116       0.003
   0.14409536 -0.13865583  0.13726226       0.003
  -0.14409536  0.02773117  0.25491563       0.003
  -0.09606357  0.00000000  0.23530674       0.003
  -0.04803179 -0.02773117  0.21569784       0.003
   0.00000000  0.00000000 -0.17648005       0.003
   0.04803179 -0.02773117 -0.19608895       0.003
   0.09606357 -0.05546233 -0.21569784       0.003
   0.14409536 -0.08319350 -0.23530674       0.003
  -0.14409536  0.08319350 -0.11765337       0.003
  -0.09606357  0.05546233 -0.13726226       0.003
  -0.04803179  0.02773117 -0.15687116       0.003
   0.00000000  0.05546233 -0.19608895       0.003
   0.04803179  0.02773117 -0.21569784       0.003
   0.09606357  0.00000000 -0.23530674       0.003
   0.14409536 -0.02773117 -0.25491563       0.003
  -0.14409536  0.13865583 -0.13726226       0.003
  -0.09606357  0.11092466 -0.15687116       0.003
  -0.04803179  0.08319350 -0.17648005       0.003
   0.00000000  0.11092466 -0.21569784       0.003
   0.04803179  0.08319350 -0.23530674       0.003
   0.09606357  0.05546233 -0.25491563       0.003
   0.14409536  0.02773117 -0.27452453       0.003
  -0.14409536  0.19411816 -0.15687116       0.003
  -0.09606357  0.16638699 -0.17648005       0.003
  -0.04803179  0.13865583 -0.19608895       0.003
   0.00000000  0.16638699 -0.23530674       0.003
   0.04803179  0.13865583 -0.25491563       0.003
   0.09606357  0.11092466 -0.27452453       0.003
   0.14409536  0.08319350 -0.29413342       0.003
  -0.14409536  0.24958049 -0.17648005       0.003
  -0.09606357  0.22184932 -0.19608895       0.003
  -0.04803179  0.19411816 -0.21569784       0.003
   0.00000000 -0.16638699 -0.11765337       0.003
   0.04803179 -0.19411816 -0.13726226       0.003
   0.09606357 -0.22184932 -0.15687116       0.003
   0.14409536 -0.24958049 -0.17648005       0.003
  -0.14409536 -0.08319350 -0.05882668       0.003
  -0.09606357 -0.11092466 -0.07843558       0.003
  -0.04803179 -0.13865583 -0.09804447       0.003
   0.00000000 -0.11092466 -0.13726226       0.003
   0.04803179 -0.13865583 -0.15687116       0.003
   0.09606357 -0.16638699 -0.17648005       0.003
   0.14409536 -0.19411816 -0.19608895       0.003
  -0.14409536 -0.02773117 -0.07843558       0.003
  -0.09606357 -0.05546233 -0.09804447       0.003
  -0.04803179 -0.08319350 -0.11765337       0.003
   0.00000000 -0.05546233 -0.15687116       0.003
   0.04803179 -0.08319350 -0.17648005       0.003
   0.09606357 -0.11092466 -0.19608895       0.003
   0.14409536 -0.13865583 -0.21569784       0.003
  -0.14409536  0.02773117 -0.09804447       0.003
  -0.09606357  0.00000000 -0.11765337       0.003
  -0.04803179 -0.02773117 -0.13726226       0.003
   0.00000000  0.00000000 -0.11765337       0.003
   0.04803179 -0.02773117 -0.13726226       0.003
   0.09606357 -0.05546233 -0.15687116       0.003
   0.14409536 -0.08319350 -0.17648005       0.003
  -0.14409536  0.08319350 -0.05882668       0.003
  -0.09606357  0.05546233 -0.07843558       0.003
  -0.04803179  0.02773117 -0.09804447       0.003
   0.00000000  0.05546233 -0.13726226       0.003
   0.04803179  0.02773117 -0.15687116       0.003
   0.09606357  0.00000000 -0.17648005       0.003
   0.14409536 -0.02773117 -0.19608895       0.003
  -0.14409536  0.13865583 -0.07843558       0.003
  -0.09606357  0.11092466 -0.09804447       0.003
  -0.04803179  0.08319350 -0.11765337       0.003
   0.00000000  0.11092466 -0.15687116       0.003
   0.04803179  0.08319350 -0.17648005       0.003
   0.09606357  0.05546233 -0.19608895       0.003
   0.14409536  0.02773117 -0.21569784       0.003
  -0.14409536  0.19411816 -0.09804447       0.003
  -0.09606357  0.16638699 -0.11765337       0.003
  -0.04803179  0.13865583 -0.13726226       0.003
   0.00000000  0.16638699 -0.17648005       0.003
   0.04803179  0.13865583 -0.19608895       0.003
   0.09606357  0.11092466 -0.21569784       0.003
   0.14409536  0.08319350 -0.23530674       0.003
  -0.14409536  0.24958049 -0.11765337       0.003
  -0.09606357  0.22184932 -0.13726226       0.003
  -0.04803179  0.19411816 -0.15687116       0.003
   0.00000000 -0.16638699 -0.05882668       0.003
   0.04803179 -0.19411816 -0.07843558       0.003
   0.09606357 -0.22184932 -0.09804447       0.003
   0.14409536 -0.24958049 -0.11765337       0.003
  -0.14409536 -0.08319350 -0.00000000       0.003
  -0.09606357 -0.11092466 -0.01960889       0.003
  -0.04803179 -0.13865583 -0.03921779       0.003
   0.00000000 -0.11092466 -0.07843558       0.003
   0.04803179 -0.13865583 -0.09804447       0.003
   0.09606357 -0.16638699 -0.11765337       0.003
   0.14409536 -0.19411816 -0.13726226       0.003
  -0.14409536 -0.02773117 -0.01960889       0.003
  -0.09606357 -0.05546233 -0.03921779       0.003
  -0.04803179 -0.08319350 -0.05882668       0.003
   0.00000000 -0.05546233 -0.09804447       0.003
   0.04803179 -0.08319350 -0.11765337       0.003
   0.09606357 -0.11092466 -0.13726226       0.003
   0.14409536 -0.13865583 -0.15687116       0.003
  -0.14409536  0.02773117 -0.03921779       0.003
  -0.09606357  0.00000000 -0.05882668       0.003
  -0.04803179 -0.02773117 -0.07843558       0.003
   0.00000000  0.00000000 -0.05882668       0.003
   0.04803179 -0.02773117 -0.07843558       0.003
   0.09606357 -0.05546233 -0.09804447       0.003
   0.14409536 -0.08319350 -0.11765337       0.003
  -0.14409536  0.08319350  0.00000000       0.003
  -0.09606357  0.05546233 -0.01960889       0.003
  -0.04803179  0.02773117 -0.03921779       0.003
   0.00000000  0.05546233 -0.07843558       0.003
   0.04803179  0.02773117 -0.09804447       0.003
   0.09606357  0.00000000 -0.11765337       0.003
   0.14409536 -0.02773117 -0.13726226       0.003
  -0.14409536  0.13865583 -0.01960889       0.003
  -0.09606357  0.11092466 -0.03921779       0.003
  -0.04803179  0.08319350 -0.05882668       0.003
   0.00000000  0.11092466 -0.09804447       0.003
   0.04803179  0.08319350 -0.11765337       0.003
   0.09606357  0.05546233 -0.13726226       0.003
   0.14409536  0.02773117 -0.15687116       0.003
  -0.14409536  0.19411816 -0.03921779       0.003
  -0.09606357  0.16638699 -0.05882668       0.003
  -0.04803179  0.13865583 -0.07843558       0.003
   0.00000000  0.16638699 -0.11765337       0.003
   0.04803179  0.13865583 -0.13726226       0.003
   0.09606357  0.11092466 -0.15687116       0.003
   0.14409536  0.08319350 -0.17648005       0.003
  -0.14409536  0.24958049 -0.05882668       0.003
  -0.09606357  0.22184932 -0.07843558       0.003
  -0.04803179  0.19411816 -0.09804447       0.003
   0.00000000 -0.16638699 -0.00000000       0.003
   0.04803179 -0.19411816 -0.01960889       0.003
   0.09606357 -0.22184932 -0.03921779       0.003
   0.14409536 -0.24958049 -0.05882668       0.003
  -0.14409536 -0.08319350  0.05882668       0.003
  -0.09606357 -0.11092466  0.03921779       0.003
  -0.04803179 -0.13865583  0.01960889       0.003
   0.00000000 -0.11092466 -0.01960889       0.003
   0.04803179 -0.13865583 -0.03921779       0.003
   0.09606357 -0.16638699 -0.05882668       0.003
   0.14409536 -0.19411816 -0.07843558       0.003
  -0.14409536 -0.02773117  0.03921779       0.003
  -0.09606357 -0.05546233  0.01960889       0.003
  -0.04803179 -0.08319350 -0.00000000       0.003
   0.00000000 -0.05546233 -0.03921779       0.003
   0.04803179 -0.08319350 -0.05882668       0.003
   0.09606357 -0.11092466 -0.07843558       0.003
   0.14409536 -0.13865583 -0.09804447       0.003
  -0.14409536  0.02773117  0.01960889       0.003
  -0.09606357  0.00000000  0.00000000       0.003
  -0.04803179 -0.02773117 -0.01960889       0.003
 
 k-points in reciprocal lattice and weights: k-points                                
   0.00000000  0.00000000  0.00000000       0.003
   0.14285714 -0.00000000 -0.00000000       0.003
   0.28571429 -0.00000000 -0.00000000       0.003
   0.42857143  0.00000000  0.00000000       0.003
  -0.42857143  0.00000000 -0.00000000       0.003
  -0.28571429  0.00000000  0.00000000       0.003
  -0.14285714 -0.00000000  0.00000000       0.003
   0.00000000  0.14285714  0.00000000       0.003
   0.14285714  0.14285714  0.00000000       0.003
   0.28571429  0.14285714  0.00000000       0.003
   0.42857143  0.14285714 -0.00000000       0.003
  -0.42857143  0.14285714  0.00000000       0.003
  -0.28571429  0.14285714  0.00000000       0.003
  -0.14285714  0.14285714 -0.00000000       0.003
   0.00000000  0.28571429  0.00000000       0.003
   0.14285714  0.28571429 -0.00000000       0.003
   0.28571429  0.28571429 -0.00000000       0.003
   0.42857143  0.28571429 -0.00000000       0.003
  -0.42857143  0.28571429  0.00000000       0.003
  -0.28571429  0.28571429  0.00000000       0.003
  -0.14285714  0.28571429 -0.00000000       0.003
   0.00000000  0.42857143  0.00000000       0.003
   0.14285714  0.42857143 -0.00000000       0.003
   0.28571429  0.42857143  0.00000000       0.003
   0.42857143  0.42857143  0.00000000       0.003
  -0.42857143  0.42857143  0.00000000       0.003
  -0.28571429  0.42857143 -0.00000000       0.003
  -0.14285714  0.42857143 -0.00000000       0.003
   0.00000000 -0.42857143  0.00000000       0.003
   0.14285714 -0.42857143  0.00000000       0.003
   0.28571429 -0.42857143  0.00000000       0.003
   0.42857143 -0.42857143 -0.00000000       0.003
  -0.42857143 -0.42857143  0.00000000       0.003
  -0.28571429 -0.42857143  0.00000000       0.003
  -0.14285714 -0.42857143  0.00000000       0.003
   0.00000000 -0.28571429  0.00000000       0.003
   0.14285714 -0.28571429  0.00000000       0.003
   0.28571429 -0.28571429 -0.00000000       0.003
   0.42857143 -0.28571429  0.00000000       0.003
  -0.42857143 -0.28571429  0.00000000       0.003
  -0.28571429 -0.28571429  0.00000000       0.003
  -0.14285714 -0.28571429  0.00000000       0.003
   0.00000000 -0.14285714  0.00000000       0.003
   0.14285714 -0.14285714 -0.00000000       0.003
   0.28571429 -0.14285714 -0.00000000       0.003
   0.42857143 -0.14285714 -0.00000000       0.003
  -0.42857143 -0.14285714 -0.00000000       0.003
  -0.28571429 -0.14285714  0.00000000       0.003
  -0.14285714 -0.14285714  0.00000000       0.003
   0.00000000  0.00000000  0.14285714       0.003
   0.14285714 -0.00000000  0.14285714       0.003
   0.28571429 -0.00000000  0.14285714       0.003
   0.42857143  0.00000000  0.14285714       0.003
  -0.42857143  0.00000000  0.14285714       0.003
  -0.28571429  0.00000000  0.14285714       0.003
  -0.14285714 -0.00000000  0.14285714       0.003
   0.00000000  0.14285714  0.14285714       0.003
   0.14285714  0.14285714  0.14285714       0.003
   0.28571429  0.14285714  0.14285714       0.003
   0.42857143  0.14285714  0.14285714       0.003
  -0.42857143  0.14285714  0.14285714       0.003
  -0.28571429  0.14285714  0.14285714       0.003
  -0.14285714  0.14285714  0.14285714       0.003
   0.00000000  0.28571429  0.14285714       0.003
   0.14285714  0.28571429  0.14285714       0.003
   0.28571429  0.28571429  0.14285714       0.003
   0.42857143  0.28571429  0.14285714       0.003
  -0.42857143  0.28571429  0.14285714       0.003
  -0.28571429  0.28571429  0.14285714       0.003
  -0.14285714  0.28571429  0.14285714       0.003
   0.00000000  0.42857143  0.14285714       0.003
   0.14285714  0.42857143  0.14285714       0.003
   0.28571429  0.42857143  0.14285714       0.003
   0.42857143  0.42857143  0.14285714       0.003
  -0.42857143  0.42857143  0.14285714       0.003
  -0.28571429  0.42857143  0.14285714       0.003
  -0.14285714  0.42857143  0.14285714       0.003
   0.00000000 -0.42857143  0.14285714       0.003
   0.14285714 -0.42857143  0.14285714       0.003
   0.28571429 -0.42857143  0.14285714       0.003
   0.42857143 -0.42857143  0.14285714       0.003
  -0.42857143 -0.42857143  0.14285714       0.003
  -0.28571429 -0.42857143  0.14285714       0.003
  -0.14285714 -0.42857143  0.14285714       0.003
   0.00000000 -0.28571429  0.14285714       0.003
   0.14285714 -0.28571429  0.14285714       0.003
   0.28571429 -0.28571429  0.14285714       0.003
   0.42857143 -0.28571429  0.14285714       0.003
  -0.42857143 -0.28571429  0.14285714       0.003
  -0.28571429 -0.28571429  0.14285714       0.003
  -0.14285714 -0.28571429  0.14285714       0.003
   0.00000000 -0.14285714  0.14285714       0.003
   0.14285714 -0.14285714  0.14285714       0.003
   0.28571429 -0.14285714  0.14285714       0.003
   0.42857143 -0.14285714  0.14285714       0.003
  -0.42857143 -0.14285714  0.14285714       0.003
  -0.28571429 -0.14285714  0.14285714       0.003
  -0.14285714 -0.14285714  0.14285714       0.003
   0.00000000  0.00000000  0.28571429       0.003
   0.14285714 -0.00000000  0.28571429       0.003
   0.28571429 -0.00000000  0.28571429       0.003
   0.42857143  0.00000000  0.28571429       0.003
  -0.42857143  0.00000000  0.28571429       0.003
  -0.28571429  0.00000000  0.28571429       0.003
  -0.14285714 -0.00000000  0.28571429       0.003
   0.00000000  0.14285714  0.28571429       0.003
   0.14285714  0.14285714  0.28571429       0.003
   0.28571429  0.14285714  0.28571429       0.003
   0.42857143  0.14285714  0.28571429       0.003
  -0.42857143  0.14285714  0.28571429       0.003
  -0.28571429  0.14285714  0.28571429       0.003
  -0.14285714  0.14285714  0.28571429       0.003
   0.00000000  0.28571429  0.28571429       0.003
   0.14285714  0.28571429  0.28571429       0.003
   0.28571429  0.28571429  0.28571429       0.003
   0.42857143  0.28571429  0.28571429       0.003
  -0.42857143  0.28571429  0.28571429       0.003
  -0.28571429  0.28571429  0.28571429       0.003
  -0.14285714  0.28571429  0.28571429       0.003
   0.00000000  0.42857143  0.28571429       0.003
   0.14285714  0.42857143  0.28571429       0.003
   0.28571429  0.42857143  0.28571429       0.003
   0.42857143  0.42857143  0.28571429       0.003
  -0.42857143  0.42857143  0.28571429       0.003
  -0.28571429  0.42857143  0.28571429       0.003
  -0.14285714  0.42857143  0.28571429       0.003
   0.00000000 -0.42857143  0.28571429       0.003
   0.14285714 -0.42857143  0.28571429       0.003
   0.28571429 -0.42857143  0.28571429       0.003
   0.42857143 -0.42857143  0.28571429       0.003
  -0.42857143 -0.42857143  0.28571429       0.003
  -0.28571429 -0.42857143  0.28571429       0.003
  -0.14285714 -0.42857143  0.28571429       0.003
   0.00000000 -0.28571429  0.28571429       0.003
   0.14285714 -0.28571429  0.28571429       0.003
   0.28571429 -0.28571429  0.28571429       0.003
   0.42857143 -0.28571429  0.28571429       0.003
  -0.42857143 -0.28571429  0.28571429       0.003
  -0.28571429 -0.28571429  0.28571429       0.003
  -0.14285714 -0.28571429  0.28571429       0.003
   0.00000000 -0.14285714  0.28571429       0.003
   0.14285714 -0.14285714  0.28571429       0.003
   0.28571429 -0.14285714  0.28571429       0.003
   0.42857143 -0.14285714  0.28571429       0.003
  -0.42857143 -0.14285714  0.28571429       0.003
  -0.28571429 -0.14285714  0.28571429       0.003
  -0.14285714 -0.14285714  0.28571429       0.003
   0.00000000  0.00000000  0.42857143       0.003
   0.14285714 -0.00000000  0.42857143       0.003
   0.28571429 -0.00000000  0.42857143       0.003
   0.42857143  0.00000000  0.42857143       0.003
  -0.42857143  0.00000000  0.42857143       0.003
  -0.28571429  0.00000000  0.42857143       0.003
  -0.14285714 -0.00000000  0.42857143       0.003
   0.00000000  0.14285714  0.42857143       0.003
   0.14285714  0.14285714  0.42857143       0.003
   0.28571429  0.14285714  0.42857143       0.003
   0.42857143  0.14285714  0.42857143       0.003
  -0.42857143  0.14285714  0.42857143       0.003
  -0.28571429  0.14285714  0.42857143       0.003
  -0.14285714  0.14285714  0.42857143       0.003
   0.00000000  0.28571429  0.42857143       0.003
   0.14285714  0.28571429  0.42857143       0.003
   0.28571429  0.28571429  0.42857143       0.003
   0.42857143  0.28571429  0.42857143       0.003
  -0.42857143  0.28571429  0.42857143       0.003
  -0.28571429  0.28571429  0.42857143       0.003
  -0.14285714  0.28571429  0.42857143       0.003
   0.00000000  0.42857143  0.42857143       0.003
   0.14285714  0.42857143  0.42857143       0.003
   0.28571429  0.42857143  0.42857143       0.003
   0.42857143  0.42857143  0.42857143       0.003
  -0.42857143  0.42857143  0.42857143       0.003
  -0.28571429  0.42857143  0.42857143       0.003
  -0.14285714  0.42857143  0.42857143       0.003
   0.00000000 -0.42857143  0.42857143       0.003
   0.14285714 -0.42857143  0.42857143       0.003
   0.28571429 -0.42857143  0.42857143       0.003
   0.42857143 -0.42857143  0.42857143       0.003
  -0.42857143 -0.42857143  0.42857143       0.003
  -0.28571429 -0.42857143  0.42857143       0.003
  -0.14285714 -0.42857143  0.42857143       0.003
   0.00000000 -0.28571429  0.42857143       0.003
   0.14285714 -0.28571429  0.42857143       0.003
   0.28571429 -0.28571429  0.42857143       0.003
   0.42857143 -0.28571429  0.42857143       0.003
  -0.42857143 -0.28571429  0.42857143       0.003
  -0.28571429 -0.28571429  0.42857143       0.003
  -0.14285714 -0.28571429  0.42857143       0.003
   0.00000000 -0.14285714  0.42857143       0.003
   0.14285714 -0.14285714  0.42857143       0.003
   0.28571429 -0.14285714  0.42857143       0.003
   0.42857143 -0.14285714  0.42857143       0.003
  -0.42857143 -0.14285714  0.42857143       0.003
  -0.28571429 -0.14285714  0.42857143       0.003
  -0.14285714 -0.14285714  0.42857143       0.003
   0.00000000  0.00000000 -0.42857143       0.003
   0.14285714 -0.00000000 -0.42857143       0.003
   0.28571429 -0.00000000 -0.42857143       0.003
   0.42857143  0.00000000 -0.42857143       0.003
  -0.42857143  0.00000000 -0.42857143       0.003
  -0.28571429  0.00000000 -0.42857143       0.003
  -0.14285714 -0.00000000 -0.42857143       0.003
   0.00000000  0.14285714 -0.42857143       0.003
   0.14285714  0.14285714 -0.42857143       0.003
   0.28571429  0.14285714 -0.42857143       0.003
   0.42857143  0.14285714 -0.42857143       0.003
  -0.42857143  0.14285714 -0.42857143       0.003
  -0.28571429  0.14285714 -0.42857143       0.003
  -0.14285714  0.14285714 -0.42857143       0.003
   0.00000000  0.28571429 -0.42857143       0.003
   0.14285714  0.28571429 -0.42857143       0.003
   0.28571429  0.28571429 -0.42857143       0.003
   0.42857143  0.28571429 -0.42857143       0.003
  -0.42857143  0.28571429 -0.42857143       0.003
  -0.28571429  0.28571429 -0.42857143       0.003
  -0.14285714  0.28571429 -0.42857143       0.003
   0.00000000  0.42857143 -0.42857143       0.003
   0.14285714  0.42857143 -0.42857143       0.003
   0.28571429  0.42857143 -0.42857143       0.003
   0.42857143  0.42857143 -0.42857143       0.003
  -0.42857143  0.42857143 -0.42857143       0.003
  -0.28571429  0.42857143 -0.42857143       0.003
  -0.14285714  0.42857143 -0.42857143       0.003
   0.00000000 -0.42857143 -0.42857143       0.003
   0.14285714 -0.42857143 -0.42857143       0.003
   0.28571429 -0.42857143 -0.42857143       0.003
   0.42857143 -0.42857143 -0.42857143       0.003
  -0.42857143 -0.42857143 -0.42857143       0.003
  -0.28571429 -0.42857143 -0.42857143       0.003
  -0.14285714 -0.42857143 -0.42857143       0.003
   0.00000000 -0.28571429 -0.42857143       0.003
   0.14285714 -0.28571429 -0.42857143       0.003
   0.28571429 -0.28571429 -0.42857143       0.003
   0.42857143 -0.28571429 -0.42857143       0.003
  -0.42857143 -0.28571429 -0.42857143       0.003
  -0.28571429 -0.28571429 -0.42857143       0.003
  -0.14285714 -0.28571429 -0.42857143       0.003
   0.00000000 -0.14285714 -0.42857143       0.003
   0.14285714 -0.14285714 -0.42857143       0.003
   0.28571429 -0.14285714 -0.42857143       0.003
   0.42857143 -0.14285714 -0.42857143       0.003
  -0.42857143 -0.14285714 -0.42857143       0.003
  -0.28571429 -0.14285714 -0.42857143       0.003
  -0.14285714 -0.14285714 -0.42857143       0.003
   0.00000000  0.00000000 -0.28571429       0.003
   0.14285714 -0.00000000 -0.28571429       0.003
   0.28571429 -0.00000000 -0.28571429       0.003
   0.42857143  0.00000000 -0.28571429       0.003
  -0.42857143  0.00000000 -0.28571429       0.003
  -0.28571429  0.00000000 -0.28571429       0.003
  -0.14285714 -0.00000000 -0.28571429       0.003
   0.00000000  0.14285714 -0.28571429       0.003
   0.14285714  0.14285714 -0.28571429       0.003
   0.28571429  0.14285714 -0.28571429       0.003
   0.42857143  0.14285714 -0.28571429       0.003
  -0.42857143  0.14285714 -0.28571429       0.003
  -0.28571429  0.14285714 -0.28571429       0.003
  -0.14285714  0.14285714 -0.28571429       0.003
   0.00000000  0.28571429 -0.28571429       0.003
   0.14285714  0.28571429 -0.28571429       0.003
   0.28571429  0.28571429 -0.28571429       0.003
   0.42857143  0.28571429 -0.28571429       0.003
  -0.42857143  0.28571429 -0.28571429       0.003
  -0.28571429  0.28571429 -0.28571429       0.003
  -0.14285714  0.28571429 -0.28571429       0.003
   0.00000000  0.42857143 -0.28571429       0.003
   0.14285714  0.42857143 -0.28571429       0.003
   0.28571429  0.42857143 -0.28571429       0.003
   0.42857143  0.42857143 -0.28571429       0.003
  -0.42857143  0.42857143 -0.28571429       0.003
  -0.28571429  0.42857143 -0.28571429       0.003
  -0.14285714  0.42857143 -0.28571429       0.003
   0.00000000 -0.42857143 -0.28571429       0.003
   0.14285714 -0.42857143 -0.28571429       0.003
   0.28571429 -0.42857143 -0.28571429       0.003
   0.42857143 -0.42857143 -0.28571429       0.003
  -0.42857143 -0.42857143 -0.28571429       0.003
  -0.28571429 -0.42857143 -0.28571429       0.003
  -0.14285714 -0.42857143 -0.28571429       0.003
   0.00000000 -0.28571429 -0.28571429       0.003
   0.14285714 -0.28571429 -0.28571429       0.003
   0.28571429 -0.28571429 -0.28571429       0.003
   0.42857143 -0.28571429 -0.28571429       0.003
  -0.42857143 -0.28571429 -0.28571429       0.003
  -0.28571429 -0.28571429 -0.28571429       0.003
  -0.14285714 -0.28571429 -0.28571429       0.003
   0.00000000 -0.14285714 -0.28571429       0.003
   0.14285714 -0.14285714 -0.28571429       0.003
   0.28571429 -0.14285714 -0.28571429       0.003
   0.42857143 -0.14285714 -0.28571429       0.003
  -0.42857143 -0.14285714 -0.28571429       0.003
  -0.28571429 -0.14285714 -0.28571429       0.003
  -0.14285714 -0.14285714 -0.28571429       0.003
   0.00000000  0.00000000 -0.14285714       0.003
   0.14285714 -0.00000000 -0.14285714       0.003
   0.28571429 -0.00000000 -0.14285714       0.003
   0.42857143  0.00000000 -0.14285714       0.003
  -0.42857143  0.00000000 -0.14285714       0.003
  -0.28571429  0.00000000 -0.14285714       0.003
  -0.14285714 -0.00000000 -0.14285714       0.003
   0.00000000  0.14285714 -0.14285714       0.003
   0.14285714  0.14285714 -0.14285714       0.003
   0.28571429  0.14285714 -0.14285714       0.003
   0.42857143  0.14285714 -0.14285714       0.003
  -0.42857143  0.14285714 -0.14285714       0.003
  -0.28571429  0.14285714 -0.14285714       0.003
  -0.14285714  0.14285714 -0.14285714       0.003
   0.00000000  0.28571429 -0.14285714       0.003
[...]
    0.000000    0.000000    0.000000    0.000000    0.000000    0.000000    0.000000
    1.775307    0.000000    0.000000    0.000000    0.000000    0.000000    0.000000
    3.550615    0.000000    0.000000    0.000000    0.000000    0.000000    0.000000
    5.325922    0.000000    0.000000    0.000000    0.000000    0.000000    0.000000
    7.101229    0.000000    0.000000    0.000000    0.000000    0.000000    0.000000
    8.876537    0.000000    0.000000    0.000000    0.000000    0.000000    0.000000
   10.651844    0.000000    0.000000    0.000000    0.000000    0.000000    0.000000
   12.427151    0.734878    0.734883    0.734870    0.000001    0.000004   -0.000000
   14.202459    0.041260    0.041261    0.041260    0.000000    0.000000    0.000000
   15.977766    0.312301    0.312304    0.312287    0.000001    0.000003   -0.000001
   17.753073    0.311881    0.311884    0.311881    0.000001    0.000001    0.000001
   19.528381    0.575346    0.575352    0.575364    0.000000   -0.000001    0.000002
   21.303688    0.296904    0.296910    0.296911    0.000002   -0.000001    0.000001
   23.078995    0.387228    0.387225    0.387225    0.000000   -0.000002    0.000002
   24.854303    0.045964    0.045955    0.045952   -0.000003    0.000003   -0.000002
   26.629610    0.309695    0.309693    0.309694   -0.000000    0.000000    0.000001
   28.404917    0.096974    0.096973    0.096970   -0.000001    0.000001   -0.000001
   30.180225    0.090648    0.090647    0.090648   -0.000000    0.000001   -0.000000
   31.955532    0.091192    0.091152    0.092607   -0.000049    0.000062   -0.000177
   33.730839    0.142897    0.142899    0.142898   -0.000000    0.000001   -0.000001
   35.506147    0.141887    0.141883    0.141883    0.000004    0.000002    0.000002
   37.281454    0.299655    0.299652    0.299653    0.000000    0.000001    0.000000
   39.056761    0.298660    0.298663    0.298651   -0.000000   -0.000001    0.000000
   40.832069    0.560361    0.560363    0.560356   -0.000000   -0.000000   -0.000001
   42.607376    0.145614    0.145613    0.145610    0.000000   -0.000000    0.000001
   44.382683    0.264029    0.263973    0.264004   -0.000035   -0.000011    0.000038
   46.157991    0.299595    0.299605    0.298866   -0.000018    0.000049   -0.000007
   47.933298    0.112784    0.112784    0.112783   -0.000001    0.000001   -0.000000
   49.708605    0.035816    0.035816    0.035817   -0.000000   -0.000000    0.000000
   51.483913    0.140906    0.140907    0.140909    0.000001   -0.000000   -0.000000
   53.259220    0.159997    0.159999    0.160000   -0.000002   -0.000001   -0.000001
   55.034527    0.079493    0.079493    0.079493    0.000000   -0.000000    0.000000
   56.809835    0.131146    0.131145    0.131152    0.000000   -0.000001    0.000001
   58.585142    0.192322    0.192320    0.192307    0.000001   -0.000003    0.000009
   60.360449    0.160167    0.160160    0.160087   -0.000003    0.000000   -0.000002
   62.135757    0.029746    0.029746    0.029744   -0.000000   -0.000000    0.000000
   63.911064    0.045951    0.045949    0.045952   -0.000001    0.000000   -0.000000
   65.686371    0.058934    0.058976    0.058950    0.000037    0.000030   -0.000052
   67.461678    0.266386    0.266379    0.266377    0.000003    0.000002    0.000002
   69.236986    0.112745    0.112745    0.112747    0.000001    0.000001    0.000000
   71.012293    0.123780    0.123780    0.123780   -0.000000    0.000000   -0.000001
   72.787600    0.043570    0.043570    0.043570   -0.000000    0.000000   -0.000000
   74.562908    0.055979    0.055979    0.055977   -0.000000    0.000001   -0.000000
   76.338215    0.080539    0.080539    0.080538    0.000000    0.000001   -0.000000
   78.113522    0.000135    0.000135    0.000135    0.000000    0.000000   -0.000000
   79.888830    0.092903    0.092903    0.092903    0.000000    0.000000    0.000000
   81.664137    0.028424    0.028424    0.028426   -0.000000    0.000000    0.000000
   83.439444    0.045524    0.045568    0.045545    0.000023    0.000031   -0.000034
   85.214752    0.031446    0.031445    0.031442    0.000000    0.000000    0.000000
   86.990059    0.041870    0.041870    0.041870   -0.000000   -0.000000   -0.000000
   88.765366    0.028772    0.028773    0.028772   -0.000000   -0.000000   -0.000000
   90.540674    0.006064    0.006064    0.006063    0.000000   -0.000000    0.000000
   92.315981    0.043790    0.043789    0.043788   -0.000000   -0.000000    0.000001
   94.091288    0.099748    0.099748    0.099748    0.000000   -0.000000   -0.000000
   95.866596    0.004956    0.004961    0.004966    0.000002    0.000001   -0.000001
   97.641903    0.056632    0.056649    0.056621    0.000003    0.000003   -0.000006
   99.417210    0.028290    0.028290    0.028290   -0.000000   -0.000000   -0.000000
  101.192518    0.030023    0.030022    0.030023   -0.000001   -0.000001    0.000001
  102.967825    0.012462    0.012462    0.012462    0.000000    0.000000    0.000000
  104.743132    0.040390    0.040391    0.040391   -0.000000   -0.000000    0.000000
  106.518440    0.057404    0.057404    0.057404    0.000000    0.000000   -0.000000
  108.293747    0.021226    0.021226    0.021226    0.000000    0.000000   -0.000000
  110.069054    0.023073    0.023073    0.023071    0.000000    0.000000    0.000000
  111.844362    0.002877    0.002877    0.002877   -0.000000   -0.000000   -0.000000
  113.619669    0.026862    0.026862    0.026862   -0.000000    0.000000   -0.000000
  115.394976    0.013548    0.013536    0.013540   -0.000006   -0.000009    0.000008
  117.170284    0.002887    0.002887    0.002887   -0.000000   -0.000000   -0.000000
  118.945591    0.014098    0.014097    0.014098   -0.000000    0.000000   -0.000000
  120.720898    0.003702    0.003702    0.003702    0.000000    0.000000    0.000000
  122.496206    0.002765    0.002765    0.002764   -0.000000   -0.000000   -0.000000
  124.271513    0.010489    0.010489    0.010488   -0.000000   -0.000000   -0.000000
  126.046820    0.000300    0.000300    0.000300    0.000000   -0.000000   -0.000000
  127.822128    0.003912    0.003912    0.003912    0.000000    0.000000   -0.000000
  129.597435    0.000000    0.000000    0.000000    0.000000    0.000000    0.000000
  131.372742    0.000000    0.000000    0.000000    0.000000    0.000000    0.000000
  133.148050    0.006703    0.006703    0.006703    0.000000    0.000000   -0.000000
  134.923357    0.006153    0.006153    0.006153    0.000000   -0.000000    0.000000
  136.698664    0.000363    0.000363    0.000363   -0.000000   -0.000000   -0.000000
  138.473972    0.005380    0.005380    0.005380    0.000000    0.000000   -0.000000
  140.249279    0.004796    0.004796    0.004796    0.000000    0.000000    0.000000
  142.024586    0.000459    0.000459    0.000467    0.000001    0.000000   -0.000002
  143.799894    0.001479    0.001479    0.001483   -0.000000   -0.000000   -0.000000
  145.575201    0.000000    0.000000    0.000000    0.000000    0.000000    0.000000
  147.350508    0.000000    0.000000    0.000000    0.000000    0.000000    0.000000
  149.125816    0.000000    0.000000    0.000000    0.000000    0.000000    0.000000
  150.901123    0.000000    0.000000    0.000000    0.000000    0.000000    0.000000
  152.676430    0.000000    0.000000    0.000000    0.000000    0.000000    0.000000
  154.451738    0.000000    0.000000    0.000000    0.000000    0.000000    0.000000
  156.227045    0.000000    0.000000    0.000000    0.000000    0.000000    0.000000
  158.002352    0.000000    0.000000    0.000000    0.000000    0.000000    0.000000
  159.777660    0.000000    0.000000    0.000000    0.000000    0.000000    0.000000
  161.552967    0.000000    0.000000    0.000000    0.000000    0.000000    0.000000
  163.328274    0.000000    0.000000    0.000000    0.000000    0.000000    0.000000
  165.103582    0.000000    0.000000    0.000000    0.000000    0.000000    0.000000
  166.878889    0.000000    0.000000    0.000000    0.000000    0.000000    0.000000
  168.654196    0.000000    0.000000    0.000000    0.000000    0.000000    0.000000
  170.429504    0.000000    0.000000    0.000000    0.000000    0.000000    0.000000
  172.204811    0.000000    0.000000    0.000000    0.000000    0.000000    0.000000
  173.980118    0.000000    0.000000    0.000000    0.000000    0.000000    0.000000
  175.755426    0.000000    0.000000    0.000000    0.000000    0.000000    0.000000

  frequency dependent      REAL DIELECTRIC FUNCTION (independent particle, no local field effects) current-current (2nd set in vasprun.xml)
     E(ev)        X           Y           Z          XY          YZ          ZX
  --------------------------------------------------------------------------------------------------------------
    0.000000    1.281771    1.281771    1.281771    0.000000   -0.000000    0.000000
    1.775307    1.283543    1.283533    1.283543    0.000000   -0.000000    0.000000
    3.550615    1.289345    1.289345    1.289345    0.000000   -0.000000    0.000000
    5.325922    1.300012    1.300012    1.300012    0.000000   -0.000000    0.000000
    7.101229    1.317654    1.317654    1.317654    0.000000   -0.000000    0.000000
    8.876537    1.347594    1.347595    1.347595    0.000000   -0.000000    0.000000
   10.651844    1.410444    1.410445    1.410445    0.000000   -0.000000    0.000001
   12.427151    1.429881    1.429883    1.429879    0.000000    0.000001    0.000000
   14.202459    1.164074    1.164074    1.164074   -0.000000    0.000000   -0.000000
   15.977766    1.267740    1.267740    1.267735    0.000000    0.000001   -0.000000
   17.753073    1.204063    1.204060    1.204057   -0.000002    0.000002   -0.000002
   19.528381    1.227692    1.227690    1.227689   -0.000001    0.000001   -0.000001
   21.303688    1.243593    1.243591    1.243591   -0.000001    0.000001   -0.000001
   23.078995    1.347409    1.347406    1.347404   -0.000000    0.000001   -0.000002
   24.854303    1.237731    1.237728    1.237726   -0.000001    0.000001   -0.000001
   26.629610    1.110752    1.110753    1.110752    0.000000    0.000000   -0.000000
   28.404917    0.915490    0.915497    0.915479    0.000015    0.000001    0.000006
   30.180225    0.946554    0.946555    0.946550    0.000000   -0.000001    0.000001
   31.955532    0.973233    0.973224    0.973575   -0.000012    0.000015   -0.000043
   33.730839    1.020369    1.020370    1.020365    0.000000   -0.000001    0.000001
   35.506147    1.032152    1.032152    1.032153   -0.000001   -0.000001   -0.000000
   37.281454    0.989715    0.989714    0.989716    0.000000   -0.000000   -0.000000
   39.056761    0.975308    0.975305    0.975312   -0.000000   -0.000001   -0.000001
   40.832069    1.021992    1.021992    1.021998    0.000001   -0.000001    0.000001
   42.607376    0.803573    0.803572    0.803575   -0.000000   -0.000000    0.000001
   44.382683    0.916436    0.916452    0.916444    0.000009    0.000001   -0.000009
   46.157991    0.918366    0.918362    0.918544    0.000004   -0.000012    0.000002
   47.933298    0.957918    0.957910    0.957910   -0.000001   -0.000006    0.000000
   49.708605    0.940909    0.940909    0.940910   -0.000000   -0.000001    0.000000
   51.483913    0.985127    0.985128    0.985128    0.000000   -0.000000    0.000000
   53.259220    0.972134    0.972133    0.972136   -0.000000    0.000000   -0.000000
   55.034527    0.917012    0.917012    0.917012   -0.000000    0.000000   -0.000000
   56.809835    0.926035    0.926035    0.926031    0.000001    0.000000    0.000000
   58.585142    1.011663    1.011662    1.011665   -0.000001    0.000001   -0.000001
   60.360449    0.970717    0.970704    0.970676   -0.000000    0.000005   -0.000002
   62.135757    0.927115    0.927112    0.927117   -0.000000   -0.000000   -0.000000
   63.911064    0.973999    0.974000    0.973998    0.000000    0.000000   -0.000000
   65.686371    0.944190    0.944182    0.944179   -0.000009   -0.000007    0.000010
   67.461678    0.947556    0.947555    0.947552    0.000001    0.000000   -0.000001
   69.236986    0.885952    0.885952    0.885954   -0.000000   -0.000000   -0.000000
   71.012293    0.881731    0.881746    0.881772   -0.000000   -0.000006    0.000001
   72.787600    0.916217    0.916217    0.916218   -0.000000   -0.000000   -0.000000
   74.562908    0.900873    0.900874    0.900876   -0.000000   -0.000000   -0.000000
   76.338215    0.950116    0.950116    0.950117    0.000000   -0.000000    0.000000
   78.113522    0.956614    0.956614    0.956614    0.000000   -0.000000    0.000000
   79.888830    0.929697    0.929697    0.929697    0.000000   -0.000000    0.000000
   81.664137    0.928563    0.928564    0.928562   -0.000000   -0.000000    0.000000
   83.439444    0.954430    0.954440    0.954437    0.000007    0.000007   -0.000007
   85.214752    0.939928    0.939926    0.939919    0.000003   -0.000001    0.000001
   86.990059    0.959746    0.959746    0.959745    0.000000    0.000000    0.000000
   88.765366    0.939889    0.939889    0.939889   -0.000000    0.000000    0.000000
   90.540674    0.961656    0.961656    0.961656    0.000000    0.000000    0.000000
   92.315981    0.977299    0.977299    0.977300   -0.000000    0.000000   -0.000000
   94.091288    0.946814    0.946814    0.946813    0.000000    0.000000   -0.000000
   95.866596    0.950881    0.950882    0.950876    0.000000    0.000002    0.000000
   97.641903    0.957524    0.957524    0.957523    0.000001    0.000002   -0.000002
   99.417210    0.941007    0.941007    0.941007   -0.000000    0.000000   -0.000000
  101.192518    0.948845    0.948845    0.948845   -0.000000   -0.000000    0.000000
  102.967825    0.962568    0.962568    0.962568   -0.000000   -0.000000   -0.000000
  104.743132    0.954715    0.954714    0.954712   -0.000000   -0.000000    0.000000
  106.518440    0.938302    0.938302    0.938300   -0.000000    0.000000    0.000000
  108.293747    0.960011    0.960011    0.960010   -0.000000    0.000000    0.000000
  110.069054    0.963574    0.963572    0.963572    0.000000    0.000000    0.000000
  111.844362    0.946581    0.946580    0.946580   -0.000000    0.000000   -0.000000
  113.619669    0.960237    0.960237    0.960237   -0.000000   -0.000000    0.000000
  115.394976    0.958504    0.958507    0.958507    0.000001    0.000002   -0.000002
  117.170284    0.946144    0.946144    0.946144   -0.000000   -0.000000    0.000000
  118.945591    0.959235    0.959235    0.959236    0.000000    0.000000   -0.000000
  120.720898    0.954276    0.954276    0.954276    0.000000    0.000000   -0.000000
  122.496206    0.962145    0.962145    0.962145   -0.000000    0.000000    0.000000
  124.271513    0.961916    0.961916    0.961916    0.000000    0.000000    0.000000
  126.046820    0.963743    0.963743    0.963743   -0.000000    0.000000    0.000000
  127.822128    0.967688    0.967688    0.967688   -0.000000   -0.000000   -0.000000
  129.597435    0.964330    0.964330    0.964330    0.000000    0.000000    0.000000
  131.372742    0.966981    0.966981    0.966981    0.000000    0.000000   -0.000000
  133.148050    0.969471    0.969471    0.969471    0.000000    0.000000    0.000000
  134.923357    0.974140    0.974140    0.974140   -0.000000   -0.000000    0.000000
  136.698664    0.971998    0.971998    0.971998   -0.000000   -0.000000   -0.000000
  138.473972    0.972177    0.972177    0.972177    0.000000   -0.000000    0.000000
  140.249279    0.972541    0.972541    0.972541    0.000000   -0.000000    0.000000
  142.024586    0.974198    0.974198    0.974196   -0.000000   -0.000000    0.000001
  143.799894    0.974392    0.974392    0.974391    0.000000   -0.000000    0.000000
  145.575201    0.975632    0.975632    0.975632    0.000000    0.000000   -0.000000
  147.350508    0.976887    0.976887    0.976887    0.000000    0.000000   -0.000000
  149.125816    0.977847    0.977847    0.977847    0.000000    0.000000   -0.000000
  150.901123    0.978678    0.978678    0.978678    0.000000    0.000000   -0.000000
  152.676430    0.979427    0.979427    0.979427    0.000000    0.000000    0.000000
  154.451738    0.980114    0.980114    0.980114    0.000000    0.000000    0.000000
  156.227045    0.980752    0.980752    0.980752    0.000000    0.000000    0.000000
  158.002352    0.981348    0.981348    0.981348    0.000000    0.000000    0.000000
  159.777660    0.981908    0.981908    0.981908    0.000000    0.000000    0.000000
  161.552967    0.982436    0.982436    0.982436    0.000000    0.000000    0.000000
  163.328274    0.982935    0.982935    0.982935    0.000000    0.000000    0.000000
  165.103582    0.983409    0.983409    0.983409    0.000000    0.000000    0.000000
  166.878889    0.983860    0.983860    0.983860    0.000000    0.000000    0.000000
  168.654196    0.984289    0.984289    0.984289    0.000000    0.000000    0.000000
  170.429504    0.984698    0.984698    0.984698    0.000000    0.000000    0.000000
  172.204811    0.985089    0.985089    0.985089    0.000000    0.000000    0.000000
  173.980118    0.985463    0.985463    0.985463    0.000000    0.000000    0.000000
  175.755426    0.985822    0.985822    0.985822    0.000000    0.000000    0.000000
 
 The outermost node in the dielectric function lies at epsilon=  -1.0


--------------------------------------------------------------------------------------------------------


    OPTICS:  cpu time    0.6135: real time    0.6433
    4ORBIT:  cpu time    0.0000: real time    0.0000

 Spin-Orbit-Coupling matrix elements

 Ion:    1  E_soc:     -0.0005842
 l=   1
     0.0000000    -0.0000974    -0.0000974
    -0.0000974     0.0000000    -0.0000974
    -0.0000974    -0.0000974     0.0000000
 l=   2
     0.0000000     0.0000000     0.0000000     0.0000000     0.0000000
     0.0000000     0.0000000     0.0000000     0.0000000     0.0000000
     0.0000000     0.0000000     0.0000000     0.0000000     0.0000000
     0.0000000     0.0000000     0.0000000     0.0000000     0.0000000
     0.0000000     0.0000000     0.0000000     0.0000000     0.0000000
 l=   3
     0.0000000     0.0000000     0.0000000     0.0000000     0.0000000     0.0000000     0.0000000
     0.0000000     0.0000000     0.0000000     0.0000000     0.0000000     0.0000000     0.0000000
     0.0000000     0.0000000     0.0000000     0.0000000     0.0000000     0.0000000     0.0000000
     0.0000000     0.0000000     0.0000000     0.0000000     0.0000000     0.0000000     0.0000000
     0.0000000     0.0000000     0.0000000     0.0000000     0.0000000     0.0000000     0.0000000
     0.0000000     0.0000000     0.0000000     0.0000000     0.0000000     0.0000000     0.0000000
     0.0000000     0.0000000     0.0000000     0.0000000     0.0000000     0.0000000     0.0000000

 total amount of memory used by VASP MPI-rank0   106955. kBytes
=======================================================================

   base      :      30000. kBytes
   nonl-proj :       4589. kBytes
   fftplans  :       1775. kBytes
   grid      :       1658. kBytes
   one-center:         92. kBytes
   wavefun   :      68841. kBytes
 
  
  
 General timing and accounting informations for this job:
 ========================================================
  
                  Total CPU time used (sec):      170.042
                            User time (sec):      166.722
                          System time (sec):        3.320
                         Elapsed time (sec):      169.382
  
                   Maximum memory used (kb):      443400.
                   Average memory used (kb):           0.
  
                          Minor page faults:        47592
                          Major page faults:            0
                 Voluntary context switches:         5067
