   1   1   0   0
  0.1628488E+02  0.2845115E-09  0.2845115E-09  0.2845115E-09  0.1000000E-15
  1.000000000000000E-004
  CAR 
 Og_FCC                                  
     27.01268993    -19.99528170  301    -16.37175055      1.00000000
    -19.995  0.0000E+00  0.0000E+00
    -19.839  0.0000E+00  0.0000E+00
    -19.682  0.0000E+00  0.0000E+00
    -19.525  0.0000E+00  0.0000E+00
    -19.369  0.0000E+00  0.0000E+00
    -19.212  0.0000E+00  0.0000E+00
    -19.055  0.0000E+00  0.0000E+00
    -18.898  0.0000E+00  0.0000E+00
    -18.742  0.0000E+00  0.0000E+00
    -18.585  0.0000E+00  0.0000E+00
    -18.428  0.0000E+00  0.0000E+00
    -18.272  0.0000E+00  0.0000E+00
    -18.115  0.1210E-13  0.1897E-14
    -17.958  0.1417E-03  0.2221E-04
    -17.802  0.5579E-01  0.8764E-02
    -17.645  0.2207E+00  0.4335E-01
    -17.488  0.6068E+00  0.1384E+00
    -17.331  0.4926E+00  0.2156E+00
    -17.175  0.1405E+01  0.4358E+00
    -17.018  0.7745E+00  0.5572E+00
    -16.861  0.3802E+01  0.1153E+01
    -16.705  0.3782E+01  0.1746E+01
    -16.548  0.1624E+01  0.2000E+01
    -16.391  0.1942E-03  0.2000E+01
    -16.235  0.0000E+00  0.2000E+01
    -16.078  0.0000E+00  0.2000E+01
    -15.921  0.0000E+00  0.2000E+01
    -15.765  0.0000E+00  0.2000E+01
    -15.608  0.0000E+00  0.2000E+01
    -15.451  0.0000E+00  0.2000E+01
    -15.294  0.0000E+00  0.2000E+01
    -15.138  0.0000E+00  0.2000E+01
    -14.981  0.0000E+00  0.2000E+01
    -14.824  0.0000E+00  0.2000E+01
    -14.668  0.0000E+00  0.2000E+01
    -14.511  0.0000E+00  0.2000E+01
    -14.354  0.0000E+00  0.2000E+01
    -14.198  0.0000E+00  0.2000E+01
    -14.041  0.0000E+00  0.2000E+01
    -13.884  0.0000E+00  0.2000E+01
    -13.728  0.0000E+00  0.2000E+01
    -13.571  0.0000E+00  0.2000E+01
    -13.414  0.0000E+00  0.2000E+01
    -13.257  0.0000E+00  0.2000E+01
    -13.101  0.0000E+00  0.2000E+01
    -12.944  0.0000E+00  0.2000E+01
    -12.787  0.0000E+00  0.2000E+01
    -12.631  0.0000E+00  0.2000E+01
    -12.474  0.0000E+00  0.2000E+01
    -12.317  0.0000E+00  0.2000E+01
    -12.161  0.0000E+00  0.2000E+01
    -12.004  0.0000E+00  0.2000E+01
    -11.847  0.0000E+00  0.2000E+01
    -11.691  0.0000E+00  0.2000E+01
    -11.534  0.0000E+00  0.2000E+01
    -11.377  0.0000E+00  0.2000E+01
    -11.220  0.0000E+00  0.2000E+01
    -11.064  0.0000E+00  0.2000E+01
    -10.907  0.0000E+00  0.2000E+01
    -10.750  0.0000E+00  0.2000E+01
    -10.594  0.0000E+00  0.2000E+01
    -10.437  0.0000E+00  0.2000E+01
    -10.280  0.0000E+00  0.2000E+01
    -10.124  0.0000E+00  0.2000E+01
     -9.967  0.0000E+00  0.2000E+01
     -9.810  0.0000E+00  0.2000E+01
     -9.654  0.0000E+00  0.2000E+01
     -9.497  0.0000E+00  0.2000E+01
     -9.340  0.0000E+00  0.2000E+01
     -9.183  0.0000E+00  0.2000E+01
     -9.027  0.0000E+00  0.2000E+01
     -8.870  0.0000E+00  0.2000E+01
     -8.713  0.0000E+00  0.2000E+01
     -8.557  0.0000E+00  0.2000E+01
     -8.400  0.0000E+00  0.2000E+01
     -8.243  0.0000E+00  0.2000E+01
     -8.087  0.0000E+00  0.2000E+01
     -7.930  0.0000E+00  0.2000E+01
     -7.773  0.0000E+00  0.2000E+01
     -7.617  0.0000E+00  0.2000E+01
     -7.460  0.0000E+00  0.2000E+01
     -7.303  0.0000E+00  0.2000E+01
     -7.146  0.0000E+00  0.2000E+01
     -6.990  0.0000E+00  0.2000E+01
     -6.833  0.0000E+00  0.2000E+01
     -6.676  0.0000E+00  0.2000E+01
     -6.520  0.0000E+00  0.2000E+01
     -6.363  0.0000E+00  0.2000E+01
     -6.206  0.0000E+00  0.2000E+01
     -6.050  0.0000E+00  0.2000E+01
     -5.893  0.0000E+00  0.2000E+01
     -5.736  0.0000E+00  0.2000E+01
     -5.580  0.0000E+00  0.2000E+01
     -5.423  0.0000E+00  0.2000E+01
     -5.266  0.0000E+00  0.2000E+01
     -5.109  0.0000E+00  0.2000E+01
     -4.953  0.0000E+00  0.2000E+01
     -4.796  0.0000E+00  0.2000E+01
     -4.639  0.0000E+00  0.2000E+01
     -4.483  0.0000E+00  0.2000E+01
     -4.326  0.0000E+00  0.2000E+01
     -4.169  0.0000E+00  0.2000E+01
     -4.013  0.0000E+00  0.2000E+01
     -3.856  0.0000E+00  0.2000E+01
     -3.699  0.0000E+00  0.2000E+01
     -3.542  0.0000E+00  0.2000E+01
     -3.386  0.0000E+00  0.2000E+01
     -3.229  0.0000E+00  0.2000E+01
     -3.072  0.0000E+00  0.2000E+01
     -2.916  0.0000E+00  0.2000E+01
     -2.759  0.0000E+00  0.2000E+01
     -2.602  0.0000E+00  0.2000E+01
     -2.446  0.0000E+00  0.2000E+01
     -2.289  0.0000E+00  0.2000E+01
     -2.132  0.0000E+00  0.2000E+01
     -1.976  0.0000E+00  0.2000E+01
     -1.819  0.0000E+00  0.2000E+01
     -1.662  0.0000E+00  0.2000E+01
     -1.505  0.0000E+00  0.2000E+01
     -1.349  0.0000E+00  0.2000E+01
     -1.192  0.0000E+00  0.2000E+01
     -1.035  0.0000E+00  0.2000E+01
     -0.879  0.0000E+00  0.2000E+01
     -0.722  0.0000E+00  0.2000E+01
     -0.565  0.0000E+00  0.2000E+01
     -0.409  0.0000E+00  0.2000E+01
     -0.252  0.0000E+00  0.2000E+01
     -0.095  0.0000E+00  0.2000E+01
      0.061  0.0000E+00  0.2000E+01
      0.218  0.0000E+00  0.2000E+01
      0.375  0.0000E+00  0.2000E+01
      0.532  0.0000E+00  0.2000E+01
      0.688  0.0000E+00  0.2000E+01
      0.845  0.0000E+00  0.2000E+01
      1.002  0.0000E+00  0.2000E+01
      1.158  0.0000E+00  0.2000E+01
      1.315  0.0000E+00  0.2000E+01
      1.472  0.0000E+00  0.2000E+01
      1.628  0.0000E+00  0.2000E+01
      1.785  0.0000E+00  0.2000E+01
      1.942  0.0000E+00  0.2000E+01
      2.098  0.0000E+00  0.2000E+01
      2.255  0.0000E+00  0.2000E+01
      2.412  0.0000E+00  0.2000E+01
      2.569  0.0000E+00  0.2000E+01
      2.725  0.0000E+00  0.2000E+01
      2.882  0.0000E+00  0.2000E+01
      3.039  0.0000E+00  0.2000E+01
      3.195  0.0000E+00  0.2000E+01
      3.352  0.1286E-10  0.2000E+01
      3.509  0.5101E-02  0.2001E+01
      3.665  0.2448E+00  0.2039E+01
      3.822  0.4569E+00  0.2111E+01
      3.979  0.5475E+00  0.2197E+01
      4.135  0.2832E+01  0.2640E+01
      4.292  0.2419E+01  0.3019E+01
      4.449  0.2468E+00  0.3058E+01
      4.606  0.3469E+00  0.3112E+01
      4.762  0.1232E+01  0.3305E+01
      4.919  0.6633E-03  0.3306E+01
      5.076  0.2592E-11  0.3306E+01
      5.232  0.8371E-02  0.3307E+01
      5.389  0.1370E+01  0.3522E+01
      5.546  0.2011E+00  0.3553E+01
      5.702  0.1404E+01  0.3773E+01
      5.859  0.5858E-01  0.3782E+01
      6.016  0.6774E+00  0.3888E+01
      6.172  0.2493E-02  0.3889E+01
      6.329  0.8885E-09  0.3889E+01
      6.486  0.4476E-01  0.3896E+01
      6.643  0.6630E+00  0.4000E+01
      6.799  0.1311E-02  0.4000E+01
      6.956  0.0000E+00  0.4000E+01
      7.113  0.0000E+00  0.4000E+01
      7.269  0.0000E+00  0.4000E+01
      7.426  0.1570E-04  0.4000E+01
      7.583  0.4510E+00  0.4071E+01
      7.739  0.2581E+00  0.4111E+01
      7.896  0.6218E-06  0.4111E+01
      8.053  0.0000E+00  0.4111E+01
      8.210  0.4679E-11  0.4111E+01
      8.366  0.1059E-01  0.4113E+01
      8.523  0.1375E+01  0.4328E+01
      8.680  0.3243E-01  0.4333E+01
      8.836  0.4641E-03  0.4333E+01
      8.993  0.6295E+00  0.4432E+01
      9.150  0.7915E-01  0.4444E+01
      9.306  0.5692E-08  0.4444E+01
      9.463  0.6456E-05  0.4444E+01
      9.620  0.3960E+00  0.4506E+01
      9.776  0.1443E+01  0.4733E+01
      9.933  0.1006E+01  0.4890E+01
     10.090  0.7000E+00  0.5000E+01
     10.247  0.1197E+00  0.5019E+01
     10.403  0.1298E+01  0.5222E+01
     10.560  0.1885E+00  0.5252E+01
     10.717  0.1568E+01  0.5497E+01
     10.873  0.7572E-01  0.5509E+01
     11.030  0.2435E-07  0.5509E+01
     11.187  0.0000E+00  0.5509E+01
     11.343  0.0000E+00  0.5509E+01
     11.500  0.0000E+00  0.5509E+01
     11.657  0.1219E-05  0.5509E+01
     11.813  0.5140E+00  0.5590E+01
     11.970  0.9042E+00  0.5731E+01
     12.127  0.3203E-04  0.5731E+01
     12.284  0.1242E+00  0.5751E+01
     12.440  0.3485E+00  0.5806E+01
     12.597  0.3462E-04  0.5806E+01
     12.754  0.0000E+00  0.5806E+01
     12.910  0.4373E-07  0.5806E+01
     13.067  0.2387E+00  0.5843E+01
     13.224  0.2554E+01  0.6243E+01
     13.380  0.5857E-01  0.6252E+01
     13.537  0.1379E+01  0.6469E+01
     13.694  0.3441E+00  0.6522E+01
     13.850  0.4433E+00  0.6592E+01
     14.007  0.1004E+01  0.6749E+01
     14.164  0.4637E-02  0.6750E+01
     14.321  0.1830E+00  0.6779E+01
     14.477  0.1716E+00  0.6806E+01
     14.634  0.4765E+00  0.6880E+01
     14.791  0.9421E+00  0.7028E+01
     14.947  0.6273E+00  0.7126E+01
     15.104  0.8145E-01  0.7139E+01
     15.261  0.6278E-08  0.7139E+01
     15.417  0.0000E+00  0.7139E+01
     15.574  0.7275E-13  0.7139E+01
     15.731  0.5712E-03  0.7139E+01
     15.887  0.5043E+00  0.7218E+01
     16.044  0.3815E+00  0.7278E+01
     16.201  0.9162E-04  0.7278E+01
     16.358  0.1025E+01  0.7438E+01
     16.514  0.4601E+00  0.7511E+01
     16.671  0.2449E+01  0.7894E+01
     16.828  0.1075E+01  0.8063E+01
     16.984  0.1490E+01  0.8296E+01
     17.141  0.3120E-03  0.8296E+01
     17.298  0.3883E-03  0.8296E+01
     17.454  0.1184E+01  0.8482E+01
     17.611  0.2338E+00  0.8519E+01
     17.768  0.1937E-03  0.8519E+01
     17.924  0.5920E+00  0.8611E+01
     18.081  0.1169E+00  0.8630E+01
     18.238  0.6472E-07  0.8630E+01
     18.395  0.3362E+00  0.8682E+01
     18.551  0.3942E+01  0.9300E+01
     18.708  0.1393E+01  0.9518E+01
     18.865  0.2251E-02  0.9519E+01
     19.021  0.0000E+00  0.9519E+01
     19.178  0.4070E-10  0.9519E+01
     19.335  0.1203E-01  0.9520E+01
     19.491  0.7786E+00  0.9642E+01
     19.648  0.6276E+00  0.9741E+01
     19.805  0.3347E-04  0.9741E+01
     19.961  0.2157E+00  0.9775E+01
     20.118  0.1388E+00  0.9796E+01
     20.275  0.5223E-03  0.9796E+01
     20.432  0.1689E+01  0.1006E+02
     20.588  0.6739E+00  0.1017E+02
     20.745  0.1819E-05  0.1017E+02
     20.902  0.1448E-06  0.1017E+02
     21.058  0.1868E+00  0.1020E+02
     21.215  0.5223E+00  0.1028E+02
     21.372  0.5152E-04  0.1028E+02
     21.528  0.7251E-03  0.1028E+02
     21.685  0.1700E+00  0.1030E+02
     21.842  0.3654E-01  0.1031E+02
     21.999  0.1377E+01  0.1053E+02
     22.155  0.4618E+00  0.1060E+02
     22.312  0.2001E+01  0.1091E+02
     22.469  0.2010E+00  0.1094E+02
     22.625  0.1430E+01  0.1117E+02
     22.782  0.1249E+01  0.1136E+02
     22.939  0.2236E+00  0.1140E+02
     23.095  0.8111E-01  0.1141E+02
     23.252  0.1334E+01  0.1162E+02
     23.409  0.3070E-02  0.1162E+02
     23.565  0.1575E-15  0.1162E+02
     23.722  0.8067E-04  0.1162E+02
     23.879  0.5503E+00  0.1171E+02
     24.036  0.6189E+00  0.1180E+02
     24.192  0.4240E+00  0.1187E+02
     24.349  0.2976E+00  0.1192E+02
     24.506  0.7934E-05  0.1192E+02
     24.662  0.4558E-01  0.1192E+02
     24.819  0.3881E-01  0.1193E+02
     24.976  0.4463E+00  0.1200E+02
     25.132  0.1134E-02  0.1200E+02
     25.289  0.0000E+00  0.1200E+02
     25.446  0.0000E+00  0.1200E+02
     25.602  0.0000E+00  0.1200E+02
     25.759  0.0000E+00  0.1200E+02
     25.916  0.0000E+00  0.1200E+02
     26.073  0.0000E+00  0.1200E+02
     26.229  0.0000E+00  0.1200E+02
     26.386  0.0000E+00  0.1200E+02
     26.543  0.0000E+00  0.1200E+02
     26.699  0.0000E+00  0.1200E+02
     26.856  0.0000E+00  0.1200E+02
     27.013  0.0000E+00  0.1200E+02
