    1    1    1    1
  0.1628488E+02  0.2845115E-09  0.2845115E-09  0.2845115E-09  0.1000000E-15
  1.000000000000000E-004
  CAR 
 Og_FCC                                  
      2    216     12
 
  0.0000000E+00  0.0000000E+00  0.0000000E+00  0.4629630E-02
    1      -17.858556   1.000000
    2      -17.858554   1.000000
    3        4.239246   0.000000
    4        4.239247   0.000000
    5       21.621563   0.000000
    6       21.621563   0.000000
    7       21.622109   0.000000
    8       21.622109   0.000000
    9       21.622109   0.000000
   10       21.622110   0.000000
   11       24.636005   0.000000
   12       24.636005   0.000000
 
  0.1666667E+00 -0.1387779E-16  0.1387779E-16  0.4629630E-02
    1      -17.639970   1.000000
    2      -17.639968   1.000000
    3        4.058445   0.000000
    4        4.058446   0.000000
    5       16.788907   0.000000
    6       16.788907   0.000000
    7       20.390541   0.000000
    8       20.390541   0.000000
    9       20.390809   0.000000
   10       20.390809   0.000000
   11       24.875964   0.000000
   12       24.875964   0.000000
 
  0.3333333E+00 -0.5551115E-16  0.4163336E-16  0.4629630E-02
    1      -17.168303   1.000000
    2      -17.168301   1.000000
    3        3.730551   0.000000
    4        3.730551   0.000000
    5       12.305974   0.000000
    6       12.305974   0.000000
    7       19.505912   0.000000
    8       19.505912   0.000000
    9       19.506184   0.000000
   10       19.506184   0.000000
   11       23.967127   0.000000
   12       23.967129   0.000000
 
  0.5000000E+00 -0.5551115E-16  0.0000000E+00  0.4629630E-02
    1      -16.906102   1.000000
    2      -16.906100   1.000000
    3        3.580198   0.000000
    4        3.580198   0.000000
    5       10.689649   0.000000
    6       10.689649   0.000000
    7       19.403593   0.000000
    8       19.403593   0.000000
    9       19.403904   0.000000
   10       19.403904   0.000000
   11       22.598976   0.000000
   12       22.598977   0.000000
 
 -0.3333333E+00  0.5551115E-16 -0.4163336E-16  0.4629630E-02
    1      -17.168303   1.000000
    2      -17.168301   1.000000
    3        3.730551   0.000000
    4        3.730551   0.000000
    5       12.305974   0.000000
    6       12.305974   0.000000
    7       19.505912   0.000000
    8       19.505912   0.000000
    9       19.506184   0.000000
   10       19.506184   0.000000
   11       23.967127   0.000000
   12       23.967129   0.000000
 
 -0.1666667E+00  0.1387779E-16 -0.1387779E-16  0.4629630E-02
    1      -17.639966   1.000000
    2      -17.639964   1.000000
    3        4.058446   0.000000
    4        4.058447   0.000000
    5       16.788907   0.000000
    6       16.788907   0.000000
    7       20.390541   0.000000
    8       20.390541   0.000000
    9       20.390809   0.000000
   10       20.390809   0.000000
   11       24.875964   0.000000
   12       24.875964   0.000000
 
  0.0000000E+00  0.1666667E+00 -0.6938894E-17  0.4629630E-02
    1      -17.639970   1.000000
    2      -17.639968   1.000000
    3        4.058445   0.000000
    4        4.058446   0.000000
    5       16.788907   0.000000
    6       16.788907   0.000000
    7       20.390541   0.000000
    8       20.390541   0.000000
    9       20.390809   0.000000
   10       20.390809   0.000000
   11       24.875964   0.000000
   12       24.875964   0.000000
 
  0.1666667E+00  0.1666667E+00  0.1387779E-16  0.4629630E-02
    1      -17.572724   1.000000
    2      -17.572722   1.000000
    3        4.073758   0.000000
    4        4.073759   0.000000
    5       17.889907   0.000000
    6       17.889907   0.000000
    7       17.890120   0.000000
    8       17.890121   0.000000
    9       19.951763   0.000000
   10       19.951763   0.000000
   11       22.232792   0.000000
   12       22.232792   0.000000
 
  0.3333333E+00  0.1666667E+00  0.2775558E-16  0.4629630E-02
    1      -17.192716   1.000000
    2      -17.192714   1.000000
    3        4.036844   0.000000
    4        4.036844   0.000000
    5       13.157427   0.000000
    6       13.157428   0.000000
    7       16.643975   0.000000
    8       16.643975   0.000000
    9       18.445022   0.000000
   10       18.445022   0.000000
   11       21.913607   0.000000
   12       21.913607   0.000000
 
  0.5000000E+00  0.1666667E+00  0.0000000E+00  0.4629630E-02
    1      -16.865018   1.000000
    2      -16.865015   1.000000
    3        4.228115   0.000000
    4        4.228115   0.000000
    5        9.932559   0.000000
    6        9.932559   0.000000
    7       16.573374   0.000000
    8       16.573374   0.000000
    9       16.857631   0.000000
   10       16.857631   0.000000
   11       22.238246   0.000000
   12       22.238246   0.000000
 
 -0.3333333E+00  0.1666667E+00 -0.4163336E-16  0.4629630E-02
    1      -16.944282   1.000000
    2      -16.944280   1.000000
    3        4.152912   0.000000
    4        4.152912   0.000000
    5       10.295169   0.000000
    6       10.295169   0.000000
    7       16.336636   0.000000
    8       16.336636   0.000000
    9       18.493475   0.000000
   10       18.493475   0.000000
   11       22.510143   0.000000
   12       22.510143   0.000000
 
 -0.1666667E+00  0.1666667E+00 -0.8680612E-17  0.4629630E-02
    1      -17.349070   1.000000
    2      -17.349067   1.000000
    3        3.964347   0.000000
    4        3.964348   0.000000
    5       13.698050   0.000000
    6       13.698050   0.000000
    7       17.420622   0.000000
    8       17.420622   0.000000
    9       21.080726   0.000000
   10       21.080726   0.000000
   11       24.185048   0.000000
   12       24.185048   0.000000
 
  0.0000000E+00  0.3333333E+00  0.0000000E+00  0.4629630E-02
    1      -17.168303   1.000000
    2      -17.168301   1.000000
    3        3.730551   0.000000
    4        3.730551   0.000000
    5       12.305974   0.000000
    6       12.305974   0.000000
    7       19.505912   0.000000
    8       19.505912   0.000000
    9       19.506183   0.000000
   10       19.506184   0.000000
   11       23.967127   0.000000
   12       23.967130   0.000000
 
  0.1666667E+00  0.3333333E+00  0.0000000E+00  0.4629630E-02
    1      -17.192717   1.000000
    2      -17.192714   1.000000
    3        4.036844   0.000000
    4        4.036844   0.000000
    5       13.157427   0.000000
    6       13.157428   0.000000
    7       16.643975   0.000000
    8       16.643975   0.000000
    9       18.445022   0.000000
   10       18.445022   0.000000
   11       21.913607   0.000000
   12       21.913607   0.000000
 
  0.3333333E+00  0.3333333E+00  0.5551115E-16  0.4629630E-02
    1      -16.976711   1.000000
    2      -16.976709   1.000000
    3        4.444890   0.000000
    4        4.444891   0.000000
    5       14.319111   0.000000
    6       14.319111   0.000000
    7       14.904752   0.000000
    8       14.904752   0.000000
    9       14.904939   0.000000
   10       14.904939   0.000000
   11       16.859241   0.000000
   12       16.859241   0.000000
 
  0.5000000E+00  0.3333333E+00  0.5551115E-16  0.4629630E-02
    1      -16.743297   1.000000
    2      -16.743295   1.000000
    3        5.321352   0.000000
    4        5.321353   0.000000
    5        9.747061   0.000000
    6        9.747061   0.000000
    7       13.461905   0.000000
    8       13.461905   0.000000
    9       14.648892   0.000000
   10       14.648892   0.000000
   11       20.421951   0.000000
   12       20.421951   0.000000
 
 -0.3333333E+00  0.3333333E+00 -0.1736122E-16  0.4629630E-02
    1      -16.707172   1.000000
    2      -16.707169   1.000000
    3        5.920501   0.000000
    4        5.920502   0.000000
    5        7.570426   0.000000
    6        7.570426   0.000000
    7       13.918595   0.000000
    8       13.918595   0.000000
    9       15.889867   0.000000
   10       15.889867   0.000000
   11       23.852462   0.000000
   12       23.852463   0.000000
 
 -0.1666667E+00  0.3333333E+00  0.2081668E-16  0.4629630E-02
    1      -16.944278   1.000000
    2      -16.944276   1.000000
    3        4.152912   0.000000
    4        4.152912   0.000000
    5       10.295170   0.000000
    6       10.295170   0.000000
    7       16.336636   0.000000
    8       16.336636   0.000000
    9       18.493475   0.000000
   10       18.493475   0.000000
   11       22.510143   0.000000
   12       22.510143   0.000000
 
  0.0000000E+00  0.5000000E+00  0.0000000E+00  0.4629630E-02
    1      -16.906102   1.000000
    2      -16.906100   1.000000
    3        3.580198   0.000000
    4        3.580198   0.000000
    5       10.689649   0.000000
    6       10.689649   0.000000
    7       19.403593   0.000000
    8       19.403593   0.000000
    9       19.403904   0.000000
   10       19.403904   0.000000
   11       22.598978   0.000000
   12       22.598985   0.000000
 
  0.1666667E+00  0.5000000E+00  0.2775558E-16  0.4629630E-02
    1      -16.865018   1.000000
    2      -16.865015   1.000000
    3        4.228115   0.000000
    4        4.228115   0.000000
    5        9.932559   0.000000
    6        9.932559   0.000000
    7       16.573374   0.000000
    8       16.573374   0.000000
    9       16.857631   0.000000
   10       16.857631   0.000000
   11       22.238246   0.000000
   12       22.238246   0.000000
 
  0.3333333E+00  0.5000000E+00  0.1110223E-15  0.4629630E-02
    1      -16.743297   1.000000
    2      -16.743295   1.000000
    3        5.321352   0.000000
    4        5.321353   0.000000
    5        9.747061   0.000000
    6        9.747061   0.000000
    7       13.461905   0.000000
    8       13.461905   0.000000
    9       14.648892   0.000000
   10       14.648892   0.000000
   11       20.421951   0.000000
   12       20.421951   0.000000
 
  0.5000000E+00  0.5000000E+00  0.5551115E-16  0.4629630E-02
    1      -16.663472   1.000000
    2      -16.663469   1.000000
    3        5.509786   0.000000
    4        5.509786   0.000000
    5       10.491844   0.000000
    6       10.491844   0.000000
    7       13.895713   0.000000
    8       13.895713   0.000000
    9       13.895893   0.000000
   10       13.895893   0.000000
   11       15.827144   0.000000
   12       15.827144   0.000000
 
 -0.3333333E+00  0.5000000E+00 -0.3469447E-16  0.4629630E-02
    1      -16.743297   1.000000
    2      -16.743294   1.000000
    3        5.321352   0.000000
    4        5.321352   0.000000
    5        9.747061   0.000000
    6        9.747061   0.000000
    7       13.461905   0.000000
    8       13.461906   0.000000
    9       14.648892   0.000000
   10       14.648892   0.000000
   11       20.421951   0.000000
   12       20.421951   0.000000
 
 -0.1666667E+00  0.5000000E+00 -0.1387779E-16  0.4629630E-02
    1      -16.865014   1.000000
    2      -16.865011   1.000000
    3        4.228115   0.000000
    4        4.228115   0.000000
    5        9.932559   0.000000
    6        9.932560   0.000000
    7       16.573374   0.000000
    8       16.573375   0.000000
    9       16.857631   0.000000
   10       16.857631   0.000000
   11       22.238246   0.000000
   12       22.238246   0.000000
 
  0.0000000E+00 -0.3333333E+00  0.0000000E+00  0.4629630E-02
    1      -17.168303   1.000000
    2      -17.168301   1.000000
    3        3.730551   0.000000
    4        3.730551   0.000000
    5       12.305974   0.000000
    6       12.305974   0.000000
    7       19.505912   0.000000
    8       19.505912   0.000000
    9       19.506183   0.000000
   10       19.506184   0.000000
   11       23.967127   0.000000
   12       23.967130   0.000000
 
  0.1666667E+00 -0.3333333E+00 -0.2081668E-16  0.4629630E-02
    1      -16.944282   1.000000
    2      -16.944280   1.000000
    3        4.152912   0.000000
    4        4.152912   0.000000
    5       10.295169   0.000000
    6       10.295169   0.000000
    7       16.336636   0.000000
    8       16.336636   0.000000
    9       18.493475   0.000000
   10       18.493475   0.000000
   11       22.510143   0.000000
   12       22.510143   0.000000
 
  0.3333333E+00 -0.3333333E+00  0.1736122E-16  0.4629630E-02
    1      -16.707172   1.000000
    2      -16.707169   1.000000
    3        5.920501   0.000000
    4        5.920502   0.000000
    5        7.570426   0.000000
    6        7.570426   0.000000
    7       13.918595   0.000000
    8       13.918595   0.000000
    9       15.889867   0.000000
   10       15.889867   0.000000
   11       23.852462   0.000000
   12       23.852463   0.000000
 
  0.5000000E+00 -0.3333333E+00 -0.6938894E-17  0.4629630E-02
    1      -16.743297   1.000000
    2      -16.743294   1.000000
    3        5.321352   0.000000
    4        5.321352   0.000000
    5        9.747061   0.000000
    6        9.747061   0.000000
    7       13.461905   0.000000
    8       13.461906   0.000000
    9       14.648892   0.000000
   10       14.648892   0.000000
   11       20.421951   0.000000
   12       20.421951   0.000000
 
 -0.3333333E+00 -0.3333333E+00 -0.5551115E-16  0.4629630E-02
    1      -16.976711   1.000000
    2      -16.976709   1.000000
    3        4.444890   0.000000
    4        4.444891   0.000000
    5       14.319111   0.000000
    6       14.319111   0.000000
    7       14.904752   0.000000
    8       14.904752   0.000000
    9       14.904939   0.000000
   10       14.904939   0.000000
   11       16.859241   0.000000
   12       16.859241   0.000000
 
 -0.1666667E+00 -0.3333333E+00  0.0000000E+00  0.4629630E-02
    1      -17.192713   1.000000
    2      -17.192711   1.000000
    3        4.036844   0.000000
    4        4.036845   0.000000
    5       13.157428   0.000000
    6       13.157428   0.000000
    7       16.643975   0.000000
    8       16.643975   0.000000
    9       18.445022   0.000000
   10       18.445022   0.000000
   11       21.913607   0.000000
   12       21.913607   0.000000
 
  0.0000000E+00 -0.1666667E+00  0.6938894E-17  0.4629630E-02
    1      -17.639966   1.000000
    2      -17.639964   1.000000
    3        4.058446   0.000000
    4        4.058447   0.000000
    5       16.788907   0.000000
    6       16.788907   0.000000
    7       20.390541   0.000000
    8       20.390541   0.000000
    9       20.390809   0.000000
   10       20.390809   0.000000
   11       24.875964   0.000000
   12       24.875964   0.000000
 
  0.1666667E+00 -0.1666667E+00  0.1363969E-16  0.4629630E-02
    1      -17.349070   1.000000
    2      -17.349067   1.000000
    3        3.964347   0.000000
    4        3.964348   0.000000
    5       13.698050   0.000000
    6       13.698050   0.000000
    7       17.420622   0.000000
    8       17.420622   0.000000
    9       21.080726   0.000000
   10       21.080726   0.000000
   11       24.185048   0.000000
   12       24.185048   0.000000
 
  0.3333333E+00 -0.1666667E+00  0.4163336E-16  0.4629630E-02
    1      -16.944278   1.000000
    2      -16.944276   1.000000
    3        4.152912   0.000000
    4        4.152912   0.000000
    5       10.295170   0.000000
    6       10.295170   0.000000
    7       16.336636   0.000000
    8       16.336636   0.000000
    9       18.493475   0.000000
   10       18.493475   0.000000
   11       22.510143   0.000000
   12       22.510143   0.000000
 
  0.5000000E+00 -0.1666667E+00  0.0000000E+00  0.4629630E-02
    1      -16.865014   1.000000
    2      -16.865011   1.000000
    3        4.228115   0.000000
    4        4.228115   0.000000
    5        9.932559   0.000000
    6        9.932560   0.000000
    7       16.573374   0.000000
    8       16.573375   0.000000
    9       16.857631   0.000000
   10       16.857631   0.000000
   11       22.238246   0.000000
   12       22.238246   0.000000
 
 -0.3333333E+00 -0.1666667E+00 -0.2775558E-16  0.4629630E-02
    1      -17.192713   1.000000
    2      -17.192711   1.000000
    3        4.036844   0.000000
    4        4.036845   0.000000
    5       13.157428   0.000000
    6       13.157428   0.000000
    7       16.643975   0.000000
    8       16.643975   0.000000
    9       18.445022   0.000000
   10       18.445022   0.000000
   11       21.913607   0.000000
   12       21.913607   0.000000
 
 -0.1666667E+00 -0.1666667E+00 -0.1387779E-16  0.4629630E-02
    1      -17.572717   1.000000
    2      -17.572715   1.000000
    3        4.073761   0.000000
    4        4.073761   0.000000
    5       17.889907   0.000000
    6       17.889907   0.000000
    7       17.890121   0.000000
    8       17.890121   0.000000
    9       19.951763   0.000000
   10       19.951763   0.000000
   11       22.232792   0.000000
   12       22.232792   0.000000
 
  0.0000000E+00  0.0000000E+00  0.1666667E+00  0.4629630E-02
    1      -17.639970   1.000000
    2      -17.639968   1.000000
    3        4.058445   0.000000
    4        4.058446   0.000000
    5       16.788907   0.000000
    6       16.788907   0.000000
    7       20.390541   0.000000
    8       20.390541   0.000000
    9       20.390809   0.000000
   10       20.390809   0.000000
   11       24.875964   0.000000
   12       24.875964   0.000000
 
  0.1666667E+00 -0.1387779E-16  0.1666667E+00  0.4629630E-02
    1      -17.572724   1.000000
    2      -17.572722   1.000000
    3        4.073758   0.000000
    4        4.073759   0.000000
    5       17.889907   0.000000
    6       17.889907   0.000000
    7       17.890121   0.000000
    8       17.890121   0.000000
    9       19.951763   0.000000
   10       19.951763   0.000000
   11       22.232792   0.000000
   12       22.232792   0.000000
 
  0.3333333E+00 -0.5551115E-16  0.1666667E+00  0.4629630E-02
    1      -17.192716   1.000000
    2      -17.192714   1.000000
    3        4.036844   0.000000
    4        4.036844   0.000000
    5       13.157427   0.000000
    6       13.157428   0.000000
    7       16.643975   0.000000
    8       16.643975   0.000000
    9       18.445022   0.000000
   10       18.445022   0.000000
   11       21.913607   0.000000
   12       21.913607   0.000000
 
  0.5000000E+00 -0.5551115E-16  0.1666667E+00  0.4629630E-02
    1      -16.865018   1.000000
    2      -16.865015   1.000000
    3        4.228115   0.000000
    4        4.228115   0.000000
    5        9.932559   0.000000
    6        9.932559   0.000000
    7       16.573374   0.000000
    8       16.573374   0.000000
    9       16.857631   0.000000
   10       16.857631   0.000000
   11       22.238246   0.000000
   12       22.238246   0.000000
 
 -0.3333333E+00  0.5551115E-16  0.1666667E+00  0.4629630E-02
    1      -16.944282   1.000000
    2      -16.944280   1.000000
    3        4.152912   0.000000
    4        4.152912   0.000000
    5       10.295169   0.000000
    6       10.295169   0.000000
    7       16.336636   0.000000
    8       16.336636   0.000000
    9       18.493475   0.000000
   10       18.493475   0.000000
   11       22.510143   0.000000
   12       22.510143   0.000000
 
 -0.1666667E+00  0.1387779E-16  0.1666667E+00  0.4629630E-02
    1      -17.349070   1.000000
    2      -17.349067   1.000000
    3        3.964347   0.000000
    4        3.964348   0.000000
    5       13.698050   0.000000
    6       13.698050   0.000000
    7       17.420622   0.000000
    8       17.420622   0.000000
    9       21.080726   0.000000
   10       21.080726   0.000000
   11       24.185048   0.000000
   12       24.185048   0.000000
 
  0.0000000E+00  0.1666667E+00  0.1666667E+00  0.4629630E-02
    1      -17.572724   1.000000
    2      -17.572722   1.000000
    3        4.073758   0.000000
    4        4.073759   0.000000
    5       17.889907   0.000000
    6       17.889907   0.000000
    7       17.890120   0.000000
    8       17.890121   0.000000
    9       19.951763   0.000000
   10       19.951763   0.000000
   11       22.232792   0.000000
   12       22.232792   0.000000
 
  0.1666667E+00  0.1666667E+00  0.1666667E+00  0.4629630E-02
    1      -17.639969   1.000000
    2      -17.639967   1.000000
    3        4.058446   0.000000
    4        4.058446   0.000000
    5       16.788907   0.000000
    6       16.788907   0.000000
    7       20.390541   0.000000
    8       20.390541   0.000000
    9       20.390810   0.000000
   10       20.390810   0.000000
   11       24.875962   0.000000
   12       24.875962   0.000000
 
  0.3333333E+00  0.1666667E+00  0.1666667E+00  0.4629630E-02
    1      -17.349069   1.000000
    2      -17.349067   1.000000
    3        3.964348   0.000000
    4        3.964348   0.000000
    5       13.698050   0.000000
    6       13.698051   0.000000
    7       17.420622   0.000000
    8       17.420623   0.000000
    9       21.080726   0.000000
   10       21.080727   0.000000
   11       24.185047   0.000000
   12       24.185047   0.000000
 
  0.5000000E+00  0.1666667E+00  0.1666667E+00  0.4629630E-02
    1      -16.944282   1.000000
    2      -16.944280   1.000000
    3        4.152911   0.000000
    4        4.152912   0.000000
    5       10.295169   0.000000
    6       10.295170   0.000000
    7       16.336635   0.000000
    8       16.336635   0.000000
    9       18.493476   0.000000
   10       18.493476   0.000000
   11       22.510141   0.000000
   12       22.510141   0.000000
 
 -0.3333333E+00  0.1666667E+00  0.1666667E+00  0.4629630E-02
    1      -16.865017   1.000000
    2      -16.865015   1.000000
    3        4.228115   0.000000
    4        4.228115   0.000000
    5        9.932558   0.000000
    6        9.932558   0.000000
    7       16.573374   0.000000
    8       16.573374   0.000000
    9       16.857632   0.000000
   10       16.857632   0.000000
   11       22.238244   0.000000
   12       22.238245   0.000000
 
 -0.1666667E+00  0.1666667E+00  0.1666667E+00  0.4629630E-02
    1      -17.192716   1.000000
    2      -17.192714   1.000000
    3        4.036844   0.000000
    4        4.036844   0.000000
    5       13.157427   0.000000
    6       13.157427   0.000000
    7       16.643976   0.000000
    8       16.643976   0.000000
    9       18.445022   0.000000
   10       18.445022   0.000000
   11       21.913605   0.000000
   12       21.913606   0.000000
 
  0.0000000E+00  0.3333333E+00  0.1666667E+00  0.4629630E-02
    1      -17.192717   1.000000
    2      -17.192714   1.000000
    3        4.036844   0.000000
    4        4.036844   0.000000
    5       13.157427   0.000000
    6       13.157428   0.000000
    7       16.643975   0.000000
    8       16.643976   0.000000
    9       18.445022   0.000000
   10       18.445022   0.000000
   11       21.913607   0.000000
   12       21.913607   0.000000
 
  0.1666667E+00  0.3333333E+00  0.1666667E+00  0.4629630E-02
    1      -17.349069   1.000000
    2      -17.349067   1.000000
    3        3.964348   0.000000
    4        3.964348   0.000000
    5       13.698050   0.000000
    6       13.698051   0.000000
    7       17.420622   0.000000
    8       17.420622   0.000000
    9       21.080726   0.000000
   10       21.080727   0.000000
   11       24.185047   0.000000
   12       24.185047   0.000000
 
  0.3333333E+00  0.3333333E+00  0.1666667E+00  0.4629630E-02
    1      -17.192712   1.000000
    2      -17.192710   1.000000
    3        4.036844   0.000000
    4        4.036845   0.000000
    5       13.157427   0.000000
    6       13.157427   0.000000
    7       16.643976   0.000000
    8       16.643977   0.000000
    9       18.445022   0.000000
   10       18.445022   0.000000
   11       21.913606   0.000000
   12       21.913606   0.000000
 
  0.5000000E+00  0.3333333E+00  0.1666667E+00  0.4629630E-02
    1      -16.891042   1.000000
    2      -16.891039   1.000000
    3        4.645249   0.000000
    4        4.645250   0.000000
    5       10.640975   0.000000
    6       10.640975   0.000000
    7       13.101709   0.000000
    8       13.101709   0.000000
    9       18.430053   0.000000
   10       18.430054   0.000000
   11       23.151178   0.000000
   12       23.151178   0.000000
 
 -0.3333333E+00  0.3333333E+00  0.1666667E+00  0.4629630E-02
    1      -16.726457   1.000000
    2      -16.726454   1.000000
    3        5.630299   0.000000
    4        5.630299   0.000000
    5        8.452254   0.000000
    6        8.452254   0.000000
    7       11.825889   0.000000
    8       11.825889   0.000000
    9       18.603637   0.000000
   10       18.603637   0.000000
   11       22.746469   0.000000
   12       22.746469   0.000000
 
 -0.1666667E+00  0.3333333E+00  0.1666667E+00  0.4629630E-02
    1      -16.891042   1.000000
    2      -16.891039   1.000000
    3        4.645249   0.000000
    4        4.645250   0.000000
    5       10.640975   0.000000
    6       10.640975   0.000000
    7       13.101709   0.000000
    8       13.101709   0.000000
    9       18.430053   0.000000
   10       18.430054   0.000000
   11       23.151178   0.000000
   12       23.151178   0.000000
 
  0.0000000E+00  0.5000000E+00  0.1666667E+00  0.4629630E-02
    1      -16.865018   1.000000
    2      -16.865015   1.000000
    3        4.228115   0.000000
    4        4.228115   0.000000
    5        9.932559   0.000000
    6        9.932559   0.000000
    7       16.573374   0.000000
    8       16.573374   0.000000
    9       16.857631   0.000000
   10       16.857631   0.000000
   11       22.238246   0.000000
   12       22.238246   0.000000
 
  0.1666667E+00  0.5000000E+00  0.1666667E+00  0.4629630E-02
    1      -16.944282   1.000000
    2      -16.944280   1.000000
    3        4.152912   0.000000
    4        4.152912   0.000000
    5       10.295169   0.000000
    6       10.295170   0.000000
    7       16.336635   0.000000
    8       16.336635   0.000000
    9       18.493476   0.000000
   10       18.493476   0.000000
   11       22.510141   0.000000
   12       22.510141   0.000000
 
  0.3333333E+00  0.5000000E+00  0.1666667E+00  0.4629630E-02
    1      -16.891042   1.000000
    2      -16.891039   1.000000
    3        4.645249   0.000000
    4        4.645250   0.000000
    5       10.640975   0.000000
    6       10.640975   0.000000
    7       13.101709   0.000000
    8       13.101709   0.000000
    9       18.430053   0.000000
   10       18.430054   0.000000
   11       23.151178   0.000000
   12       23.151178   0.000000
 
  0.5000000E+00  0.5000000E+00  0.1666667E+00  0.4629630E-02
    1      -16.743297   1.000000
    2      -16.743294   1.000000
    3        5.321352   0.000000
    4        5.321352   0.000000
    5        9.747061   0.000000
    6        9.747061   0.000000
    7       13.461904   0.000000
    8       13.461905   0.000000
    9       14.648893   0.000000
   10       14.648893   0.000000
   11       20.421950   0.000000
   12       20.421950   0.000000
 
 -0.3333333E+00  0.5000000E+00  0.1666667E+00  0.4629630E-02
    1      -16.676936   1.000000
    2      -16.676934   1.000000
    3        6.539938   0.000000
    4        6.539938   0.000000
    5        8.949907   0.000000
    6        8.949907   0.000000
    7        9.614573   0.000000
    8        9.614573   0.000000
    9       17.419243   0.000000
   10       17.419243   0.000000
   11       22.145409   0.000000
   12       22.145409   0.000000
 
 -0.1666667E+00  0.5000000E+00  0.1666667E+00  0.4629630E-02
    1      -16.726457   1.000000
    2      -16.726454   1.000000
    3        5.630299   0.000000
    4        5.630299   0.000000
    5        8.452254   0.000000
    6        8.452254   0.000000
    7       11.825889   0.000000
    8       11.825889   0.000000
    9       18.603637   0.000000
   10       18.603637   0.000000
   11       22.746469   0.000000
   12       22.746470   0.000000
 
  0.0000000E+00 -0.3333333E+00  0.1666667E+00  0.4629630E-02
    1      -16.944282   1.000000
    2      -16.944280   1.000000
    3        4.152912   0.000000
    4        4.152912   0.000000
    5       10.295169   0.000000
    6       10.295169   0.000000
    7       16.336636   0.000000
    8       16.336636   0.000000
    9       18.493475   0.000000
   10       18.493475   0.000000
   11       22.510143   0.000000
   12       22.510143   0.000000
 
  0.1666667E+00 -0.3333333E+00  0.1666667E+00  0.4629630E-02
    1      -16.865018   1.000000
    2      -16.865015   1.000000
    3        4.228115   0.000000
    4        4.228115   0.000000
    5        9.932558   0.000000
    6        9.932558   0.000000
    7       16.573374   0.000000
    8       16.573374   0.000000
    9       16.857632   0.000000
   10       16.857632   0.000000
   11       22.238244   0.000000
   12       22.238245   0.000000
 
  0.3333333E+00 -0.3333333E+00  0.1666667E+00  0.4629630E-02
    1      -16.726457   1.000000
    2      -16.726454   1.000000
    3        5.630299   0.000000
    4        5.630299   0.000000
    5        8.452254   0.000000
    6        8.452254   0.000000
    7       11.825889   0.000000
    8       11.825889   0.000000
    9       18.603637   0.000000
   10       18.603637   0.000000
   11       22.746469   0.000000
   12       22.746469   0.000000
 
  0.5000000E+00 -0.3333333E+00  0.1666667E+00  0.4629630E-02
    1      -16.676936   1.000000
    2      -16.676934   1.000000
    3        6.539938   0.000000
    4        6.539938   0.000000
    5        8.949907   0.000000
    6        8.949907   0.000000
    7        9.614573   0.000000
    8        9.614573   0.000000
    9       17.419243   0.000000
   10       17.419243   0.000000
   11       22.145409   0.000000
   12       22.145409   0.000000
 
 -0.3333333E+00 -0.3333333E+00  0.1666667E+00  0.4629630E-02
    1      -16.743297   1.000000
    2      -16.743294   1.000000
    3        5.321352   0.000000
    4        5.321353   0.000000
    5        9.747061   0.000000
    6        9.747061   0.000000
    7       13.461905   0.000000
    8       13.461905   0.000000
    9       14.648893   0.000000
   10       14.648893   0.000000
   11       20.421950   0.000000