       N       E                     dE             d eps       ncg     rms          ort
DAV:   1     0.557648458580E+01    0.55765E+01   -0.15888E+00  2592   0.614E+00
DAV:   2     0.557492217110E+01   -0.15624E-02   -0.15624E-02  2592   0.948E-01
DAV:   3     0.557491016712E+01   -0.12004E-04   -0.12004E-04  2592   0.740E-02
DAV:   4     0.557491007573E+01   -0.91388E-07   -0.91385E-07  2592   0.674E-03
DAV:   5     0.557491007496E+01   -0.77250E-09   -0.77697E-09  2592   0.543E-04
SDA:   6     0.218891371028E+00   -0.53560E+01   -0.34843E+00  2592   0.581E+00 0.000E+00
DMP:   7     0.335209604877E-02   -0.21554E+00   -0.94795E-01  2592   0.117E+00 0.142E+00
DMP:   8    -0.594513136915E-01   -0.62803E-01   -0.44514E-01  2592   0.583E-01 0.544E-01
DMP:   9    -0.879285348360E-01   -0.28477E-01   -0.10251E-01  2592   0.108E-01 0.215E-01
DMP:  10    -0.947030253816E-01   -0.67745E-02   -0.34742E-02  2592   0.414E-02 0.566E-02
DMP:  11    -0.969466886472E-01   -0.22437E-02   -0.68995E-03  2592   0.647E-03 0.172E-02
DMP:  12    -0.973646546326E-01   -0.41797E-03   -0.19149E-03  2592   0.247E-03 0.248E-03
DMP:  13    -0.974683547402E-01   -0.10370E-03   -0.18922E-04  2592   0.238E-04 0.265E-04
DMP:  14    -0.974739339286E-01   -0.55792E-05   -0.75861E-05  2592   0.165E-04-0.131E-04
DMP:  15    -0.974776837307E-01   -0.37498E-05   -0.17457E-05  2592   0.292E-05-0.244E-07
DMP:  16    -0.974784311077E-01   -0.74738E-06   -0.98571E-06  2592   0.174E-05-0.324E-06
DMP:  17    -0.974790966951E-01   -0.66559E-06   -0.40852E-06  2592   0.509E-06 0.588E-06
DMP:  18    -0.974793474710E-01   -0.25078E-06   -0.13328E-06  2592   0.180E-06 0.144E-06
DMP:  19    -0.974794447309E-01   -0.97260E-07   -0.52219E-07  2592   0.583E-07 0.982E-07
   1 F= -.97479445E-01 E0= -.97479445E-01  d E =-.721792E-18  mag=     0.0000     0.0000    -0.0000
