<?xml version="1.0" encoding="ISO-8859-1"?>
<modeling>
 <generator>
  <i name="program" type="string">vasp </i>
  <i name="version" type="string">5.4.4.18Apr17-6-g9f103f2a35  </i>
  <i name="subversion" type="string">(build Nov 03 2018 10:20:46) complex            parallel </i>
  <i name="platform" type="string">LinuxIFC </i>
  <i name="date" type="string">2018 11 14 </i>
  <i name="time" type="string">14:30:43 </i>
 </generator>
 <incar>
  <i type="string" name="SYSTEM">   Og_FCC</i>
  <i type="string" name="PREC">accurate</i>
  <i type="string" name="ALGO">   QPGW</i>
  <i type="logical" name="ADDGRID"> T  </i>
  <i type="logical" name="LSORBIT"> T  </i>
  <i type="int" name="ISPIN">     1</i>
  <i type="int" name="MAXMIX">    50</i>
  <i type="int" name="NELM">     1</i>
  <i type="int" name="IBRION">    -1</i>
  <i type="int" name="NFREE">     5</i>
  <i name="EDIFF">      0.00000001</i>
  <i name="EDIFFG">      0.00001000</i>
  <i type="int" name="NSW">     1</i>
  <i type="int" name="ISIF">     3</i>
  <i type="int" name="ISYM">     0</i>
  <i name="SYMPREC">      0.00000010</i>
  <i name="ENCUT">    300.00000000</i>
  <i type="int" name="NBANDS">    96</i>
  <i name="POTIM">      0.10000000</i>
  <i type="logical" name="LREAL"> F  </i>
  <i type="int" name="ISMEAR">     0</i>
  <i name="SIGMA">      0.00100000</i>
  <i type="int" name="NWRITE">     1</i>
  <i type="logical" name="LWAVE"> T  </i>
  <i type="logical" name="LCHARG"> F  </i>
  <i type="logical" name="LVTOT"> F  </i>
  <i type="logical" name="GGA_COMPAT"> F  </i>
  <i type="int" name="NOMEGA">    50</i>
  <v type="int" name="KPOINT_BSE">    -1     0     0     0</v>
  <i type="logical" name="LSPECTRAL"> T  </i>
  <i type="int" name="NELM">     1</i>
  <i type="string" name="GGA"> PE</i>
 </incar>
 <structure name="primitive_cell" >
  <crystal>
   <varray name="basis" >
    <v>       4.52276652       0.00000000       0.00000000 </v>
    <v>       2.26138326       3.91683070      -0.00000000 </v>
    <v>       2.26138326       1.30561023       3.69282340 </v>
   </varray>
   <i name="volume">     65.41803699 </i>
   <varray name="rec_basis" >
    <v>       0.22110361      -0.12765423      -0.09026517 </v>
    <v>       0.00000000       0.25530846      -0.09026517 </v>
    <v>      -0.00000000       0.00000000       0.27079551 </v>
   </varray>
  </crystal>
  <varray name="positions" >
   <v>       0.00000000       0.00000000       0.00000000 </v>
  </varray>
 </structure>
 <varray name="primitive_index" >
  <v type="int" >        1 </v>
 </varray>
 <kpoints>
  <generation param="Gamma">
   <v type="int" name="divisions">       4        4        4 </v>
   <v name="usershift">      0.00000000       0.00000000       0.00000000 </v>
   <v name="genvec1">      0.25000000       0.00000000      -0.00000000 </v>
   <v name="genvec2">      0.00000000       0.25000000      -0.00000000 </v>
   <v name="genvec3">      0.00000000      -0.00000000       0.25000000 </v>
   <v name="shift">      0.00000000       0.00000000       0.00000000 </v>
  </generation>
  <varray name="kpointlist" >
   <v>       0.00000000       0.00000000       0.00000000 </v>
   <v>       0.25000000       0.00000000       0.00000000 </v>
   <v>       0.50000000       0.00000000       0.00000000 </v>
   <v>      -0.25000000      -0.00000000       0.00000000 </v>
   <v>       0.00000000       0.25000000       0.00000000 </v>
   <v>       0.25000000       0.25000000       0.00000000 </v>
   <v>       0.50000000       0.25000000       0.00000000 </v>
   <v>      -0.25000000       0.25000000      -0.00000000 </v>
   <v>       0.00000000       0.50000000       0.00000000 </v>
   <v>       0.25000000       0.50000000      -0.00000000 </v>
   <v>       0.50000000       0.50000000       0.00000000 </v>
   <v>      -0.25000000       0.50000000       0.00000000 </v>
   <v>       0.00000000      -0.25000000       0.00000000 </v>
   <v>       0.25000000      -0.25000000       0.00000000 </v>
   <v>       0.50000000      -0.25000000       0.00000000 </v>
   <v>      -0.25000000      -0.25000000       0.00000000 </v>
   <v>      -0.00000000       0.00000000       0.25000000 </v>
   <v>       0.25000000      -0.00000000       0.25000000 </v>
   <v>       0.50000000      -0.00000000       0.25000000 </v>
   <v>      -0.25000000      -0.00000000       0.25000000 </v>
   <v>      -0.00000000       0.25000000       0.25000000 </v>
   <v>       0.25000000       0.25000000       0.25000000 </v>
   <v>       0.50000000       0.25000000       0.25000000 </v>
   <v>      -0.25000000       0.25000000       0.25000000 </v>
   <v>      -0.00000000       0.50000000       0.25000000 </v>
   <v>       0.25000000       0.50000000       0.25000000 </v>
   <v>       0.50000000       0.50000000       0.25000000 </v>
   <v>      -0.25000000       0.50000000       0.25000000 </v>
   <v>       0.00000000      -0.25000000       0.25000000 </v>
   <v>       0.25000000      -0.25000000       0.25000000 </v>
   <v>       0.50000000      -0.25000000       0.25000000 </v>
   <v>      -0.25000000      -0.25000000       0.25000000 </v>
   <v>      -0.00000000       0.00000000       0.50000000 </v>
   <v>       0.25000000       0.00000000       0.50000000 </v>
   <v>       0.50000000      -0.00000000       0.50000000 </v>
   <v>      -0.25000000      -0.00000000       0.50000000 </v>
   <v>      -0.00000000       0.25000000       0.50000000 </v>
   <v>       0.25000000       0.25000000       0.50000000 </v>
   <v>       0.50000000       0.25000000       0.50000000 </v>
   <v>      -0.25000000       0.25000000       0.50000000 </v>
   <v>      -0.00000000       0.50000000       0.50000000 </v>
   <v>       0.25000000       0.50000000       0.50000000 </v>
   <v>       0.50000000       0.50000000       0.50000000 </v>
   <v>      -0.25000000       0.50000000       0.50000000 </v>
   <v>      -0.00000000      -0.25000000       0.50000000 </v>
   <v>       0.25000000      -0.25000000       0.50000000 </v>
   <v>       0.50000000      -0.25000000       0.50000000 </v>
   <v>      -0.25000000      -0.25000000       0.50000000 </v>
   <v>       0.00000000      -0.00000000      -0.25000000 </v>
   <v>       0.25000000       0.00000000      -0.25000000 </v>
   <v>       0.50000000       0.00000000      -0.25000000 </v>
   <v>      -0.25000000       0.00000000      -0.25000000 </v>
   <v>       0.00000000       0.25000000      -0.25000000 </v>
   <v>       0.25000000       0.25000000      -0.25000000 </v>
   <v>       0.50000000       0.25000000      -0.25000000 </v>
   <v>      -0.25000000       0.25000000      -0.25000000 </v>
   <v>       0.00000000       0.50000000      -0.25000000 </v>
   <v>       0.25000000       0.50000000      -0.25000000 </v>
   <v>       0.50000000       0.50000000      -0.25000000 </v>
   <v>      -0.25000000       0.50000000      -0.25000000 </v>
   <v>       0.00000000      -0.25000000      -0.25000000 </v>
   <v>       0.25000000      -0.25000000      -0.25000000 </v>
   <v>       0.50000000      -0.25000000      -0.25000000 </v>
   <v>      -0.25000000      -0.25000000      -0.25000000 </v>
  </varray>
  <varray name="weights" >
   <v>       0.01562500 </v>
   <v>       0.01562500 </v>
   <v>       0.01562500 </v>
   <v>       0.01562500 </v>
   <v>       0.01562500 </v>
   <v>       0.01562500 </v>
   <v>       0.01562500 </v>
   <v>       0.01562500 </v>
   <v>       0.01562500 </v>
   <v>       0.01562500 </v>
   <v>       0.01562500 </v>
   <v>       0.01562500 </v>
   <v>       0.01562500 </v>
   <v>       0.01562500 </v>
   <v>       0.01562500 </v>
   <v>       0.01562500 </v>
   <v>       0.01562500 </v>
   <v>       0.01562500 </v>
   <v>       0.01562500 </v>
   <v>       0.01562500 </v>
   <v>       0.01562500 </v>
   <v>       0.01562500 </v>
   <v>       0.01562500 </v>
   <v>       0.01562500 </v>
   <v>       0.01562500 </v>
   <v>       0.01562500 </v>
   <v>       0.01562500 </v>
   <v>       0.01562500 </v>
   <v>       0.01562500 </v>
   <v>       0.01562500 </v>
   <v>       0.01562500 </v>
   <v>       0.01562500 </v>
   <v>       0.01562500 </v>
   <v>       0.01562500 </v>
   <v>       0.01562500 </v>
   <v>       0.01562500 </v>
   <v>       0.01562500 </v>
   <v>       0.01562500 </v>
   <v>       0.01562500 </v>
   <v>       0.01562500 </v>
   <v>       0.01562500 </v>
   <v>       0.01562500 </v>
   <v>       0.01562500 </v>
   <v>       0.01562500 </v>
   <v>       0.01562500 </v>
   <v>       0.01562500 </v>
   <v>       0.01562500 </v>
   <v>       0.01562500 </v>
   <v>       0.01562500 </v>
   <v>       0.01562500 </v>
   <v>       0.01562500 </v>
   <v>       0.01562500 </v>
   <v>       0.01562500 </v>
   <v>       0.01562500 </v>
   <v>       0.01562500 </v>
   <v>       0.01562500 </v>
   <v>       0.01562500 </v>
   <v>       0.01562500 </v>
   <v>       0.01562500 </v>
   <v>       0.01562500 </v>
   <v>       0.01562500 </v>
   <v>       0.01562500 </v>
   <v>       0.01562500 </v>
   <v>       0.01562500 </v>
  </varray>
 </kpoints>
 <parameters>
  <separator name="general" >
   <i type="string" name="SYSTEM">Og_FCC</i>
   <i type="logical" name="LCOMPAT"> F  </i>
  </separator>
  <separator name="electronic" >
   <i type="string" name="PREC">accura</i>
   <i name="ENMAX">    300.00000000</i>
   <i name="ENAUG">    715.60700000</i>
   <i name="EDIFF">      0.00000001</i>
   <i type="int" name="IALGO">    38</i>
   <i type="int" name="IWAVPR">    10</i>
   <i type="int" name="NBANDS">    96</i>
   <i name="NELECT">     18.00000000</i>
   <i type="int" name="TURBO">     0</i>
   <i type="int" name="IRESTART">     0</i>
   <i type="int" name="NREBOOT">     0</i>
   <i type="int" name="NMIN">     0</i>
   <i name="EREF">      0.00000000</i>
   <separator name="electronic smearing" >
    <i type="int" name="ISMEAR">     0</i>
    <i name="SIGMA">      0.00100000</i>
    <i name="KSPACING">      0.50000000</i>
    <i type="logical" name="KGAMMA"> T  </i>
   </separator>
   <separator name="electronic projectors" >
    <i type="logical" name="LREAL"> F  </i>
    <v name="ROPT">      0.00000000</v>
    <i type="int" name="LMAXPAW">  -100</i>
    <i type="int" name="LMAXMIX">     2</i>
    <i type="logical" name="NLSPLINE"> F  </i>
   </separator>
   <separator name="electronic startup" >
    <i type="int" name="ISTART">     1</i>
    <i type="int" name="ICHARG">     0</i>
    <i type="int" name="INIWAV">     1</i>
   </separator>
   <separator name="electronic spin" >
    <i type="int" name="ISPIN">     1</i>
    <i type="logical" name="LNONCOLLINEAR"> T  </i>
    <v name="MAGMOM">      1.00000000      1.00000000      1.00000000</v>
    <i name="NUPDOWN">     -1.00000000</i>
    <i type="logical" name="LSORBIT"> T  </i>
    <v name="SAXIS">      0.00000000      0.00000000      1.00000000</v>
    <i type="logical" name="LSPIRAL"> F  </i>
    <v name="QSPIRAL">      0.00000000      0.00000000      0.00000000</v>
    <i type="logical" name="LZEROZ"> F  </i>
   </separator>
   <separator name="electronic exchange-correlation" >
    <i type="logical" name="LASPH"> F  </i>
    <i type="logical" name="LMETAGGA"> F  </i>
   </separator>
   <separator name="electronic convergence" >
    <i type="int" name="NELM">     1</i>
    <i type="int" name="NELMDL">     0</i>
    <i type="int" name="NELMIN">     2</i>
    <i name="ENINI">    300.00000000</i>
    <separator name="electronic convergence detail" >
     <i type="logical" name="LDIAG"> T  </i>
     <i type="logical" name="LSUBROT"> F  </i>
     <i name="WEIMIN">      0.00000000</i>
     <i name="EBREAK">      0.00000000</i>
     <i name="DEPER">      0.30000000</i>
     <i type="int" name="NRMM">     4</i>
     <i name="TIME">      0.40000000</i>
    </separator>
   </separator>
   <separator name="electronic mixer" >
    <i name="AMIX">      0.40000000</i>
    <i name="BMIX">      1.00000000</i>
    <i name="AMIN">      0.10000000</i>
    <i name="AMIX_MAG">      1.60000000</i>
    <i name="BMIX_MAG">      1.00000000</i>
    <separator name="electronic mixer details" >
     <i type="int" name="IMIX">     1</i>
     <i type="logical" name="MIXFIRST"> F  </i>
     <i type="int" name="MAXMIX">    50</i>
     <i name="WC">    100.00000000</i>
     <i type="int" name="INIMIX">     1</i>
     <i type="int" name="MIXPRE">     1</i>
     <i type="int" name="MREMOVE">     5</i>
    </separator>
   </separator>
   <separator name="electronic dipolcorrection" >
    <i type="logical" name="LDIPOL"> F  </i>
    <i type="logical" name="LMONO"> F  </i>
    <i type="int" name="IDIPOL">     0</i>
    <i name="EPSILON">      1.00000000</i>
    <v name="DIPOL">   -100.00000000   -100.00000000   -100.00000000</v>
    <i name="EFIELD">      0.00000000</i>
   </separator>
  </separator>
  <separator name="grids" >
   <i type="int" name="NGX">    28</i>
   <i type="int" name="NGY">    28</i>
   <i type="int" name="NGZ">    28</i>
   <i type="int" name="NGXF">    56</i>
   <i type="int" name="NGYF">    56</i>
   <i type="int" name="NGZF">    56</i>
   <i type="logical" name="ADDGRID"> T  </i>
  </separator>
  <separator name="ionic" >
   <i type="int" name="NSW">     1</i>
   <i type="int" name="IBRION">    -1</i>
   <i type="int" name="MDALGO">     0</i>
   <i type="int" name="ISIF">     3</i>
   <i name="PSTRESS">      0.00000000</i>
   <i name="EDIFFG">      0.00001000</i>
   <i type="int" name="NFREE">     5</i>
   <i name="POTIM">      0.10000000</i>
   <i name="SMASS">     -3.00000000</i>
   <i name="SCALEE">      1.00000000</i>
  </separator>
  <separator name="ionic md" >
   <i name="TEBEG">      0.00010000</i>
   <i name="TEEND">      0.00010000</i>
   <i type="int" name="NBLOCK">     1</i>
   <i type="int" name="KBLOCK">     1</i>
   <i type="int" name="NPACO">   256</i>
   <i name="APACO">     16.00000000</i>
  </separator>
  <separator name="symmetry" >
   <i type="int" name="ISYM">     0</i>
   <i name="SYMPREC">      0.00000010</i>
  </separator>
  <separator name="dos" >
   <i type="int" name="LORBIT">     0</i>
   <v name="RWIGS">     -1.00000000</v>
   <i type="int" name="NEDOS">   301</i>
   <i name="EMIN">     10.00000000</i>
   <i name="EMAX">    -10.00000000</i>
   <i name="EFERMI">      0.00000000</i>
  </separator>
  <separator name="writing" >
   <i type="int" name="NWRITE">     1</i>
   <i type="logical" name="LWAVE"> T  </i>
   <i type="logical" name="LDOWNSAMPLE"> F  </i>
   <i type="logical" name="LCHARG"> F  </i>
   <i type="logical" name="LPARD"> F  </i>
   <i type="logical" name="LVTOT"> F  </i>
   <i type="logical" name="LVHAR"> F  </i>
   <i type="logical" name="LELF"> F  </i>
   <i type="logical" name="LOPTICS"> F  </i>
   <v name="STM">      0.00000000      0.00000000      0.00000000      0.00000000      0.00000000      0.00000000      0.00000000</v>
  </separator>
  <separator name="performance" >
   <i type="int" name="NPAR">     2</i>
   <i type="int" name="NSIM">     4</i>
   <i type="int" name="NBLK">    -1</i>
   <i type="logical" name="LPLANE"> T  </i>
   <i type="logical" name="LSCALAPACK"> T  </i>
   <i type="logical" name="LSCAAWARE"> F  </i>
   <i type="logical" name="LSCALU"> F  </i>
   <i type="logical" name="LASYNC"> F  </i>
   <i type="logical" name="LORBITALREAL"> F  </i>
  </separator>
  <separator name="miscellaneous" >
   <i type="int" name="IDIOT">     3</i>
   <i type="int" name="ISPECIAL">     0</i>
   <i type="logical" name="LMUSIC"> F  </i>
   <v name="POMASS">    220.17000000</v>
   <v name="DARWINR">      0.00000000</v>
   <v name="DARWINV">      1.00000000</v>
   <i type="logical" name="LCORR"> T  </i>
  </separator>
  <i type="logical" name="GGA_COMPAT"> F  </i>
  <i type="logical" name="LBERRY"> F  </i>
  <i type="int" name="ICORELEVEL">     0</i>
  <i type="logical" name="LDAU"> F  </i>
  <i type="int" name="I_CONSTRAINED_M">     0</i>
  <separator name="electronic exchange-correlation" >
   <i type="string" name="GGA">PE</i>
   <i type="int" name="VOSKOWN">     0</i>
   <i type="logical" name="LHFCALC"> T  </i>
   <i type="string" name="PRECFOCK">normal</i>
   <i type="logical" name="LSYMGRAD"> F  </i>
   <i type="logical" name="LHFONE"> F  </i>
   <i type="logical" name="LRHFCALC"> F  </i>
   <i type="logical" name="LTHOMAS"> F  </i>
   <i type="logical" name="LMODELHF"> F  </i>
   <i name="ENCUT4O">     -1.00000000</i>
   <i type="int" name="EXXOEP">     0</i>
   <i type="int" name="FOURORBIT">     0</i>
   <i name="AEXX">      1.00000000</i>
   <i name="HFALPHA">     -1.00000000</i>
   <i name="MCALPHA">      0.00000000</i>
   <i name="ALDAX">      0.00000000</i>
   <i name="AGGAX">      0.00000000</i>
   <i name="ALDAC">      0.00000000</i>
   <i name="AGGAC">      0.00000000</i>
   <i type="int" name="NKREDX">     1</i>
   <i type="int" name="NKREDY">     1</i>
   <i type="int" name="NKREDZ">     1</i>
   <i type="logical" name="SHIFTRED"> F  </i>
   <i type="logical" name="ODDONLY"> F  </i>
   <i type="logical" name="EVENONLY"> F  </i>
   <i type="int" name="LMAXFOCK">     4</i>
   <i type="int" name="NMAXFOCKAE">     1</i>
   <i type="logical" name="LFOCKAEDFT"> F  </i>
   <i name="HFSCREEN">      0.00000000</i>
   <i name="HFSCREENC">      0.00000000</i>
   <i type="int" name="NBANDSGWLOW">     1</i>
  </separator>
  <separator name="vdW DFT" >
   <i type="logical" name="LUSE_VDW"> F  </i>
   <i name="Zab_VDW">     -0.84910000</i>
   <i name="PARAM1">      0.12340000</i>
   <i name="PARAM2">      1.00000000</i>
   <i name="PARAM3">      0.00000000</i>
  </separator>
  <separator name="model GW" >
   <i type="int" name="MODEL_GW">     0</i>
   <i name="MODEL_EPS0">     39.25082219</i>
   <i name="MODEL_ALPHA">      1.00000000</i>
  </separator>
  <separator name="linear response parameters" >
   <i type="logical" name="LEPSILON"> F  </i>
   <i type="logical" name="LRPA"> F  </i>
   <i type="logical" name="LNABLA"> F  </i>
   <i type="logical" name="LVEL"> F  </i>
   <i type="int" name="KINTER">     0</i>
   <i name="CSHIFT">      0.10000000</i>
   <i name="OMEGAMAX">     -1.00000000</i>
   <i name="DEG_THRESHOLD">      0.00200000</i>
   <i name="RTIME">     -0.10000000</i>
   <i name="WPLASMAI">      0.00000000</i>
   <v name="DFIELD">      0.00000000      0.00000000      0.00000000</v>
   <v name="WPLASMA">      0.00000000      0.00000000      0.00000000      0.00000000      0.00000000      0.00000000      0.00000000      0.00000000      0.00000000</v>
  </separator>
  <separator name="orbital magnetization" >
   <i type="logical" name="NUCIND"> F  </i>
   <v name="MAGPOS">      0.00000000      0.00000000      0.00000000</v>
   <i type="logical" name="LNICSALL"> T  </i>
   <i type="logical" name="ORBITALMAG"> F  </i>
   <i type="logical" name="LMAGBLOCH"> F  </i>
   <i type="logical" name="LCHIMAG"> F  </i>
   <i type="logical" name="LGAUGE"> T  </i>
   <i type="int" name="MAGATOM">     0</i>
   <v name="MAGDIPOL">      0.00000000      0.00000000      0.00000000</v>
   <v name="AVECCONST">      0.00000000      0.00000000      0.00000000</v>
  </separator>
  <separator name="response functions" >
   <i type="logical" name="LADDER"> F  </i>
   <i type="logical" name="LRPAFORCE"> F  </i>
   <i type="logical" name="LFXC"> F  </i>
   <i type="logical" name="LHARTREE"> T  </i>
   <i type="int" name="IBSE">     0</i>
   <v type="int" name="KPOINT">    -1     0     0     0</v>
   <i type="logical" name="LTCTE"> F  </i>
   <i type="logical" name="LTETE"> F  </i>
   <i type="logical" name="LTRIPLET"> F  </i>
   <i type="logical" name="LFXCEPS"> F  </i>
   <i type="logical" name="LFXHEG"> F  </i>
   <i type="int" name="NATURALO">     2</i>
   <i type="logical" name="L2ORDER"> F  </i>
   <i type="logical" name="LMP2LT"> F  </i>
   <i type="logical" name="LUSEW"> F  </i>
   <i name="ENCUTGW">    200.00000000</i>
   <i name="ENCUTGWSOFT">    200.00000000</i>
   <i name="ENCUTLF">     -1.00000000</i>
   <i type="int" name="LMAXMP2">    -1</i>
   <i name="SCISSOR">      0.00000000</i>
   <i type="int" name="NOMEGA">    50</i>
   <i type="int" name="NOMEGAR">    50</i>
   <i type="int" name="NBANDSGW">    -1</i>
   <i type="int" name="NBANDSO">    -1</i>
   <i type="int" name="NBANDSV">    -1</i>
   <i type="int" name="NELM">     1</i>
   <i type="int" name="NELMHF">     1</i>
   <i type="int" name="DIM">     3</i>
   <i type="int" name="ANTIRES">     0</i>
   <i name="OMEGAMAX">    -30.00000000</i>
   <i name="OMEGAMIN">    -30.00000000</i>
   <i name="OMEGATL">   -200.00000000</i>
   <i type="int" name="OMEGAGRID">     0</i>
   <i name="CSHIFT">     -0.10000000</i>
   <i type="logical" name="SELFENERGY"> F  </i>
   <i type="logical" name="LSPECTRAL"> T  </i>
   <i type="logical" name="LSPECTRALGW"> F  </i>
   <i type="logical" name="LSINGLES"> F  </i>
   <i type="logical" name="LFERMIGW"> F  </i>
   <i type="logical" name="ODDONLYGW"> F  </i>
   <i type="logical" name="EVENONLYGW"> F  </i>
   <i type="int" name="NKREDLFX">     1</i>
   <i type="int" name="NKREDLFY">     1</i>
   <i type="int" name="NKREDLFZ">     1</i>
   <i type="int" name="MAXMEM">  2800</i>
   <i type="int" name="TELESCOPE">     0</i>
   <i type="int" name="TAUPAR">     1</i>
   <i type="int" name="OMEGAPAR">    -1</i>
   <i name="LAMBDA">      1.00000000</i>
  </separator>
  <separator name="External order field" >
   <i name="OFIELD_KAPPA">      0.00000000</i>
   <v name="OFIELD_K">      0.00000000      0.00000000      0.00000000</v>
   <i name="OFIELD_Q6_NEAR">      0.00000000</i>
   <i name="OFIELD_Q6_FAR">      0.00000000</i>
   <i name="OFIELD_A">      0.00000000</i>
  </separator>
 </parameters>
 <atominfo>
  <atoms>       1 </atoms>
  <types>       1 </types>
  <array name="atoms" >
   <dimension dim="1">ion</dimension>
   <field type="string">element</field>
   <field type="int">atomtype</field>
   <set>
    <rc><c>Rn</c><c>   1</c></rc>
   </set>
  </array>
  <array name="atomtypes" >
   <dimension dim="1">type</dimension>
   <field type="int">atomspertype</field>
   <field type="string">element</field>
   <field>mass</field>
   <field>valence</field>
   <field type="string">pseudopotential</field>
   <set>
    <rc><c>   1</c><c>Rn</c><c>    220.17000000</c><c>     18.00000000</c><c>  PAW_PBE Rn_d_GW 14Apr2014             </c></rc>
   </set>
  </array>
 </atominfo>
 <structure name="initialpos" >
  <crystal>
   <varray name="basis" >
    <v>       4.52276652       0.00000000       0.00000000 </v>
    <v>       2.26138326       3.91683070      -0.00000000 </v>
    <v>       2.26138326       1.30561023       3.69282340 </v>
   </varray>
   <i name="volume">     65.41803699 </i>
   <varray name="rec_basis" >
    <v>       0.22110361      -0.12765423      -0.09026517 </v>
    <v>       0.00000000       0.25530846      -0.09026517 </v>
    <v>      -0.00000000       0.00000000       0.27079551 </v>
   </varray>
  </crystal>
  <varray name="positions" >
   <v>       0.00000000       0.00000000       0.00000000 </v>
  </varray>
  <varray name="velocities" >
   <v>       0.00000000       0.00000000       0.00000000 </v>
  </varray>
 </structure>
 <kpoints>
  <generation param="Gamma">
   <v type="int" name="divisions">       4        4        4 </v>
   <v name="usershift">      0.00000000       0.00000000       0.00000000 </v>
   <v name="genvec1">      0.25000000       0.00000000      -0.00000000 </v>
   <v name="genvec2">      0.00000000       0.25000000      -0.00000000 </v>
   <v name="genvec3">      0.00000000      -0.00000000       0.25000000 </v>
   <v name="shift">      0.00000000       0.00000000       0.00000000 </v>
  </generation>
  <varray name="kpointlist" >
   <v>       0.00000000       0.00000000       0.00000000 </v>
   <v>       0.25000000       0.00000000       0.00000000 </v>
   <v>       0.50000000       0.00000000       0.00000000 </v>
   <v>      -0.25000000      -0.00000000       0.00000000 </v>
   <v>       0.00000000       0.25000000       0.00000000 </v>
   <v>       0.25000000       0.25000000       0.00000000 </v>
   <v>       0.50000000       0.25000000       0.00000000 </v>
   <v>      -0.25000000       0.25000000      -0.00000000 </v>
   <v>       0.00000000       0.50000000       0.00000000 </v>
   <v>       0.25000000       0.50000000      -0.00000000 </v>
   <v>       0.50000000       0.50000000       0.00000000 </v>
   <v>      -0.25000000       0.50000000       0.00000000 </v>
   <v>       0.00000000      -0.25000000       0.00000000 </v>
   <v>       0.25000000      -0.25000000       0.00000000 </v>
   <v>       0.50000000      -0.25000000       0.00000000 </v>
   <v>      -0.25000000      -0.25000000       0.00000000 </v>
   <v>      -0.00000000       0.00000000       0.25000000 </v>
   <v>       0.25000000      -0.00000000       0.25000000 </v>
   <v>       0.50000000      -0.00000000       0.25000000 </v>
   <v>      -0.25000000      -0.00000000       0.25000000 </v>
   <v>      -0.00000000       0.25000000       0.25000000 </v>
   <v>       0.25000000       0.25000000       0.25000000 </v>
   <v>       0.50000000       0.25000000       0.25000000 </v>
   <v>      -0.25000000       0.25000000       0.25000000 </v>
   <v>      -0.00000000       0.50000000       0.25000000 </v>
   <v>       0.25000000       0.50000000       0.25000000 </v>
   <v>       0.50000000       0.50000000       0.25000000 </v>
   <v>      -0.25000000       0.50000000       0.25000000 </v>
   <v>       0.00000000      -0.25000000       0.25000000 </v>
   <v>       0.25000000      -0.25000000       0.25000000 </v>
   <v>       0.50000000      -0.25000000       0.25000000 </v>
   <v>      -0.25000000      -0.25000000       0.25000000 </v>
   <v>      -0.00000000       0.00000000       0.50000000 </v>
   <v>       0.25000000       0.00000000       0.50000000 </v>
   <v>       0.50000000      -0.00000000       0.50000000 </v>
   <v>      -0.25000000      -0.00000000       0.50000000 </v>
   <v>      -0.00000000       0.25000000       0.50000000 </v>
   <v>       0.25000000       0.25000000       0.50000000 </v>
   <v>       0.50000000       0.25000000       0.50000000 </v>
   <v>      -0.25000000       0.25000000       0.50000000 </v>
   <v>      -0.00000000       0.50000000       0.50000000 </v>
   <v>       0.25000000       0.50000000       0.50000000 </v>
   <v>       0.50000000       0.50000000       0.50000000 </v>
   <v>      -0.25000000       0.50000000       0.50000000 </v>
   <v>      -0.00000000      -0.25000000       0.50000000 </v>
   <v>       0.25000000      -0.25000000       0.50000000 </v>
   <v>       0.50000000      -0.25000000       0.50000000 </v>
   <v>      -0.25000000      -0.25000000       0.50000000 </v>
   <v>       0.00000000      -0.00000000      -0.25000000 </v>
   <v>       0.25000000       0.00000000      -0.25000000 </v>
   <v>       0.50000000       0.00000000      -0.25000000 </v>
   <v>      -0.25000000       0.00000000      -0.25000000 </v>
   <v>       0.00000000       0.25000000      -0.25000000 </v>
   <v>       0.25000000       0.25000000      -0.25000000 </v>
   <v>       0.50000000       0.25000000      -0.25000000 </v>
   <v>      -0.25000000       0.25000000      -0.25000000 </v>
   <v>       0.00000000       0.50000000      -0.25000000 </v>
   <v>       0.25000000       0.50000000      -0.25000000 </v>
   <v>       0.50000000       0.50000000      -0.25000000 </v>
   <v>      -0.25000000       0.50000000      -0.25000000 </v>
   <v>       0.00000000      -0.25000000      -0.25000000 </v>
   <v>       0.25000000      -0.25000000      -0.25000000 </v>
   <v>       0.50000000      -0.25000000      -0.25000000 </v>
   <v>      -0.25000000      -0.25000000      -0.25000000 </v>
  </varray>
  <varray name="weights" >
   <v>       0.01562500 </v>
   <v>       0.01562500 </v>
   <v>       0.01562500 </v>
   <v>       0.01562500 </v>
   <v>       0.01562500 </v>
   <v>       0.01562500 </v>
   <v>       0.01562500 </v>
   <v>       0.01562500 </v>
   <v>       0.01562500 </v>
   <v>       0.01562500 </v>
   <v>       0.01562500 </v>
   <v>       0.01562500 </v>
   <v>       0.01562500 </v>
   <v>       0.01562500 </v>
   <v>       0.01562500 </v>
   <v>       0.01562500 </v>
   <v>       0.01562500 </v>
   <v>       0.01562500 </v>
   <v>       0.01562500 </v>
   <v>       0.01562500 </v>
   <v>       0.01562500 </v>
   <v>       0.01562500 </v>
   <v>       0.01562500 </v>
   <v>       0.01562500 </v>
   <v>       0.01562500 </v>
   <v>       0.01562500 </v>
   <v>       0.01562500 </v>
   <v>       0.01562500 </v>
   <v>       0.01562500 </v>
   <v>       0.01562500 </v>
   <v>       0.01562500 </v>
   <v>       0.01562500 </v>
   <v>       0.01562500 </v>
   <v>       0.01562500 </v>
   <v>       0.01562500 </v>
   <v>       0.01562500 </v>
   <v>       0.01562500 </v>
   <v>       0.01562500 </v>
   <v>       0.01562500 </v>
   <v>       0.01562500 </v>
   <v>       0.01562500 </v>
   <v>       0.01562500 </v>
   <v>       0.01562500 </v>
   <v>       0.01562500 </v>
   <v>       0.01562500 </v>
   <v>       0.01562500 </v>
   <v>       0.01562500 </v>
   <v>       0.01562500 </v>
   <v>       0.01562500 </v>
   <v>       0.01562500 </v>
   <v>       0.01562500 </v>
   <v>       0.01562500 </v>
   <v>       0.01562500 </v>
   <v>       0.01562500 </v>
   <v>       0.01562500 </v>
   <v>       0.01562500 </v>
   <v>       0.01562500 </v>
   <v>       0.01562500 </v>
   <v>       0.01562500 </v>
   <v>       0.01562500 </v>
   <v>       0.01562500 </v>
   <v>       0.01562500 </v>
   <v>       0.01562500 </v>
   <v>       0.01562500 </v>
  </varray>
 </kpoints>
 <dielectricfunction comment="HEAD OF MICROSCOPIC DIELECTRIC TENSOR (INDEPENDENT PARTICLE)">
  <imag>
   <array>
    <dimension dim="1">gridpoints</dimension>
    <field>energy</field>
    <field>xx</field>
    <field>yy</field>
    <field>zz</field>
    <field>xy</field>
    <field>yz</field>
    <field>zx</field>
    <set>
     <r>     0.0000    -0.0000     0.0000    -0.0000    -0.0000     0.0000    -0.0000 </r>
     <r>     1.3728     0.1057     0.1057     0.1057     0.0000     0.0000     0.0000 </r>
     <r>     2.7408     0.3050     0.3050     0.3050     0.0000     0.0000     0.0000 </r>
     <r>     4.0997     0.7467     0.7467     0.7467     0.0000     0.0000     0.0000 </r>
     <r>     5.4453     1.5798     1.5798     1.5798     0.0000     0.0000     0.0000 </r>
     <r>     6.7745     2.4313     2.4313     2.4313     0.0000     0.0000     0.0000 </r>
     <r>     8.0846     2.7081     2.7081     2.7081    -0.0000    -0.0000    -0.0000 </r>
     <r>     9.3740     2.6693     2.6693     2.6693    -0.0000    -0.0000    -0.0000 </r>
     <r>    10.6418     2.2331     2.2331     2.2331    -0.0000     0.0000    -0.0000 </r>
     <r>    11.8880     1.6963     1.6963     1.6963    -0.0000     0.0000    -0.0000 </r>
     <r>    13.1131     1.3076     1.3076     1.3076     0.0000    -0.0000     0.0000 </r>
     <r>    14.3186     1.0888     1.0888     1.0888     0.0000     0.0000     0.0000 </r>
     <r>    15.5060     0.8771     0.8771     0.8771     0.0000     0.0000     0.0000 </r>
     <r>    16.6778     0.6209     0.6209     0.6209    -0.0000     0.0000    -0.0000 </r>
     <r>    17.8365     0.5913     0.5913     0.5913    -0.0000    -0.0000    -0.0000 </r>
     <r>    18.9851     0.5102     0.5102     0.5102    -0.0000    -0.0000    -0.0000 </r>
     <r>    20.1269     0.3483     0.3483     0.3483    -0.0000    -0.0000    -0.0000 </r>
     <r>    21.2653     0.2560     0.2560     0.2560    -0.0000    -0.0000    -0.0000 </r>
     <r>    22.4041     0.2214     0.2214     0.2214    -0.0000    -0.0000    -0.0000 </r>
     <r>    23.5473     0.1811     0.1811     0.1811    -0.0000    -0.0000    -0.0000 </r>
     <r>    24.6992     0.1354     0.1354     0.1354    -0.0000    -0.0000    -0.0000 </r>
     <r>    25.8645     0.1165     0.1165     0.1165    -0.0000    -0.0000    -0.0000 </r>
     <r>    27.0481     0.1139     0.1139     0.1139    -0.0000    -0.0000    -0.0000 </r>
     <r>    28.2554     0.1089     0.1089     0.1089    -0.0000    -0.0000    -0.0000 </r>
     <r>    29.4926     0.0941     0.0941     0.0941    -0.0000    -0.0000    -0.0000 </r>
     <r>    30.7660     0.0771     0.0771     0.0771    -0.0000    -0.0000    -0.0000 </r>
     <r>    32.0832     0.0667     0.0667     0.0667    -0.0000    -0.0000    -0.0000 </r>
     <r>    33.4526     0.0535     0.0535     0.0535    -0.0000    -0.0000    -0.0000 </r>
     <r>    34.8838     0.0437     0.0437     0.0437    -0.0000    -0.0000    -0.0000 </r>
     <r>    36.3874     0.0370     0.0370     0.0370    -0.0000    -0.0000    -0.0000 </r>
     <r>    37.9763     0.0310     0.0310     0.0310    -0.0000    -0.0000    -0.0000 </r>
     <r>    39.6656     0.0231     0.0231     0.0231    -0.0000    -0.0000    -0.0000 </r>
     <r>    41.4727     0.0190     0.0190     0.0190    -0.0000    -0.0000    -0.0000 </r>
     <r>    43.4189     0.0198     0.0198     0.0198    -0.0000    -0.0000    -0.0000 </r>
     <r>    45.5297     0.0271     0.0271     0.0271    -0.0000    -0.0000    -0.0000 </r>
     <r>    47.8361     0.0375     0.0375     0.0375     0.0000     0.0000     0.0000 </r>
     <r>    50.3768     0.0625     0.0625     0.0625    -0.0000     0.0000    -0.0000 </r>
     <r>    53.1998     0.1148     0.1148     0.1148     0.0000     0.0000     0.0000 </r>
     <r>    56.3659     0.2286     0.2286     0.2286     0.0000     0.0000     0.0000 </r>
     <r>    59.9540     0.2667     0.2667     0.2667     0.0000    -0.0000     0.0000 </r>
     <r>    64.0664     0.2398     0.2398     0.2398     0.0000     0.0000     0.0000 </r>
     <r>    68.8397     0.1781     0.1781     0.1781     0.0000     0.0000     0.0000 </r>
     <r>    74.4598     0.1022     0.1022     0.1022     0.0000     0.0000     0.0000 </r>
     <r>    81.1864     0.0284     0.0284     0.0284     0.0000     0.0000     0.0000 </r>
     <r>    89.3930     0.0047     0.0047     0.0047     0.0000    -0.0000    -0.0000 </r>
     <r>    99.6366     0.0016     0.0016     0.0016     0.0000    -0.0000    -0.0000 </r>
     <r>   112.7851     0.0009     0.0009     0.0009     0.0000     0.0000    -0.0000 </r>
     <r>   130.2707     0.0005     0.0005     0.0005     0.0000     0.0000     0.0000 </r>
     <r>   154.6345     0.0002     0.0002     0.0002     0.0000     0.0000     0.0000 </r>
     <r>   190.8586     0.0001     0.0001     0.0001     0.0000     0.0000     0.0000 </r>
    </set>
   </array>
  </imag>
  <real>
   <array>
    <dimension dim="1">gridpoints</dimension>
    <field>energy</field>
    <field>xx</field>
    <field>yy</field>
    <field>zz</field>
    <field>xy</field>
    <field>yz</field>
    <field>zx</field>
    <set>
     <r>     0.0000     3.0517     3.0517     3.0517     0.0000     0.0000     0.0000 </r>
     <r>     1.3728     3.1171     3.1171     3.1171     0.0000     0.0000     0.0000 </r>
     <r>     2.7408     3.3068     3.3068     3.3068     0.0000     0.0000     0.0000 </r>
     <r>     4.0997     3.5739     3.5739     3.5739     0.0000     0.0000     0.0000 </r>
     <r>     5.4453     3.6051     3.6051     3.6051    -0.0000    -0.0000    -0.0000 </r>
     <r>     6.7745     2.9923     2.9923     2.9923    -0.0000    -0.0000    -0.0000 </r>
     <r>     8.0846     2.1008     2.1008     2.1008    -0.0000    -0.0000    -0.0000 </r>
     <r>     9.3740     1.2648     1.2648     1.2648    -0.0000     0.0000    -0.0000 </r>
     <r>    10.6418     0.5980     0.5980     0.5980    -0.0000     0.0000    -0.0000 </r>
     <r>    11.8880     0.3268     0.3268     0.3268    -0.0000    -0.0000    -0.0000 </r>
     <r>    13.1131     0.3024     0.3024     0.3024     0.0000     0.0000     0.0000 </r>
     <r>    14.3186     0.3082     0.3082     0.3082    -0.0000     0.0000    -0.0000 </r>
     <r>    15.5060     0.2564     0.2564     0.2564    -0.0000    -0.0000    -0.0000 </r>
     <r>    16.6778     0.3447     0.3447     0.3447    -0.0000    -0.0000    -0.0000 </r>
     <r>    17.8365     0.4432     0.4432     0.4432    -0.0000    -0.0000    -0.0000 </r>
     <r>    18.9851     0.3947     0.3947     0.3947    -0.0000    -0.0000    -0.0000 </r>
     <r>    20.1269     0.4195     0.4195     0.4195    -0.0000    -0.0000    -0.0000 </r>
     <r>    21.2653     0.5144     0.5144     0.5144    -0.0000    -0.0000     0.0000 </r>
     <r>    22.4041     0.5788     0.5788     0.5788     0.0000     0.0000     0.0000 </r>
     <r>    23.5473     0.6151     0.6151     0.6151     0.0000     0.0000     0.0000 </r>
     <r>    24.6992     0.6644     0.6644     0.6644     0.0000     0.0000     0.0000 </r>
     <r>    25.8645     0.7202     0.7202     0.7202     0.0000     0.0000     0.0000 </r>
     <r>    27.0481     0.7572     0.7572     0.7572    -0.0000    -0.0000    -0.0000 </r>
     <r>    28.2554     0.7771     0.7771     0.7771    -0.0000    -0.0000    -0.0000 </r>
     <r>    29.4926     0.7928     0.7928     0.7928    -0.0000     0.0000    -0.0000 </r>
     <r>    30.7660     0.8149     0.8149     0.8149    -0.0000     0.0000    -0.0000 </r>
     <r>    32.0832     0.8362     0.8362     0.8362     0.0000     0.0000     0.0000 </r>
     <r>    33.4526     0.8559     0.8559     0.8559     0.0000     0.0000     0.0000 </r>
     <r>    34.8838     0.8786     0.8786     0.8786     0.0000     0.0000     0.0000 </r>
     <r>    36.3874     0.8998     0.8998     0.8998     0.0000     0.0000     0.0000 </r>
     <r>    37.9763     0.9192     0.9192     0.9192     0.0000     0.0000     0.0000 </r>
     <r>    39.6656     0.9406     0.9406     0.9406     0.0000     0.0000     0.0000 </r>
     <r>    41.4727     0.9661     0.9661     0.9661     0.0000     0.0000     0.0000 </r>
     <r>    43.4189     0.9937     0.9937     0.9937     0.0000     0.0000     0.0000 </r>
     <r>    45.5297     1.0211     1.0211     1.0211     0.0000     0.0000     0.0000 </r>
     <r>    47.8361     1.0513     1.0513     1.0513     0.0000     0.0000     0.0000 </r>
     <r>    50.3768     1.0867     1.0867     1.0867     0.0000     0.0000     0.0000 </r>
     <r>    53.1998     1.1264     1.1264     1.1264     0.0000     0.0000     0.0000 </r>
     <r>    56.3659     1.1015     1.1015     1.1015     0.0000     0.0000     0.0000 </r>
     <r>    59.9540     0.9999     0.9999     0.9999     0.0000     0.0000     0.0000 </r>
     <r>    64.0664     0.9110     0.9110     0.9110     0.0000     0.0000     0.0000 </r>
     <r>    68.8397     0.8549     0.8549     0.8549     0.0000     0.0000     0.0000 </r>
     <r>    74.4598     0.8361     0.8361     0.8361    -0.0000    -0.0000    -0.0000 </r>
     <r>    81.1864     0.8626     0.8626     0.8626    -0.0000    -0.0000    -0.0000 </r>
     <r>    89.3930     0.9097     0.9097     0.9097    -0.0000    -0.0000    -0.0000 </r>
     <r>    99.6366     0.9399     0.9399     0.9399    -0.0000    -0.0000    -0.0000 </r>
     <r>   112.7851     0.9581     0.9581     0.9581    -0.0000    -0.0000    -0.0000 </r>
     <r>   130.2707     0.9709     0.9709     0.9709    -0.0000    -0.0000    -0.0000 </r>
     <r>   154.6345     0.9805     0.9805     0.9805    -0.0000    -0.0000    -0.0000 </r>
     <r>   190.8586     0.9877     0.9877     0.9877    -0.0000    -0.0000    -0.0000 </r>
    </set>
   </array>
  </real>
 </dielectricfunction>
 <varray name="epsilon_diag_mic" >
  <v>       0.00000000       3.05174167 </v>
  <v>       1.70145838       1.47282988 </v>
  <v>       3.40291675       1.07370349 </v>
  <v>       5.10437513       1.00822249 </v>
  <v>       6.80583351       1.00144997 </v>
  <v>       6.80583351       1.00144997 </v>
  <v>       5.10437513       1.00822249 </v>
  <v>       3.40291675       1.07370349 </v>
  <v>       1.70145838       1.47282988 </v>
  <v>       1.70145838       1.47282988 </v>
  <v>       1.96467490       1.34998621 </v>
  <v>       3.25804475       1.08672570 </v>
  <v>       4.81245102       1.01198520 </v>
  <v>       6.44161745       1.00197925 </v>
  <v>       5.89402471       1.00332924 </v>
  <v>       4.28190968       1.02455719 </v>
  <v>       2.77846989       1.14556992 </v>
  <v>       3.40291675       1.07370349 </v>
  <v>       3.25804475       1.08672570 </v>
  <v>       3.92934981       1.03908556 </v>
  <v>       5.10437513       1.00819523 </v>
  <v>       6.51608949       1.00183580 </v>
  <v>       7.01529260       1.00118339 </v>
  <v>       5.55693979       1.00474107 </v>
  <v>       4.28190968       1.02455719 </v>
  <v>       5.10437513       1.00822249 </v>
  <v>       4.81245102       1.01198520 </v>
  <v>       5.10437513       1.00819523 </v>
  <v>       5.89402471       1.00332682 </v>
  <v>       7.01529260       1.00119651 </v>
  <v>       7.01529260       1.00118339 </v>
  <v>       5.89402471       1.00332924 </v>
  <v>       6.80583351       1.00144997 </v>
  <v>       6.44161745       1.00197925 </v>
  <v>       6.51608949       1.00183580 </v>
  <v>       7.01529260       1.00119651 </v>
  <v>       6.80583351       1.00144997 </v>
  <v>       7.01529260       1.00119651 </v>
  <v>       6.51608949       1.00183580 </v>
  <v>       6.44161745       1.00197925 </v>
  <v>       5.10437513       1.00822249 </v>
  <v>       5.89402471       1.00332924 </v>
  <v>       7.01529260       1.00118339 </v>
  <v>       7.01529260       1.00119651 </v>
  <v>       5.89402471       1.00332682 </v>
  <v>       5.10437513       1.00819523 </v>
  <v>       4.81245102       1.01198520 </v>
  <v>       3.40291675       1.07370349 </v>
  <v>       4.28190968       1.02455719 </v>
  <v>       5.55693979       1.00474107 </v>
  <v>       7.01529260       1.00118339 </v>
  <v>       6.51608949       1.00183580 </v>
  <v>       5.10437513       1.00819523 </v>
  <v>       3.92934981       1.03908556 </v>
  <v>       3.25804475       1.08672570 </v>
  <v>       1.70145838       1.47282988 </v>
  <v>       2.77846989       1.14556992 </v>
  <v>       4.28190968       1.02455719 </v>
  <v>       5.89402471       1.00332924 </v>
  <v>       6.44161745       1.00197925 </v>
  <v>       4.81245102       1.01198520 </v>
  <v>       3.25804475       1.08672570 </v>
  <v>       1.96467490       1.34998621 </v>
  <v>       1.70145838       1.47282988 </v>
  <v>       1.96467490       1.34998621 </v>
  <v>       3.25804475       1.08672570 </v>
  <v>       4.81245102       1.01198520 </v>
  <v>       6.44161745       1.00197925 </v>
  <v>       5.89402471       1.00332924 </v>
  <v>       4.28190968       1.02455719 </v>
  <v>       2.77846989       1.14556992 </v>
  <v>       1.96467490       1.34998621 </v>
  <v>       1.70145838       1.47282987 </v>
  <v>       2.77846989       1.14556992 </v>
  <v>       4.28190968       1.02455719 </v>
  <v>       5.89402471       1.00332924 </v>
  <v>       6.44161745       1.00197925 </v>
  <v>       4.81245102       1.01198520 </v>
  <v>       3.25804475       1.08672570 </v>
  <v>       3.25804475       1.08672570 </v>
  <v>       2.77846989       1.14556992 </v>
  <v>       3.25804475       1.08672570 </v>
  <v>       4.39314664       1.02111163 </v>
  <v>       5.81158674       1.00360188 </v>
  <v>       5.81158674       1.00360188 </v>
  <v>       4.39314664       1.02111163 </v>
  <v>       4.81245102       1.01198520 </v>
  <v>       4.28190968       1.02455719 </v>
  <v>       4.39314664       1.02111163 </v>
  <v>       5.10437513       1.00819523 </v>
  <v>       6.21284756       1.00242069 </v>
  <v>       7.08373610       1.00111655 </v>
  <v>       5.81158674       1.00360188 </v>
  <v>       6.44161745       1.00197925 </v>
  <v>       5.89402471       1.00332924 </v>
  <v>       5.81158674       1.00360188 </v>
  <v>       6.21284756       1.00242069 </v>
  <v>       7.01529260       1.00119651 </v>
  <v>       5.89402471       1.00332924 </v>
  <v>       6.44161745       1.00197925 </v>
  <v>       7.01529260       1.00119651 </v>
  <v>       6.21284756       1.00242069 </v>
  <v>       5.81158674       1.00360188 </v>
  <v>       4.28190968       1.02455719 </v>
  <v>       4.81245102       1.01198520 </v>
  <v>       5.81158674       1.00360188 </v>
  <v>       7.08373610       1.00111655 </v>
  <v>       6.21284756       1.00242069 </v>
  <v>       5.10437513       1.00819523 </v>
  <v>       4.39314664       1.02111163 </v>
  <v>       2.77846989       1.14556992 </v>
  <v>       3.25804475       1.08672570 </v>
  <v>       4.39314664       1.02111163 </v>
  <v>       5.81158674       1.00360188 </v>
  <v>       5.81158674       1.00360188 </v>
  <v>       4.39314664       1.02111163 </v>
  <v>       3.25804475       1.08672570 </v>
  <v>       3.40291675       1.07370349 </v>
  <v>       3.25804475       1.08672570 </v>
  <v>       3.92934981       1.03908556 </v>
  <v>       5.10437513       1.00819523 </v>
  <v>       6.51608949       1.00183580 </v>
  <v>       7.01529260       1.00118339 </v>
  <v>       5.55693979       1.00474107 </v>
  <v>       4.28190968       1.02455719 </v>
  <v>       3.25804475       1.08672570 </v>
  <v>       2.77846989       1.14556992 </v>
  <v>       3.25804475       1.08672570 </v>
  <v>       4.39314664       1.02111163 </v>
  <v>       5.81158674       1.00360188 </v>
  <v>       5.81158674       1.00360188 </v>
  <v>       4.39314664       1.02111163 </v>
  <v>       3.92934981       1.03908556 </v>
  <v>       3.25804475       1.08672570 </v>
  <v>       3.40291675       1.07370350 </v>
  <v>       4.28190968       1.02455719 </v>
  <v>       5.55693979       1.00474107 </v>
  <v>       7.01529260       1.00118339 </v>
  <v>       6.51608949       1.00183580 </v>
  <v>       5.10437513       1.00819523 </v>
  <v>       5.10437513       1.00819523 </v>
  <v>       4.39314664       1.02111163 </v>
  <v>       4.28190968       1.02455719 </v>
  <v>       4.81245102       1.01198520 </v>
  <v>       5.81158674       1.00360188 </v>
  <v>       7.08373610       1.00111655 </v>
  <v>       6.21284756       1.00242069 </v>
  <v>       6.51608949       1.00183580 </v>
  <v>       5.81158674       1.00360188 </v>
  <v>       5.55693979       1.00474107 </v>
  <v>       5.81158674       1.00360188 </v>
  <v>       6.51608949       1.00183580 </v>
  <v>       7.01529260       1.00118339 </v>
  <v>       7.08373610       1.00111655 </v>
  <v>       7.01529260       1.00118339 </v>
  <v>       7.08373610       1.00111655 </v>
  <v>       5.55693979       1.00474107 </v>
  <v>       5.81158674       1.00360188 </v>
  <v>       6.51608949       1.00183580 </v>
  <v>       6.51608949       1.00183580 </v>
  <v>       5.81158674       1.00360188 </v>
  <v>       4.28190968       1.02455719 </v>
  <v>       4.39314664       1.02111163 </v>
  <v>       5.10437513       1.00819523 </v>
  <v>       6.21284756       1.00242069 </v>
  <v>       7.08373610       1.00111655 </v>
  <v>       5.81158674       1.00360188 </v>
  <v>       4.81245102       1.01198520 </v>
  <v>       5.10437513       1.00822249 </v>
  <v>       4.81245102       1.01198520 </v>
  <v>       5.10437513       1.00819523 </v>
  <v>       5.89402471       1.00332682 </v>
  <v>       7.01529260       1.00119651 </v>
  <v>       7.01529260       1.00118339 </v>
  <v>       5.89402471       1.00332924 </v>
  <v>       4.81245102       1.01198520 </v>
  <v>       4.28190968       1.02455719 </v>
  <v>       4.39314664       1.02111163 </v>
  <v>       5.10437513       1.00819523 </v>
  <v>       6.21284756       1.00242069 </v>
  <v>       7.08373610       1.00111655 </v>
  <v>       5.81158674       1.00360188 </v>
  <v>       5.10437513       1.00819523 </v>
  <v>       4.39314664       1.02111163 </v>
  <v>       4.28190968       1.02455719 </v>
  <v>       4.81245102       1.01198520 </v>
  <v>       5.81158674       1.00360188 </v>
  <v>       7.08373610       1.00111655 </v>
  <v>       6.21284756       1.00242069 </v>
  <v>       5.89402471       1.00332682 </v>
  <v>       5.10437513       1.00819523 </v>
  <v>       4.81245102       1.01198520 </v>
  <v>       5.10437513       1.00822249 </v>
  <v>       5.89402471       1.00332924 </v>
  <v>       7.01529260       1.00118339 </v>
  <v>       7.01529260       1.00119651 </v>
  <v>       7.01529260       1.00119651 </v>
  <v>       6.21284756       1.00242069 </v>
  <v>       5.81158674       1.00360188 </v>
  <v>       5.89402471       1.00332924 </v>
  <v>       6.44161745       1.00197925 </v>
  <v>       7.08373610       1.00111655 </v>
  <v>       7.01529260       1.00118339 </v>
  <v>       7.01529260       1.00118339 </v>
  <v>       7.08373610       1.00111655 </v>
  <v>       5.89402471       1.00332924 </v>
  <v>       5.81158674       1.00360188 </v>
  <v>       6.21284756       1.00242069 </v>
  <v>       7.01529260       1.00119651 </v>
  <v>       6.44161745       1.00197925 </v>
  <v>       6.80583351       1.00144997 </v>
  <v>       6.44161745       1.00197925 </v>
  <v>       6.51608949       1.00183580 </v>
  <v>       7.01529260       1.00119651 </v>
  <v>       6.44161745       1.00197925 </v>
  <v>       5.89402471       1.00332924 </v>
  <v>       5.81158674       1.00360188 </v>
  <v>       6.21284756       1.00242069 </v>
  <v>       7.01529260       1.00119651 </v>
  <v>       6.51608949       1.00183580 </v>
  <v>       5.81158674       1.00360188 </v>
  <v>       5.55693979       1.00474107 </v>
  <v>       5.81158674       1.00360188 </v>
  <v>       6.51608949       1.00183580 </v>
  <v>       7.01529260       1.00119651 </v>
  <v>       6.21284756       1.00242069 </v>
  <v>       5.81158674       1.00360188 </v>
  <v>       5.89402471       1.00332924 </v>
  <v>       6.44161745       1.00197925 </v>
  <v>       7.01529260       1.00119651 </v>
  <v>       6.51608949       1.00183580 </v>
  <v>       6.44161745       1.00197925 </v>
  <v>       6.80583351       1.00144997 </v>
  <v>       7.01529260       1.00118339 </v>
  <v>       7.08373610       1.00111655 </v>
  <v>       7.08373610       1.00111655 </v>
  <v>       7.01529260       1.00118339 </v>
  <v>       7.01529260       1.00118339 </v>
  <v>       7.08373610       1.00111655 </v>
  <v>       7.08373610       1.00111655 </v>
  <v>       7.01529260       1.00118339 </v>
  <v>       6.80583351       1.00144997 </v>
  <v>       7.01529260       1.00119651 </v>
  <v>       6.51608949       1.00183580 </v>
  <v>       6.44161745       1.00197925 </v>
  <v>       6.80583351       1.00144997 </v>
  <v>       6.44161745       1.00197925 </v>
  <v>       6.51608949       1.00183580 </v>
  <v>       7.01529260       1.00119651 </v>
  <v>       7.01529260       1.00119651 </v>
  <v>       6.44161745       1.00197925 </v>
  <v>       5.89402471       1.00332924 </v>
  <v>       5.81158674       1.00360188 </v>
  <v>       6.21284756       1.00242069 </v>
  <v>       6.51608949       1.00183580 </v>
  <v>       6.51608949       1.00183580 </v>
  <v>       5.81158674       1.00360188 </v>
  <v>       5.55693979       1.00474107 </v>
  <v>       5.81158674       1.00360188 </v>
  <v>       6.44161745       1.00197925 </v>
  <v>       7.01529260       1.00119651 </v>
  <v>       6.21284756       1.00242069 </v>
  <v>       5.81158674       1.00360188 </v>
  <v>       5.89402471       1.00332924 </v>
  <v>       5.10437513       1.00822249 </v>
  <v>       5.89402471       1.00332924 </v>
  <v>       7.01529260       1.00118339 </v>
  <v>       7.01529260       1.00119651 </v>
  <v>       5.89402471       1.00332682 </v>
  <v>       5.10437513       1.00819523 </v>
  <v>       4.81245102       1.01198520 </v>
  <v>       5.89402471       1.00332924 </v>
  <v>       6.44161745       1.00197925 </v>
  <v>       7.01529260       1.00119651 </v>
  <v>       6.21284756       1.00242069 </v>
  <v>       5.81158674       1.00360188 </v>
  <v>       7.01529260       1.00118339 </v>
  <v>       7.08373610       1.00111655 </v>
  <v>       7.01529260       1.00118339 </v>
  <v>       7.08373610       1.00111655 </v>
  <v>       7.01529260       1.00119651 </v>
  <v>       6.44161745       1.00197925 </v>
  <v>       5.89402471       1.00332924 </v>
  <v>       5.81158674       1.00360188 </v>
  <v>       6.21284756       1.00242069 </v>
  <v>       5.89402471       1.00332682 </v>
  <v>       7.01529260       1.00119651 </v>
  <v>       7.01529260       1.00118339 </v>
  <v>       5.89402471       1.00332924 </v>
  <v>       5.10437513       1.00822249 </v>
  <v>       4.81245102       1.01198520 </v>
  <v>       5.10437513       1.00819523 </v>
  <v>       5.10437513       1.00819523 </v>
  <v>       6.21284756       1.00242069 </v>
  <v>       7.08373610       1.00111655 </v>
  <v>       5.81158674       1.00360188 </v>
  <v>       4.81245102       1.01198520 </v>
  <v>       4.28190968       1.02455719 </v>
  <v>       4.39314664       1.02111163 </v>
  <v>       4.81245102       1.01198520 </v>
  <v>       5.81158674       1.00360188 </v>
  <v>       7.08373610       1.00111655 </v>
  <v>       6.21284756       1.00242069 </v>
  <v>       5.10437513       1.00819523 </v>
  <v>       4.39314664       1.02111163 </v>
  <v>       4.28190968       1.02455719 </v>
  <v>       3.40291675       1.07370349 </v>
  <v>       4.28190968       1.02455719 </v>
  <v>       5.55693979       1.00474107 </v>
  <v>       7.01529260       1.00118339 </v>
  <v>       6.51608949       1.00183580 </v>
  <v>       5.10437513       1.00819523 </v>
  <v>       3.92934981       1.03908556 </v>
  <v>       3.25804475       1.08672570 </v>
  <v>       4.28190968       1.02455719 </v>
  <v>       4.81245102       1.01198520 </v>
  <v>       5.81158674       1.00360188 </v>
  <v>       7.08373610       1.00111655 </v>
  <v>       6.21284756       1.00242069 </v>
  <v>       5.10437513       1.00819523 </v>
  <v>       4.39314664       1.02111163 </v>
  <v>       5.55693979       1.00474107 </v>
  <v>       5.81158674       1.00360188 </v>
  <v>       6.51608949       1.00183580 </v>
  <v>       6.51608949       1.00183580 </v>
  <v>       5.81158674       1.00360188 </v>
  <v>       7.01529260       1.00118339 </v>
  <v>       7.08373610       1.00111655 </v>
  <v>       7.08373610       1.00111655 </v>
  <v>       7.01529260       1.00118339 </v>
  <v>       6.51608949       1.00183580 </v>
  <v>       6.51608949       1.00183580 </v>
  <v>       5.81158674       1.00360188 </v>
  <v>       5.55693979       1.00474107 </v>
  <v>       5.81158674       1.00360188 </v>
  <v>       5.10437513       1.00819523 </v>
  <v>       6.21284756       1.00242069 </v>
  <v>       7.08373610       1.00111655 </v>
  <v>       5.81158674       1.00360188 </v>
  <v>       4.81245102       1.01198520 </v>
  <v>       4.28190968       1.02455719 </v>
  <v>       4.39314664       1.02111163 </v>
  <v>       3.92934981       1.03908556 </v>
  <v>       5.10437513       1.00819523 </v>
  <v>       6.51608949       1.00183580 </v>
  <v>       7.01529260       1.00118339 </v>
  <v>       5.55693979       1.00474107 </v>
  <v>       4.28190968       1.02455719 </v>
  <v>       3.40291675       1.07370350 </v>
  <v>       3.25804475       1.08672570 </v>
  <v>       3.25804475       1.08672570 </v>
  <v>       4.39314664       1.02111163 </v>
  <v>       5.81158674       1.00360188 </v>
  <v>       5.81158674       1.00360188 </v>
  <v>       4.39314664       1.02111163 </v>
  <v>       3.25804475       1.08672570 </v>
  <v>       2.77846989       1.14556992 </v>
  <v>       1.70145838       1.47282988 </v>
  <v>       2.77846989       1.14556992 </v>
  <v>       4.28190968       1.02455719 </v>
  <v>       5.89402471       1.00332924 </v>
  <v>       6.44161745       1.00197925 </v>
  <v>       4.81245102       1.01198520 </v>
  <v>       3.25804475       1.08672570 </v>
  <v>       1.96467490       1.34998621 </v>
  <v>       2.77846989       1.14556992 </v>
  <v>       3.25804475       1.08672570 </v>
  <v>       4.39314664       1.02111163 </v>
  <v>       5.81158674       1.00360188 </v>
  <v>       5.81158674       1.00360188 </v>
  <v>       4.39314664       1.02111163 </v>
  <v>       3.25804475       1.08672570 </v>
  <v>       4.28190968       1.02455719 </v>
  <v>       4.39314664       1.02111163 </v>
  <v>       5.10437513       1.00819523 </v>
  <v>       6.21284756       1.00242069 </v>
  <v>       7.08373610       1.00111655 </v>
  <v>       5.81158674       1.00360188 </v>
  <v>       4.81245102       1.01198520 </v>
  <v>       5.89402471       1.00332924 </v>
  <v>       5.81158674       1.00360188 </v>
  <v>       6.21284756       1.00242069 </v>
  <v>       7.01529260       1.00119651 </v>
  <v>       6.44161745       1.00197925 </v>
  <v>       6.44161745       1.00197925 </v>
  <v>       7.01529260       1.00119651 </v>
  <v>       6.21284756       1.00242069 </v>
  <v>       5.81158674       1.00360188 </v>
  <v>       5.89402471       1.00332924 </v>
  <v>       4.81245102       1.01198520 </v>
  <v>       5.81158674       1.00360188 </v>
  <v>       7.08373610       1.00111655 </v>
  <v>       6.21284756       1.00242069 </v>
  <v>       5.10437513       1.00819523 </v>
  <v>       4.39314664       1.02111163 </v>
  <v>       4.28190968       1.02455719 </v>
  <v>       3.25804475       1.08672570 </v>
  <v>       4.39314664       1.02111163 </v>
  <v>       5.81158674       1.00360188 </v>
  <v>       5.81158674       1.00360188 </v>
  <v>       4.39314664       1.02111163 </v>
  <v>       3.25804475       1.08672570 </v>
  <v>       2.77846989       1.14556992 </v>
  <v>       1.96467490       1.34998621 </v>
  <v>       3.25804475       1.08672570 </v>
  <v>       4.81245102       1.01198520 </v>
  <v>       6.44161745       1.00197925 </v>
  <v>       5.89402471       1.00332924 </v>
  <v>       4.28190968       1.02455719 </v>
  <v>       2.77846989       1.14556992 </v>
  <v>       1.70145838       1.47282987 </v>
 </varray>
 <dielectricfunction comment="1 + v P,  with REDUCIBLE POLARIZABILTY P=P_0 (1 -(v+f) P_0)^-1">
  <imag>
   <array>
    <dimension dim="1">gridpoints</dimension>
    <field>energy</field>
    <field>xx</field>
    <field>yy</field>
    <field>zz</field>
    <field>xy</field>
    <field>yz</field>
    <field>zx</field>
    <set>
     <r>     0.0000     0.0000     0.0000    -0.0000     0.0000    -0.0000     0.0000 </r>
     <r>     1.3728     0.0784     0.0784     0.0784    -0.0000    -0.0000    -0.0000 </r>
     <r>     2.7408     0.2301     0.2301     0.2301    -0.0000    -0.0000    -0.0000 </r>
     <r>     4.0997     0.5531     0.5531     0.5531    -0.0000    -0.0000    -0.0000 </r>
     <r>     5.4453     1.1064     1.1064     1.1064    -0.0000    -0.0000    -0.0000 </r>
     <r>     6.7745     1.6041     1.6041     1.6041    -0.0000    -0.0000    -0.0000 </r>
     <r>     8.0846     1.6924     1.6924     1.6924     0.0000     0.0000     0.0000 </r>
     <r>     9.3740     1.6713     1.6713     1.6713     0.0000     0.0000     0.0000 </r>
     <r>    10.6418     1.5381     1.5381     1.5381     0.0000    -0.0000     0.0000 </r>
     <r>    11.8880     1.2926     1.2926     1.2926     0.0000    -0.0000     0.0000 </r>
     <r>    13.1131     1.0188     1.0188     1.0188    -0.0000     0.0000    -0.0000 </r>
     <r>    14.3186     0.8165     0.8165     0.8165    -0.0000    -0.0000    -0.0000 </r>
     <r>    15.5060     0.7430     0.7430     0.7430    -0.0000    -0.0000    -0.0000 </r>
     <r>    16.6778     0.6122     0.6122     0.6122     0.0000    -0.0000     0.0000 </r>
     <r>    17.8365     0.5294     0.5294     0.5294     0.0000     0.0000     0.0000 </r>
     <r>    18.9851     0.5486     0.5486     0.5486     0.0000     0.0000     0.0000 </r>
     <r>    20.1269     0.5089     0.5089     0.5089     0.0000     0.0000     0.0000 </r>
     <r>    21.2653     0.3882     0.3882     0.3882     0.0000     0.0000     0.0000 </r>
     <r>    22.4041     0.3148     0.3148     0.3148     0.0000     0.0000     0.0000 </r>
     <r>    23.5473     0.2670     0.2670     0.2670     0.0000     0.0000     0.0000 </r>
     <r>    24.6992     0.1934     0.1934     0.1934     0.0000     0.0000     0.0000 </r>
     <r>    25.8645     0.1451     0.1451     0.1451     0.0000     0.0000     0.0000 </r>
     <r>    27.0481     0.1323     0.1323     0.1323     0.0000     0.0000     0.0000 </r>
     <r>    28.2554     0.1341     0.1341     0.1341     0.0000     0.0000     0.0000 </r>
     <r>    29.4926     0.1331     0.1331     0.1331     0.0000     0.0000     0.0000 </r>
     <r>    30.7660     0.1147     0.1147     0.1147     0.0000     0.0000     0.0000 </r>
     <r>    32.0832     0.0972     0.0972     0.0972     0.0000     0.0000     0.0000 </r>
     <r>    33.4526     0.0783     0.0783     0.0783     0.0000     0.0000     0.0000 </r>
     <r>    34.8838     0.0569     0.0569     0.0569     0.0000     0.0000     0.0000 </r>
     <r>    36.3874     0.0449     0.0449     0.0449     0.0000     0.0000     0.0000 </r>
     <r>    37.9763     0.0354     0.0354     0.0354     0.0000     0.0000     0.0000 </r>
     <r>    39.6656     0.0234     0.0234     0.0234     0.0000     0.0000     0.0000 </r>
     <r>    41.4727     0.0170     0.0170     0.0170     0.0000     0.0000     0.0000 </r>
     <r>    43.4189     0.0156     0.0156     0.0156     0.0000     0.0000     0.0000 </r>
     <r>    45.5297     0.0189     0.0189     0.0189     0.0000     0.0000     0.0000 </r>
     <r>    47.8361     0.0224     0.0224     0.0224    -0.0000    -0.0000    -0.0000 </r>
     <r>    50.3768     0.0294     0.0294     0.0294     0.0000    -0.0000     0.0000 </r>
     <r>    53.1998     0.0347     0.0347     0.0347    -0.0000    -0.0000    -0.0000 </r>
     <r>    56.3659     0.0512     0.0512     0.0512    -0.0000    -0.0000    -0.0000 </r>
     <r>    59.9540     0.0669     0.0669     0.0669    -0.0000     0.0000    -0.0000 </r>
     <r>    64.0664     0.0787     0.0787     0.0787    -0.0000    -0.0000    -0.0000 </r>
     <r>    68.8397     0.0890     0.0890     0.0890    -0.0000    -0.0000    -0.0000 </r>
     <r>    74.4598     0.1104     0.1104     0.1104    -0.0000    -0.0000    -0.0000 </r>
     <r>    81.1864     0.2926     0.2926     0.2926    -0.0000    -0.0000    -0.0000 </r>
     <r>    89.3930     0.0384     0.0384     0.0384    -0.0000     0.0000     0.0000 </r>
     <r>    99.6366     0.0039     0.0039     0.0039    -0.0000     0.0000     0.0000 </r>
     <r>   112.7851     0.0014     0.0014     0.0014    -0.0000    -0.0000     0.0000 </r>
     <r>   130.2707     0.0006     0.0006     0.0006    -0.0000    -0.0000    -0.0000 </r>
     <r>   154.6345     0.0003     0.0003     0.0003    -0.0000    -0.0000    -0.0000 </r>
     <r>   190.8586     0.0001     0.0001     0.0001    -0.0000    -0.0000    -0.0000 </r>
    </set>
   </array>
  </imag>
  <real>
   <array>
    <dimension dim="1">gridpoints</dimension>
    <field>energy</field>
    <field>xx</field>
    <field>yy</field>
    <field>zz</field>
    <field>xy</field>
    <field>yz</field>
    <field>zx</field>
    <set>
     <r>     0.0000     2.4892     2.4892     2.4892    -0.0000    -0.0000    -0.0000 </r>
     <r>     1.3728     2.5359     2.5359     2.5359    -0.0000    -0.0000    -0.0000 </r>
     <r>     2.7408     2.6648     2.6648     2.6648    -0.0000    -0.0000    -0.0000 </r>
     <r>     4.0997     2.8234     2.8234     2.8234    -0.0000    -0.0000    -0.0000 </r>
     <r>     5.4453     2.7865     2.7865     2.7865     0.0000     0.0000     0.0000 </r>
     <r>     6.7745     2.3511     2.3511     2.3511     0.0000     0.0000     0.0000 </r>
     <r>     8.0846     1.8046     1.8046     1.8046     0.0000     0.0000     0.0000 </r>
     <r>     9.3740     1.4151     1.4151     1.4151     0.0000    -0.0000     0.0000 </r>
     <r>    10.6418     1.0291     1.0291     1.0291     0.0000    -0.0000     0.0000 </r>
     <r>    11.8880     0.7673     0.7673     0.7673     0.0000     0.0000     0.0000 </r>
     <r>    13.1131     0.6521     0.6521     0.6521    -0.0000    -0.0000    -0.0000 </r>
     <r>    14.3186     0.6721     0.6721     0.6721     0.0000    -0.0000     0.0000 </r>
     <r>    15.5060     0.6917     0.6917     0.6917     0.0000     0.0000     0.0000 </r>
     <r>    16.6778     0.6334     0.6334     0.6334     0.0000     0.0000     0.0000 </r>
     <r>    17.8365     0.7251     0.7251     0.7251     0.0000     0.0000     0.0000 </r>
     <r>    18.9851     0.7236     0.7236     0.7236     0.0000     0.0000     0.0000 </r>
     <r>    20.1269     0.6405     0.6405     0.6405     0.0000     0.0000     0.0000 </r>
     <r>    21.2653     0.6141     0.6141     0.6141     0.0000     0.0000    -0.0000 </r>
     <r>    22.4041     0.6511     0.6511     0.6511    -0.0000    -0.0000    -0.0000 </r>
     <r>    23.5473     0.6599     0.6599     0.6599    -0.0000    -0.0000    -0.0000 </r>
     <r>    24.6992     0.6783     0.6783     0.6783    -0.0000    -0.0000    -0.0000 </r>
     <r>    25.8645     0.7346     0.7346     0.7346    -0.0000    -0.0000    -0.0000 </r>
     <r>    27.0481     0.7825     0.7825     0.7825     0.0000     0.0000     0.0000 </r>
     <r>    28.2554     0.8101     0.8101     0.8101     0.0000     0.0000     0.0000 </r>
     <r>    29.4926     0.8164     0.8164     0.8164     0.0000    -0.0000     0.0000 </r>
     <r>    30.7660     0.8186     0.8186     0.8186     0.0000    -0.0000     0.0000 </r>
     <r>    32.0832     0.8315     0.8315     0.8315    -0.0000    -0.0000    -0.0000 </r>
     <r>    33.4526     0.8401     0.8401     0.8401    -0.0000    -0.0000    -0.0000 </r>
     <r>    34.8838     0.8581     0.8581     0.8581    -0.0000    -0.0000    -0.0000 </r>
     <r>    36.3874     0.8791     0.8791     0.8791    -0.0000    -0.0000    -0.0000 </r>
     <r>    37.9763     0.8956     0.8956     0.8956    -0.0000    -0.0000    -0.0000 </r>
     <r>    39.6656     0.9140     0.9140     0.9140    -0.0000    -0.0000    -0.0000 </r>
     <r>    41.4727     0.9365     0.9365     0.9365    -0.0000    -0.0000    -0.0000 </r>
     <r>    43.4189     0.9579     0.9579     0.9579    -0.0000    -0.0000    -0.0000 </r>
     <r>    45.5297     0.9764     0.9764     0.9764    -0.0000    -0.0000    -0.0000 </r>
     <r>    47.8361     0.9925     0.9925     0.9925    -0.0000    -0.0000    -0.0000 </r>
     <r>    50.3768     1.0066     1.0066     1.0066    -0.0000    -0.0000    -0.0000 </r>
     <r>    53.1998     1.0206     1.0206     1.0206    -0.0000    -0.0000    -0.0000 </r>
     <r>    56.3659     1.0352     1.0352     1.0352    -0.0000    -0.0000    -0.0000 </r>
     <r>    59.9540     1.0372     1.0372     1.0372    -0.0000    -0.0000    -0.0000 </r>
     <r>    64.0664     1.0367     1.0367     1.0367    -0.0000    -0.0000    -0.0000 </r>
     <r>    68.8397     1.0387     1.0387     1.0387    -0.0000    -0.0000    -0.0000 </r>
     <r>    74.4598     1.0532     1.0532     1.0532     0.0000     0.0000     0.0000 </r>
     <r>    81.1864     1.0858     1.0858     1.0858     0.0000     0.0000     0.0000 </r>
     <r>    89.3930     0.7892     0.7892     0.7892     0.0000     0.0000     0.0000 </r>
     <r>    99.6366     0.9131     0.9131     0.9131     0.0000     0.0000     0.0000 </r>
     <r>   112.7851     0.9483     0.9483     0.9483     0.0000     0.0000     0.0000 </r>
     <r>   130.2707     0.9670     0.9670     0.9670     0.0000     0.0000     0.0000 </r>
     <r>   154.6345     0.9789     0.9789     0.9789     0.0000     0.0000     0.0000 </r>
     <r>   190.8586     0.9872     0.9872     0.9872     0.0000     0.0000     0.0000 </r>
    </set>
   </array>
  </real>
 </dielectricfunction>
 <dielectricfunction comment="INVERSE MACROSCOPIC DIELECTRIC TENSOR (including local field effects in RPA (Hartree))">
  <imag>
   <array>
    <dimension dim="1">gridpoints</dimension>
    <field>energy</field>
    <field>xx</field>
    <field>yy</field>
    <field>zz</field>
    <field>xy</field>
    <field>yz</field>
    <field>zx</field>
    <set>
     <r>     0.0000     0.0000     0.0000    -0.0000     0.0000    -0.0000     0.0000 </r>
     <r>     1.3728     0.0784     0.0784     0.0784    -0.0000    -0.0000    -0.0000 </r>
     <r>     2.7408     0.2301     0.2301     0.2301    -0.0000    -0.0000    -0.0000 </r>
     <r>     4.0997     0.5531     0.5531     0.5531    -0.0000    -0.0000    -0.0000 </r>
     <r>     5.4453     1.1064     1.1064     1.1064    -0.0000    -0.0000    -0.0000 </r>
     <r>     6.7745     1.6041     1.6041     1.6041    -0.0000    -0.0000    -0.0000 </r>
     <r>     8.0846     1.6924     1.6924     1.6924     0.0000     0.0000     0.0000 </r>
     <r>     9.3740     1.6713     1.6713     1.6713     0.0000     0.0000     0.0000 </r>
     <r>    10.6418     1.5381     1.5381     1.5381     0.0000    -0.0000     0.0000 </r>
     <r>    11.8880     1.2926     1.2926     1.2926     0.0000    -0.0000     0.0000 </r>
     <r>    13.1131     1.0188     1.0188     1.0188    -0.0000     0.0000    -0.0000 </r>
     <r>    14.3186     0.8165     0.8165     0.8165    -0.0000    -0.0000    -0.0000 </r>
     <r>    15.5060     0.7430     0.7430     0.7430    -0.0000    -0.0000    -0.0000 </r>
     <r>    16.6778     0.6122     0.6122     0.6122     0.0000    -0.0000     0.0000 </r>
     <r>    17.8365     0.5294     0.5294     0.5294     0.0000     0.0000     0.0000 </r>
     <r>    18.9851     0.5486     0.5486     0.5486     0.0000     0.0000     0.0000 </r>
     <r>    20.1269     0.5089     0.5089     0.5089     0.0000     0.0000     0.0000 </r>
     <r>    21.2653     0.3882     0.3882     0.3882     0.0000     0.0000     0.0000 </r>
     <r>    22.4041     0.3148     0.3148     0.3148     0.0000     0.0000     0.0000 </r>
     <r>    23.5473     0.2670     0.2670     0.2670     0.0000     0.0000     0.0000 </r>
     <r>    24.6992     0.1934     0.1934     0.1934     0.0000     0.0000     0.0000 </r>
     <r>    25.8645     0.1451     0.1451     0.1451     0.0000     0.0000     0.0000 </r>
     <r>    27.0481     0.1323     0.1323     0.1323     0.0000     0.0000     0.0000 </r>
     <r>    28.2554     0.1341     0.1341     0.1341     0.0000     0.0000     0.0000 </r>
     <r>    29.4926     0.1331     0.1331     0.1331     0.0000     0.0000     0.0000 </r>
     <r>    30.7660     0.1147     0.1147     0.1147     0.0000     0.0000     0.0000 </r>
     <r>    32.0832     0.0972     0.0972     0.0972     0.0000     0.0000     0.0000 </r>
     <r>    33.4526     0.0783     0.0783     0.0783     0.0000     0.0000     0.0000 </r>
     <r>    34.8838     0.0569     0.0569     0.0569     0.0000     0.0000     0.0000 </r>
     <r>    36.3874     0.0449     0.0449     0.0449     0.0000     0.0000     0.0000 </r>
     <r>    37.9763     0.0354     0.0354     0.0354     0.0000     0.0000     0.0000 </r>
     <r>    39.6656     0.0234     0.0234     0.0234     0.0000     0.0000     0.0000 </r>
     <r>    41.4727     0.0170     0.0170     0.0170     0.0000     0.0000     0.0000 </r>
     <r>    43.4189     0.0156     0.0156     0.0156     0.0000     0.0000     0.0000 </r>
     <r>    45.5297     0.0189     0.0189     0.0189     0.0000     0.0000     0.0000 </r>
     <r>    47.8361     0.0224     0.0224     0.0224    -0.0000    -0.0000    -0.0000 </r>
     <r>    50.3768     0.0294     0.0294     0.0294     0.0000    -0.0000     0.0000 </r>
     <r>    53.1998     0.0347     0.0347     0.0347    -0.0000    -0.0000    -0.0000 </r>
     <r>    56.3659     0.0512     0.0512     0.0512    -0.0000    -0.0000    -0.0000 </r>
     <r>    59.9540     0.0669     0.0669     0.0669    -0.0000     0.0000    -0.0000 </r>
     <r>    64.0664     0.0787     0.0787     0.0787    -0.0000    -0.0000    -0.0000 </r>
     <r>    68.8397     0.0890     0.0890     0.0890    -0.0000    -0.0000    -0.0000 </r>
     <r>    74.4598     0.1104     0.1104     0.1104    -0.0000    -0.0000    -0.0000 </r>
     <r>    81.1864     0.2926     0.2926     0.2926    -0.0000    -0.0000    -0.0000 </r>
     <r>    89.3930     0.0384     0.0384     0.0384    -0.0000     0.0000     0.0000 </r>
     <r>    99.6366     0.0039     0.0039     0.0039    -0.0000     0.0000     0.0000 </r>
     <r>   112.7851     0.0014     0.0014     0.0014    -0.0000    -0.0000     0.0000 </r>
     <r>   130.2707     0.0006     0.0006     0.0006    -0.0000    -0.0000    -0.0000 </r>
     <r>   154.6345     0.0003     0.0003     0.0003    -0.0000    -0.0000    -0.0000 </r>
     <r>   190.8586     0.0001     0.0001     0.0001    -0.0000    -0.0000    -0.0000 </r>
    </set>
   </array>
  </imag>
  <real>
   <array>
    <dimension dim="1">gridpoints</dimension>
    <field>energy</field>
    <field>xx</field>
    <field>yy</field>
    <field>zz</field>
    <field>xy</field>
    <field>yz</field>
    <field>zx</field>
    <set>
     <r>     0.0000     2.4892     2.4892     2.4892    -0.0000    -0.0000    -0.0000 </r>
     <r>     1.3728     2.5359     2.5359     2.5359    -0.0000    -0.0000    -0.0000 </r>
     <r>     2.7408     2.6648     2.6648     2.6648    -0.0000    -0.0000    -0.0000 </r>
     <r>     4.0997     2.8234     2.8234     2.8234    -0.0000    -0.0000    -0.0000 </r>
     <r>     5.4453     2.7865     2.7865     2.7865     0.0000     0.0000     0.0000 </r>
     <r>     6.7745     2.3511     2.3511     2.3511     0.0000     0.0000     0.0000 </r>
     <r>     8.0846     1.8046     1.8046     1.8046     0.0000     0.0000     0.0000 </r>
     <r>     9.3740     1.4151     1.4151     1.4151     0.0000    -0.0000     0.0000 </r>
     <r>    10.6418     1.0291     1.0291     1.0291     0.0000    -0.0000     0.0000 </r>
     <r>    11.8880     0.7673     0.7673     0.7673     0.0000     0.0000     0.0000 </r>
     <r>    13.1131     0.6521     0.6521     0.6521    -0.0000    -0.0000    -0.0000 </r>
     <r>    14.3186     0.6721     0.6721     0.6721     0.0000    -0.0000     0.0000 </r>
     <r>    15.5060     0.6917     0.6917     0.6917     0.0000     0.0000     0.0000 </r>
     <r>    16.6778     0.6334     0.6334     0.6334     0.0000     0.0000     0.0000 </r>
     <r>    17.8365     0.7251     0.7251     0.7251     0.0000     0.0000     0.0000 </r>
     <r>    18.9851     0.7236     0.7236     0.7236     0.0000     0.0000     0.0000 </r>
     <r>    20.1269     0.6405     0.6405     0.6405     0.0000     0.0000     0.0000 </r>
     <r>    21.2653     0.6141     0.6141     0.6141     0.0000     0.0000    -0.0000 </r>
     <r>    22.4041     0.6511     0.6511     0.6511    -0.0000    -0.0000    -0.0000 </r>
     <r>    23.5473     0.6599     0.6599     0.6599    -0.0000    -0.0000    -0.0000 </r>
     <r>    24.6992     0.6783     0.6783     0.6783    -0.0000    -0.0000    -0.0000 </r>
     <r>    25.8645     0.7346     0.7346     0.7346    -0.0000    -0.0000    -0.0000 </r>
     <r>    27.0481     0.7825     0.7825     0.7825     0.0000     0.0000     0.0000 </r>
     <r>    28.2554     0.8101     0.8101     0.8101     0.0000     0.0000     0.0000 </r>
     <r>    29.4926     0.8164     0.8164     0.8164     0.0000    -0.0000     0.0000 </r>
     <r>    30.7660     0.8186     0.8186     0.8186     0.0000    -0.0000     0.0000 </r>
     <r>    32.0832     0.8315     0.8315     0.8315    -0.0000    -0.0000    -0.0000 </r>
     <r>    33.4526     0.8401     0.8401     0.8401    -0.0000    -0.0000    -0.0000 </r>
     <r>    34.8838     0.8581     0.8581     0.8581    -0.0000    -0.0000    -0.0000 </r>
     <r>    36.3874     0.8791     0.8791     0.8791    -0.0000    -0.0000    -0.0000 </r>
     <r>    37.9763     0.8956     0.8956     0.8956    -0.0000    -0.0000    -0.0000 </r>
     <r>    39.6656     0.9140     0.9140     0.9140    -0.0000    -0.0000    -0.0000 </r>
     <r>    41.4727     0.9365     0.9365     0.9365    -0.0000    -0.0000    -0.0000 </r>
     <r>    43.4189     0.9579     0.9579     0.9579    -0.0000    -0.0000    -0.0000 </r>
     <r>    45.5297     0.9764     0.9764     0.9764    -0.0000    -0.0000    -0.0000 </r>
     <r>    47.8361     0.9925     0.9925     0.9925    -0.0000    -0.0000    -0.0000 </r>
     <r>    50.3768     1.0066     1.0066     1.0066    -0.0000    -0.0000    -0.0000 </r>
     <r>    53.1998     1.0206     1.0206     1.0206    -0.0000    -0.0000    -0.0000 </r>
     <r>    56.3659     1.0352     1.0352     1.0352    -0.0000    -0.0000    -0.0000 </r>
     <r>    59.9540     1.0372     1.0372     1.0372    -0.0000    -0.0000    -0.0000 </r>
     <r>    64.0664     1.0367     1.0367     1.0367    -0.0000    -0.0000    -0.0000 </r>
     <r>    68.8397     1.0387     1.0387     1.0387    -0.0000    -0.0000    -0.0000 </r>
     <r>    74.4598     1.0532     1.0532     1.0532     0.0000     0.0000     0.0000 </r>
     <r>    81.1864     1.0858     1.0858     1.0858     0.0000     0.0000     0.0000 </r>
     <r>    89.3930     0.7892     0.7892     0.7892     0.0000     0.0000     0.0000 </r>
     <r>    99.6366     0.9131     0.9131     0.9131     0.0000     0.0000     0.0000 </r>
     <r>   112.7851     0.9483     0.9483     0.9483     0.0000     0.0000     0.0000 </r>
     <r>   130.2707     0.9670     0.9670     0.9670     0.0000     0.0000     0.0000 </r>
     <r>   154.6345     0.9789     0.9789     0.9789     0.0000     0.0000     0.0000 </r>
     <r>   190.8586     0.9872     0.9872     0.9872     0.0000     0.0000     0.0000 </r>
    </set>
   </array>
  </real>
 </dielectricfunction>
 <varray name="epsilon_diag" >
  <v>       0.00000000       0.40173589 </v>
  <v>       1.70145838       0.73223791 </v>
  <v>       3.40291675       0.94330264 </v>
  <v>       5.10437513       0.99278212 </v>
  <v>       6.80583351       0.99866858 </v>
  <v>       6.80583351       0.99866858 </v>
  <v>       5.10437513       0.99278212 </v>
  <v>       3.40291675       0.94330264 </v>
  <v>       1.70145838       0.73223791 </v>
  <v>       1.70145838       0.73223791 </v>
  <v>       1.96467490       0.78562852 </v>
  <v>       3.25804475       0.93388733 </v>
  <v>       4.81245102       0.98969512 </v>
  <v>       6.44161745       0.99817940 </v>
  <v>       5.89402471       0.99695849 </v>
  <v>       4.28190968       0.97970411 </v>
  <v>       2.77846989       0.89485015 </v>
  <v>       3.40291675       0.94330264 </v>
  <v>       3.25804475       0.93388733 </v>
  <v>       3.92934981       0.96855900 </v>
  <v>       5.10437513       0.99280598 </v>
  <v>       6.51608949       0.99831145 </v>
  <v>       7.01529260       0.99891510 </v>
  <v>       5.55693979       0.99572762 </v>
  <v>       4.28190968       0.97970411 </v>
  <v>       5.10437513       0.99278212 </v>
  <v>       4.81245102       0.98969512 </v>
  <v>       5.10437513       0.99280598 </v>
  <v>       5.89402471       0.99696134 </v>
  <v>       7.01529260       0.99890343 </v>
  <v>       7.01529260       0.99891510 </v>
  <v>       5.89402471       0.99695849 </v>
  <v>       6.80583351       0.99866858 </v>
  <v>       6.44161745       0.99817940 </v>
  <v>       6.51608949       0.99831145 </v>
  <v>       7.01529260       0.99890343 </v>
  <v>       6.80583351       0.99866858 </v>
  <v>       7.01529260       0.99890343 </v>
  <v>       6.51608949       0.99831145 </v>
  <v>       6.44161745       0.99817940 </v>
  <v>       5.10437513       0.99278212 </v>
  <v>       5.89402471       0.99695849 </v>
  <v>       7.01529260       0.99891510 </v>
  <v>       7.01529260       0.99890343 </v>
  <v>       5.89402471       0.99696134 </v>
  <v>       5.10437513       0.99280598 </v>
  <v>       4.81245102       0.98969512 </v>
  <v>       3.40291675       0.94330264 </v>
  <v>       4.28190968       0.97970411 </v>
  <v>       5.55693979       0.99572762 </v>
  <v>       7.01529260       0.99891510 </v>
  <v>       6.51608949       0.99831145 </v>
  <v>       5.10437513       0.99280598 </v>
  <v>       3.92934981       0.96855900 </v>
  <v>       3.25804475       0.93388733 </v>
  <v>       1.70145838       0.73223791 </v>
  <v>       2.77846989       0.89485015 </v>
[...]
  <v>       5.74898254       1.00384357 </v>
  <v>       4.42051853       1.02034812 </v>
  <v>       3.43818108       1.07081453 </v>
  <v>       3.14501437       1.09846793 </v>
  <v>       2.45584363       1.20422954 </v>
  <v>       3.70824256       1.05144333 </v>
  <v>       5.22119517       1.00708773 </v>
  <v>       6.82353401       1.00141563 </v>
  <v>       5.74898254       1.00385931 </v>
  <v>       4.19654743       1.02753387 </v>
  <v>       2.82154952       1.13892759 </v>
  <v>       2.02514054       1.32776460 </v>
 </varray>
 <varray name="epsilon_diag" >
  <v>       0.49116873       0.45268879 </v>
  <v>       2.02514054       0.80026871 </v>
  <v>       3.70824256       0.95936996 </v>
  <v>       5.40285598       0.99488186 </v>
  <v>       7.10074390       0.99896605 </v>
  <v>       6.53457489       0.99831618 </v>
  <v>       4.83745094       0.98999900 </v>
  <v>       3.14501437       0.92628842 </v>
  <v>       1.47350618       0.66736289 </v>
  <v>       1.47350618       0.66736289 </v>
  <v>       2.02514054       0.79395182 </v>
  <v>       3.43818108       0.94515057 </v>
  <v>       5.03298175       0.99215135 </v>
  <v>       6.68061694       0.99852611 </v>
  <v>       7.23536714       0.99908108 </v>
  <v>       5.57860435       0.99579071 </v>
  <v>       3.95992887       0.96980599 </v>
  <v>       2.45584363       0.86054183 </v>
  <v>       3.14501437       0.92628842 </v>
  <v>       3.14501437       0.92585974 </v>
  <v>       3.95992887       0.96966169 </v>
  <v>       5.22119517       0.99373816 </v>
  <v>       6.68061694       0.99853953 </v>
  <v>       6.68061694       0.99855593 </v>
  <v>       5.22119517       0.99377741 </v>
  <v>       3.95992887       0.96980599 </v>
  <v>       4.83745094       0.98999900 </v>
  <v>       4.63367649       0.98706059 </v>
  <v>       5.03298175       0.99215160 </v>
  <v>       5.91445467       0.99702241 </v>
  <v>       7.10074390       0.99897957 </v>
  <v>       6.68061694       0.99855593 </v>
  <v>       5.57860435       0.99579071 </v>
  <v>       6.53457489       0.99831618 </v>
  <v>       6.23223246       0.99780156 </v>
  <v>       6.38519344       0.99810007 </v>
  <v>       6.96351852       0.99885207 </v>
  <v>       7.23536714       0.99908108 </v>
  <v>       7.10074390       0.99896605 </v>
  <v>       7.10074390       0.99897957 </v>
  <v>       6.68061694       0.99853953 </v>
  <v>       6.68061694       0.99852611 </v>
  <v>       5.40285598       0.99488186 </v>
  <v>       6.23223246       0.99780720 </v>
  <v>       6.96351852       0.99885207 </v>
  <v>       5.91445467       0.99702241 </v>
  <v>       5.22119517       0.99373816 </v>
  <v>       5.03298175       0.99215135 </v>
  <v>       3.70824256       0.95936996 </v>
  <v>       4.63367649       0.98708319 </v>
  <v>       5.91445467       0.99705201 </v>
  <v>       6.38519344       0.99810007 </v>
  <v>       5.03298175       0.99215160 </v>
  <v>       3.95992887       0.96966169 </v>
  <v>       3.43818108       0.94515057 </v>
  <v>       2.02514054       0.80026871 </v>
  <v>       3.14501437       0.92576195 </v>
  <v>       4.63367649       0.98708319 </v>
  <v>       6.23223246       0.99780720 </v>
  <v>       6.23223246       0.99780156 </v>
  <v>       4.63367649       0.98706059 </v>
  <v>       3.14501437       0.92585974 </v>
  <v>       2.02514054       0.79395182 </v>
  <v>       1.47350618       0.66736289 </v>
  <v>       2.02514054       0.79395182 </v>
  <v>       3.43818108       0.94515057 </v>
  <v>       5.03298175       0.99215135 </v>
  <v>       6.68061694       0.99852611 </v>
  <v>       7.23536714       0.99908108 </v>
  <v>       5.57860435       0.99579071 </v>
  <v>       3.95992887       0.96980599 </v>
  <v>       2.45584363       0.86054183 </v>
  <v>       1.47350618       0.69688902 </v>
  <v>       1.47350618       0.66736289 </v>
  <v>       2.82154952       0.89925698 </v>
  <v>       4.42051853       0.98299518 </v>
  <v>       6.07542161       0.99744146 </v>
  <v>       6.07542161       0.99744424 </v>
  <v>       4.42051853       0.98301509 </v>
  <v>       2.82154952       0.89969228 </v>
  <v>       2.82154952       0.89969228 </v>
  <v>       2.45584363       0.86054183 </v>
  <v>       3.14501437       0.92585974 </v>
  <v>       4.42051853       0.98299149 </v>
  <v>       5.91445467       0.99703242 </v>
  <v>       6.96351852       0.99885921 </v>
  <v>       5.40285598       0.99492632 </v>
  <v>       3.95992887       0.96979212 </v>
  <v>       4.42051853       0.98301509 </v>
  <v>       3.95992887       0.96980599 </v>
  <v>       4.19654743       0.97740583 </v>
  <v>       5.03298175       0.99215160 </v>
  <v>       6.23223246       0.99781428 </v>
  <v>       6.68061694       0.99856171 </v>
  <v>       5.40285598       0.99492632 </v>
  <v>       6.07542161       0.99744424 </v>
  <v>       5.57860435       0.99579071 </v>
  <v>       5.57860435       0.99580955 </v>
  <v>       6.07542161       0.99745972 </v>
  <v>       6.96351852       0.99885207 </v>
  <v>       6.96351852       0.99885921 </v>
  <v>       7.23536714       0.99908108 </v>
  <v>       7.10074390       0.99898111 </v>
  <v>       6.07542161       0.99744146 </v>
  <v>       6.68061694       0.99852611 </v>
  <v>       6.96351852       0.99885207 </v>
  <v>       6.23223246       0.99781428 </v>
  <v>       5.91445467       0.99703242 </v>
  <v>       4.42051853       0.98299518 </v>
  <v>       5.03298175       0.99215135 </v>
  <v>       6.07542161       0.99747417 </v>
  <v>       6.07542161       0.99745972 </v>
  <v>       5.03298175       0.99215160 </v>
  <v>       4.42051853       0.98299149 </v>
  <v>       2.82154952       0.89925698 </v>
  <v>       3.43818108       0.94515057 </v>
  <v>       4.63367649       0.98708332 </v>
  <v>       6.07542161       0.99747417 </v>
  <v>       7.10074390       0.99898111 </v>
  <v>       5.57860435       0.99580955 </v>
  <v>       4.19654743       0.97740583 </v>
  <v>       3.14501437       0.92585974 </v>
  <v>       3.14501437       0.92628842 </v>
  <v>       3.14501437       0.92585974 </v>
  <v>       3.95992887       0.96966169 </v>
  <v>       5.22119517       0.99373816 </v>
  <v>       6.68061694       0.99853953 </v>
  <v>       6.68061694       0.99855593 </v>
  <v>       5.22119517       0.99377741 </v>
  <v>       3.95992887       0.96980599 </v>
  <v>       2.82154952       0.89969228 </v>
  <v>       2.45584363       0.86054183 </v>
  <v>       3.14501437       0.92585974 </v>
  <v>       4.42051853       0.98299149 </v>
  <v>       5.91445467       0.99703242 </v>
  <v>       6.96351852       0.99885921 </v>
  <v>       5.40285598       0.99492632 </v>
  <v>       3.95992887       0.96979212 </v>
  <v>       3.43818108       0.94508923 </v>
  <v>       2.82154952       0.89969228 </v>
  <v>       3.14501437       0.92628842 </v>
  <v>       4.19654743       0.97734060 </v>
  <v>       5.57860435       0.99582521 </v>
  <v>       7.10074390       0.99898502 </v>
  <v>       6.07542161       0.99746769 </v>
  <v>       4.63367649       0.98706635 </v>
  <v>       4.63367649       0.98706635 </v>
  <v>       3.95992887       0.96979212 </v>
  <v>       3.95992887       0.96980599 </v>
  <v>       4.63367649       0.98706059 </v>
  <v>       5.74898254       0.99650645 </v>
  <v>       7.10074390       0.99898969 </v>
  <v>       7.10074390       0.99898946 </v>
  <v>       5.74898254       0.99650048 </v>
  <v>       6.07542161       0.99746769 </v>
  <v>       5.40285598       0.99492632 </v>
  <v>       5.22119517       0.99377741 </v>
  <v>       5.57860435       0.99580955 </v>
  <v>       6.38519344       0.99810007 </v>
  <v>       7.10074390       0.99898946 </v>
  <v>       6.96351852       0.99885921 </v>
  <v>       6.68061694       0.99855593 </v>
  <v>       6.82353401       0.99872260 </v>
  <v>       7.10074390       0.99898502 </v>
  <v>       7.10074390       0.99898969 </v>
  <v>       5.57860435       0.99582521 </v>
  <v>       5.91445467       0.99703242 </v>
  <v>       6.68061694       0.99853953 </v>
  <v>       6.38519344       0.99810007 </v>
  <v>       5.74898254       0.99650645 </v>
  <v>       4.19654743       0.97734060 </v>
  <v>       4.42051853       0.98299149 </v>
  <v>       5.22119517       0.99373816 </v>
  <v>       6.38519344       0.99810729 </v>
  <v>       6.82353401       0.99872260 </v>
  <v>       5.57860435       0.99580955 </v>
  <v>       4.63367649       0.98706059 </v>
  <v>       4.83745094       0.98999900 </v>
  <v>       4.63367649       0.98706059 </v>
  <v>       5.03298175       0.99215160 </v>
  <v>       5.91445467       0.99702241 </v>
  <v>       7.10074390       0.99897957 </v>
  <v>       6.68061694       0.99855593 </v>
  <v>       5.57860435       0.99579071 </v>
  <v>       4.42051853       0.98301509 </v>
  <v>       3.95992887       0.96980599 </v>
  <v>       4.19654743       0.97740583 </v>
  <v>       5.03298175       0.99215160 </v>
  <v>       6.23223246       0.99781428 </v>
  <v>       6.68061694       0.99856171 </v>
  <v>       5.40285598       0.99492632 </v>
  <v>       4.63367649       0.98706635 </v>
  <v>       3.95992887       0.96979212 </v>
  <v>       3.95992887       0.96980599 </v>
  <v>       4.63367649       0.98706059 </v>
  <v>       5.74898254       0.99650645 </v>
  <v>       7.10074390       0.99898969 </v>
  <v>       7.10074390       0.99898946 </v>
  <v>       5.74898254       0.99650048 </v>
  <v>       5.40285598       0.99489804 </v>
  <v>       4.63367649       0.98706635 </v>
  <v>       4.42051853       0.98301509 </v>
  <v>       4.83745094       0.98999900 </v>
  <v>       5.74898254       0.99649326 </v>
  <v>       6.96351852       0.99886967 </v>
  <v>       6.53457489       0.99834267 </v>
  <v>       6.53457489       0.99834267 </v>
  <v>       5.74898254       0.99650048 </v>
  <v>       5.40285598       0.99492632 </v>
  <v>       5.57860435       0.99579071 </v>
  <v>       6.23223246       0.99780156 </v>
  <v>       7.23536714       0.99909150 </v>
  <v>       7.10074390       0.99898946 </v>
  <v>       6.68061694       0.99856171 </v>
  <v>       6.68061694       0.99855593 </v>
  <v>       7.10074390       0.99898111 </v>
  <v>       6.96351852       0.99886967 </v>
  <v>       7.10074390       0.99898969 </v>
  <v>       7.23536714       0.99909150 </v>
  <v>       5.74898254       0.99649326 </v>
  <v>       5.74898254       0.99650645 </v>
  <v>       6.23223246       0.99781428 </v>
  <v>       7.10074390       0.99897957 </v>
  <v>       7.10074390       0.99898111 </v>
  <v>       6.23223246       0.99780156 </v>
  <v>       6.53457489       0.99831618 </v>
  <v>       6.23223246       0.99780156 </v>
  <v>       6.38519344       0.99810007 </v>
  <v>       6.96351852       0.99885207 </v>
  <v>       7.23536714       0.99908108 </v>
  <v>       6.07542161       0.99744424 </v>
  <v>       5.57860435       0.99579071 </v>
  <v>       5.57860435       0.99580955 </v>
  <v>       6.07542161       0.99745972 </v>
  <v>       6.96351852       0.99885207 </v>
  <v>       6.96351852       0.99885921 </v>
  <v>       6.07542161       0.99746769 </v>
  <v>       5.40285598       0.99492632 </v>
  <v>       5.22119517       0.99377741 </v>
  <v>       5.57860435       0.99580955 </v>
  <v>       6.38519344       0.99810007 </v>
  <v>       7.10074390       0.99898946 </v>
  <v>       6.53457489       0.99834267 </v>
  <v>       5.74898254       0.99650048 </v>
  <v>       5.40285598       0.99492632 </v>
  <v>       5.57860435       0.99579071 </v>
  <v>       6.23223246       0.99780156 </v>
  <v>       7.23536714       0.99909150 </v>
  <v>       6.53457489       0.99834267 </v>
  <v>       6.07542161       0.99746769 </v>
  <v>       6.07542161       0.99744424 </v>
  <v>       6.53457489       0.99831618 </v>
  <v>       7.10074390       0.99898946 </v>
  <v>       6.96351852       0.99885921 </v>
  <v>       7.23536714       0.99908108 </v>
  <v>       7.23536714       0.99909150 </v>
  <v>       7.23536714       0.99908108 </v>
  <v>       7.10074390       0.99898111 </v>
  <v>       6.96351852       0.99885921 </v>
  <v>       6.68061694       0.99855593 </v>
  <v>       6.82353401       0.99872260 </v>
  <v>       7.10074390       0.99898946 </v>
  <v>       6.68061694       0.99856171 </v>
  <v>       6.68061694       0.99855593 </v>
  <v>       7.10074390       0.99898111 </v>
  <v>       7.10074390       0.99898946 </v>
  <v>       6.96351852       0.99885921 </v>
  <v>       7.23536714       0.99908108 </v>
  <v>       7.10074390       0.99896605 </v>
  <v>       7.10074390       0.99897957 </v>
  <v>       6.68061694       0.99853953 </v>
  <v>       6.68061694       0.99852611 </v>
  <v>       7.10074390       0.99896605 </v>
  <v>       6.82353401       0.99870470 </v>
  <v>       6.96351852       0.99885870 </v>
  <v>       6.68061694       0.99852611 </v>
  <v>       6.23223246       0.99780720 </v>
  <v>       6.23223246       0.99782215 </v>
  <v>       6.68061694       0.99854375 </v>
  <v>       6.96351852       0.99885870 </v>
  <v>       6.68061694       0.99853953 </v>
  <v>       6.07542161       0.99747417 </v>
  <v>       5.91445467       0.99705201 </v>
  <v>       6.23223246       0.99782215 </v>
  <v>       6.82353401       0.99870470 </v>
  <v>       7.10074390       0.99897957 </v>
  <v>       6.38519344       0.99810729 </v>
  <v>       6.07542161       0.99747417 </v>
  <v>       6.23223246       0.99780720 </v>
  <v>       5.40285598       0.99488186 </v>
  <v>       6.23223246       0.99780720 </v>
  <v>       6.96351852       0.99885207 </v>
  <v>       5.91445467       0.99702241 </v>
  <v>       5.22119517       0.99373816 </v>
  <v>       5.03298175       0.99215135 </v>
  <v>       6.07542161       0.99744146 </v>
  <v>       6.68061694       0.99852611 </v>
  <v>       6.96351852       0.99885207 </v>
  <v>       6.23223246       0.99781428 </v>
  <v>       5.91445467       0.99703242 </v>
  <v>       7.10074390       0.99898502 </v>
  <v>       7.10074390       0.99898969 </v>
  <v>       6.68061694       0.99852611 </v>
  <v>       6.23223246       0.99780720 </v>
  <v>       6.23223246       0.99782215 </v>
  <v>       6.68061694       0.99854375 </v>
  <v>       6.38519344       0.99809399 </v>
  <v>       7.10074390       0.99898502 </v>
  <v>       6.07542161       0.99744146 </v>
  <v>       5.40285598       0.99488186 </v>
  <v>       5.22119517       0.99373424 </v>
  <v>       5.57860435       0.99579994 </v>
  <v>       5.57860435       0.99579994 </v>
  <v>       6.68061694       0.99854375 </v>
  <v>       7.10074390       0.99898969 </v>
  <v>       5.91445467       0.99703242 </v>
  <v>       5.03298175       0.99215135 </v>
  <v>       4.63367649       0.98708319 </v>
  <v>       4.83745094       0.99003417 </v>
  <v>       5.22119517       0.99373424 </v>
  <v>       6.23223246       0.99782215 </v>
  <v>       6.23223246       0.99781428 </v>
  <v>       5.22119517       0.99373816 </v>
  <v>       4.63367649       0.98708332 </v>
  <v>       4.63367649       0.98708319 </v>
  <v>       3.70824256       0.95936996 </v>
  <v>       4.63367649       0.98708319 </v>
  <v>       5.91445467       0.99705201 </v>
  <v>       6.38519344       0.99810007 </v>
  <v>       5.03298175       0.99215160 </v>
  <v>       3.95992887       0.96966169 </v>
  <v>       3.43818108       0.94515057 </v>
  <v>       4.42051853       0.98299518 </v>
  <v>       5.03298175       0.99215135 </v>
  <v>       6.07542161       0.99747417 </v>
  <v>       6.07542161       0.99745972 </v>
  <v>       5.03298175       0.99215160 </v>
  <v>       4.42051853       0.98299149 </v>
  <v>       5.57860435       0.99582521 </v>
  <v>       5.91445467       0.99703242 </v>
  <v>       6.68061694       0.99853953 </v>
  <v>       6.38519344       0.99810007 </v>
  <v>       5.74898254       0.99650645 </v>
  <v>       6.96351852       0.99886967 </v>
  <v>       7.10074390       0.99898969 </v>
  <v>       7.23536714       0.99909150 </v>
  <v>       6.96351852       0.99885870 </v>
  <v>       6.68061694       0.99853953 </v>
  <v>       6.07542161       0.99747417 </v>
  <v>       5.91445467       0.99705201 </v>
  <v>       6.23223246       0.99782215 </v>
  <v>       5.57860435       0.99579994 </v>
  <v>       6.68061694       0.99854375 </v>
  <v>       7.10074390       0.99898969 </v>
  <v>       5.91445467       0.99703242 </v>
  <v>       5.03298175       0.99215135 </v>
  <v>       4.63367649       0.98708319 </v>
  <v>       4.83745094       0.99003417 </v>
  <v>       4.42051853       0.98303807 </v>
  <v>       5.57860435       0.99579994 </v>
  <v>       6.96351852       0.99885870 </v>
  <v>       6.96351852       0.99886967 </v>
  <v>       5.57860435       0.99582521 </v>
  <v>       4.42051853       0.98299518 </v>
  <v>       3.70824256       0.95936996 </v>
  <v>       3.70824256       0.95930855 </v>
  <v>       3.70824256       0.95930855 </v>
  <v>       4.83745094       0.99003417 </v>
  <v>       6.23223246       0.99782215 </v>
  <v>       7.23536714       0.99909150 </v>
  <v>       5.74898254       0.99650645 </v>
  <v>       4.42051853       0.98299149 </v>
  <v>       3.43818108       0.94515057 </v>
  <v>       3.14501437       0.92576195 </v>
  <v>       2.02514054       0.80026871 </v>
  <v>       3.14501437       0.92576195 </v>
  <v>       4.63367649       0.98708319 </v>
  <v>       6.23223246       0.99780720 </v>
  <v>       6.23223246       0.99780156 </v>
  <v>       4.63367649       0.98706059 </v>
  <v>       3.14501437       0.92585974 </v>
  <v>       2.02514054       0.79395182 </v>
  <v>       2.82154952       0.89925698 </v>
  <v>       3.43818108       0.94515057 </v>
  <v>       4.63367649       0.98708332 </v>
  <v>       6.07542161       0.99747417 </v>
  <v>       7.10074390       0.99898111 </v>
  <v>       5.57860435       0.99580955 </v>
  <v>       4.19654743       0.97740583 </v>
  <v>       3.14501437       0.92585974 </v>
  <v>       4.19654743       0.97734060 </v>
  <v>       4.42051853       0.98299149 </v>
  <v>       5.22119517       0.99373816 </v>
  <v>       6.38519344       0.99810729 </v>
  <v>       6.82353401       0.99872260 </v>
  <v>       5.57860435       0.99580955 </v>
  <v>       4.63367649       0.98706059 </v>
  <v>       5.74898254       0.99649326 </v>
  <v>       5.74898254       0.99650645 </v>
  <v>       6.23223246       0.99781428 </v>
  <v>       7.10074390       0.99897957 </v>
  <v>       7.10074390       0.99898111 </v>
  <v>       6.23223246       0.99780156 </v>
  <v>       7.23536714       0.99909150 </v>
  <v>       6.82353401       0.99870470 </v>
  <v>       7.10074390       0.99897957 </v>
  <v>       6.38519344       0.99810729 </v>
  <v>       6.07542161       0.99747417 </v>
  <v>       6.23223246       0.99780720 </v>
  <v>       5.22119517       0.99373424 </v>
  <v>       6.23223246       0.99782215 </v>
  <v>       6.23223246       0.99781428 </v>
  <v>       5.22119517       0.99373816 </v>
  <v>       4.63367649       0.98708332 </v>
  <v>       4.63367649       0.98708319 </v>
  <v>       3.70824256       0.95930855 </v>
  <v>       4.83745094       0.99003417 </v>
  <v>       6.23223246       0.99782215 </v>
  <v>       7.23536714       0.99909150 </v>
  <v>       5.74898254       0.99650645 </v>
  <v>       4.42051853       0.98299149 </v>
  <v>       3.43818108       0.94515057 </v>
  <v>       3.14501437       0.92576195 </v>
  <v>       2.45584363       0.86239706 </v>
  <v>       3.70824256       0.95930855 </v>
  <v>       5.22119517       0.99373424 </v>
  <v>       6.82353401       0.99870470 </v>
  <v>       5.74898254       0.99649326 </v>
  <v>       4.19654743       0.97734060 </v>
  <v>       2.82154952       0.89925698 </v>
  <v>       2.02514054       0.80026871 </v>
 </varray>
