   1   1   0   0
  0.4928368E+02  0.4115343E-09  0.4115343E-09  0.4115343E-09  0.1000000E-15
  1.000000000000000E-004
  CAR 
 Og_FCC                                  
     69.40522548    -22.83535384  301     -3.92603508      1.00000000
    -22.835  0.0000E+00  0.0000E+00
    -22.528  0.0000E+00  0.0000E+00
    -22.220  0.0000E+00  0.0000E+00
    -21.913  0.0000E+00  0.0000E+00
    -21.605  0.0000E+00  0.0000E+00
    -21.298  0.0000E+00  0.0000E+00
    -20.991  0.0000E+00  0.0000E+00
    -20.683  0.0000E+00  0.0000E+00
    -20.376  0.0000E+00  0.0000E+00
    -20.068  0.0000E+00  0.0000E+00
    -19.761  0.0000E+00  0.0000E+00
    -19.453  0.0000E+00  0.0000E+00
    -19.146  0.0000E+00  0.0000E+00
    -18.838  0.0000E+00  0.0000E+00
    -18.531  0.1138E+00  0.3790E+00
    -18.223  0.0000E+00  0.2000E+01
    -17.916  0.0000E+00  0.2000E+01
    -17.608  0.0000E+00  0.2000E+01
    -17.301  0.0000E+00  0.2000E+01
    -16.993  0.0000E+00  0.2000E+01
    -16.686  0.0000E+00  0.2000E+01
    -16.379  0.0000E+00  0.2000E+01
    -16.071  0.0000E+00  0.2000E+01
    -15.764  0.0000E+00  0.2000E+01
    -15.456  0.0000E+00  0.2000E+01
    -15.149  0.0000E+00  0.2000E+01
    -14.841  0.0000E+00  0.2000E+01
    -14.534  0.0000E+00  0.2000E+01
    -14.226  0.0000E+00  0.2000E+01
    -13.919  0.0000E+00  0.2000E+01
    -13.611  0.0000E+00  0.2000E+01
    -13.304  0.0000E+00  0.2000E+01
    -12.996  0.0000E+00  0.2000E+01
    -12.689  0.0000E+00  0.2000E+01
    -12.381  0.0000E+00  0.2000E+01
    -12.074  0.0000E+00  0.2000E+01
    -11.766  0.0000E+00  0.2000E+01
    -11.459  0.0000E+00  0.2000E+01
    -11.152  0.0000E+00  0.2000E+01
    -10.844  0.0000E+00  0.2000E+01
    -10.537  0.0000E+00  0.2000E+01
    -10.229  0.0000E+00  0.2000E+01
     -9.922  0.0000E+00  0.2000E+01
     -9.614  0.0000E+00  0.2000E+01
     -9.307  0.0000E+00  0.2000E+01
     -8.999  0.0000E+00  0.2000E+01
     -8.692  0.0000E+00  0.2000E+01
     -8.384  0.0000E+00  0.2000E+01
     -8.077  0.0000E+00  0.2000E+01
     -7.769  0.0000E+00  0.2000E+01
     -7.462  0.0000E+00  0.2000E+01
     -7.154  0.0000E+00  0.2000E+01
     -6.847  0.0000E+00  0.2000E+01
     -6.540  0.0000E+00  0.2000E+01
     -6.232  0.0000E+00  0.2000E+01
     -5.925  0.0000E+00  0.2000E+01
     -5.617  0.0000E+00  0.2000E+01
     -5.310  0.0000E+00  0.3341E+01
     -5.002  0.0000E+00  0.3843E+01
     -4.695  0.3969E-01  0.4846E+01
     -4.387  0.4551E+00  0.6367E+01
     -4.080  0.3773E+00  0.7906E+01
     -3.772  0.0000E+00  0.8000E+01
     -3.465  0.0000E+00  0.8000E+01
     -3.157  0.0000E+00  0.8000E+01
     -2.850  0.0000E+00  0.8000E+01
     -2.542  0.0000E+00  0.8000E+01
     -2.235  0.0000E+00  0.8000E+01
     -1.927  0.0000E+00  0.8000E+01
     -1.620  0.0000E+00  0.8000E+01
     -1.313  0.0000E+00  0.8000E+01
     -1.005  0.0000E+00  0.8000E+01
     -0.698  0.0000E+00  0.8000E+01
     -0.390  0.0000E+00  0.8000E+01
     -0.083  0.0000E+00  0.8000E+01
      0.225  0.0000E+00  0.8000E+01
      0.532  0.0000E+00  0.8000E+01
      0.840  0.0000E+00  0.8000E+01
      1.147  0.0000E+00  0.8000E+01
      1.455  0.0000E+00  0.8000E+01
      1.762  0.0000E+00  0.8000E+01
      2.070  0.0000E+00  0.8000E+01
      2.377  0.0000E+00  0.8000E+01
      2.685  0.0000E+00  0.8000E+01
      2.992  0.0000E+00  0.8000E+01
      3.299  0.0000E+00  0.8006E+01
      3.607  0.0000E+00  0.8052E+01
      3.914  0.0000E+00  0.8087E+01
      4.222  0.0000E+00  0.8087E+01
      4.529  0.0000E+00  0.8157E+01
      4.837  0.0000E+00  0.8344E+01
      5.144  0.0000E+00  0.8379E+01
      5.452  0.0000E+00  0.8601E+01
      5.759  0.0000E+00  0.9090E+01
      6.067  0.0000E+00  0.9370E+01
      6.374  0.0000E+00  0.9510E+01
      6.682  0.0000E+00  0.1003E+02
      6.989  0.0000E+00  0.1010E+02
      7.297  0.0000E+00  0.1091E+02
      7.604  0.0000E+00  0.1147E+02
      7.912  0.6473E-11  0.1180E+02
      8.219  0.0000E+00  0.1254E+02
      8.526  0.0000E+00  0.1328E+02
      8.834  0.0000E+00  0.1350E+02
      9.141  0.0000E+00  0.1384E+02
      9.449  0.0000E+00  0.1416E+02
      9.756  0.1154E-08  0.1460E+02
     10.064  0.0000E+00  0.1530E+02
     10.371  0.4551E+00  0.1569E+02
     10.679  0.0000E+00  0.1597E+02
     10.986  0.0000E+00  0.1631E+02
     11.294  0.0000E+00  0.1655E+02
     11.601  0.0000E+00  0.1655E+02
     11.909  0.0000E+00  0.1707E+02
     12.216  0.0000E+00  0.1767E+02
     12.524  0.0000E+00  0.1788E+02
     12.831  0.0000E+00  0.1836E+02
     13.138  0.1517E+00  0.1873E+02
     13.446  0.2335E-13  0.1943E+02
     13.753  0.0000E+00  0.1994E+02
     14.061  0.0000E+00  0.2057E+02
     14.368  0.0000E+00  0.2071E+02
     14.676  0.0000E+00  0.2142E+02
     14.983  0.0000E+00  0.2184E+02
     15.291  0.0000E+00  0.2245E+02
     15.598  0.0000E+00  0.2302E+02
     15.906  0.1138E+00  0.2337E+02
     16.213  0.0000E+00  0.2372E+02
     16.521  0.0000E+00  0.2402E+02
     16.828  0.1138E+00  0.2527E+02
     17.136  0.0000E+00  0.2567E+02
     17.443  0.0000E+00  0.2609E+02
     17.751  0.0000E+00  0.2641E+02
     18.058  0.0000E+00  0.2676E+02
     18.365  0.0000E+00  0.2750E+02
     18.673  0.4286E-01  0.2769E+02
     18.980  0.0000E+00  0.2837E+02
     19.288  0.0000E+00  0.2841E+02
     19.595  0.0000E+00  0.2902E+02
     19.903  0.0000E+00  0.2956E+02
     20.210  0.0000E+00  0.3026E+02
     20.518  0.0000E+00  0.3040E+02
     20.825  0.4551E+00  0.3124E+02
     21.133  0.0000E+00  0.3135E+02
     21.440  0.0000E+00  0.3167E+02
     21.748  0.0000E+00  0.3230E+02
     22.055  0.0000E+00  0.3311E+02
     22.363  0.0000E+00  0.3356E+02
     22.670  0.0000E+00  0.3412E+02
     22.977  0.0000E+00  0.3454E+02
     23.285  0.0000E+00  0.3513E+02
     23.592  0.0000E+00  0.3576E+02
     23.900  0.0000E+00  0.3618E+02
     24.207  0.0000E+00  0.3660E+02
     24.515  0.0000E+00  0.3765E+02
     24.822  0.0000E+00  0.3836E+02
     25.130  0.0000E+00  0.3871E+02
     25.437  0.0000E+00  0.3938E+02
     25.745  0.0000E+00  0.3987E+02
     26.052  0.0000E+00  0.4001E+02
     26.360  0.0000E+00  0.4072E+02
     26.667  0.0000E+00  0.4148E+02
     26.975  0.0000E+00  0.4194E+02
     27.282  0.0000E+00  0.4226E+02
     27.589  0.0000E+00  0.4275E+02
     27.897  0.0000E+00  0.4331E+02
     28.204  0.1517E+00  0.4462E+02
     28.512  0.4551E+00  0.4536E+02
     28.819  0.0000E+00  0.4581E+02
     29.127  0.0000E+00  0.4649E+02
     29.434  0.0000E+00  0.4733E+02
     29.742  0.0000E+00  0.4784E+02
     30.049  0.8758E-01  0.4838E+02
     30.357  0.9475E-15  0.4868E+02
     30.664  0.0000E+00  0.4922E+02
     30.972  0.4551E+00  0.4971E+02
     31.279  0.0000E+00  0.4990E+02
     31.587  0.0000E+00  0.5047E+02
     31.894  0.0000E+00  0.5138E+02
     32.202  0.0000E+00  0.5212E+02
     32.509  0.4551E+00  0.5300E+02
     32.816  0.0000E+00  0.5359E+02
     33.124  0.2276E+00  0.5450E+02
     33.431  0.0000E+00  0.5524E+02
     33.739  0.0000E+00  0.5608E+02
     34.046  0.0000E+00  0.5671E+02
     34.354  0.0000E+00  0.5730E+02
     34.661  0.0000E+00  0.5758E+02
     34.969  0.0000E+00  0.5807E+02
     35.276  0.0000E+00  0.5868E+02
     35.584  0.0000E+00  0.5882E+02
     35.891  0.0000E+00  0.5954E+02
     36.199  0.0000E+00  0.6024E+02
     36.506  0.0000E+00  0.6155E+02
     36.814  0.0000E+00  0.6247E+02
     37.121  0.0000E+00  0.6317E+02
     37.428  0.2276E+00  0.6383E+02
     37.736  0.0000E+00  0.6444E+02
     38.043  0.1117E-09  0.6497E+02
     38.351  0.1949E-05  0.6535E+02
     38.658  0.0000E+00  0.6609E+02
     38.966  0.2276E+00  0.6666E+02
     39.273  0.0000E+00  0.6748E+02
     39.581  0.0000E+00  0.6848E+02
     39.888  0.0000E+00  0.6863E+02
     40.196  0.0000E+00  0.6945E+02
     40.503  0.2021E-03  0.7012E+02
     40.811  0.0000E+00  0.7094E+02
     41.118  0.0000E+00  0.7203E+02
     41.426  0.6393E-02  0.7247E+02
     41.733  0.0000E+00  0.7349E+02
     42.041  0.0000E+00  0.7426E+02
     42.348  0.1573E-14  0.7504E+02
     42.655  0.0000E+00  0.7550E+02
     42.963  0.0000E+00  0.7578E+02
     43.270  0.0000E+00  0.7641E+02
     43.578  0.0000E+00  0.7662E+02
     43.885  0.1517E+00  0.7798E+02
     44.193  0.0000E+00  0.7845E+02
     44.500  0.1517E+00  0.7925E+02
     44.808  0.0000E+00  0.8048E+02
     45.115  0.0000E+00  0.8125E+02
     45.423  0.0000E+00  0.8183E+02
     45.730  0.1896E-01  0.8278E+02
     46.038  0.4472E+00  0.8315E+02
     46.345  0.5509E+00  0.8433E+02
     46.653  0.0000E+00  0.8490E+02
     46.960  0.2028E-10  0.8569E+02
     47.267  0.0000E+00  0.8661E+02
     47.575  0.0000E+00  0.8764E+02
     47.882  0.0000E+00  0.8829E+02
     48.190  0.0000E+00  0.8858E+02
     48.497  0.0000E+00  0.8918E+02
     48.805  0.1392E-01  0.8972E+02
     49.112  0.0000E+00  0.9084E+02
     49.420  0.0000E+00  0.9150E+02
     49.727  0.0000E+00  0.9210E+02
     50.035  0.2276E+00  0.9290E+02
     50.342  0.4551E+00  0.9365E+02
     50.650  0.1517E+00  0.9454E+02
     50.957  0.0000E+00  0.9560E+02
     51.265  0.0000E+00  0.9582E+02
     51.572  0.0000E+00  0.9724E+02
     51.880  0.1138E+00  0.9822E+02
     52.187  0.0000E+00  0.9901E+02
     52.494  0.0000E+00  0.9964E+02
     52.802  0.0000E+00  0.1006E+03
     53.109  0.0000E+00  0.1008E+03
     53.417  0.0000E+00  0.1018E+03
     53.724  0.0000E+00  0.1027E+03
     54.032  0.0000E+00  0.1034E+03
     54.339  0.0000E+00  0.1042E+03
     54.647  0.0000E+00  0.1046E+03
     54.954  0.4554E+00  0.1053E+03
     55.262  0.0000E+00  0.1062E+03
     55.569  0.0000E+00  0.1066E+03
     55.877  0.0000E+00  0.1076E+03
     56.184  0.0000E+00  0.1085E+03
     56.492  0.0000E+00  0.1095E+03
     56.799  0.0000E+00  0.1110E+03
     57.106  0.0000E+00  0.1118E+03
     57.414  0.6069E+00  0.1125E+03
     57.721  0.0000E+00  0.1134E+03
     58.029  0.0000E+00  0.1142E+03
     58.336  0.5526E+00  0.1152E+03
     58.644  0.0000E+00  0.1158E+03
     58.951  0.0000E+00  0.1166E+03
     59.259  0.4550E+00  0.1173E+03
     59.566  0.3667E-02  0.1176E+03
     59.874  0.0000E+00  0.1185E+03
     60.181  0.4433E-04  0.1192E+03
     60.489  0.0000E+00  0.1200E+03
     60.796  0.0000E+00  0.1208E+03
     61.104  0.0000E+00  0.1218E+03
     61.411  0.0000E+00  0.1231E+03
     61.719  0.0000E+00  0.1243E+03
     62.026  0.0000E+00  0.1250E+03
     62.333  0.0000E+00  0.1254E+03
     62.641  0.0000E+00  0.1261E+03
     62.948  0.0000E+00  0.1269E+03
     63.256  0.0000E+00  0.1272E+03
     63.563  0.0000E+00  0.1275E+03
     63.871  0.0000E+00  0.1277E+03
     64.178  0.0000E+00  0.1279E+03
     64.486  0.0000E+00  0.1279E+03
     64.793  0.0000E+00  0.1279E+03
     65.101  0.0000E+00  0.1280E+03
     65.408  0.0000E+00  0.1280E+03
     65.716  0.0000E+00  0.1280E+03
     66.023  0.0000E+00  0.1280E+03
     66.331  0.0000E+00  0.1280E+03
     66.638  0.0000E+00  0.1280E+03
     66.945  0.0000E+00  0.1280E+03
     67.253  0.0000E+00  0.1280E+03
     67.560  0.0000E+00  0.1280E+03
     67.868  0.0000E+00  0.1280E+03
     68.175  0.0000E+00  0.1280E+03
     68.483  0.0000E+00  0.1280E+03
     68.790  0.0000E+00  0.1280E+03
     69.098  0.0000E+00  0.1280E+03
     69.405  0.0000E+00  0.1280E+03
