    1    1    1    1
  0.4928368E+02  0.4115343E-09  0.4115343E-09  0.4115343E-09  0.1000000E-15
  1.000000000000000E-004
  CAR 
 Og_FCC                                  
      8    343    128
 
  0.0000000E+00  0.0000000E+00  0.0000000E+00  0.2915452E-02
    1      -18.642600   1.000000
    2      -18.642600   1.000000
    3       -4.682496   1.000000
    4       -4.682495   1.000000
    5       -3.990782   1.000000
    6       -3.990782   1.000000
    7       -3.990781   1.000000
    8       -3.990781   1.000000
    9        3.022139   0.000000
   10        3.022152   0.000000
   11        9.358089   0.000000
   12        9.358089   0.000000
   13        9.358089   0.000000
   14        9.358090   0.000000
   15        9.374647   0.000000
   16        9.374647   0.000000
   17       11.696556   0.000000
   18       11.696556   0.000000
   19       11.696557   0.000000
   20       11.696557   0.000000
   21       12.919104   0.000000
   22       12.919107   0.000000
   23       15.266741   0.000000
   24       15.266742   0.000000
   25       15.303740   0.000000
   26       15.303741   0.000000
   27       15.303742   0.000000
   28       15.303744   0.000000
   29       17.220774   0.000000
   30       17.220874   0.000000
   31       24.543892   0.000000
   32       24.543892   0.000000
   33       24.996194   0.000000
   34       24.996194   0.000000
   35       24.996194   0.000000
   36       24.996194   0.000000
   37       26.070580   0.000000
   38       26.070581   0.000000
   39       26.070581   0.000000
   40       26.070581   0.000000
   41       26.125784   0.000000
   42       26.125784   0.000000
   43       28.943595   0.000000
   44       28.943595   0.000000
   45       28.943595   0.000000
   46       28.943596   0.000000
   47       30.002127   0.000000
   48       30.002127   0.000000
   49       30.002127   0.000000
   50       30.002128   0.000000
   51       30.002128   0.000000
   52       30.002128   0.000000
   53       31.533764   0.000000
   54       31.533804   0.000000
   55       38.511417   0.000000
   56       38.511417   0.000000
   57       38.511424   0.000000
   58       38.511425   0.000000
   59       39.499607   0.000000
   60       39.499612   0.000000
   61       39.601331   0.000000
   62       39.601337   0.000000
   63       39.601342   0.000000
   64       39.601348   0.000000
   65       40.682395   0.000000
   66       40.682397   0.000000
   67       41.343638   0.000000
   68       41.343638   0.000000
   69       41.343639   0.000000
   70       41.343639   0.000000
   71       41.371468   0.000000
   72       41.371469   0.000000
   73       42.163927   0.000000
   74       42.163928   0.000000
   75       42.271578   0.000000
   76       42.271581   0.000000
   77       42.271583   0.000000
   78       42.271585   0.000000
   79       44.829533   0.000000
   80       44.829533   0.000000
   81       44.829533   0.000000
   82       44.829535   0.000000
   83       44.829535   0.000000
   84       44.829535   0.000000
   85       45.079318   0.000000
   86       45.079318   0.000000
   87       45.079318   0.000000
   88       45.079319   0.000000
   89       45.079319   0.000000
   90       45.079319   0.000000
   91       45.727190   0.000000
   92       45.727341   0.000000
   93       47.317285   0.000000
   94       47.317286   0.000000
   95       47.317287   0.000000
   96       47.317287   0.000000
   97       47.317495   0.000000
   98       47.317496   0.000000
   99       47.988284   0.000000
  100       47.988284   0.000000
  101       47.988285   0.000000
  102       47.988285   0.000000
  103       50.932373   0.000000
  104       50.932377   0.000000
  105       50.941115   0.000000
  106       50.941119   0.000000
  107       50.941122   0.000000
  108       50.941127   0.000000
  109       51.009936   0.000000
  110       51.009987   0.000000
  111       51.402614   0.000000
  112       51.402615   0.000000
  113       51.402616   0.000000
  114       51.402617   0.000000
  115       51.404523   0.000000
  116       51.404524   0.000000
  117       51.689763   0.000000
  118       51.689767   0.000000
  119       64.219711   0.000000
  120       64.219711   0.000000
  121       64.219723   0.000000
  122       64.219724   0.000000
  123       64.939333   0.000000
  124       64.939344   0.000000
  125       65.028187   0.000000
  126       65.028197   0.000000
  127       65.028208   0.000000
  128       65.028218   0.000000
 
  0.1428571E+00 -0.1246062E-16 -0.1387779E-16  0.2915452E-02
    1      -18.617502   1.000000
    2      -18.617502   1.000000
    3       -4.800409   1.000000
    4       -4.800409   1.000000
    5       -4.169187   1.000000
    6       -4.169187   1.000000
    7       -4.019210   1.000000
    8       -4.019210   1.000000
    9        3.532406   0.000000
   10        3.532419   0.000000
   11        8.689449   0.000000
   12        8.689451   0.000000
   13        9.536577   0.000000
   14        9.536577   0.000000
   15        9.550438   0.000000
   16        9.550438   0.000000
   17       11.271681   0.000000
   18       11.271682   0.000000
   19       11.279644   0.000000
   20       11.279644   0.000000
   21       13.672248   0.000000
   22       13.672265   0.000000
   23       14.639763   0.000000
   24       14.639783   0.000000
   25       16.465211   0.000000
   26       16.465211   0.000000
   27       16.490498   0.000000
   28       16.490498   0.000000
   29       19.062321   0.000000
   30       19.062385   0.000000
   31       21.809489   0.000000
   32       21.809496   0.000000
   33       22.732099   0.000000
   34       22.732099   0.000000
   35       22.863867   0.000000
   36       22.863868   0.000000
   37       26.259677   0.000000
   38       26.259677   0.000000
   39       26.370504   0.000000
   40       26.370504   0.000000
   41       28.030901   0.000000
   42       28.030906   0.000000
   43       28.130969   0.000000
   44       28.130969   0.000000
   45       28.154182   0.000000
   46       28.154183   0.000000
   47       30.181025   0.000000
   48       30.181026   0.000000
   49       32.869215   0.000000
   50       32.869219   0.000000
   51       32.900273   0.000000
   52       32.900273   0.000000
   53       32.930120   0.000000
   54       32.930157   0.000000
   55       35.800704   0.000000
   56       35.800704   0.000000
   57       35.831243   0.000000
   58       35.831243   0.000000
   59       36.239125   0.000000
   60       36.239129   0.000000
   61       38.850119   0.000000
   62       38.850147   0.000000
   63       39.307124   0.000000
   64       39.307125   0.000000
   65       39.321139   0.000000
   66       39.321139   0.000000
   67       40.834131   0.000000
   68       40.834133   0.000000
   69       41.059315   0.000000
   70       41.059315   0.000000
   71       41.073230   0.000000
   72       41.073231   0.000000
   73       41.663868   0.000000
   74       41.663869   0.000000
   75       42.120961   0.000000
   76       42.120962   0.000000
   77       42.164975   0.000000
   78       42.164975   0.000000
   79       43.879185   0.000000
   80       43.879185   0.000000
   81       43.914354   0.000000
   82       43.914354   0.000000
   83       44.465859   0.000000
   84       44.465879   0.000000
   85       45.324738   0.000000
   86       45.324774   0.000000
   87       46.765278   0.000000
   88       46.765279   0.000000
   89       46.767145   0.000000
   90       46.767145   0.000000
   91       47.084273   0.000000
   92       47.084273   0.000000
   93       47.090516   0.000000
   94       47.090516   0.000000
   95       47.724028   0.000000
   96       47.724058   0.000000
   97       48.715848   0.000000
   98       48.715925   0.000000
   99       48.855593   0.000000
  100       48.855594   0.000000
  101       49.854739   0.000000
  102       49.854739   0.000000
  103       49.857391   0.000000
  104       49.857392   0.000000
  105       50.125017   0.000000
  106       50.125023   0.000000
  107       52.553461   0.000000
  108       52.553462   0.000000
  109       52.553652   0.000000
  110       52.553652   0.000000
  111       54.199658   0.000000
  112       54.199674   0.000000
  113       54.203460   0.000000
  114       54.203461   0.000000
  115       54.203724   0.000000
  116       54.203731   0.000000
  117       58.606751   0.000000
  118       58.606763   0.000000
  119       59.916845   0.000000
  120       59.916846   0.000000
  121       59.965985   0.000000
  122       59.965985   0.000000
  123       61.678488   0.000000
  124       61.678532   0.000000
  125       63.324419   0.000000
  126       63.324420   0.000000
  127       63.336457   0.000000
  128       63.336457   0.000000
 
  0.2857143E+00 -0.2492125E-16 -0.2775558E-16  0.2915452E-02
    1      -18.560198   1.000000
    2      -18.560198   1.000000
    3       -5.161257   1.000000
    4       -5.161257   1.000000
    5       -4.395549   1.000000
    6       -4.395549   1.000000
    7       -4.081344   1.000000
    8       -4.081344   1.000000
    9        4.619311   0.000000
   10        4.619322   0.000000
   11        7.935630   0.000000
   12        7.935638   0.000000
   13        9.403681   0.000000
   14        9.403681   0.000000
   15        9.421545   0.000000
   16        9.421545   0.000000
   17       11.637273   0.000000
   18       11.637273   0.000000
   19       11.657200   0.000000
   20       11.657200   0.000000
   21       12.762298   0.000000
   22       12.762331   0.000000
   23       17.072264   0.000000
   24       17.072270   0.000000
   25       18.080046   0.000000
   26       18.080053   0.000000
   27       18.890566   0.000000
   28       18.890566   0.000000
   29       18.949637   0.000000
   30       18.949638   0.000000
   31       19.578387   0.000000
   32       19.578387   0.000000
   33       19.634653   0.000000
   34       19.634653   0.000000
   35       22.816968   0.000000
   36       22.817029   0.000000
   37       26.325610   0.000000
   38       26.325610   0.000000
   39       26.465692   0.000000
   40       26.465692   0.000000
   41       28.194768   0.000000
   42       28.194769   0.000000
   43       28.197194   0.000000
   44       28.197194   0.000000
   45       28.240652   0.000000
   46       28.240664   0.000000
   47       30.651288   0.000000
   48       30.651289   0.000000
   49       31.475129   0.000000
   50       31.475129   0.000000
   51       31.487710   0.000000
   52       31.487710   0.000000
   53       31.533192   0.000000
   54       31.533203   0.000000
   55       35.022386   0.000000
   56       35.022446   0.000000
   57       36.698659   0.000000
   58       36.698659   0.000000
   59       36.711313   0.000000
   60       36.711313   0.000000
   61       38.022875   0.000000
   62       38.022882   0.000000
   63       38.047705   0.000000
   64       38.047705   0.000000
   65       38.056960   0.000000
   66       38.056965   0.000000
   67       39.106668   0.000000
   68       39.106669   0.000000
   69       39.447210   0.000000
   70       39.447210   0.000000
   71       39.496741   0.000000
   72       39.496741   0.000000
   73       40.102713   0.000000
   74       40.102716   0.000000
   75       40.607428   0.000000
   76       40.607432   0.000000
   77       42.588831   0.000000
   78       42.588831   0.000000
   79       42.604084   0.000000
   80       42.604084   0.000000
   81       44.497523   0.000000
   82       44.497523   0.000000
   83       44.544718   0.000000
   84       44.544718   0.000000
   85       46.007212   0.000000
   86       46.007218   0.000000
   87       47.183724   0.000000
   88       47.183725   0.000000
   89       47.191238   0.000000
   90       47.191239   0.000000
   91       48.329891   0.000000
   92       48.329978   0.000000
   93       50.632931   0.000000
   94       50.632931   0.000000
   95       50.643129   0.000000
   96       50.643129   0.000000
   97       51.888264   0.000000
   98       51.888267   0.000000
   99       52.536519   0.000000
  100       52.536519   0.000000
  101       52.541412   0.000000
  102       52.541412   0.000000
  103       53.298644   0.000000
  104       53.298644   0.000000
  105       54.956226   0.000000
  106       54.956283   0.000000
  107       55.378886   0.000000
  108       55.378887   0.000000
  109       55.461360   0.000000
  110       55.461360   0.000000
  111       57.352784   0.000000
  112       57.352785   0.000000
  113       57.363786   0.000000
  114       57.363786   0.000000
  115       57.407136   0.000000
  116       57.407179   0.000000
  117       57.620132   0.000000
  118       57.620133   0.000000
  119       57.630833   0.000000
  120       57.630833   0.000000
  121       58.045450   0.000000
  122       58.045462   0.000000
  123       59.375259   0.000000
  124       59.375259   0.000000
  125       59.376138   0.000000
  126       59.376138   0.000000
  127       59.418936   0.000000
  128       59.418941   0.000000
 
  0.4285714E+00 -0.2350408E-16  0.0000000E+00  0.2915452E-02
    1      -18.513297   1.000000
    2      -18.513297   1.000000
    3       -5.481521   1.000000
    4       -5.481520   1.000000
    5       -4.491595   1.000000
    6       -4.491595   1.000000
    7       -4.129799   1.000000
    8       -4.129799   1.000000
    9        5.329938   0.000000
   10        5.329942   0.000000
   11        7.866066   0.000000
   12        7.866091   0.000000
   13        9.038294   0.000000
   14        9.038294   0.000000
   15        9.055296   0.000000
   16        9.055296   0.000000
   17       12.557033   0.000000
   18       12.557060   0.000000
   19       13.111771   0.000000
   20       13.111771   0.000000
   21       13.132277   0.000000
   22       13.132277   0.000000
   23       15.246173   0.000000
   24       15.246174   0.000000
   25       16.673553   0.000000
   26       16.673553   0.000000
   27       16.762074   0.000000
   28       16.762074   0.000000
   29       20.877330   0.000000
   30       20.877343   0.000000
   31       22.085103   0.000000
   32       22.085103   0.000000
   33       22.111338   0.000000
   34       22.111338   0.000000
   35       24.860241   0.000000
   36       24.860269   0.000000
   37       25.105213   0.000000
   38       25.105214   0.000000
   39       25.186727   0.000000
   40       25.186727   0.000000
   41       26.917453   0.000000
   42       26.917498   0.000000
   43       28.225536   0.000000
   44       28.225536   0.000000
   45       28.315066   0.000000
   46       28.315066   0.000000
   47       29.531291   0.000000
   48       29.531291   0.000000
   49       29.559125   0.000000
   50       29.559125   0.000000
   51       30.485315   0.000000
   52       30.485339   0.000000
   53       31.133798   0.000000
   54       31.133799   0.000000
   55       32.063334   0.000000
   56       32.063369   0.000000
   57       35.711005   0.000000
   58       35.711005   0.000000
   59       35.724125   0.000000
   60       35.724126   0.000000
   61       35.731338   0.000000
   62       35.731355   0.000000
   63       36.751305   0.000000
   64       36.751305   0.000000
   65       36.751814   0.000000
   66       36.751814   0.000000
   67       37.573318   0.000000
   68       37.573319   0.000000
   69       40.350596   0.000000
   70       40.350603   0.000000
   71       42.353395   0.000000
   72       42.353395   0.000000
   73       42.370172   0.000000
   74       42.370172   0.000000
   75       43.784692   0.000000
   76       43.784697   0.000000
   77       44.161778   0.000000
   78       44.161779   0.000000
   79       44.241001   0.000000
   80       44.241001   0.000000
   81       44.445943   0.000000
   82       44.445944   0.000000
   83       44.452626   0.000000
   84       44.452627   0.000000
   85       45.922025   0.000000
   86       45.922027   0.000000
   87       48.857527   0.000000
   88       48.857528   0.000000
   89       48.871214   0.000000
   90       48.871214   0.000000
   91       49.783953   0.000000
   92       49.784021   0.000000
   93       50.460516   0.000000
   94       50.460517   0.000000
   95       50.540548   0.000000
   96       50.540548   0.000000
   97       52.143292   0.000000
   98       52.143347   0.000000
   99       52.881818   0.000000
  100       52.881819   0.000000
  101       52.892241   0.000000
  102       52.892241   0.000000
  103       54.148937   0.000000
  104       54.148944   0.000000
  105       55.559051   0.000000
  106       55.559051   0.000000
  107       55.580970   0.000000
  108       55.580970   0.000000
  109       56.712363   0.000000
  110       56.712373   0.000000
  111       57.031992   0.000000
  112       57.031992   0.000000
  113       57.037227   0.000000
  114       57.037227   0.000000
  115       58.188644   0.000000
  116       58.188645   0.000000
  117       60.766845   0.000000
  118       60.766845   0.000000
  119       60.780616   0.000000
  120       60.780616   0.000000
  121       60.936660   0.000000
  122       60.936723   0.000000
  123       61.793413   0.000000
  124       61.793418   0.000000
  125       61.961116   0.000000
  126       61.961117   0.000000
  127       61.961301   0.000000
  128       61.961301   0.000000
 
 -0.4285714E+00  0.2350408E-16  0.0000000E+00  0.2915452E-02
    1      -18.513297   1.000000
    2      -18.513297   1.000000
    3       -5.481521   1.000000
    4       -5.481520   1.000000
    5       -4.491595   1.000000
    6       -4.491595   1.000000
    7       -4.129799   1.000000
    8       -4.129799   1.000000
    9        5.329938   0.000000
   10        5.329942   0.000000
   11        7.866066   0.000000
   12        7.866091   0.000000
   13        9.038294   0.000000
   14        9.038294   0.000000
   15        9.055296   0.000000
   16        9.055296   0.000000
   17       12.557033   0.000000
   18       12.557060   0.000000
   19       13.111771   0.000000
   20       13.111771   0.000000
   21       13.132277   0.000000
   22       13.132277   0.000000
   23       15.246173   0.000000
   24       15.246174   0.000000
   25       16.673553   0.000000
   26       16.673553   0.000000
   27       16.762074   0.000000
   28       16.762074   0.000000
   29       20.877330   0.000000
   30       20.877343   0.000000
   31       22.085103   0.000000
   32       22.085103   0.000000
   33       22.111338   0.000000
   34       22.111338   0.000000
   35       24.860241   0.000000
   36       24.860269   0.000000
   37       25.105213   0.000000
   38       25.105214   0.000000
   39       25.186727   0.000000
   40       25.186727   0.000000
   41       26.917453   0.000000
   42       26.917498   0.000000
   43       28.225536   0.000000
   44       28.225536   0.000000
   45       28.315066   0.000000
   46       28.315066   0.000000
   47       29.531291   0.000000
   48       29.531291   0.000000
   49       29.559125   0.000000
   50       29.559125   0.000000
   51       30.485315   0.000000
   52       30.485339   0.000000
   53       31.133798   0.000000
   54       31.133799   0.000000
   55       32.063334   0.000000
   56       32.063369   0.000000
   57       35.711005   0.000000
   58       35.711005   0.000000
   59       35.724125   0.000000
   60       35.724126   0.000000
   61       35.731338   0.000000
   62       35.731355   0.000000
   63       36.751305   0.000000
   64       36.751305   0.000000
   65       36.751814   0.000000
   66       36.751814   0.000000
   67       37.573318   0.000000
   68       37.573319   0.000000
   69       40.350596   0.000000
   70       40.350603   0.000000
   71       42.353395   0.000000
   72       42.353395   0.000000
   73       42.370172   0.000000
   74       42.370172   0.000000
   75       43.784692   0.000000
   76       43.784697   0.000000
   77       44.161778   0.000000
   78       44.161779   0.000000
   79       44.241001   0.000000
   80       44.241001   0.000000
   81       44.445943   0.000000
   82       44.445944   0.000000
   83       44.452626   0.000000
   84       44.452627   0.000000
   85       45.922025   0.000000
   86       45.922027   0.000000
   87       48.857527   0.000000
   88       48.857528   0.000000
   89       48.871214   0.000000
   90       48.871214   0.000000
   91       49.783953   0.000000
   92       49.784021   0.000000
   93       50.460516   0.000000
   94       50.460517   0.000000
   95       50.540548   0.000000
   96       50.540548   0.000000
   97       52.143292   0.000000
   98       52.143347   0.000000
   99       52.881818   0.000000
  100       52.881819   0.000000
  101       52.892241   0.000000
  102       52.892241   0.000000
  103       54.148937   0.000000
  104       54.148944   0.000000
  105       55.559051   0.000000
  106       55.559051   0.000000
  107       55.580970   0.000000
  108       55.580970   0.000000
  109       56.712363   0.000000
  110       56.712373   0.000000
  111       57.031992   0.000000
  112       57.031992   0.000000
  113       57.037227   0.000000
  114       57.037227   0.000000
  115       58.188644   0.000000
  116       58.188645   0.000000
  117       60.766845   0.000000
  118       60.766845   0.000000
  119       60.780616   0.000000
  120       60.780616   0.000000
  121       60.936660   0.000000
  122       60.936723   0.000000
  123       61.793413   0.000000
  124       61.793418   0.000000
  125       61.961116   0.000000
  126       61.961117   0.000000
  127       61.961301   0.000000
  128       61.961301   0.000000
 
 -0.2857143E+00  0.2492125E-16  0.2775558E-16  0.2915452E-02
    1      -18.560198   1.000000
    2      -18.560198   1.000000
    3       -5.161257   1.000000
    4       -5.161257   1.000000
    5       -4.395549   1.000000
    6       -4.395549   1.000000
    7       -4.081344   1.000000
    8       -4.081344   1.000000
    9        4.619311   0.000000
   10        4.619322   0.000000
   11        7.935630   0.000000
   12        7.935638   0.000000
   13        9.403681   0.000000
   14        9.403681   0.000000
   15        9.421545   0.000000
   16        9.421545   0.000000
   17       11.637273   0.000000
   18       11.637273   0.000000
   19       11.657200   0.000000
   20       11.657200   0.000000
   21       12.762298   0.000000
   22       12.762331   0.000000
   23       17.072264   0.000000
   24       17.072270   0.000000
   25       18.080046   0.000000
   26       18.080053   0.000000
   27       18.890566   0.000000
   28       18.890566   0.000000
   29       18.949637   0.000000
   30       18.949638   0.000000
   31       19.578387   0.000000
   32       19.578387   0.000000
   33       19.634653   0.000000
   34       19.634653   0.000000
   35       22.816968   0.000000
   36       22.817029   0.000000
   37       26.325610   0.000000
   38       26.325610   0.000000
   39       26.465692   0.000000
   40       26.465692   0.000000
   41       28.194768   0.000000
   42       28.194768   0.000000
   43       28.197194   0.000000
   44       28.197194   0.000000
   45       28.240652   0.000000
   46       28.240664   0.000000
   47       30.651288   0.000000
   48       30.651289   0.000000
   49       31.475129   0.000000
   50       31.475129   0.000000
   51       31.487710   0.000000
   52       31.487710   0.000000
   53       31.533192   0.000000
   54       31.533203   0.000000
   55       35.022386   0.000000
   56       35.022446   0.000000
   57       36.698659   0.000000
   58       36.698659   0.000000
   59       36.711313   0.000000
   60       36.711313   0.000000
   61       38.022875   0.000000
   62       38.022882   0.000000
   63       38.047705   0.000000
   64       38.047705   0.000000
   65       38.056960   0.000000
   66       38.056965   0.000000
   67       39.106668   0.000000
   68       39.106669   0.000000
   69       39.447210   0.000000
   70       39.447210   0.000000
   71       39.496741   0.000000
   72       39.496741   0.000000
   73       40.102713   0.000000
   74       40.102716   0.000000
   75       40.607428   0.000000
   76       40.607432   0.000000
   77       42.588831   0.000000
   78       42.588831   0.000000
   79       42.604084   0.000000
   80       42.604084   0.000000
   81       44.497523   0.000000
   82       44.497523   0.000000
   83       44.544718   0.000000
   84       44.544718   0.000000
   85       46.007212   0.000000
   86       46.007218   0.000000
   87       47.183724   0.000000
   88       47.183725   0.000000
   89       47.191238   0.000000
   90       47.191239   0.000000
   91       48.329891   0.000000
   92       48.329978   0.000000
   93       50.632931   0.000000
   94       50.632931   0.000000
   95       50.643129   0.000000
   96       50.643129   0.000000
   97       51.888264   0.000000
   98       51.888267   0.000000
   99       52.536519   0.000000
  100       52.536519   0.000000
  101       52.541412   0.000000
  102       52.541412   0.000000
  103       53.298644   0.000000
  104       53.298644   0.000000
  105       54.956226   0.000000
  106       54.956283   0.000000
  107       55.378886   0.000000
  108       55.378887   0.000000
  109       55.461360   0.000000
  110       55.461360   0.000000
  111       57.352784   0.000000
  112       57.352785   0.000000
  113       57.363786   0.000000
  114       57.363786   0.000000
  115       57.407136   0.000000
  116       57.407179   0.000000
  117       57.620132   0.000000
  118       57.620133   0.000000
  119       57.630833   0.000000
  120       57.630833   0.000000
  121       58.045450   0.000000
  122       58.045462   0.000000
  123       59.375259   0.000000
  124       59.375259   0.000000
  125       59.376138   0.000000
  126       59.376138   0.000000
  127       59.418936   0.000000
  128       59.418941   0.000000
 
 -0.1428571E+00  0.1246062E-16 -0.1387779E-16  0.2915452E-02
    1      -18.617502   1.000000
    2      -18.617502   1.000000
    3       -4.800409   1.000000
    4       -4.800409   1.000000
    5       -4.169187   1.000000
    6       -4.169187   1.000000
    7       -4.019210   1.000000
    8       -4.019210   1.000000
    9        3.532406   0.000000
   10        3.532419   0.000000
   11        8.689449   0.000000
   12        8.689451   0.000000
   13        9.536577   0.000000
   14        9.536577   0.000000
   15        9.550438   0.000000
   16        9.550438   0.000000
   17       11.271681   0.000000
   18       11.271682   0.000000
   19       11.279644   0.000000
   20       11.279644   0.000000
   21       13.672248   0.000000
   22       13.672265   0.000000
   23       14.639763   0.000000
   24       14.639783   0.000000
   25       16.465211   0.000000
   26       16.465211   0.000000
   27       16.490498   0.000000
   28       16.490498   0.000000
   29       19.062321   0.000000
   30       19.062385   0.000000
   31       21.809489   0.000000
   32       21.809496   0.000000
   33       22.732099   0.000000
   34       22.732099   0.000000
   35       22.863867   0.000000
   36       22.863867   0.000000
   37       26.259677   0.000000
   38       26.259677   0.000000
   39       26.370504   0.000000
   40       26.370504   0.000000
   41       28.030901   0.000000
   42       28.030906   0.000000
   43       28.130969   0.000000
   44       28.130969   0.000000
   45       28.154182   0.000000
   46       28.154183   0.000000
   47       30.181025   0.000000
   48       30.181026   0.000000
   49       32.869215   0.000000
   50       32.869219   0.000000
   51       32.900273   0.000000
   52       32.900273   0.000000
   53       32.930120   0.000000
   54       32.930157   0.000000
   55       35.800704   0.000000
   56       35.800704   0.000000
   57       35.831243   0.000000
   58       35.831243   0.000000
   59       36.239125   0.000000
   60       36.239129   0.000000
   61       38.850119   0.000000
   62       38.850147   0.000000
   63       39.307124   0.000000
   64       39.307125   0.000000
   65       39.321139   0.000000
   66       39.321139   0.000000
   67       40.834131   0.000000
   68       40.834133   0.000000
   69       41.059315   0.000000
   70       41.059315   0.000000
   71       41.073230   0.000000
   72       41.073230   0.000000
   73       41.663868   0.000000
   74       41.663869   0.000000
   75       42.120961   0.000000
   76       42.120962   0.000000
   77       42.164975   0.000000
   78       42.164975   0.000000
   79       43.879185   0.000000
   80       43.879185   0.000000
   81       43.914354   0.000000
   82       43.914354   0.000000
   83       44.465859   0.000000
   84       44.465879   0.000000
   85       45.324738   0.000000
   86       45.324774   0.000000
   87       46.765278   0.000000
   88       46.765279   0.000000
   89       46.767145   0.000000
   90       46.767145   0.000000
   91       47.084273   0.000000
   92       47.084273   0.000000
   93       47.090516   0.000000
   94       47.090516   0.000000
   95       47.724028   0.000000
   96       47.724058   0.000000
   97       48.715848   0.000000
   98       48.715925   0.000000
   99       48.855593   0.000000
  100       48.855594   0.000000
  101       49.854739   0.000000
  102       49.854739   0.000000
  103       49.857391   0.000000
  104       49.857392   0.000000
  105       50.125017   0.000000
  106       50.125023   0.000000
  107       52.553461   0.000000
  108       52.553462   0.000000
  109       52.553652   0.000000
  110       52.553652   0.000000
  111       54.199658   0.000000
  112       54.199674   0.000000
  113       54.203460   0.000000
  114       54.203461   0.000000
  115       54.203724   0.000000
  116       54.203731   0.000000
  117       58.606751   0.000000
  118       58.606763   0.000000
  119       59.916845   0.000000
  120       59.916846   0.000000
  121       59.965985   0.000000