   1   1   0   0
  0.5764366E+02  0.4335996E-09  0.4335996E-09  0.4335996E-09  0.1000000E-15
  1.000000000000000E-004
  CAR 
 Xe_FCC                                  
     22.09537220    -18.83269205  301     -3.39940115      1.00000000
    -18.833  0.0000E+00  0.0000E+00
    -18.696  0.0000E+00  0.0000E+00
    -18.560  0.0000E+00  0.0000E+00
    -18.423  0.0000E+00  0.0000E+00
    -18.287  0.0000E+00  0.0000E+00
    -18.151  0.0000E+00  0.0000E+00
    -18.014  0.0000E+00  0.0000E+00
    -17.878  0.0000E+00  0.0000E+00
    -17.741  0.0000E+00  0.0000E+00
    -17.605  0.0000E+00  0.0000E+00
    -17.468  0.0000E+00  0.0000E+00
    -17.332  0.0000E+00  0.0000E+00
    -17.196  0.9244E-11  0.1261E-11
    -17.059  0.4881E-03  0.6659E-04
    -16.923  0.3329E+00  0.4548E-01
    -16.786  0.2610E+01  0.4016E+00
    -16.650  0.9233E+01  0.1661E+01
    -16.513  0.2483E+01  0.2000E+01
    -16.377  0.2657E-03  0.2000E+01
    -16.241  0.6505E-13  0.2000E+01
    -16.104  0.0000E+00  0.2000E+01
    -15.968  0.0000E+00  0.2000E+01
    -15.831  0.0000E+00  0.2000E+01
    -15.695  0.0000E+00  0.2000E+01
    -15.558  0.0000E+00  0.2000E+01
    -15.422  0.0000E+00  0.2000E+01
    -15.286  0.0000E+00  0.2000E+01
    -15.149  0.0000E+00  0.2000E+01
    -15.013  0.0000E+00  0.2000E+01
    -14.876  0.0000E+00  0.2000E+01
    -14.740  0.0000E+00  0.2000E+01
    -14.603  0.0000E+00  0.2000E+01
    -14.467  0.0000E+00  0.2000E+01
    -14.331  0.0000E+00  0.2000E+01
    -14.194  0.0000E+00  0.2000E+01
    -14.058  0.0000E+00  0.2000E+01
    -13.921  0.0000E+00  0.2000E+01
    -13.785  0.0000E+00  0.2000E+01
    -13.648  0.0000E+00  0.2000E+01
    -13.512  0.0000E+00  0.2000E+01
    -13.376  0.0000E+00  0.2000E+01
    -13.239  0.0000E+00  0.2000E+01
    -13.103  0.0000E+00  0.2000E+01
    -12.966  0.0000E+00  0.2000E+01
    -12.830  0.0000E+00  0.2000E+01
    -12.693  0.0000E+00  0.2000E+01
    -12.557  0.0000E+00  0.2000E+01
    -12.421  0.0000E+00  0.2000E+01
    -12.284  0.0000E+00  0.2000E+01
    -12.148  0.0000E+00  0.2000E+01
    -12.011  0.0000E+00  0.2000E+01
    -11.875  0.0000E+00  0.2000E+01
    -11.738  0.0000E+00  0.2000E+01
    -11.602  0.0000E+00  0.2000E+01
    -11.466  0.0000E+00  0.2000E+01
    -11.329  0.0000E+00  0.2000E+01
    -11.193  0.0000E+00  0.2000E+01
    -11.056  0.0000E+00  0.2000E+01
    -10.920  0.0000E+00  0.2000E+01
    -10.784  0.0000E+00  0.2000E+01
    -10.647  0.0000E+00  0.2000E+01
    -10.511  0.0000E+00  0.2000E+01
    -10.374  0.0000E+00  0.2000E+01
    -10.238  0.0000E+00  0.2000E+01
    -10.101  0.0000E+00  0.2000E+01
     -9.965  0.0000E+00  0.2000E+01
     -9.829  0.0000E+00  0.2000E+01
     -9.692  0.0000E+00  0.2000E+01
     -9.556  0.0000E+00  0.2000E+01
     -9.419  0.0000E+00  0.2000E+01
     -9.283  0.0000E+00  0.2000E+01
     -9.146  0.0000E+00  0.2000E+01
     -9.010  0.0000E+00  0.2000E+01
     -8.874  0.0000E+00  0.2000E+01
     -8.737  0.0000E+00  0.2000E+01
     -8.601  0.0000E+00  0.2000E+01
     -8.464  0.0000E+00  0.2000E+01
     -8.328  0.0000E+00  0.2000E+01
     -8.191  0.0000E+00  0.2000E+01
     -8.055  0.0000E+00  0.2000E+01
     -7.919  0.0000E+00  0.2000E+01
     -7.782  0.0000E+00  0.2000E+01
     -7.646  0.0000E+00  0.2000E+01
     -7.509  0.0000E+00  0.2000E+01
     -7.373  0.0000E+00  0.2000E+01
     -7.236  0.0000E+00  0.2000E+01
     -7.100  0.0000E+00  0.2000E+01
     -6.964  0.0000E+00  0.2000E+01
     -6.827  0.0000E+00  0.2000E+01
     -6.691  0.0000E+00  0.2000E+01
     -6.554  0.0000E+00  0.2000E+01
     -6.418  0.0000E+00  0.2000E+01
     -6.281  0.5195E-09  0.2000E+01
     -6.145  0.5792E-02  0.2001E+01
     -6.009  0.7051E+00  0.2097E+01
     -5.872  0.7211E+01  0.3081E+01
     -5.736  0.3198E+01  0.3517E+01
     -5.599  0.1547E+01  0.3728E+01
     -5.463  0.9518E+00  0.3858E+01
     -5.326  0.1063E+00  0.3872E+01
     -5.190  0.7901E+00  0.3980E+01
     -5.054  0.8859E-01  0.3992E+01
     -4.917  0.1199E+01  0.4156E+01
     -4.781  0.3980E+01  0.4699E+01
     -4.644  0.4551E+01  0.5320E+01
     -4.508  0.1314E+01  0.5499E+01
     -4.371  0.3637E+01  0.5995E+01
     -4.235  0.4644E+01  0.6629E+01
     -4.099  0.2530E+01  0.6974E+01
     -3.962  0.4477E+01  0.7585E+01
     -3.826  0.1987E+01  0.7856E+01
     -3.689  0.8673E+00  0.7974E+01
     -3.553  0.1893E+00  0.8000E+01
     -3.416  0.1237E-03  0.8000E+01
     -3.280  0.2032E-12  0.8000E+01
     -3.144  0.0000E+00  0.8000E+01
     -3.007  0.0000E+00  0.8000E+01
     -2.871  0.0000E+00  0.8000E+01
     -2.734  0.0000E+00  0.8000E+01
     -2.598  0.0000E+00  0.8000E+01
     -2.461  0.0000E+00  0.8000E+01
     -2.325  0.0000E+00  0.8000E+01
     -2.189  0.0000E+00  0.8000E+01
     -2.052  0.0000E+00  0.8000E+01
     -1.916  0.0000E+00  0.8000E+01
     -1.779  0.0000E+00  0.8000E+01
     -1.643  0.0000E+00  0.8000E+01
     -1.506  0.0000E+00  0.8000E+01
     -1.370  0.0000E+00  0.8000E+01
     -1.234  0.0000E+00  0.8000E+01
     -1.097  0.0000E+00  0.8000E+01
     -0.961  0.0000E+00  0.8000E+01
     -0.824  0.0000E+00  0.8000E+01
     -0.688  0.0000E+00  0.8000E+01
     -0.551  0.0000E+00  0.8000E+01
     -0.415  0.0000E+00  0.8000E+01
     -0.279  0.0000E+00  0.8000E+01
     -0.142  0.0000E+00  0.8000E+01
     -0.006  0.0000E+00  0.8000E+01
      0.131  0.0000E+00  0.8000E+01
      0.267  0.0000E+00  0.8000E+01
      0.403  0.0000E+00  0.8000E+01
      0.540  0.0000E+00  0.8000E+01
      0.676  0.0000E+00  0.8000E+01
      0.813  0.0000E+00  0.8000E+01
      0.949  0.0000E+00  0.8000E+01
      1.086  0.0000E+00  0.8000E+01
      1.222  0.0000E+00  0.8000E+01
      1.358  0.0000E+00  0.8000E+01
      1.495  0.0000E+00  0.8000E+01
      1.631  0.0000E+00  0.8000E+01
      1.768  0.0000E+00  0.8000E+01
      1.904  0.0000E+00  0.8000E+01
      2.041  0.0000E+00  0.8000E+01
      2.177  0.0000E+00  0.8000E+01
      2.313  0.0000E+00  0.8000E+01
      2.450  0.0000E+00  0.8000E+01
      2.586  0.1030E-10  0.8000E+01
      2.723  0.5022E-03  0.8000E+01
      2.859  0.6238E-01  0.8009E+01
      2.996  0.5307E-02  0.8009E+01
      3.132  0.4440E-08  0.8009E+01
      3.268  0.4369E-13  0.8009E+01
      3.405  0.1102E-03  0.8009E+01
      3.541  0.3051E+00  0.8051E+01
      3.678  0.1942E+00  0.8077E+01
      3.814  0.5466E+00  0.8152E+01
      3.951  0.4500E-01  0.8158E+01
      4.087  0.1106E-04  0.8158E+01
      4.223  0.6782E+00  0.8251E+01
      4.360  0.2188E+01  0.8549E+01
      4.496  0.1234E+01  0.8717E+01
      4.633  0.1836E+01  0.8968E+01
      4.769  0.5508E+00  0.9043E+01
      4.906  0.2287E+01  0.9355E+01
      5.042  0.2014E+01  0.9630E+01
      5.178  0.3009E+01  0.1004E+02
      5.315  0.1918E+01  0.1030E+02
      5.451  0.3533E-01  0.1031E+02
      5.588  0.5707E+00  0.1038E+02
      5.724  0.2528E+00  0.1042E+02
      5.861  0.2784E+01  0.1080E+02
      5.997  0.3711E+01  0.1131E+02
      6.133  0.2229E+01  0.1161E+02
      6.270  0.9527E+00  0.1174E+02
      6.406  0.2035E+01  0.1202E+02
      6.543  0.1459E+00  0.1204E+02
      6.679  0.1279E+00  0.1205E+02
      6.816  0.1593E+01  0.1227E+02
      6.952  0.2171E+01  0.1257E+02
      7.088  0.3164E+01  0.1300E+02
      7.225  0.6583E+00  0.1309E+02
      7.361  0.1910E+01  0.1335E+02
      7.498  0.1459E+01  0.1355E+02
      7.634  0.2807E+01  0.1393E+02
      7.771  0.2883E+01  0.1433E+02
      7.907  0.1130E+01  0.1448E+02
      8.043  0.1759E+01  0.1472E+02
      8.180  0.2948E+01  0.1512E+02
      8.316  0.1905E+01  0.1538E+02
      8.453  0.3187E-01  0.1539E+02
      8.589  0.1166E+01  0.1555E+02
      8.726  0.6624E+00  0.1564E+02
      8.862  0.1437E+01  0.1583E+02
      8.998  0.6148E-02  0.1583E+02
      9.135  0.1927E+00  0.1586E+02
      9.271  0.9202E+00  0.1598E+02
      9.408  0.2266E+01  0.1629E+02
      9.544  0.1195E+01  0.1646E+02
      9.681  0.1027E+01  0.1660E+02
      9.817  0.3053E+01  0.1701E+02
      9.953  0.6594E-01  0.1702E+02
     10.090  0.1657E+01  0.1725E+02
     10.226  0.7029E+00  0.1734E+02
     10.363  0.1769E+01  0.1759E+02
     10.499  0.2116E+01  0.1787E+02
     10.636  0.1067E+01  0.1802E+02
     10.772  0.2323E+01  0.1834E+02
     10.908  0.6981E+00  0.1843E+02
     11.045  0.1862E+01  0.1869E+02
     11.181  0.1857E-01  0.1869E+02
     11.318  0.2718E-07  0.1869E+02
     11.454  0.7718E-01  0.1870E+02
     11.591  0.1576E+01  0.1891E+02
     11.727  0.1589E+01  0.1913E+02
     11.863  0.2690E+01  0.1950E+02
     12.000  0.3231E+01  0.1994E+02
     12.136  0.3905E+01  0.2047E+02
     12.273  0.8567E+00  0.2059E+02
     12.409  0.3088E+01  0.2101E+02
     12.545  0.1974E+01  0.2128E+02
     12.682  0.8274E+00  0.2139E+02
     12.818  0.2624E+01  0.2175E+02
     12.955  0.1907E+01  0.2201E+02
     13.091  0.1302E+01  0.2219E+02
     13.228  0.4234E+01  0.2277E+02
     13.364  0.1875E+00  0.2279E+02
     13.500  0.6315E+00  0.2288E+02
     13.637  0.1597E+01  0.2309E+02
     13.773  0.2296E+01  0.2341E+02
     13.910  0.3458E+01  0.2388E+02
     14.046  0.3354E+00  0.2393E+02
     14.183  0.8266E-01  0.2394E+02
     14.319  0.2335E+01  0.2426E+02
     14.455  0.1803E+01  0.2450E+02
     14.592  0.2321E+01  0.2482E+02
     14.728  0.1301E+01  0.2500E+02
     14.865  0.1836E+00  0.2502E+02
     15.001  0.1609E+01  0.2524E+02
     15.138  0.1334E+01  0.2542E+02
     15.274  0.8028E-01  0.2543E+02
     15.410  0.1884E+01  0.2569E+02
     15.547  0.3221E+01  0.2613E+02
     15.683  0.3265E+01  0.2657E+02
     15.820  0.3091E+01  0.2700E+02
     15.956  0.1696E+01  0.2723E+02
     16.093  0.1076E+01  0.2737E+02
     16.229  0.4703E+01  0.2802E+02
     16.365  0.3655E+01  0.2851E+02
     16.502  0.2803E+01  0.2890E+02
     16.638  0.1880E+01  0.2915E+02
     16.775  0.5774E+00  0.2923E+02
     16.911  0.3894E+01  0.2976E+02
     17.048  0.2208E+01  0.3007E+02
     17.184  0.1058E+01  0.3021E+02
     17.320  0.3528E+01  0.3069E+02
     17.457  0.1462E+00  0.3071E+02
     17.593  0.1896E+01  0.3097E+02
     17.730  0.3780E+01  0.3148E+02
     17.866  0.1456E+01  0.3168E+02
     18.003  0.6930E-03  0.3168E+02
     18.139  0.3799E-02  0.3168E+02
     18.275  0.2557E+00  0.3172E+02
     18.412  0.1323E-01  0.3172E+02
     18.548  0.6214E-08  0.3172E+02
     18.685  0.1034E-01  0.3172E+02
     18.821  0.8140E+00  0.3183E+02
     18.958  0.1148E+01  0.3199E+02
     19.094  0.5206E-02  0.3199E+02
     19.230  0.1911E-09  0.3199E+02
     19.367  0.0000E+00  0.3199E+02
     19.503  0.0000E+00  0.3199E+02
     19.640  0.0000E+00  0.3199E+02
     19.776  0.0000E+00  0.3199E+02
     19.913  0.0000E+00  0.3199E+02
     20.049  0.1070E-07  0.3199E+02
     20.185  0.7105E-02  0.3199E+02
     20.322  0.6076E-01  0.3200E+02
     20.458  0.3188E-03  0.3200E+02
     20.595  0.3668E-11  0.3200E+02
     20.731  0.0000E+00  0.3200E+02
     20.868  0.0000E+00  0.3200E+02
     21.004  0.0000E+00  0.3200E+02
     21.140  0.0000E+00  0.3200E+02
     21.277  0.0000E+00  0.3200E+02
     21.413  0.0000E+00  0.3200E+02
     21.550  0.0000E+00  0.3200E+02
     21.686  0.0000E+00  0.3200E+02
     21.823  0.0000E+00  0.3200E+02
     21.959  0.0000E+00  0.3200E+02
     22.095  0.0000E+00  0.3200E+02
