    1    1    1    1
  0.5764366E+02  0.4335996E-09  0.4335996E-09  0.4335996E-09  0.1000000E-15
  1.000000000000000E-004
  CAR 
 Xe_FCC                                  
      8    256     32
 
  0.5000000E+00  0.5000000E+00  0.5000000E+00  0.0000000E+00
    1      -16.722164   1.000000
    2      -16.722153   1.000000
    3       -6.072940   1.000000
    4       -6.072930   1.000000
    5       -4.553275   1.000000
    6       -4.553270   1.000000
    7       -3.888411   1.000000
    8       -3.888404   1.000000
    9        4.262762   0.000000
   10        4.262766   0.000000
   11        6.981187   0.000000
   12        6.981196   0.000000
   13        7.042208   0.000000
   14        7.042211   0.000000
   15        7.592533   0.000000
   16        7.592535   0.000000
   17       10.219775   0.000000
   18       10.219779   0.000000
   19       11.642693   0.000000
   20       11.642701   0.000000
   21       11.693060   0.000000
   22       11.693066   0.000000
   23       13.492996   0.000000
   24       13.492998   0.000000
   25       13.588263   0.000000
   26       13.588265   0.000000
   27       13.821864   0.000000
   28       13.821868   0.000000
   29       18.216834   0.000000
   30       18.216847   0.000000
   31       18.746071   0.000000
   32       18.760292   0.000000
 
  0.4750000E+00  0.4750000E+00  0.4750000E+00  0.0000000E+00
    1      -16.723414   1.000000
    2      -16.723403   1.000000
    3       -6.065510   1.000000
    4       -6.065499   1.000000
    5       -4.550677   1.000000
    6       -4.550672   1.000000
    7       -3.887074   1.000000
    8       -3.887066   1.000000
    9        4.264747   0.000000
   10        4.264751   0.000000
   11        6.987828   0.000000
   12        6.987837   0.000000
   13        7.048907   0.000000
   14        7.048909   0.000000
   15        7.575910   0.000000
   16        7.575913   0.000000
   17       10.197712   0.000000
   18       10.197716   0.000000
   19       11.560661   0.000000
   20       11.560669   0.000000
   21       11.611936   0.000000
   22       11.611942   0.000000
   23       13.587502   0.000000
   24       13.587504   0.000000
   25       13.684434   0.000000
   26       13.684436   0.000000
   27       13.890816   0.000000
   28       13.890819   0.000000
   29       18.067371   0.000000
   30       18.067382   0.000000
   31       18.674850   0.000000
   32       18.689436   0.000000
 
  0.4500000E+00  0.4500000E+00  0.4500000E+00  0.0000000E+00
    1      -16.728280   1.000000
    2      -16.728269   1.000000
    3       -6.043474   1.000000
    4       -6.043464   1.000000
    5       -4.542946   1.000000
    6       -4.542941   1.000000
    7       -3.883182   1.000000
    8       -3.883174   1.000000
    9        4.270199   0.000000
   10        4.270203   0.000000
   11        7.007622   0.000000
   12        7.007631   0.000000
   13        7.068870   0.000000
   14        7.068872   0.000000
   15        7.525704   0.000000
   16        7.525707   0.000000
   17       10.140866   0.000000
   18       10.140869   0.000000
   19       11.353256   0.000000
   20       11.353263   0.000000
   21       11.406137   0.000000
   22       11.406142   0.000000
   23       13.831621   0.000000
   24       13.831623   0.000000
   25       13.934505   0.000000
   26       13.934507   0.000000
   27       14.088243   0.000000
   28       14.088247   0.000000
   29       17.693246   0.000000
   30       17.693255   0.000000
   31       18.463631   0.000000
   32       18.478920   0.000000
 
  0.4250000E+00  0.4250000E+00  0.4250000E+00  0.0000000E+00
    1      -16.736228   1.000000
    2      -16.736216   1.000000
    3       -6.007357   1.000000
    4       -6.007346   1.000000
    5       -4.529954   1.000000
    6       -4.529949   1.000000
    7       -3.876784   1.000000
    8       -3.876776   1.000000
    9        4.277837   0.000000
   10        4.277841   0.000000
   11        7.040204   0.000000
   12        7.040213   0.000000
   13        7.101710   0.000000
   14        7.101713   0.000000
   15        7.441932   0.000000
   16        7.441935   0.000000
   17       10.071228   0.000000
   18       10.071232   0.000000
   19       11.083515   0.000000
   20       11.083522   0.000000
   21       11.137557   0.000000
   22       11.137561   0.000000
   23       14.164027   0.000000
   24       14.164029   0.000000
   25       14.276567   0.000000
   26       14.276569   0.000000
   27       14.390175   0.000000
   28       14.390178   0.000000
   29       17.219372   0.000000
   30       17.219379   0.000000
   31       18.157693   0.000000
   32       18.173704   0.000000
 
  0.4000000E+00  0.4000000E+00  0.4000000E+00  0.0000000E+00
    1      -16.746970   1.000000
    2      -16.746958   1.000000
    3       -5.958064   1.000000
    4       -5.958054   1.000000
    5       -4.511532   1.000000
    6       -4.511527   1.000000
    7       -3.868012   1.000000
    8       -3.868005   1.000000
    9        4.285358   0.000000
   10        4.285363   0.000000
   11        7.084910   0.000000
   12        7.084919   0.000000
   13        7.146586   0.000000
   14        7.146588   0.000000
   15        7.327010   0.000000
   16        7.327013   0.000000
   17       10.011827   0.000000
   18       10.011832   0.000000
   19       10.791666   0.000000
   20       10.791672   0.000000
   21       10.846250   0.000000
   22       10.846254   0.000000
   23       14.548513   0.000000
   24       14.548515   0.000000
   25       14.669923   0.000000
   26       14.669925   0.000000
   27       14.763715   0.000000
   28       14.763717   0.000000
   29       16.711858   0.000000
   30       16.711864   0.000000
   31       17.792909   0.000000
   32       17.808054   0.000000
 
  0.3750000E+00  0.3750000E+00  0.3750000E+00  0.0000000E+00
    1      -16.760264   1.000000
    2      -16.760253   1.000000
    3       -5.896918   1.000000
    4       -5.896908   1.000000
    5       -4.487435   1.000000
    6       -4.487430   1.000000
    7       -3.857049   1.000000
    8       -3.857042   1.000000
    9        4.289140   0.000000
   10        4.289145   0.000000
   11        7.140696   0.000000
   12        7.140705   0.000000
   13        7.179947   0.000000
   14        7.179950   0.000000
   15        7.209906   0.000000
   16        7.209909   0.000000
   17        9.979010   0.000000
   18        9.979014   0.000000
   19       10.498605   0.000000
   20       10.498611   0.000000
   21       10.553225   0.000000
   22       10.553229   0.000000
   23       14.964196   0.000000
   24       14.964198   0.000000
   25       15.091766   0.000000
   26       15.091768   0.000000
   27       15.162931   0.000000
   28       15.162933   0.000000
   29       16.220333   0.000000
   30       16.220338   0.000000
   31       17.396022   0.000000
   32       17.411358   0.000000
 
  0.3500000E+00  0.3500000E+00  0.3500000E+00  0.0000000E+00
    1      -16.775802   1.000000
    2      -16.775791   1.000000
    3       -5.825598   1.000000
    4       -5.825588   1.000000
    5       -4.457334   1.000000
    6       -4.457330   1.000000
    7       -3.844136   1.000000
    8       -3.844128   1.000000
    9        4.284153   0.000000
   10        4.284158   0.000000
   11        7.031302   0.000000
   12        7.031305   0.000000
   13        7.206000   0.000000
   14        7.206009   0.000000
   15        7.270824   0.000000
   16        7.270827   0.000000
   17        9.980574   0.000000
   18        9.980579   0.000000
   19       10.216114   0.000000
   20       10.216120   0.000000
   21       10.270197   0.000000
   22       10.270201   0.000000
   23       15.290783   0.000000
   24       15.290785   0.000000
   25       15.458254   0.000000
   26       15.458257   0.000000
   27       15.524543   0.000000
   28       15.524545   0.000000
   29       15.977411   0.000000
   30       15.977413   0.000000
   31       16.986397   0.000000
   32       17.000085   0.000000
 
  0.3250000E+00  0.3250000E+00  0.3250000E+00  0.0000000E+00
    1      -16.793024   1.000000
    2      -16.793012   1.000000
    3       -5.746186   1.000000
    4       -5.746177   1.000000
    5       -4.420812   1.000000
    6       -4.420807   1.000000
    7       -3.829544   1.000000
    8       -3.829536   1.000000
    9        4.263973   0.000000
   10        4.263977   0.000000
   11        6.878822   0.000000
   12        6.878825   0.000000
   13        7.278540   0.000000
   14        7.278550   0.000000
   15        7.344314   0.000000
   16        7.344317   0.000000
   17        9.948052   0.000000
   18        9.948057   0.000000
   19       10.004964   0.000000
   20       10.004968   0.000000
   21       10.021903   0.000000
   22       10.021908   0.000000
   23       14.948845   0.000000
   24       14.948849   0.000000
   25       15.854860   0.000000
   26       15.854862   0.000000
   27       15.924662   0.000000
   28       15.924665   0.000000
   29       16.305557   0.000000
   30       16.305558   0.000000
   31       16.616045   0.000000
   32       16.628800   0.000000
 
  0.3000000E+00  0.3000000E+00  0.3000000E+00  0.0000000E+00
    1      -16.811622   1.000000
    2      -16.811611   1.000000
    3       -5.661116   1.000000
    4       -5.661106   1.000000
    5       -4.377408   1.000000
    6       -4.377403   1.000000
    7       -3.813612   1.000000
    8       -3.813604   1.000000
    9        4.221271   0.000000
   10        4.221276   0.000000
   11        6.743781   0.000000
   12        6.743784   0.000000
   13        7.354915   0.000000
   14        7.354924   0.000000
   15        7.422030   0.000000
   16        7.422033   0.000000
   17        9.709517   0.000000
   18        9.709522   0.000000
   19        9.764039   0.000000
   20        9.764042   0.000000
   21       10.092180   0.000000
   22       10.092185   0.000000
   23       14.455017   0.000000
   24       14.455020   0.000000
   25       15.964362   0.000000
   26       15.964363   0.000000
   27       15.973253   0.000000
   28       15.973257   0.000000
   29       16.498108   0.000000
   30       16.498110   0.000000
   31       16.627304   0.000000
   32       16.627305   0.000000
 
  0.2750000E+00  0.2750000E+00  0.2750000E+00  0.0000000E+00
    1      -16.831094   1.000000
    2      -16.831083   1.000000
    3       -5.573146   1.000000
    4       -5.573137   1.000000
    5       -4.326670   1.000000
    6       -4.326666   1.000000
    7       -3.796696   1.000000
    8       -3.796689   1.000000
    9        4.149645   0.000000
   10        4.149650   0.000000
   11        6.641226   0.000000
   12        6.641229   0.000000
   13        7.430299   0.000000
   14        7.430309   0.000000
   15        7.498814   0.000000
   16        7.498817   0.000000
   17        9.500472   0.000000
   18        9.500477   0.000000
   19        9.554099   0.000000
   20        9.554102   0.000000
   21       10.194388   0.000000
   22       10.194393   0.000000
   23       13.953145   0.000000
   24       13.953147   0.000000
   25       15.604897   0.000000
   26       15.604897   0.000000
   27       15.616850   0.000000
   28       15.616853   0.000000
   29       16.913024   0.000000
   30       16.913026   0.000000
   31       17.022710   0.000000
   32       17.022711   0.000000
 
  0.2500000E+00  0.2500000E+00  0.2500000E+00  0.0000000E+00
    1      -16.850694   1.000000
    2      -16.850683   1.000000
    3       -5.485163   1.000000
    4       -5.485155   1.000000
    5       -4.268299   1.000000
    6       -4.268295   1.000000
    7       -3.779195   1.000000
    8       -3.779188   1.000000
    9        4.046046   0.000000
   10        4.046051   0.000000
   11        6.581581   0.000000
   12        6.581584   0.000000
   13        7.498023   0.000000
   14        7.498033   0.000000
   15        7.567508   0.000000
   16        7.567512   0.000000
   17        9.330591   0.000000
   18        9.330596   0.000000
   19        9.382793   0.000000
   20        9.382797   0.000000
   21       10.322255   0.000000
   22       10.322260   0.000000
   23       13.463583   0.000000
   24       13.463586   0.000000
   25       15.195648   0.000000
   26       15.195648   0.000000
   27       15.210694   0.000000
   28       15.210697   0.000000
   29       17.373343   0.000000
   30       17.373345   0.000000
   31       17.472133   0.000000
   32       17.472135   0.000000
 
  0.2250000E+00  0.2250000E+00  0.2250000E+00  0.0000000E+00
    1      -16.870319   1.000000
    2      -16.870308   1.000000
    3       -5.400144   1.000000
    4       -5.400136   1.000000
    5       -4.202404   1.000000
    6       -4.202399   1.000000
    7       -3.761534   1.000000
    8       -3.761527   1.000000
    9        3.912402   0.000000
   10        3.912407   0.000000
   11        6.568799   0.000000
   12        6.568802   0.000000
   13        7.549835   0.000000
   14        7.549845   0.000000
   15        7.619060   0.000000
   16        7.619064   0.000000
   17        9.209233   0.000000
   18        9.209237   0.000000
   19        9.258646   0.000000
   20        9.258650   0.000000
   21       10.470029   0.000000
   22       10.470034   0.000000
   23       12.994960   0.000000
   24       12.994962   0.000000
   25       14.787415   0.000000
   26       14.787415   0.000000
   27       14.804202   0.000000
   28       14.804204   0.000000
   29       17.559287   0.000000
   30       17.559291   0.000000
   31       17.859043   0.000000
   32       17.872906   0.000000
 
  0.2000000E+00  0.2000000E+00  0.2000000E+00  0.0000000E+00
    1      -16.889104   1.000000
    2      -16.889093   1.000000
    3       -5.320658   1.000000
    4       -5.320651   1.000000
    5       -4.129688   1.000000
    6       -4.129683   1.000000
    7       -3.744139   1.000000
    8       -3.744132   1.000000
    9        3.755817   0.000000
   10        3.755823   0.000000
   11        6.600678   0.000000
   12        6.600681   0.000000
   13        7.577808   0.000000
   14        7.577817   0.000000
   15        7.644708   0.000000
   16        7.644713   0.000000
   17        9.144781   0.000000
   18        9.144784   0.000000
   19        9.189229   0.000000
   20        9.189232   0.000000
   21       10.629244   0.000000
   22       10.629249   0.000000
   23       12.557279   0.000000
   24       12.557281   0.000000
   25       14.390036   0.000000
   26       14.390036   0.000000
   27       14.408014   0.000000
   28       14.408016   0.000000
   29       17.132907   0.000000
   30       17.132912   0.000000
   31       18.298285   0.000000
   32       18.342140   0.000000
 
  0.1750000E+00  0.1750000E+00  0.1750000E+00  0.0000000E+00
    1      -16.907061   1.000000
    2      -16.907051   1.000000
    3       -5.248872   1.000000
    4       -5.248865   1.000000
    5       -4.051813   1.000000
    6       -4.051808   1.000000
    7       -3.727476   1.000000
    8       -3.727468   1.000000
    9        3.586151   0.000000
   10        3.586156   0.000000
   11        6.670909   0.000000
   12        6.670912   0.000000
   13        7.578034   0.000000
   14        7.578043   0.000000
   15        7.640478   0.000000
   16        7.640484   0.000000
   17        9.140019   0.000000
   18        9.140022   0.000000
   19        9.177277   0.000000
   20        9.177280   0.000000
   21       10.782801   0.000000
   22       10.782807   0.000000
   23       12.168183   0.000000
   24       12.168185   0.000000
   25       14.008327   0.000000
   26       14.008328   0.000000
   27       14.027246   0.000000
   28       14.027248   0.000000
   29       16.675632   0.000000
   30       16.675636   0.000000
   31       18.719470   0.000000
   32       18.758778   0.000000
 
  0.1500000E+00  0.1500000E+00  0.1500000E+00  0.0000000E+00
    1      -16.923394   1.000000
    2      -16.923383   1.000000
    3       -5.186169   1.000000
    4       -5.186162   1.000000
    5       -3.971402   1.000000
    6       -3.971396   1.000000
    7       -3.711952   1.000000
    8       -3.711945   1.000000
    9        3.414180   0.000000
   10        3.414186   0.000000
   11        6.771232   0.000000
   12        6.771236   0.000000
   13        7.553552   0.000000
   14        7.553561   0.000000
   15        7.610494   0.000000
   16        7.610501   0.000000
   17        9.188643   0.000000
   18        9.188646   0.000000
   19        9.217575   0.000000
   20        9.217578   0.000000
   21       10.886363   0.000000
   22       10.886368   0.000000
   23       11.872750   0.000000
   24       11.872753   0.000000
   25       13.647472   0.000000
   26       13.647472   0.000000
   27       13.667290   0.000000
   28       13.667292   0.000000
   29       16.227017   0.000000
   30       16.227022   0.000000
   31       19.105253   0.000000
   32       19.137248   0.000000
 
  0.1250000E+00  0.1250000E+00  0.1250000E+00  0.0000000E+00
    1      -16.937860   1.000000
    2      -16.937849   1.000000
    3       -5.133325   1.000000
    4       -5.133319   1.000000
    5       -3.892100   1.000000
    6       -3.892093   1.000000
    7       -3.697995   1.000000
    8       -3.697988   1.000000
    9        3.249953   0.000000
   10        3.249958   0.000000
   11        6.892427   0.000000
   12        6.892430   0.000000
   13        7.513017   0.000000
   14        7.513025   0.000000
   15        7.564838   0.000000
   16        7.564845   0.000000
   17        9.276954   0.000000
   18        9.276957   0.000000
   19        9.297828   0.000000
   20        9.297832   0.000000
   21       10.849981   0.000000
   22       10.849986   0.000000
   23       11.761674   0.000000
   24       11.761678   0.000000
   25       13.312799   0.000000
   26       13.312799   0.000000
   27       13.333566   0.000000
   28       13.333568   0.000000
   29       15.798334   0.000000
   30       15.798338   0.000000
   31       19.442940   0.000000
   32       19.465286   0.000000
 
  0.1000000E+00  0.1000000E+00  0.1000000E+00  0.0000000E+00
    1      -16.950275   1.000000
    2      -16.950264   1.000000
    3       -5.090569   1.000000
    4       -5.090563   1.000000
    5       -3.818253   1.000000
    6       -3.818247   1.000000
    7       -3.685992   1.000000
    8       -3.685985   1.000000
    9        3.102361   0.000000
   10        3.102367   0.000000
   11        7.024096   0.000000
   12        7.024100   0.000000
   13        7.466557   0.000000
   14        7.466566   0.000000
   15        7.514534   0.000000
   16        7.514541   0.000000
   17        9.388264   0.000000
   18        9.388267   0.000000
   19        9.402174   0.000000
   20        9.402178   0.000000
   21       10.664022   0.000000
   22       10.664026   0.000000
   23       11.845078   0.000000
   24       11.845083   0.000000
   25       13.011400   0.000000
   26       13.011400   0.000000
   27       13.033217   0.000000
   28       13.033219   0.000000
   29       15.398639   0.000000
   30       15.398643   0.000000
   31       19.717068   0.000000
   32       19.732316   0.000000
 
  0.7500000E-01  0.7500000E-01  0.7500000E-01  0.0000000E+00
    1      -16.960105   1.000000
    2      -16.960094   1.000000
    3       -5.057743   1.000000
    4       -5.057738   1.000000
    5       -3.754456   1.000000
    6       -3.754449   1.000000
    7       -3.676275   1.000000
    8       -3.676268   1.000000
    9        2.979030   0.000000
   10        2.979036   0.000000
   11        7.153699   0.000000
   12        7.153704   0.000000
   13        7.422759   0.000000
   14        7.422767   0.000000
   15        7.468600   0.000000
   16        7.468608   0.000000
   17        9.505217   0.000000
   18        9.505220   0.000000
   19        9.513478   0.000000
   20        9.513483   0.000000
   21       10.436609   0.000000
   22       10.436612   0.000000
   23       12.013968   0.000000
   24       12.013973   0.000000
   25       12.753146   0.000000
   26       12.753146   0.000000
   27       12.776070   0.000000
   28       12.776072   0.000000
   29       15.039889   0.000000
   30       15.039893   0.000000
   31       19.931151   0.000000
   32       19.941537   0.000000
 
  0.5000000E-01  0.5000000E-01  0.5000000E-01  0.0000000E+00
    1      -16.967206   1.000000
    2      -16.967195   1.000000
    3       -5.034588   1.000000
    4       -5.034582   1.000000
    5       -3.705119   1.000000
    6       -3.705112   1.000000
    7       -3.669126   1.000000
    8       -3.669119   1.000000
    9        2.886178   0.000000
   10        2.886184   0.000000
   11        7.265073   0.000000
   12        7.265079   0.000000
   13        7.387712   0.000000
   14        7.387720   0.000000
   15        7.433898   0.000000
   16        7.433907   0.000000
   17        9.609698   0.000000
   18        9.609701   0.000000
   19        9.613641   0.000000
   20        9.613646   0.000000
   21       10.238204   0.000000
   22       10.238207   0.000000
   23       12.192622   0.000000
   24       12.192627   0.000000
   25       12.551162   0.000000
   26       12.551162   0.000000
   27       12.574912   0.000000
   28       12.574915   0.000000
   29       14.741368   0.000000
   30       14.741372   0.000000
   31       20.085056   0.000000
   32       20.093846   0.000000
 
  0.2500000E-01  0.2500000E-01  0.2500000E-01  0.0000000E+00
    1      -16.971494   1.000000
    2      -16.971483   1.000000
    3       -5.020826   1.000000
    4       -5.020821   1.000000
    5       -3.673891   1.000000
    6       -3.673883   1.000000
    7       -3.664755   1.000000
    8       -3.664748   1.000000
    9        2.828496   0.000000
   10        2.828502   0.000000
   11        7.337370   0.000000
   12        7.337380   0.000000
   13        7.365286   0.000000
   14        7.365294   0.000000
   15        7.417252   0.000000
   16        7.417263   0.000000
   17        9.683138   0.000000
   18        9.683142   0.000000
   19        9.684212   0.000000
   20        9.684218   0.000000
   21       10.104400   0.000000
   22       10.104403   0.000000
   23       12.329201   0.000000
   24       12.329207   0.000000
   25       12.422860   0.000000
   26       12.422861   0.000000
   27       12.444903   0.000000
   28       12.444906   0.000000
   29       14.534391   0.000000
   30       14.534395   0.000000
   31       20.175829   0.000000
   32       20.185316   0.000000
 
  0.0000000E+00  0.0000000E+00  0.0000000E+00  0.0000000E+00
    1      -16.972325   1.000000
    2      -16.972315   1.000000
    3       -5.016198   1.000000
    4       -5.016192   1.000000
    5       -3.663233   1.000000
    6       -3.663226   1.000000
    7       -3.663151   1.000000
    8       -3.663143   1.000000
    9        2.808982   0.000000
   10        2.808988   0.000000
   11        7.357624   0.000000
   12        7.357632   0.000000
   13        7.357681   0.000000
   14        7.357692   0.000000
   15        7.417606   0.000000
   16        7.417619   0.000000
   17        9.709818   0.000000
   18        9.709821   0.000000
   19        9.709835   0.000000
   20        9.709841   0.000000
   21       10.057044   0.000000
   22       10.057047   0.000000
   23       12.360823   0.000000
   24       12.360825   0.000000
   25       12.399535   0.000000
   26       12.399540   0.000000
   27       12.399715   0.000000
   28       12.399718   0.000000
   29       14.458479   0.000000
   30       14.458482   0.000000
   31       20.227650   0.000000
   32       20.235006   0.000000
 
  0.0000000E+00  0.2500000E-01  0.2500000E-01  0.0000000E+00
    1      -16.971009   1.000000
    2      -16.970998   1.000000
    3       -5.022330   1.000000
    4       -5.022325   1.000000
    5       -3.674936   1.000000
    6       -3.674931   1.000000
    7       -3.667773   1.000000
    8       -3.667763   1.000000
    9        2.835025   0.000000
   10        2.835031   0.000000
   11        7.323807   0.000000
   12        7.323815   0.000000
   13        7.371180   0.000000
   14        7.371191   0.000000
   15        7.421004   0.000000
   16        7.421016   0.000000
   17        9.632734   0.000000
   18        9.632737   0.000000
   19        9.717518   0.000000
   20        9.717524   0.000000
   21       10.120066   0.000000
   22       10.120070   0.000000
   23       12.377711   0.000000
   24       12.377713   0.000000
   25       12.413205   0.000000
   26       12.413208   0.000000
   27       12.416665   0.000000
   28       12.416669   0.000000
   29       14.560809   0.000000
   30       14.560813   0.000000
   31       20.178601   0.000000
   32       20.185547   0.000000
 
  0.0000000E+00  0.5000000E-01  0.5000000E-01  0.0000000E+00
    1      -16.965385   1.000000
    2      -16.965374   1.000000
    3       -5.040435   1.000000
    4       -5.040430   1.000000
    5       -3.709167   1.000000
    6       -3.709163   1.000000
    7       -3.681226   1.000000
    8       -3.681216   1.000000
    9        2.912006   0.000000
   10        2.912012   0.000000
   11        7.206256   0.000000
   12        7.206265   0.000000
   13        7.411715   0.000000
   14        7.411726   0.000000
   15        7.458613   0.000000
   16        7.458624   0.000000
   17        9.421127   0.000000
   18        9.421130   0.000000
   19        9.740785   0.000000
   20        9.740791   0.000000
   21       10.297564   0.000000
   22       10.297568   0.000000
   23       12.426349   0.000000
   24       12.426351   0.000000
   25       12.455090   0.000000
   26       12.455093   0.000000
   27       12.467821   0.000000
   28       12.467824   0.000000
   29       14.849251   0.000000
   30       14.849255   0.000000
   31       20.072383   0.000000
   32       20.115912   0.000000
 
  0.0000000E+00  0.7500000E-01  0.7500000E-01  0.0000000E+00
    1      -16.955825   1.000000
    2      -16.955814   1.000000
    3       -5.070175   1.000000
    4       -5.070170   1.000000
    5       -3.763416   1.000000
    6       -3.763412   1.000000
    7       -3.703117   1.000000
    8       -3.703107   1.000000
    9        3.036103   0.000000
   10        3.036108   0.000000
   11        7.030617   0.000000
   12        7.030626   0.000000
   13        7.478858   0.000000
   14        7.478869   0.000000
   15        7.529030   0.000000
   16        7.529041   0.000000
   17        9.118453   0.000000
   18        9.118456   0.000000
   19        9.779695   0.000000
   20        9.779701   0.000000
   21       10.564532   0.000000
   22       10.564537   0.000000
   23       12.498424   0.000000
   24       12.498427   0.000000
   25       12.531603   0.000000
   26       12.531607   0.000000
   27       12.552786   0.000000
   28       12.552789   0.000000
   29       15.282270   0.000000
   30       15.282273   0.000000
   31       19.912250   0.000000
   32       19.985251   0.000000
 
  0.0000000E+00  0.1000000E+00  0.1000000E+00  0.0000000E+00
    1      -16.942639   1.000000
    2      -16.942628   1.000000
    3       -5.110950   1.000000
    4       -5.110945   1.000000
    5       -3.834037   1.000000
    6       -3.834033   1.000000
    7       -3.732731   1.000000
    8       -3.732721   1.000000
    9        3.201227   0.000000
   10        3.201232   0.000000
   11        6.823876   0.000000
   12        6.823885   0.000000
   13        7.571885   0.000000
   14        7.571896   0.000000
   15        7.628197   0.000000
   16        7.628208   0.000000
   17        8.768136   0.000000
   18        8.768139   0.000000
   19        9.834056   0.000000
   20        9.834062   0.000000
   21       10.897070   0.000000
   22       10.897075   0.000000
   23       12.588137   0.000000
   24       12.588140   0.000000
   25       12.647273   0.000000
   26       12.647277   0.000000
   27       12.671040   0.000000
   28       12.671044   0.000000
   29       15.817915   0.000000
   30       15.817919   0.000000
   31       19.703918   0.000000
   32       19.779689   0.000000
 
  0.0000000E+00  0.1250000E+00  0.1250000E+00  0.0000000E+00
    1      -16.926189   1.000000
    2      -16.926178   1.000000
    3       -5.161924   1.000000
    4       -5.161918   1.000000
    5       -3.916819   1.000000
    6       -3.916816   1.000000
    7       -3.769122   1.000000
    8       -3.769112   1.000000
    9        3.399020   0.000000
   10        3.399025   0.000000
   11        6.603697   0.000000
   12        6.603706   0.000000
   13        7.689486   0.000000
   14        7.689496   0.000000
   15        7.754506   0.000000
   16        7.754516   0.000000
   17        8.404453   0.000000
   18        8.404456   0.000000
   19        9.903582   0.000000
   20        9.903588   0.000000
   21       11.277900   0.000000
   22       11.277905   0.000000
   23       12.698975   0.000000
   24       12.698979   0.000000
   25       12.797671   0.000000
   26       12.797675   0.000000
   27       12.821743   0.000000
   28       12.821747   0.000000
   29       16.422835   0.000000
   30       16.422839   0.000000
   31       19.456759   0.000000
   32       19.508505   0.000000
 
  0.0000000E+00  0.1500000E+00  0.1500000E+00  0.0000000E+00
    1      -16.907024   1.000000
    2      -16.907013   1.000000
    3       -5.221983   1.000000
    4       -5.221977   1.000000
    5       -4.007444   1.000000
    6       -4.007442   1.000000
    7       -3.811168   1.000000
    8       -3.811158   1.000000
    9        3.618650   0.000000
   10        3.618655   0.000000
   11        6.381173   0.000000
   12        6.381182   0.000000
   13        7.824787   0.000000
   14        7.824797   0.000000
   15        7.906605   0.000000
   16        7.906615   0.000000
   17        8.058932   0.000000
   18        8.058935   0.000000
   19        9.987855   0.000000