 vasp.5.4.4.18Apr17-6-g9f103f2a35 (build Nov 03 2018 10:20:46) complex          
  
 executed on             LinuxIFC date 2018.12.21  13:25:47
 running on   32 total cores
 distrk:  each k-point on    4 cores,    8 groups
 distr:  one band on NCORES_PER_BAND=   4 cores,    1 groups


--------------------------------------------------------------------------------------------------------


 INCAR:
 POTCAR:    PAW_PBE Xe_GW 08Jan2009               

 ----------------------------------------------------------------------------- 
|                                                                             |
|           W    W    AA    RRRRR   N    N  II  N    N   GGGG   !!!           |
|           W    W   A  A   R    R  NN   N  II  NN   N  G    G  !!!           |
|           W    W  A    A  R    R  N N  N  II  N N  N  G       !!!           |
|           W WW W  AAAAAA  RRRRR   N  N N  II  N  N N  G  GGG   !            |
|           WW  WW  A    A  R   R   N   NN  II  N   NN  G    G                |
|           W    W  A    A  R    R  N    N  II  N    N   GGGG   !!!           |
|                                                                             |
|      You have enabled k-point parallelism (KPAR>1).                         |
|      This developmental code was originally  written by Paul Kent at ORNL,  |
|      and carefully double checked in Vienna.                                |
|      GW as well as linear response parallelism added by Martijn Marsman     |
|      and Georg Kresse.                                                      |
|      Carefully verify results versus KPAR=1.                                |
|      Report problems to Paul Kent and Vienna.                               |
|                                                                             |
 ----------------------------------------------------------------------------- 

 POTCAR:    PAW_PBE Xe_GW 08Jan2009               
   VRHFIN =Xe: s2p6                                                             
   LEXCH  = PE                                                                  
   EATOM  =   429.5160 eV,   31.5685 Ry                                         
                                                                                
   TITEL  = PAW_PBE Xe_GW 08Jan2009                                             
   LULTRA =        F    use ultrasoft PP ?                                      
   IUNSCR =        1    unscreen: 0-lin 1-nonlin 2-no                           
   RPACOR =    1.800    partial core radius                                     
   POMASS =  131.294; ZVAL   =    8.000    mass and valenz                      
   RCORE  =    2.500    outmost cutoff radius                                   
   RWIGS  =    2.500; RWIGS  =    1.323    wigner-seitz radius (au A)           
   ENMAX  =  179.547; ENMIN  =  134.660 eV                                      
   RCLOC  =    2.013    cutoff for local pot                                    
   LCOR   =        T    correct aug charges                                     
   LPAW   =        T    paw PP                                                  
   EAUG   =  605.900                                                            
   DEXC   =    0.000                                                            
   RMAX   =    2.564    core radius for proj-oper                               
   RAUG   =    1.300    factor for augmentation sphere                          
   RDEP   =    2.580    radius for radial grids                                 
   RDEPT  =    2.108    core radius for aug-charge                              
                                                                                
   Atomic configuration                                                         
   13 entries                                                                   
     n  l   j            E        occ.                                          
     1  0  0.50    -34364.0918   2.0000                                         
     2  0  0.50     -5347.7047   2.0000                                         
     2  1  1.50     -4797.8080   6.0000                                         
     3  0  0.50     -1093.8565   2.0000                                         
     3  1  1.50      -916.3531   6.0000                                         
     3  2  2.50      -653.3728  10.0000                                         
     4  0  0.50      -197.4109   2.0000                                         
     4  1  1.50      -141.2234   6.0000                                         
     4  2  2.50       -59.3742  10.0000                                         
     5  0  0.50       -19.7401   2.0000                                         
     5  1  0.50        -8.2334   6.0000                                         
     5  2  1.50        -6.8029   0.0000                                         
     4  3  2.50        -6.8029   0.0000                                         
   Description                                                                  
     l       E           TYP  RCUT    TYP  RCUT                                 
     0    -19.7400602     23  1.800                                             
     0    -13.6058260     23  1.800                                             
     1     -8.2333784     23  2.300                                             
     1      2.7211652     23  2.300                                             
     2     -6.8029130     23  2.500                                             
     2     40.8174780     23  2.500                                             
     3      6.8029130     23  2.500                                             
     3     27.2116520     23  2.500                                             
  local pseudopotential read in
  partial core-charges read in
  partial kinetic energy density read in
  kinetic energy density of atom read in
  atomic valenz-charges read in
  non local Contribution for L=           0  read in
    real space projection operators read in
  non local Contribution for L=           0  read in
    real space projection operators read in
  non local Contribution for L=           1  read in
    real space projection operators read in
  non local Contribution for L=           1  read in
    real space projection operators read in
  non local Contribution for L=           2  read in
    real space projection operators read in
  non local Contribution for L=           2  read in
    real space projection operators read in
  non local Contribution for L=           3  read in
    real space projection operators read in
  non local Contribution for L=           3  read in
    real space projection operators read in
    PAW grid and wavefunctions read in
 
   number of l-projection  operators is LMAX  =           8
   number of lm-projection operators is LMMAX =          32
 
  PAW_PBE Xe_GW 08Jan2009               :
 energy of atom  1       EATOM= -429.5160
 kinetic energy error for atom=    0.0132 (will be added to EATOM!!)
 
 
 POSCAR: Xe_FCC                                  
  positions in direct lattice
  velocities in cartesian coordinates

 METAGGA = SCAN     LMAXTAU =  0    LMIXTAU =  F

 exchange correlation table for  LEXCH =        8
   RHO(1)=    0.500       N(1)  =     2000
   RHO(2)=  100.500       N(2)  =     4000
 


--------------------------------------------------------------------------------------------------------


 ion  position               nearest neighbor table
   1  0.000  0.000  0.000-
 

IMPORTANT INFORMATION: All symmetrisations will be switched off!
NOSYMM: (Re-)initialisation of all symmetry stuff for point group C_1.

 
 
 KPOINTS: Automatically generated mesh + R-points 
  k-points in reciprocal lattice
Space group operators:
 irot       det(A)        alpha          n_x          n_y          n_z        tau_x        tau_y        tau_z
    1     1.000000     0.000000     1.000000     0.000000     0.000000     0.000000     0.000000     0.000000


--------------------------------------------------------------------------------------------------------




 Dimension of arrays:
   k-points           NKPTS =    256   k-points in BZ     NKDIM =    256   number of bands    NBANDS=     32
   number of dos      NEDOS =    301   number of ions     NIONS =      1
   non local maximal  LDIM  =      8   non local SUM 2l+1 LMDIM =     32
   total plane-waves  NPLWV =  13824
   max r-space proj   IRMAX =      1   max aug-charges    IRDMAX=  94949
   dimension x,y,z NGX =    24 NGY =   24 NGZ =   24
   dimension x,y,z NGXF=    48 NGYF=   48 NGZF=   48
   support grid    NGXF=    96 NGYF=   96 NGZF=   96
   ions per type =               1
   NGX,Y,Z   is equivalent  to a cutoff of   9.20,  9.20,  9.20 a.u.
   NGXF,Y,Z  is equivalent  to a cutoff of  18.40, 18.40, 18.40 a.u.

 SYSTEM =  Xe_FCC                                  
 POSCAR =  Xe_FCC                                  

 Startparameter for this run:
   NWRITE =      2    write-flag & timer
   PREC   = accura    normal or accurate (medium, high low for compatibility)
   ISTART =      0    job   : 0-new  1-cont  2-samecut
   ICHARG =      2    charge: 1-file 2-atom 10-const
   ISPIN  =      1    spin polarized calculation?
   LNONCOLLINEAR =      T non collinear calculations
   LSORBIT =      T    spin-orbit coupling
   INIWAV =      1    electr: 0-lowe 1-rand  2-diag
   LASPH  =      F    aspherical Exc in radial PAW
   METAGGA=      F    non-selfconsistent MetaGGA calc.

 Electronic Relaxation 1
   ENCUT  =  300.0 eV  22.05 Ry    4.70 a.u.   6.12  6.12  6.12*2*pi/ulx,y,z
   ENINI  =  300.0     initial cutoff
   ENAUG  =  605.9 eV  augmentation charge cutoff
   NELM   =     50;   NELMIN=  2; NELMDL= -5     # of ELM steps 
   EDIFF  = 0.1E-07   stopping-criterion for ELM
   LREAL  =      F    real-space projection
   NLSPLINE    = F    spline interpolate recip. space projectors
   LCOMPAT=      F    compatible to vasp.4.4
   GGA_COMPAT  = F    GGA compatible to vasp.4.4-vasp.4.6
   LMAXPAW     = -100 max onsite density
   LMAXMIX     =    2 max onsite mixed and CHGCAR
   VOSKOWN=      0    Vosko Wilk Nusair interpolation
   ROPT   =    0.00000
 Ionic relaxation
   EDIFFG = 0.1E-04   stopping-criterion for IOM
   NSW    =      1    number of steps for IOM
   NBLOCK =      1;   KBLOCK =      1    inner block; outer block 
   IBRION =     -1    ionic relax: 0-MD 1-quasi-New 2-CG
   NFREE  =      5    steps in history (QN), initial steepest desc. (CG)
   ISIF   =      3    stress and relaxation
   IWAVPR =     10    prediction:  0-non 1-charg 2-wave 3-comb
   ISYM   =      0    0-nonsym 1-usesym 2-fastsym
   LCORR  =      T    Harris-Foulkes like correction to forces

   POTIM  = 0.1000    time-step for ionic-motion
   TEIN   =    0.0    initial temperature
   TEBEG  =    0.0;   TEEND  =   0.0 temperature during run
   SMASS  =  -3.00    Nose mass-parameter (am)
   estimated Nose-frequenzy (Omega)   =  0.10E-29 period in steps =****** mass=  -0.430E-27a.u.
   SCALEE = 1.0000    scale energy and forces
   NPACO  =    256;   APACO  = 16.0  distance and # of slots for P.C.
   PSTRESS=    0.0 pullay stress

  Mass of Ions in am
   POMASS = 131.29
  Ionic Valenz
   ZVAL   =   8.00
  Atomic Wigner-Seitz radii
   RWIGS  =  -1.00
  virtual crystal weights 
   VCA    =   1.00
   NELECT =       8.0000    total number of electrons
   NUPDOWN=      -1.0000    fix difference up-down

 DOS related values:
   EMIN   =  10.00;   EMAX   =-10.00  energy-range for DOS
   EFERMI =   0.00
   ISMEAR =     0;   SIGMA  =   0.05  broadening in eV -4-tet -1-fermi 0-gaus

 Electronic relaxation 2 (details)
   IALGO  =     38    algorithm
   LDIAG  =      T    sub-space diagonalisation (order eigenvalues)
   LSUBROT=      F    optimize rotation matrix (better conditioning)
   TURBO    =      0    0=normal 1=particle mesh
   IRESTART =      0    0=no restart 2=restart with 2 vectors
   NREBOOT  =      0    no. of reboots
   NMIN     =      0    reboot dimension
   EREF     =   0.00    reference energy to select bands
   IMIX   =      4    mixing-type and parameters
     AMIX     =   0.40;   BMIX     =  1.00
     AMIX_MAG =   1.60;   BMIX_MAG =  1.00
     AMIN     =   0.10
     WC   =   100.;   INIMIX=   1;  MIXPRE=   1;  MAXMIX=  50

 Intra band minimization:
   WEIMIN = 0.0000     energy-eigenvalue tresh-hold
   EBREAK =  0.78E-10  absolut break condition
   DEPER  =   0.30     relativ break condition  

   TIME   =   0.40     timestep for ELM

  volume/ion in A,a.u.               =      57.64       389.00
  Fermi-wavevector in a.u.,A,eV,Ry     =   0.847594  1.601720  9.774627  0.718415
  Thomas-Fermi vector in A             =   1.963124
 
 Write flags
   LWAVE        =      T    write WAVECAR
   LDOWNSAMPLE  =      F    k-point downsampling of WAVECAR
   LCHARG       =      T    write CHGCAR
   LVTOT        =      F    write LOCPOT, total local potential
   LVHAR        =      F    write LOCPOT, Hartree potential only
   LELF         =      F    write electronic localiz. function (ELF)
   LORBIT       =      0    0 simple, 1 ext, 2 COOP (PROOUT), +10 PAW based schemes


 Dipole corrections
   LMONO  =      F    monopole corrections only (constant potential shift)
   LDIPOL =      F    correct potential (dipole corrections)
   IDIPOL =      0    1-x, 2-y, 3-z, 4-all directions 
   EPSILON=  1.0000000 bulk dielectric constant

 Exchange correlation treatment:
   GGA     =    --    GGA type
   LEXCH   =     8    internal setting for exchange type
   VOSKOWN=      0    Vosko Wilk Nusair interpolation
   LHFCALC =     F    Hartree Fock is set to
   LHFONE  =     F    Hartree Fock one center treatment
   AEXX    =    0.0000 exact exchange contribution

 Linear response parameters
   LEPSILON=     F    determine dielectric tensor
   LRPA    =     F    only Hartree local field effects (RPA)
   LNABLA  =     F    use nabla operator in PAW spheres
   LVEL    =     F    velocity operator in full k-point grid
   LINTERFAST=   F  fast interpolation
   KINTER  =     0    interpolate to denser k-point grid
   CSHIFT  =0.1000    complex shift for real part using Kramers Kronig
   OMEGAMAX=  -1.0    maximum frequency
   DEG_THRESHOLD= 0.2000000E-02 threshold for treating states as degnerate
   RTIME   =   -0.100 relaxation time in fs
  (WPLASMAI=    0.000 imaginary part of plasma frequency in eV, 0.658/RTIME)
   DFIELD  = 0.0000000 0.0000000 0.0000000 field for delta impulse in time
 
 Orbital magnetization related:
   ORBITALMAG=     F  switch on orbital magnetization
   LCHIMAG   =     F  perturbation theory with respect to B field
   DQ        =  0.001000  dq finite difference perturbation B field
   LLRAUG    =     F  two centre corrections for induced B field



--------------------------------------------------------------------------------------------------------


 Static calculation
 charge density and potential will be updated during run
 non collinear spin polarized calculation
 Variant of blocked Davidson
 Davidson routine will perform the subspace rotation
 perform sub-space diagonalisation
    after iterative eigenvector-optimisation
 modified Broyden-mixing scheme, WC =      100.0
 initial mixing is a Kerker type mixing with AMIX =  0.4000 and BMIX =      1.0000
 Hartree-type preconditioning will be used
 using additional bands           28
 reciprocal scheme for non local part
 use partial core corrections
 calculate Harris-corrections to forces 
   (improved forces if not selfconsistent)
 use gradient corrections 
 use of overlap-Matrix (Vanderbilt PP)
 Gauss-broadening in eV      SIGMA  =   0.05


--------------------------------------------------------------------------------------------------------


  energy-cutoff  :      300.00
  volume of cell :       57.64
      direct lattice vectors                 reciprocal lattice vectors
     4.335995782  0.000000000  0.000000000     0.230627531 -0.133152867 -0.094153295
     2.167997891  3.755082498 -0.000000000     0.000000000  0.266305734 -0.094153295
     2.167997891  1.251694166  3.540325731    -0.000000000  0.000000000  0.282459885

  length of vectors
     4.335995782  4.335995782  4.335995782     0.282459885  0.282459885  0.282459885


 
 k-points in units of 2pi/SCALE and weight: Automatically generated mesh + R-points 
   0.11281079  0.06513134  0.04605481       0.000
   0.10717025  0.06187477  0.04375207       0.000
   0.10152971  0.05861821  0.04144933       0.000
   0.09588917  0.05536164  0.03914659       0.000
   0.09024863  0.05210507  0.03684385       0.000
   0.08460809  0.04884851  0.03454111       0.000
   0.07896755  0.04559194  0.03223837       0.000
   0.07332701  0.04233537  0.02993563       0.000
   0.06768647  0.03907880  0.02763289       0.000
   0.06204593  0.03582224  0.02533015       0.000
   0.05640540  0.03256567  0.02302741       0.000
   0.05076486  0.02930910  0.02072467       0.000
   0.04512432  0.02605254  0.01842192       0.000
   0.03948378  0.02279597  0.01611918       0.000
   0.03384324  0.01953940  0.01381644       0.000
   0.02820270  0.01628284  0.01151370       0.000
   0.02256216  0.01302627  0.00921096       0.000
   0.01692162  0.00976970  0.00690822       0.000
   0.01128108  0.00651313  0.00460548       0.000
   0.00564054  0.00325657  0.00230274       0.000
   0.00000000  0.00000000  0.00000000       0.000
  -0.00000000  0.00651313  0.00460548       0.000
  -0.00000000  0.01302627  0.00921096       0.000
  -0.00000000  0.01953940  0.01381644       0.000
  -0.00000000  0.02605254  0.01842192       0.000
  -0.00000000  0.03256567  0.02302741       0.000
  -0.00000000  0.03907880  0.02763289       0.000
  -0.00000000  0.04559194  0.03223837       0.000
  -0.00000000  0.05210507  0.03684385       0.000
  -0.00000000  0.05861821  0.04144933       0.000
  -0.00000000  0.06513134  0.04605481       0.000
  -0.00000000  0.07164447  0.05066029       0.000
  -0.00000000  0.07815761  0.05526577       0.000
  -0.00000000  0.08467074  0.05987126       0.000
  -0.00000000  0.09118388  0.06447674       0.000
  -0.00000000  0.09769701  0.06908222       0.000
  -0.00000000  0.10421014  0.07368770       0.000
  -0.00000000  0.11072328  0.07829318       0.000
  -0.00000000  0.11723641  0.08289866       0.000
  -0.00000000  0.12374955  0.08750414       0.000
  -0.00000000  0.13026268  0.09210962       0.000
   0.00000000  0.00000000  0.00000000       0.005
   0.03760360 -0.02171045 -0.01535160       0.005
   0.07520719 -0.04342089 -0.03070321       0.005
   0.11281079 -0.06513134 -0.04605481       0.005
  -0.07520719  0.04342089  0.03070321       0.005
  -0.03760360  0.02171045  0.01535160       0.005
   0.00000000  0.04342089 -0.01535160       0.005
   0.03760360  0.02171045 -0.03070321       0.005
   0.07520719  0.00000000 -0.04605481       0.005
   0.11281079 -0.02171045 -0.06140642       0.005
  -0.07520719  0.08684179  0.01535160       0.005
  -0.03760360  0.06513134  0.00000000       0.005
   0.00000000  0.08684179 -0.03070321       0.005
   0.03760360  0.06513134 -0.04605481       0.005
   0.07520719  0.04342089 -0.06140642       0.005
   0.11281079  0.02171045 -0.07675802       0.005
  -0.07520719  0.13026268  0.00000000       0.005
  -0.03760360  0.10855223 -0.01535160       0.005
   0.00000000  0.13026268 -0.04605481       0.005
   0.03760360  0.10855223 -0.06140642       0.005
   0.07520719  0.08684179 -0.07675802       0.005
   0.11281079  0.06513134 -0.09210962       0.005
  -0.07520719  0.17368357 -0.01535160       0.005
  -0.03760360  0.15197313 -0.03070321       0.005
  -0.00000000 -0.08684179  0.03070321       0.005
   0.03760360 -0.10855223  0.01535160       0.005
   0.07520719 -0.13026268 -0.00000000       0.005
   0.11281079 -0.15197313 -0.01535160       0.005
  -0.07520719 -0.04342089  0.06140642       0.005
  -0.03760360 -0.06513134  0.04605481       0.005
  -0.00000000 -0.04342089  0.01535160       0.005
   0.03760360 -0.06513134 -0.00000000       0.005
   0.07520719 -0.08684179 -0.01535160       0.005
   0.11281079 -0.10855223 -0.03070321       0.005
  -0.07520719 -0.00000000  0.04605481       0.005
  -0.03760360 -0.02171045  0.03070321       0.005
  -0.00000000  0.00000000  0.04605481       0.005
   0.03760360 -0.02171045  0.03070321       0.005
   0.07520719 -0.04342089  0.01535160       0.005
   0.11281079 -0.06513134  0.00000000       0.005
  -0.07520719  0.04342089  0.07675802       0.005
  -0.03760360  0.02171045  0.06140642       0.005
  -0.00000000  0.04342089  0.03070321       0.005
   0.03760360  0.02171045  0.01535160       0.005
   0.07520719  0.00000000  0.00000000       0.005
   0.11281079 -0.02171045 -0.01535160       0.005
  -0.07520719  0.08684179  0.06140642       0.005
  -0.03760360  0.06513134  0.04605481       0.005
  -0.00000000  0.08684179  0.01535160       0.005
   0.03760360  0.06513134  0.00000000       0.005
   0.07520719  0.04342089 -0.01535160       0.005
   0.11281079  0.02171045 -0.03070321       0.005
  -0.07520719  0.13026268  0.04605481       0.005
  -0.03760360  0.10855223  0.03070321       0.005
  -0.00000000  0.13026268  0.00000000       0.005
   0.03760360  0.10855223 -0.01535160       0.005
   0.07520719  0.08684179 -0.03070321       0.005
   0.11281079  0.06513134 -0.04605481       0.005
  -0.07520719  0.17368357  0.03070321       0.005
  -0.03760360  0.15197313  0.01535160       0.005
  -0.00000000 -0.08684179  0.07675802       0.005
   0.03760360 -0.10855223  0.06140642       0.005
   0.07520719 -0.13026268  0.04605481       0.005
   0.11281079 -0.15197313  0.03070321       0.005
  -0.07520719 -0.04342089  0.10746123       0.005
  -0.03760360 -0.06513134  0.09210962       0.005
  -0.00000000 -0.04342089  0.06140642       0.005
   0.03760360 -0.06513134  0.04605481       0.005
   0.07520719 -0.08684179  0.03070321       0.005
   0.11281079 -0.10855223  0.01535160       0.005
  -0.07520719 -0.00000000  0.09210962       0.005
  -0.03760360 -0.02171045  0.07675802       0.005
  -0.00000000  0.00000000  0.09210962       0.005
   0.03760360 -0.02171045  0.07675802       0.005
   0.07520719 -0.04342089  0.06140642       0.005
   0.11281079 -0.06513134  0.04605481       0.005
  -0.07520719  0.04342089  0.12281283       0.005
  -0.03760360  0.02171045  0.10746123       0.005
  -0.00000000  0.04342089  0.07675802       0.005
   0.03760360  0.02171045  0.06140642       0.005
   0.07520719  0.00000000  0.04605481       0.005
   0.11281079 -0.02171045  0.03070321       0.005
  -0.07520719  0.08684179  0.10746123       0.005
  -0.03760360  0.06513134  0.09210962       0.005
  -0.00000000  0.08684179  0.06140642       0.005
   0.03760360  0.06513134  0.04605481       0.005
   0.07520719  0.04342089  0.03070321       0.005
   0.11281079  0.02171045  0.01535160       0.005
  -0.07520719  0.13026268  0.09210962       0.005
  -0.03760360  0.10855223  0.07675802       0.005
  -0.00000000  0.13026268  0.04605481       0.005
   0.03760360  0.10855223  0.03070321       0.005
   0.07520719  0.08684179  0.01535160       0.005
   0.11281079  0.06513134 -0.00000000       0.005
  -0.07520719  0.17368357  0.07675802       0.005
  -0.03760360  0.15197313  0.06140642       0.005
  -0.00000000 -0.08684179  0.12281283       0.005
   0.03760360 -0.10855223  0.10746123       0.005
   0.07520719 -0.13026268  0.09210962       0.005
   0.11281079 -0.15197313  0.07675802       0.005
  -0.07520719 -0.04342089  0.15351604       0.005
  -0.03760360 -0.06513134  0.13816444       0.005
  -0.00000000 -0.04342089  0.10746123       0.005
   0.03760360 -0.06513134  0.09210962       0.005
   0.07520719 -0.08684179  0.07675802       0.005
   0.11281079 -0.10855223  0.06140642       0.005
  -0.07520719 -0.00000000  0.13816444       0.005
  -0.03760360 -0.02171045  0.12281283       0.005
  -0.00000000  0.00000000  0.13816444       0.005
   0.03760360 -0.02171045  0.12281283       0.005
   0.07520719 -0.04342089  0.10746123       0.005
   0.11281079 -0.06513134  0.09210962       0.005
  -0.07520719  0.04342089  0.16886765       0.005
  -0.03760360  0.02171045  0.15351604       0.005
  -0.00000000  0.04342089  0.12281283       0.005
   0.03760360  0.02171045  0.10746123       0.005
   0.07520719  0.00000000  0.09210962       0.005
   0.11281079 -0.02171045  0.07675802       0.005
  -0.07520719  0.08684179  0.15351604       0.005
  -0.03760360  0.06513134  0.13816444       0.005
  -0.00000000  0.08684179  0.10746123       0.005
   0.03760360  0.06513134  0.09210962       0.005
   0.07520719  0.04342089  0.07675802       0.005
   0.11281079  0.02171045  0.06140642       0.005
  -0.07520719  0.13026268  0.13816444       0.005
  -0.03760360  0.10855223  0.12281283       0.005
  -0.00000000  0.13026268  0.09210962       0.005
   0.03760360  0.10855223  0.07675802       0.005
   0.07520719  0.08684179  0.06140642       0.005
   0.11281079  0.06513134  0.04605481       0.005
  -0.07520719  0.17368357  0.12281283       0.005
  -0.03760360  0.15197313  0.10746123       0.005
  -0.00000000 -0.08684179  0.16886765       0.005
   0.03760360 -0.10855223  0.15351604       0.005
   0.07520719 -0.13026268  0.13816444       0.005
   0.11281079 -0.15197313  0.12281283       0.005
  -0.07520719 -0.04342089  0.19957085       0.005
  -0.03760360 -0.06513134  0.18421925       0.005
  -0.00000000 -0.04342089  0.15351604       0.005
   0.03760360 -0.06513134  0.13816444       0.005
   0.07520719 -0.08684179  0.12281283       0.005
   0.11281079 -0.10855223  0.10746123       0.005
  -0.07520719 -0.00000000  0.18421925       0.005
  -0.03760360 -0.02171045  0.16886765       0.005
   0.00000000 -0.00000000 -0.09210962       0.005
   0.03760360 -0.02171045 -0.10746123       0.005
   0.07520719 -0.04342089 -0.12281283       0.005
   0.11281079 -0.06513134 -0.13816444       0.005
  -0.07520719  0.04342089 -0.06140642       0.005
  -0.03760360  0.02171045 -0.07675802       0.005
   0.00000000  0.04342089 -0.10746123       0.005
   0.03760360  0.02171045 -0.12281283       0.005
   0.07520719  0.00000000 -0.13816444       0.005
   0.11281079 -0.02171045 -0.15351604       0.005
  -0.07520719  0.08684179 -0.07675802       0.005
  -0.03760360  0.06513134 -0.09210962       0.005
   0.00000000  0.08684179 -0.12281283       0.005
   0.03760360  0.06513134 -0.13816444       0.005
   0.07520719  0.04342089 -0.15351604       0.005
   0.11281079  0.02171045 -0.16886765       0.005
  -0.07520719  0.13026268 -0.09210962       0.005
  -0.03760360  0.10855223 -0.10746123       0.005
   0.00000000  0.13026268 -0.13816444       0.005
   0.03760360  0.10855223 -0.15351604       0.005
   0.07520719  0.08684179 -0.16886765       0.005
   0.11281079  0.06513134 -0.18421925       0.005
  -0.07520719  0.17368357 -0.10746123       0.005
  -0.03760360  0.15197313 -0.12281283       0.005
   0.00000000 -0.08684179 -0.06140642       0.005
   0.03760360 -0.10855223 -0.07675802       0.005
   0.07520719 -0.13026268 -0.09210962       0.005
   0.11281079 -0.15197313 -0.10746123       0.005
  -0.07520719 -0.04342089 -0.03070321       0.005
  -0.03760360 -0.06513134 -0.04605481       0.005
   0.00000000 -0.04342089 -0.07675802       0.005
   0.03760360 -0.06513134 -0.09210962       0.005
   0.07520719 -0.08684179 -0.10746123       0.005
   0.11281079 -0.10855223 -0.12281283       0.005
  -0.07520719 -0.00000000 -0.04605481       0.005
  -0.03760360 -0.02171045 -0.06140642       0.005
   0.00000000 -0.00000000 -0.04605481       0.005
   0.03760360 -0.02171045 -0.06140642       0.005
   0.07520719 -0.04342089 -0.07675802       0.005
   0.11281079 -0.06513134 -0.09210962       0.005
  -0.07520719  0.04342089 -0.01535160       0.005
  -0.03760360  0.02171045 -0.03070321       0.005
   0.00000000  0.04342089 -0.06140642       0.005
   0.03760360  0.02171045 -0.07675802       0.005
   0.07520719  0.00000000 -0.09210962       0.005
   0.11281079 -0.02171045 -0.10746123       0.005
  -0.07520719  0.08684179 -0.03070321       0.005
  -0.03760360  0.06513134 -0.04605481       0.005
   0.00000000  0.08684179 -0.07675802       0.005
   0.03760360  0.06513134 -0.09210962       0.005
   0.07520719  0.04342089 -0.10746123       0.005
   0.11281079  0.02171045 -0.12281283       0.005
  -0.07520719  0.13026268 -0.04605481       0.005
  -0.03760360  0.10855223 -0.06140642       0.005
   0.00000000  0.13026268 -0.09210962       0.005
   0.03760360  0.10855223 -0.10746123       0.005
   0.07520719  0.08684179 -0.12281283       0.005
   0.11281079  0.06513134 -0.13816444       0.005
  -0.07520719  0.17368357 -0.06140642       0.005
  -0.03760360  0.15197313 -0.07675802       0.005
   0.00000000 -0.08684179 -0.01535160       0.005
   0.03760360 -0.10855223 -0.03070321       0.005
   0.07520719 -0.13026268 -0.04605481       0.005
   0.11281079 -0.15197313 -0.06140642       0.005
  -0.07520719 -0.04342089  0.01535160       0.005
  -0.03760360 -0.06513134 -0.00000000       0.005
   0.00000000 -0.04342089 -0.03070321       0.005
   0.03760360 -0.06513134 -0.04605481       0.005
   0.07520719 -0.08684179 -0.06140642       0.005
   0.11281079 -0.10855223 -0.07675802       0.005
  -0.07520719 -0.00000000 -0.00000000       0.005
 
 k-points in reciprocal lattice and weights: Automatically generated mesh + R-points 
   0.50000000  0.50000000  0.50000000       0.000
   0.47500000  0.47500000  0.47500000       0.000
   0.45000000  0.45000000  0.45000000       0.000
   0.42500000  0.42500000  0.42500000       0.000
   0.40000000  0.40000000  0.40000000       0.000
   0.37500000  0.37500000  0.37500000       0.000
   0.35000000  0.35000000  0.35000000       0.000
   0.32500000  0.32500000  0.32500000       0.000
   0.30000000  0.30000000  0.30000000       0.000
   0.27500000  0.27500000  0.27500000       0.000
   0.25000000  0.25000000  0.25000000       0.000
   0.22500000  0.22500000  0.22500000       0.000
   0.20000000  0.20000000  0.20000000       0.000
   0.17500000  0.17500000  0.17500000       0.000
   0.15000000  0.15000000  0.15000000       0.000
   0.12500000  0.12500000  0.12500000       0.000
   0.10000000  0.10000000  0.10000000       0.000
   0.07500000  0.07500000  0.07500000       0.000
   0.05000000  0.05000000  0.05000000       0.000
   0.02500000  0.02500000  0.02500000       0.000
   0.00000000  0.00000000  0.00000000       0.000
   0.00000000  0.02500000  0.02500000       0.000
   0.00000000  0.05000000  0.05000000       0.000
   0.00000000  0.07500000  0.07500000       0.000
   0.00000000  0.10000000  0.10000000       0.000
   0.00000000  0.12500000  0.12500000       0.000
   0.00000000  0.15000000  0.15000000       0.000
   0.00000000  0.17500000  0.17500000       0.000
   0.00000000  0.20000000  0.20000000       0.000
   0.00000000  0.22500000  0.22500000       0.000
   0.00000000  0.25000000  0.25000000       0.000
   0.00000000  0.27500000  0.27500000       0.000
   0.00000000  0.30000000  0.30000000       0.000
   0.00000000  0.32500000  0.32500000       0.000
   0.00000000  0.35000000  0.35000000       0.000
   0.00000000  0.37500000  0.37500000       0.000
   0.00000000  0.40000000  0.40000000       0.000
   0.00000000  0.42500000  0.42500000       0.000
   0.00000000  0.45000000  0.45000000       0.000
   0.00000000  0.47500000  0.47500000       0.000
   0.00000000  0.50000000  0.50000000       0.000
   0.00000000  0.00000000  0.00000000       0.005
   0.16666667  0.00000000  0.00000000       0.005
   0.33333333  0.00000000  0.00000000       0.005
   0.50000000  0.00000000  0.00000000       0.005
  -0.33333333  0.00000000  0.00000000       0.005
  -0.16666667  0.00000000  0.00000000       0.005
   0.00000000  0.16666667  0.00000000       0.005
   0.16666667  0.16666667  0.00000000       0.005
   0.33333333  0.16666667  0.00000000       0.005
   0.50000000  0.16666667  0.00000000       0.005
  -0.33333333  0.16666667  0.00000000       0.005
  -0.16666667  0.16666667  0.00000000       0.005
   0.00000000  0.33333333  0.00000000       0.005
   0.16666667  0.33333333  0.00000000       0.005
   0.33333333  0.33333333  0.00000000       0.005
   0.50000000  0.33333333  0.00000000       0.005
  -0.33333333  0.33333333  0.00000000       0.005
  -0.16666667  0.33333333  0.00000000       0.005
   0.00000000  0.50000000  0.00000000       0.005
   0.16666667  0.50000000  0.00000000       0.005
   0.33333333  0.50000000  0.00000000       0.005
   0.50000000  0.50000000  0.00000000       0.005
  -0.33333333  0.50000000  0.00000000       0.005
  -0.16666667  0.50000000  0.00000000       0.005
   0.00000000 -0.33333333  0.00000000       0.005
   0.16666667 -0.33333333  0.00000000       0.005
   0.33333333 -0.33333333  0.00000000       0.005
   0.50000000 -0.33333333  0.00000000       0.005
  -0.33333333 -0.33333333  0.00000000       0.005
  -0.16666667 -0.33333333  0.00000000       0.005
   0.00000000 -0.16666667  0.00000000       0.005
   0.16666667 -0.16666667  0.00000000       0.005
   0.33333333 -0.16666667  0.00000000       0.005
   0.50000000 -0.16666667  0.00000000       0.005
  -0.33333333 -0.16666667  0.00000000       0.005
  -0.16666667 -0.16666667  0.00000000       0.005
   0.00000000  0.00000000  0.16666667       0.005
   0.16666667  0.00000000  0.16666667       0.005
   0.33333333  0.00000000  0.16666667       0.005
   0.50000000  0.00000000  0.16666667       0.005
  -0.33333333  0.00000000  0.16666667       0.005
  -0.16666667  0.00000000  0.16666667       0.005
   0.00000000  0.16666667  0.16666667       0.005
   0.16666667  0.16666667  0.16666667       0.005
   0.33333333  0.16666667  0.16666667       0.005
   0.50000000  0.16666667  0.16666667       0.005
  -0.33333333  0.16666667  0.16666667       0.005
  -0.16666667  0.16666667  0.16666667       0.005
   0.00000000  0.33333333  0.16666667       0.005
   0.16666667  0.33333333  0.16666667       0.005
   0.33333333  0.33333333  0.16666667       0.005
   0.50000000  0.33333333  0.16666667       0.005
  -0.33333333  0.33333333  0.16666667       0.005
  -0.16666667  0.33333333  0.16666667       0.005
   0.00000000  0.50000000  0.16666667       0.005
   0.16666667  0.50000000  0.16666667       0.005
   0.33333333  0.50000000  0.16666667       0.005
   0.50000000  0.50000000  0.16666667       0.005
  -0.33333333  0.50000000  0.16666667       0.005
  -0.16666667  0.50000000  0.16666667       0.005
   0.00000000 -0.33333333  0.16666667       0.005
   0.16666667 -0.33333333  0.16666667       0.005
   0.33333333 -0.33333333  0.16666667       0.005
   0.50000000 -0.33333333  0.16666667       0.005
  -0.33333333 -0.33333333  0.16666667       0.005
  -0.16666667 -0.33333333  0.16666667       0.005
   0.00000000 -0.16666667  0.16666667       0.005
   0.16666667 -0.16666667  0.16666667       0.005
   0.33333333 -0.16666667  0.16666667       0.005
   0.50000000 -0.16666667  0.16666667       0.005
  -0.33333333 -0.16666667  0.16666667       0.005
  -0.16666667 -0.16666667  0.16666667       0.005
   0.00000000  0.00000000  0.33333333       0.005
   0.16666667  0.00000000  0.33333333       0.005
   0.33333333  0.00000000  0.33333333       0.005
   0.50000000  0.00000000  0.33333333       0.005
  -0.33333333  0.00000000  0.33333333       0.005
  -0.16666667  0.00000000  0.33333333       0.005
   0.00000000  0.16666667  0.33333333       0.005
   0.16666667  0.16666667  0.33333333       0.005
   0.33333333  0.16666667  0.33333333       0.005
   0.50000000  0.16666667  0.33333333       0.005
  -0.33333333  0.16666667  0.33333333       0.005
  -0.16666667  0.16666667  0.33333333       0.005
   0.00000000  0.33333333  0.33333333       0.005
   0.16666667  0.33333333  0.33333333       0.005
   0.33333333  0.33333333  0.33333333       0.005
   0.50000000  0.33333333  0.33333333       0.005
  -0.33333333  0.33333333  0.33333333       0.005
  -0.16666667  0.33333333  0.33333333       0.005
   0.00000000  0.50000000  0.33333333       0.005
   0.16666667  0.50000000  0.33333333       0.005
   0.33333333  0.50000000  0.33333333       0.005
   0.50000000  0.50000000  0.33333333       0.005
  -0.33333333  0.50000000  0.33333333       0.005
  -0.16666667  0.50000000  0.33333333       0.005
   0.00000000 -0.33333333  0.33333333       0.005
   0.16666667 -0.33333333  0.33333333       0.005
   0.33333333 -0.33333333  0.33333333       0.005
   0.50000000 -0.33333333  0.33333333       0.005
  -0.33333333 -0.33333333  0.33333333       0.005
  -0.16666667 -0.33333333  0.33333333       0.005
   0.00000000 -0.16666667  0.33333333       0.005
   0.16666667 -0.16666667  0.33333333       0.005
   0.33333333 -0.16666667  0.33333333       0.005
   0.50000000 -0.16666667  0.33333333       0.005
  -0.33333333 -0.16666667  0.33333333       0.005
  -0.16666667 -0.16666667  0.33333333       0.005
   0.00000000  0.00000000  0.50000000       0.005
   0.16666667  0.00000000  0.50000000       0.005
   0.33333333  0.00000000  0.50000000       0.005
   0.50000000  0.00000000  0.50000000       0.005
  -0.33333333  0.00000000  0.50000000       0.005
  -0.16666667  0.00000000  0.50000000       0.005
   0.00000000  0.16666667  0.50000000       0.005
   0.16666667  0.16666667  0.50000000       0.005
   0.33333333  0.16666667  0.50000000       0.005
   0.50000000  0.16666667  0.50000000       0.005
  -0.33333333  0.16666667  0.50000000       0.005
  -0.16666667  0.16666667  0.50000000       0.005
   0.00000000  0.33333333  0.50000000       0.005
   0.16666667  0.33333333  0.50000000       0.005
   0.33333333  0.33333333  0.50000000       0.005
   0.50000000  0.33333333  0.50000000       0.005
  -0.33333333  0.33333333  0.50000000       0.005
  -0.16666667  0.33333333  0.50000000       0.005
   0.00000000  0.50000000  0.50000000       0.005
   0.16666667  0.50000000  0.50000000       0.005
   0.33333333  0.50000000  0.50000000       0.005
   0.50000000  0.50000000  0.50000000       0.005
  -0.33333333  0.50000000  0.50000000       0.005
  -0.16666667  0.50000000  0.50000000       0.005
   0.00000000 -0.33333333  0.50000000       0.005
   0.16666667 -0.33333333  0.50000000       0.005
   0.33333333 -0.33333333  0.50000000       0.005
   0.50000000 -0.33333333  0.50000000       0.005
  -0.33333333 -0.33333333  0.50000000       0.005
  -0.16666667 -0.33333333  0.50000000       0.005
   0.00000000 -0.16666667  0.50000000       0.005
   0.16666667 -0.16666667  0.50000000       0.005
   0.33333333 -0.16666667  0.50000000       0.005
   0.50000000 -0.16666667  0.50000000       0.005
  -0.33333333 -0.16666667  0.50000000       0.005
  -0.16666667 -0.16666667  0.50000000       0.005
   0.00000000  0.00000000 -0.33333333       0.005
   0.16666667  0.00000000 -0.33333333       0.005
   0.33333333  0.00000000 -0.33333333       0.005
   0.50000000  0.00000000 -0.33333333       0.005
  -0.33333333  0.00000000 -0.33333333       0.005
  -0.16666667  0.00000000 -0.33333333       0.005
   0.00000000  0.16666667 -0.33333333       0.005
   0.16666667  0.16666667 -0.33333333       0.005
   0.33333333  0.16666667 -0.33333333       0.005
   0.50000000  0.16666667 -0.33333333       0.005
  -0.33333333  0.16666667 -0.33333333       0.005
  -0.16666667  0.16666667 -0.33333333       0.005
   0.00000000  0.33333333 -0.33333333       0.005
   0.16666667  0.33333333 -0.33333333       0.005
   0.33333333  0.33333333 -0.33333333       0.005
   0.50000000  0.33333333 -0.33333333       0.005
  -0.33333333  0.33333333 -0.33333333       0.005
  -0.16666667  0.33333333 -0.33333333       0.005
   0.00000000  0.50000000 -0.33333333       0.005
   0.16666667  0.50000000 -0.33333333       0.005
   0.33333333  0.50000000 -0.33333333       0.005
   0.50000000  0.50000000 -0.33333333       0.005
  -0.33333333  0.50000000 -0.33333333       0.005
  -0.16666667  0.50000000 -0.33333333       0.005
   0.00000000 -0.33333333 -0.33333333       0.005
   0.16666667 -0.33333333 -0.33333333       0.005
   0.33333333 -0.33333333 -0.33333333       0.005
   0.50000000 -0.33333333 -0.33333333       0.005
  -0.33333333 -0.33333333 -0.33333333       0.005
  -0.16666667 -0.33333333 -0.33333333       0.005
   0.00000000 -0.16666667 -0.33333333       0.005
   0.16666667 -0.16666667 -0.33333333       0.005
   0.33333333 -0.16666667 -0.33333333       0.005
   0.50000000 -0.16666667 -0.33333333       0.005
  -0.33333333 -0.16666667 -0.33333333       0.005
  -0.16666667 -0.16666667 -0.33333333       0.005
   0.00000000  0.00000000 -0.16666667       0.005
   0.16666667  0.00000000 -0.16666667       0.005
   0.33333333  0.00000000 -0.16666667       0.005
   0.50000000  0.00000000 -0.16666667       0.005
  -0.33333333  0.00000000 -0.16666667       0.005
  -0.16666667  0.00000000 -0.16666667       0.005
   0.00000000  0.16666667 -0.16666667       0.005
   0.16666667  0.16666667 -0.16666667       0.005
   0.33333333  0.16666667 -0.16666667       0.005
   0.50000000  0.16666667 -0.16666667       0.005
  -0.33333333  0.16666667 -0.16666667       0.005
  -0.16666667  0.16666667 -0.16666667       0.005
   0.00000000  0.33333333 -0.16666667       0.005
   0.16666667  0.33333333 -0.16666667       0.005
   0.33333333  0.33333333 -0.16666667       0.005
   0.50000000  0.33333333 -0.16666667       0.005
  -0.33333333  0.33333333 -0.16666667       0.005
  -0.16666667  0.33333333 -0.16666667       0.005
   0.00000000  0.50000000 -0.16666667       0.005
   0.16666667  0.50000000 -0.16666667       0.005
   0.33333333  0.50000000 -0.16666667       0.005
   0.50000000  0.50000000 -0.16666667       0.005
  -0.33333333  0.50000000 -0.16666667       0.005
  -0.16666667  0.50000000 -0.16666667       0.005
   0.00000000 -0.33333333 -0.16666667       0.005
   0.16666667 -0.33333333 -0.16666667       0.005
   0.33333333 -0.33333333 -0.16666667       0.005
   0.50000000 -0.33333333 -0.16666667       0.005
  -0.33333333 -0.33333333 -0.16666667       0.005
  -0.16666667 -0.33333333 -0.16666667       0.005
   0.00000000 -0.16666667 -0.16666667       0.005
   0.16666667 -0.16666667 -0.16666667       0.005
   0.33333333 -0.16666667 -0.16666667       0.005
   0.50000000 -0.16666667 -0.16666667       0.005
  -0.33333333 -0.16666667 -0.16666667       0.005
 
 position of ions in fractional coordinates (direct lattice) 
   0.00000000  0.00000000  0.00000000
 
 position of ions in cartesian coordinates  (Angst):
   0.00000000  0.00000000  0.00000000
 
 Euler angles ALPHA=     0.0000000  BETA=     0.0000000

 transformation matrix from SAXIS to cartesian coordinates
 ---------------------------------------------------------
     1.0000000 m_x     0.0000000 m_y     0.0000000 m_z
     0.0000000 m_x     1.0000000 m_y     0.0000000 m_z
     0.0000000 m_x     0.0000000 m_y     1.0000000 m_z

 transformation matrix from cartesian coordinates to SAXIS
 ---------------------------------------------------------
     1.0000000 m_x     0.0000000 m_y     0.0000000 m_z
     0.0000000 m_x     1.0000000 m_y     0.0000000 m_z
     0.0000000 m_x     0.0000000 m_y     1.0000000 m_z




--------------------------------------------------------------------------------------------------------


 k-point  1 :   0.5000 0.5000 0.5000  plane waves:    1400
 k-point  2 :   0.4750 0.4750 0.4750  plane waves:    1364
 k-point  3 :   0.4500 0.4500 0.4500  plane waves:    1364
 k-point  4 :   0.4250 0.4250 0.4250  plane waves:    1364
 k-point  5 :   0.4000 0.4000 0.4000  plane waves:    1358
 k-point  6 :   0.3750 0.3750 0.3750  plane waves:    1352
 k-point  7 :   0.3500 0.3500 0.3500  plane waves:    1352
 k-point  8 :   0.3250 0.3250 0.3250  plane waves:    1346
 k-point  9 :   0.3000 0.3000 0.3000  plane waves:    1346
 k-point 10 :   0.2750 0.2750 0.2750  plane waves:    1352
 k-point 11 :   0.2500 0.2500 0.2500  plane waves:    1340
 k-point 12 :   0.2250 0.2250 0.2250  plane waves:    1346
 k-point 13 :   0.2000 0.2000 0.2000  plane waves:    1334
 k-point 14 :   0.1750 0.1750 0.1750  plane waves:    1346
 k-point 15 :   0.1500 0.1500 0.1500  plane waves:    1346
 k-point 16 :   0.1250 0.1250 0.1250  plane waves:    1346
 k-point 17 :   0.1000 0.1000 0.1000  plane waves:    1358
 k-point 18 :   0.0750 0.0750 0.0750  plane waves:    1358
 k-point 19 :   0.0500 0.0500 0.0500  plane waves:    1352
 k-point 20 :   0.0250 0.0250 0.0250  plane waves:    1346
 k-point 21 :   0.0000 0.0000 0.0000  plane waves:    1290
 k-point 22 :   0.0000 0.0250 0.0250  plane waves:    1346
 k-point 23 :   0.0000 0.0500 0.0500  plane waves:    1362
 k-point 24 :   0.0000 0.0750 0.0750  plane waves:    1362
 k-point 25 :   0.0000 0.1000 0.1000  plane waves:    1354
 k-point 26 :   0.0000 0.1250 0.1250  plane waves:    1346
 k-point 27 :   0.0000 0.1500 0.1500  plane waves:    1354
 k-point 28 :   0.0000 0.1750 0.1750  plane waves:    1362
 k-point 29 :   0.0000 0.2000 0.2000  plane waves:    1362
 k-point 30 :   0.0000 0.2250 0.2250  plane waves:    1354
 k-point 31 :   0.0000 0.2500 0.2500  plane waves:    1362
 k-point 32 :   0.0000 0.2750 0.2750  plane waves:    1354
 k-point 33 :   0.0000 0.3000 0.3000  plane waves:    1378
 k-point 34 :   0.0000 0.3250 0.3250  plane waves:    1362
 k-point 35 :   0.0000 0.3500 0.3500  plane waves:    1368
 k-point 36 :   0.0000 0.3750 0.3750  plane waves:    1368
 k-point 37 :   0.0000 0.4000 0.4000  plane waves:    1352
 k-point 38 :   0.0000 0.4250 0.4250  plane waves:    1352
 k-point 39 :   0.0000 0.4500 0.4500  plane waves:    1368
 k-point 40 :   0.0000 0.4750 0.4750  plane waves:    1384
 k-point 41 :   0.0000 0.5000 0.5000  plane waves:    1384
 k-point 42 :   0.0000 0.0000 0.0000  plane waves:    1290
 k-point 43 :   0.1667 0.0000 0.0000  plane waves:    1346
 k-point 44 :   0.3333 0.0000 0.0000  plane waves:    1328
 k-point 45 :   0.5000 0.0000 0.0000  plane waves:    1400
 k-point 46 :  -0.3333 0.0000 0.0000  plane waves:    1328
 k-point 47 :  -0.1667 0.0000 0.0000  plane waves:    1346
 k-point 48 :   0.0000 0.1667 0.0000  plane waves:    1346
 k-point 49 :   0.1667 0.1667 0.0000  plane waves:    1362
 k-point 50 :   0.3333 0.1667 0.0000  plane waves:    1360
 k-point 51 :   0.5000 0.1667 0.0000  plane waves:    1356
 k-point 52 :  -0.3333 0.1667 0.0000  plane waves:    1354
 k-point 53 :  -0.1667 0.1667 0.0000  plane waves:    1348
 k-point 54 :   0.0000 0.3333 0.0000  plane waves:    1328
 k-point 55 :   0.1667 0.3333 0.0000  plane waves:    1360
 k-point 56 :   0.3333 0.3333 0.0000  plane waves:    1360
 k-point 57 :   0.5000 0.3333 0.0000  plane waves:    1372
 k-point 58 :  -0.3333 0.3333 0.0000  plane waves:    1360
 k-point 59 :  -0.1667 0.3333 0.0000  plane waves:    1354
 k-point 60 :   0.0000 0.5000 0.0000  plane waves:    1400
 k-point 61 :   0.1667 0.5000 0.0000  plane waves:    1356
 k-point 62 :   0.3333 0.5000 0.0000  plane waves:    1372
 k-point 63 :   0.5000 0.5000 0.0000  plane waves:    1384
 k-point 64 :  -0.3333 0.5000 0.0000  plane waves:    1372
 k-point 65 :  -0.1667 0.5000 0.0000  plane waves:    1356
 k-point 66 :   0.0000-0.3333 0.0000  plane waves:    1328
 k-point 67 :   0.1667-0.3333 0.0000  plane waves:    1354
 k-point 68 :   0.3333-0.3333 0.0000  plane waves:    1360
 k-point 69 :   0.5000-0.3333 0.0000  plane waves:    1372
 k-point 70 :  -0.3333-0.3333 0.0000  plane waves:    1360
 k-point 71 :  -0.1667-0.3333 0.0000  plane waves:    1360
 k-point 72 :   0.0000-0.1667 0.0000  plane waves:    1346
 k-point 73 :   0.1667-0.1667 0.0000  plane waves:    1348
 k-point 74 :   0.3333-0.1667 0.0000  plane waves:    1354
 k-point 75 :   0.5000-0.1667 0.0000  plane waves:    1356
 k-point 76 :  -0.3333-0.1667 0.0000  plane waves:    1360
 k-point 77 :  -0.1667-0.1667 0.0000  plane waves:    1362
 k-point 78 :   0.0000 0.0000 0.1667  plane waves:    1346
 k-point 79 :   0.1667 0.0000 0.1667  plane waves:    1362
 k-point 80 :   0.3333 0.0000 0.1667  plane waves:    1360
 k-point 81 :   0.5000 0.0000 0.1667  plane waves:    1356
 k-point 82 :  -0.3333 0.0000 0.1667  plane waves:    1354
 k-point 83 :  -0.1667 0.0000 0.1667  plane waves:    1348
 k-point 84 :   0.0000 0.1667 0.1667  plane waves:    1362
 k-point 85 :   0.1667 0.1667 0.1667  plane waves:    1346
 k-point 86 :   0.3333 0.1667 0.1667  plane waves:    1348
 k-point 87 :   0.5000 0.1667 0.1667  plane waves:    1354
 k-point 88 :  -0.3333 0.1667 0.1667  plane waves:    1356
 k-point 89 :  -0.1667 0.1667 0.1667  plane waves:    1360
 k-point 90 :   0.0000 0.3333 0.1667  plane waves:    1360
 k-point 91 :   0.1667 0.3333 0.1667  plane waves:    1348
 k-point 92 :   0.3333 0.3333 0.1667  plane waves:    1360
 k-point 93 :   0.5000 0.3333 0.1667  plane waves:    1352
 k-point 94 :  -0.3333 0.3333 0.1667  plane waves:    1384
 k-point 95 :  -0.1667 0.3333 0.1667  plane waves:    1352
 k-point 96 :   0.0000 0.5000 0.1667  plane waves:    1356
 k-point 97 :   0.1667 0.5000 0.1667  plane waves:    1354
 k-point 98 :   0.3333 0.5000 0.1667  plane waves:    1352
 k-point 99 :   0.5000 0.5000 0.1667  plane waves:    1372
 k-point ** :  -0.3333 0.5000 0.1667  plane waves:    1380
 k-point ** :  -0.1667 0.5000 0.1667  plane waves:    1384
 k-point ** :   0.0000-0.3333 0.1667  plane waves:    1354
 k-point ** :   0.1667-0.3333 0.1667  plane waves:    1356
 k-point ** :   0.3333-0.3333 0.1667  plane waves:    1384
 k-point ** :   0.5000-0.3333 0.1667  plane waves:    1380
 k-point ** :  -0.3333-0.3333 0.1667  plane waves:    1372
 k-point ** :  -0.1667-0.3333 0.1667  plane waves:    1352
 k-point ** :   0.0000-0.1667 0.1667  plane waves:    1348
 k-point ** :   0.1667-0.1667 0.1667  plane waves:    1360
 k-point ** :   0.3333-0.1667 0.1667  plane waves:    1352
 k-point ** :   0.5000-0.1667 0.1667  plane waves:    1384
 k-point ** :  -0.3333-0.1667 0.1667  plane waves:    1352
 k-point ** :  -0.1667-0.1667 0.1667  plane waves:    1360
 k-point ** :   0.0000 0.0000 0.3333  plane waves:    1328
 k-point ** :   0.1667 0.0000 0.3333  plane waves:    1360
 k-point ** :   0.3333 0.0000 0.3333  plane waves:    1360
 k-point ** :   0.5000 0.0000 0.3333  plane waves:    1372
 k-point ** :  -0.3333 0.0000 0.3333  plane waves:    1360
 k-point ** :  -0.1667 0.0000 0.3333  plane waves:    1354
 k-point ** :   0.0000 0.1667 0.3333  plane waves:    1360
 k-point ** :   0.1667 0.1667 0.3333  plane waves:    1348
 k-point ** :   0.3333 0.1667 0.3333  plane waves:    1360
 k-point ** :   0.5000 0.1667 0.3333  plane waves:    1352
 k-point ** :  -0.3333 0.1667 0.3333  plane waves:    1384
 k-point ** :  -0.1667 0.1667 0.3333  plane waves:    1352
 k-point ** :   0.0000 0.3333 0.3333  plane waves:    1360
 k-point ** :   0.1667 0.3333 0.3333  plane waves:    1360
 k-point ** :   0.3333 0.3333 0.3333  plane waves:    1328
 k-point ** :   0.5000 0.3333 0.3333  plane waves:    1354
 k-point ** :  -0.3333 0.3333 0.3333  plane waves:    1360
 k-point ** :  -0.1667 0.3333 0.3333  plane waves:    1372
 k-point ** :   0.0000 0.5000 0.3333  plane waves:    1372
 k-point ** :   0.1667 0.5000 0.3333  plane waves:    1352
 k-point ** :   0.3333 0.5000 0.3333  plane waves:    1354
 k-point ** :   0.5000 0.5000 0.3333  plane waves:    1356
 k-point ** :  -0.3333 0.5000 0.3333  plane waves:    1384
 k-point ** :  -0.1667 0.5000 0.3333  plane waves:    1380
 k-point ** :   0.0000-0.3333 0.3333  plane waves:    1360
 k-point ** :   0.1667-0.3333 0.3333  plane waves:    1384
 k-point ** :   0.3333-0.3333 0.3333  plane waves:    1360
 k-point ** :   0.5000-0.3333 0.3333  plane waves:    1384
 k-point ** :  -0.3333-0.3333 0.3333  plane waves:    1360
 k-point ** :  -0.1667-0.3333 0.3333  plane waves:    1384
 k-point ** :   0.0000-0.1667 0.3333  plane waves:    1354
 k-point ** :   0.1667-0.1667 0.3333  plane waves:    1352
 k-point ** :   0.3333-0.1667 0.3333  plane waves:    1372
 k-point ** :   0.5000-0.1667 0.3333  plane waves:    1380
 k-point ** :  -0.3333-0.1667 0.3333  plane waves:    1384
 k-point ** :  -0.1667-0.1667 0.3333  plane waves:    1356
 k-point ** :   0.0000 0.0000 0.5000  plane waves:    1400
 k-point ** :   0.1667 0.0000 0.5000  plane waves:    1356
 k-point ** :   0.3333 0.0000 0.5000  plane waves:    1372
 k-point ** :   0.5000 0.0000 0.5000  plane waves:    1384
 k-point ** :  -0.3333 0.0000 0.5000  plane waves:    1372
 k-point ** :  -0.1667 0.0000 0.5000  plane waves:    1356
 k-point ** :   0.0000 0.1667 0.5000  plane waves:    1356
 k-point ** :   0.1667 0.1667 0.5000  plane waves:    1354
 k-point ** :   0.3333 0.1667 0.5000  plane waves:    1352
 k-point ** :   0.5000 0.1667 0.5000  plane waves:    1372
 k-point ** :  -0.3333 0.1667 0.5000  plane waves:    1380
 k-point ** :  -0.1667 0.1667 0.5000  plane waves:    1384
 k-point ** :   0.0000 0.3333 0.5000  plane waves:    1372
 k-point ** :   0.1667 0.3333 0.5000  plane waves:    1352
 k-point ** :   0.3333 0.3333 0.5000  plane waves:    1354
 k-point ** :   0.5000 0.3333 0.5000  plane waves:    1356
 k-point ** :  -0.3333 0.3333 0.5000  plane waves:    1384
 k-point ** :  -0.1667 0.3333 0.5000  plane waves:    1380
 k-point ** :   0.0000 0.5000 0.5000  plane waves:    1384
 k-point ** :   0.1667 0.5000 0.5000  plane waves:    1372
 k-point ** :   0.3333 0.5000 0.5000  plane waves:    1356
 k-point ** :   0.5000 0.5000 0.5000  plane waves:    1400
 k-point ** :  -0.3333 0.5000 0.5000  plane waves:    1356
 k-point ** :  -0.1667 0.5000 0.5000  plane waves:    1372
 k-point ** :   0.0000-0.3333 0.5000  plane waves:    1372
 k-point ** :   0.1667-0.3333 0.5000  plane waves:    1380
 k-point ** :   0.3333-0.3333 0.5000  plane waves:    1384
 k-point ** :   0.5000-0.3333 0.5000  plane waves:    1356
 k-point ** :  -0.3333-0.3333 0.5000  plane waves:    1354
 k-point ** :  -0.1667-0.3333 0.5000  plane waves:    1352
 k-point ** :   0.0000-0.1667 0.5000  plane waves:    1356
 k-point ** :   0.1667-0.1667 0.5000  plane waves:    1384
 k-point ** :   0.3333-0.1667 0.5000  plane waves:    1380
 k-point ** :   0.5000-0.1667 0.5000  plane waves:    1372
 k-point ** :  -0.3333-0.1667 0.5000  plane waves:    1352
 k-point ** :  -0.1667-0.1667 0.5000  plane waves:    1354
 k-point ** :   0.0000 0.0000-0.3333  plane waves:    1328
 k-point ** :   0.1667 0.0000-0.3333  plane waves:    1354
 k-point ** :   0.3333 0.0000-0.3333  plane waves:    1360
 k-point ** :   0.5000 0.0000-0.3333  plane waves:    1372
 k-point ** :  -0.3333 0.0000-0.3333  plane waves:    1360
 k-point ** :  -0.1667 0.0000-0.3333  plane waves:    1360
 k-point ** :   0.0000 0.1667-0.3333  plane waves:    1354
 k-point ** :   0.1667 0.1667-0.3333  plane waves:    1356
 k-point ** :   0.3333 0.1667-0.3333  plane waves:    1384
 k-point ** :   0.5000 0.1667-0.3333  plane waves:    1380
 k-point ** :  -0.3333 0.1667-0.3333  plane waves:    1372
 k-point ** :  -0.1667 0.1667-0.3333  plane waves:    1352
 k-point ** :   0.0000 0.3333-0.3333  plane waves:    1360
 k-point ** :   0.1667 0.3333-0.3333  plane waves:    1384
 k-point ** :   0.3333 0.3333-0.3333  plane waves:    1360
 k-point ** :   0.5000 0.3333-0.3333  plane waves:    1384
 k-point ** :  -0.3333 0.3333-0.3333  plane waves:    1360
 k-point ** :  -0.1667 0.3333-0.3333  plane waves:    1384
 k-point ** :   0.0000 0.5000-0.3333  plane waves:    1372
 k-point ** :   0.1667 0.5000-0.3333  plane waves:    1380
 k-point ** :   0.3333 0.5000-0.3333  plane waves:    1384
 k-point ** :   0.5000 0.5000-0.3333  plane waves:    1356
 k-point ** :  -0.3333 0.5000-0.3333  plane waves:    1354
 k-point ** :  -0.1667 0.5000-0.3333  plane waves:    1352
 k-point ** :   0.0000-0.3333-0.3333  plane waves:    1360
 k-point ** :   0.1667-0.3333-0.3333  plane waves:    1372
 k-point ** :   0.3333-0.3333-0.3333  plane waves:    1360
 k-point ** :   0.5000-0.3333-0.3333  plane waves:    1354
 k-point ** :  -0.3333-0.3333-0.3333  plane waves:    1328
 k-point ** :  -0.1667-0.3333-0.3333  plane waves:    1360
 k-point ** :   0.0000-0.1667-0.3333  plane waves:    1360
 k-point ** :   0.1667-0.1667-0.3333  plane waves:    1352
 k-point ** :   0.3333-0.1667-0.3333  plane waves:    1384
 k-point ** :   0.5000-0.1667-0.3333  plane waves:    1352
 k-point ** :  -0.3333-0.1667-0.3333  plane waves:    1360
 k-point ** :  -0.1667-0.1667-0.3333  plane waves:    1348
 k-point ** :   0.0000 0.0000-0.1667  plane waves:    1346
 k-point ** :   0.1667 0.0000-0.1667  plane waves:    1348
 k-point ** :   0.3333 0.0000-0.1667  plane waves:    1354
 k-point ** :   0.5000 0.0000-0.1667  plane waves:    1356
 k-point ** :  -0.3333 0.0000-0.1667  plane waves:    1360
 k-point ** :  -0.1667 0.0000-0.1667  plane waves:    1362
 k-point ** :   0.0000 0.1667-0.1667  plane waves:    1348
 k-point ** :   0.1667 0.1667-0.1667  plane waves:    1360
 k-point ** :   0.3333 0.1667-0.1667  plane waves:    1352
 k-point ** :   0.5000 0.1667-0.1667  plane waves:    1384
 k-point ** :  -0.3333 0.1667-0.1667  plane waves:    1352
 k-point ** :  -0.1667 0.1667-0.1667  plane waves:    1360
 k-point ** :   0.0000 0.3333-0.1667  plane waves:    1354
 k-point ** :   0.1667 0.3333-0.1667  plane waves:    1352
 k-point ** :   0.3333 0.3333-0.1667  plane waves:    1372
 k-point ** :   0.5000 0.3333-0.1667  plane waves:    1380
 k-point ** :  -0.3333 0.3333-0.1667  plane waves:    1384
 k-point ** :  -0.1667 0.3333-0.1667  plane waves:    1356
 k-point ** :   0.0000 0.5000-0.1667  plane waves:    1356
 k-point ** :   0.1667 0.5000-0.1667  plane waves:    1384
 k-point ** :   0.3333 0.5000-0.1667  plane waves:    1380
 k-point ** :   0.5000 0.5000-0.1667  plane waves:    1372
 k-point ** :  -0.3333 0.5000-0.1667  plane waves:    1352
 k-point ** :  -0.1667 0.5000-0.1667  plane waves:    1354
 k-point ** :   0.0000-0.3333-0.1667  plane waves:    1360
 k-point ** :   0.1667-0.3333-0.1667  plane waves:    1352
 k-point ** :   0.3333-0.3333-0.1667  plane waves:    1384
 k-point ** :   0.5000-0.3333-0.1667  plane waves:    1352
 k-point ** :  -0.3333-0.3333-0.1667  plane waves:    1360
 k-point ** :  -0.1667-0.3333-0.1667  plane waves:    1348
 k-point ** :   0.0000-0.1667-0.1667  plane waves:    1362
 k-point ** :   0.1667-0.1667-0.1667  plane waves:    1360
 k-point ** :   0.3333-0.1667-0.1667  plane waves:    1356
 k-point ** :   0.5000-0.1667-0.1667  plane waves:    1354
 k-point ** :  -0.3333-0.1667-0.1667  plane waves:    1348

 maximum and minimum number of plane-waves per node :       372      310

 maximum number of plane-waves:      1400
 maximum index in each direction: 
   IXMAX=    6   IYMAX=    6   IZMAX=    6
   IXMIN=   -6   IYMIN=   -6   IZMIN=   -6


 parallel 3D FFT for wavefunctions:
    minimum data exchange during FFTs selected (reduces bandwidth)
 parallel 3D FFT for charge:
    minimum data exchange during FFTs selected (reduces bandwidth)


 total amount of memory used by VASP MPI-rank0   113366. kBytes
=======================================================================

   base      :      30000. kBytes
   nonl-proj :      11602. kBytes
   fftplans  :       8155. kBytes
   grid      :       8625. kBytes
   one-center:        196. kBytes
   wavefun   :      54788. kBytes
 
     INWAV:  cpu time    0.0000: real time    0.0000
 Broyden mixing: mesh for mixing (old mesh)
   NGX = 13   NGY = 13   NGZ = 13
  (NGX  = 48   NGY  = 48   NGZ  = 48)
  gives a total of   2197 points

 initial charge density was supplied:
 charge density of overlapping atoms calculated
 number of electron       8.0000000 magnetization       1.0000000      1.0000000      1.0000000
 keeping initial charge density in first step


--------------------------------------------------------------------------------------------------------


 Maximum index for augmentation-charges        23021 (set IRDMAX)


--------------------------------------------------------------------------------------------------------


 First call to EWALD:  gamma=   0.459
 Maximum number of real-space cells 3x 3x 3
 Maximum number of reciprocal cells 3x 3x 3

    FEWALD:  cpu time    0.0019: real time    0.0019


--------------------------------------- Iteration      1(   1)  ---------------------------------------


    POTLOK:  cpu time    0.2302: real time    0.2313
    SETDIJ:  cpu time    0.3110: real time    0.3113
     EDDAV:  cpu time    6.9336: real time    6.9432
       DOS:  cpu time    0.0034: real time    0.0034
    --------------------------------------------
      LOOP:  cpu time    7.4781: real time    7.4892

 eigenvalue-minimisations  : 16392
 total energy-change (2. order) :-0.7240286E+01  (-0.1882011E+03)
 number of electron       8.0000000 magnetization       1.0000000      1.0000000      1.0000000
 augmentation part        8.0000000 magnetization       1.0000000      1.0000000      1.0000000

 Free energy of the ion-electron system (eV)
  ---------------------------------------------------
  alpha Z        PSCENC =        22.61767795
  Ewald energy   TEWEN  =      -344.53113738
  -Hartree energ DENC   =       -64.52406707
  -exchange      EXHF   =         0.00000000
  -V(xc)+E(xc)   XCENC  =       -57.35687117
  PAW double counting   =       413.00176589     -372.52262559
  entropy T*S    EENTRO =        -0.00007097
  eigenvalues    EBANDS =       -33.42773863
  atomic energy  EATOM  =       429.50278051
  Solvation  Ediel_sol  =         0.00000000
  ---------------------------------------------------
  free energy    TOTEN  =        -7.24028647 eV

  energy without entropy =       -7.24021549  energy(sigma->0) =       -7.24025098


--------------------------------------------------------------------------------------------------------




--------------------------------------- Iteration      1(   2)  ---------------------------------------


     EDDAV:  cpu time    8.1473: real time    8.1611
       DOS:  cpu time    0.0015: real time    0.0015
    --------------------------------------------
      LOOP:  cpu time    8.1488: real time    8.1626

 eigenvalue-minimisations  : 21496
 total energy-change (2. order) :-0.2852394E+02  (-0.2683219E+02)
 number of electron       8.0000000 magnetization       1.0000000      1.0000000      1.0000000
 augmentation part        8.0000000 magnetization       1.0000000      1.0000000      1.0000000

 Free energy of the ion-electron system (eV)
  ---------------------------------------------------
  alpha Z        PSCENC =        22.61767795
  Ewald energy   TEWEN  =      -344.53113738
  -Hartree energ DENC   =       -64.52406707
  -exchange      EXHF   =         0.00000000
  -V(xc)+E(xc)   XCENC  =       -57.35687117
  PAW double counting   =       413.00176589     -372.52262559
  entropy T*S    EENTRO =        -0.00000000
  eigenvalues    EBANDS =       -61.95175161
  atomic energy  EATOM  =       429.50278051
  Solvation  Ediel_sol  =         0.00000000
  ---------------------------------------------------
  free energy    TOTEN  =       -35.76422847 eV

  energy without entropy =      -35.76422847  energy(sigma->0) =      -35.76422847


--------------------------------------------------------------------------------------------------------




--------------------------------------- Iteration      1(   3)  ---------------------------------------


     EDDAV:  cpu time    8.0104: real time    8.0221
       DOS:  cpu time    0.0016: real time    0.0016
    --------------------------------------------
      LOOP:  cpu time    8.0120: real time    8.0237

 eigenvalue-minimisations  : 20944
 total energy-change (2. order) :-0.1644419E+01  (-0.1632352E+01)
 number of electron       8.0000000 magnetization       1.0000000      1.0000000      1.0000000
 augmentation part        8.0000000 magnetization       1.0000000      1.0000000      1.0000000

 Free energy of the ion-electron system (eV)
  ---------------------------------------------------
  alpha Z        PSCENC =        22.61767795
  Ewald energy   TEWEN  =      -344.53113738
  -Hartree energ DENC   =       -64.52406707
  -exchange      EXHF   =         0.00000000
  -V(xc)+E(xc)   XCENC  =       -57.35687117
  PAW double counting   =       413.00176589     -372.52262559
  entropy T*S    EENTRO =        -0.00000000
  eigenvalues    EBANDS =       -63.59617095
  atomic energy  EATOM  =       429.50278051
  Solvation  Ediel_sol  =         0.00000000
  ---------------------------------------------------
  free energy    TOTEN  =       -37.40864782 eV

  energy without entropy =      -37.40864782  energy(sigma->0) =      -37.40864782


--------------------------------------------------------------------------------------------------------




--------------------------------------- Iteration      1(   4)  ---------------------------------------


     EDDAV:  cpu time    7.8508: real time    7.8617
       DOS:  cpu time    0.0017: real time    0.0017
    --------------------------------------------
      LOOP:  cpu time    7.8525: real time    7.8634

 eigenvalue-minimisations  : 20176
 total energy-change (2. order) :-0.1182408E-01  (-0.1182258E-01)
 number of electron       8.0000000 magnetization       1.0000000      1.0000000      1.0000000
 augmentation part        8.0000000 magnetization       1.0000000      1.0000000      1.0000000

 Free energy of the ion-electron system (eV)
  ---------------------------------------------------
  alpha Z        PSCENC =        22.61767795
  Ewald energy   TEWEN  =      -344.53113738
  -Hartree energ DENC   =       -64.52406707
  -exchange      EXHF   =         0.00000000
  -V(xc)+E(xc)   XCENC  =       -57.35687117
  PAW double counting   =       413.00176589     -372.52262559
  entropy T*S    EENTRO =        -0.00000000
  eigenvalues    EBANDS =       -63.60799503
  atomic energy  EATOM  =       429.50278051
  Solvation  Ediel_sol  =         0.00000000
  ---------------------------------------------------
  free energy    TOTEN  =       -37.42047189 eV

  energy without entropy =      -37.42047189  energy(sigma->0) =      -37.42047189


--------------------------------------------------------------------------------------------------------




--------------------------------------- Iteration      1(   5)  ---------------------------------------


     EDDAV:  cpu time    8.0418: real time    8.0545
       DOS:  cpu time    0.0016: real time    0.0016
    CHARGE:  cpu time    2.0136: real time    2.0154
    MIXING:  cpu time    0.0064: real time    0.0064
    --------------------------------------------
      LOOP:  cpu time   10.0635: real time   10.0780

 eigenvalue-minimisations  : 21248
 total energy-change (2. order) :-0.7041787E-04  (-0.7041718E-04)
 number of electron       8.0000000 magnetization      -0.2137576     -0.2137570     -0.2137568
 augmentation part       -1.3258686 magnetization      -0.2203705     -0.2203635     -0.2203634

 Broyden mixing:
  rms(total) = 0.43205E+00    rms(broyden)= 0.43205E+00
  rms(prec ) = 0.43935E+00
  weight for this iteration     100.00

 Free energy of the ion-electron system (eV)
  ---------------------------------------------------
  alpha Z        PSCENC =        22.61767795
  Ewald energy   TEWEN  =      -344.53113738
  -Hartree energ DENC   =       -64.52406707
  -exchange      EXHF   =         0.00000000
  -V(xc)+E(xc)   XCENC  =       -57.35687117
  PAW double counting   =       413.00176589     -372.52262559
  entropy T*S    EENTRO =        -0.00000000
  eigenvalues    EBANDS =       -63.60806545
  atomic energy  EATOM  =       429.50278051
  Solvation  Ediel_sol  =         0.00000000
  ---------------------------------------------------
  free energy    TOTEN  =       -37.42054231 eV

  energy without entropy =      -37.42054231  energy(sigma->0) =      -37.42054231


--------------------------------------------------------------------------------------------------------




--------------------------------------- Iteration      1(   6)  ---------------------------------------


    POTLOK:  cpu time    0.2183: real time    0.2187
    SETDIJ:  cpu time    0.3041: real time    0.3045
     EDDAV:  cpu time    7.4899: real time    7.5003
       DOS:  cpu time    0.0016: real time    0.0016
    CHARGE:  cpu time    2.0026: real time    2.0044
    MIXING:  cpu time    0.0066: real time    0.0066
    --------------------------------------------
      LOOP:  cpu time   10.0232: real time   10.0361

 eigenvalue-minimisations  : 18784
 total energy-change (2. order) : 0.1073069E+01  (-0.1602290E-01)
 number of electron       8.0000000 magnetization      -0.0090041     -0.0090066     -0.0090071
 augmentation part       -1.3396228 magnetization      -0.0071977     -0.0071922     -0.0071684

 Broyden mixing:
  rms(total) = 0.11903E+00    rms(broyden)= 0.11903E+00
  rms(prec ) = 0.12566E+00
  weight for this iteration     100.00

 eigenvalues of (default mixing * dielectric matrix)
  average eigenvalue GAMMA=   0.7884
  0.7884

 Free energy of the ion-electron system (eV)
  ---------------------------------------------------
  alpha Z        PSCENC =        22.61767795
  Ewald energy   TEWEN  =      -344.53113738
  -Hartree energ DENC   =       -64.03705769
  -exchange      EXHF   =         0.00000000
  -V(xc)+E(xc)   XCENC  =       -57.33564341
  PAW double counting   =       413.64114982     -373.14486214
  entropy T*S    EENTRO =        -0.00000000
  eigenvalues    EBANDS =       -63.06038114
  atomic energy  EATOM  =       429.50278051
  Solvation  Ediel_sol  =         0.00000000
  ---------------------------------------------------
  free energy    TOTEN  =       -36.34747350 eV

  energy without entropy =      -36.34747350  energy(sigma->0) =      -36.34747350


--------------------------------------------------------------------------------------------------------




--------------------------------------- Iteration      1(   7)  ---------------------------------------


    POTLOK:  cpu time    0.2191: real time    0.2196
    SETDIJ:  cpu time    0.3045: real time    0.3048
     EDDAV:  cpu time    7.3902: real time    7.4003
       DOS:  cpu time    0.0016: real time    0.0016
    CHARGE:  cpu time    2.0079: real time    2.0096
    MIXING:  cpu time    0.0070: real time    0.0071
    --------------------------------------------
      LOOP:  cpu time    9.9303: real time    9.9430

 eigenvalue-minimisations  : 18008
 total energy-change (2. order) :-0.4801344E-01  (-0.9556820E-02)
 number of electron       8.0000000 magnetization      -0.0016601     -0.0016607     -0.0016607
 augmentation part       -1.3408941 magnetization      -0.0029306     -0.0029759     -0.0030485

 Broyden mixing:
  rms(total) = 0.35376E-01    rms(broyden)= 0.35375E-01
  rms(prec ) = 0.40789E-01
  weight for this iteration     100.00

 eigenvalues of (default mixing * dielectric matrix)
  average eigenvalue GAMMA=   0.6752
  0.8237  0.5266

 Free energy of the ion-electron system (eV)
  ---------------------------------------------------
  alpha Z        PSCENC =        22.61767795
  Ewald energy   TEWEN  =      -344.53113738
  -Hartree energ DENC   =       -64.22855999
  -exchange      EXHF   =         0.00000000
  -V(xc)+E(xc)   XCENC  =       -57.19999678
  PAW double counting   =       417.64732554     -377.29450592
  entropy T*S    EENTRO =        -0.00000000
  eigenvalues    EBANDS =       -62.90907085
  atomic energy  EATOM  =       429.50278051
  Solvation  Ediel_sol  =         0.00000000
  ---------------------------------------------------
  free energy    TOTEN  =       -36.39548694 eV

  energy without entropy =      -36.39548694  energy(sigma->0) =      -36.39548694


--------------------------------------------------------------------------------------------------------




--------------------------------------- Iteration      1(   8)  ---------------------------------------


    POTLOK:  cpu time    0.2173: real time    0.2217
    SETDIJ:  cpu time    0.3047: real time    0.3051
     EDDAV:  cpu time    7.7124: real time    7.7231
       DOS:  cpu time    0.0015: real time    0.0015
    CHARGE:  cpu time    2.0201: real time    2.0266
    MIXING:  cpu time    0.0075: real time    0.0075
    --------------------------------------------
      LOOP:  cpu time   10.2635: real time   10.2854

 eigenvalue-minimisations  : 19712
 total energy-change (2. order) : 0.1260623E-02  (-0.7568769E-03)
 number of electron       8.0000000 magnetization      -0.0011615     -0.0011619     -0.0011612
 augmentation part       -1.3409869 magnetization      -0.0008474     -0.0008398     -0.0008616

 Broyden mixing:
  rms(total) = 0.14350E-01    rms(broyden)= 0.14349E-01
  rms(prec ) = 0.20648E-01
  weight for this iteration     100.00

 eigenvalues of (default mixing * dielectric matrix)
  average eigenvalue GAMMA=   0.6540
  0.8583  0.6086  0.4951

 Free energy of the ion-electron system (eV)
  ---------------------------------------------------
  alpha Z        PSCENC =        22.61767795
  Ewald energy   TEWEN  =      -344.53113738
  -Hartree energ DENC   =       -64.29831088
  -exchange      EXHF   =         0.00000000
  -V(xc)+E(xc)   XCENC  =       -57.19052015
  PAW double counting   =       418.02493562     -377.67909677
  entropy T*S    EENTRO =        -0.00000000
  eigenvalues    EBANDS =       -62.84055521
  atomic energy  EATOM  =       429.50278051
  Solvation  Ediel_sol  =         0.00000000
  ---------------------------------------------------
  free energy    TOTEN  =       -36.39422632 eV

  energy without entropy =      -36.39422632  energy(sigma->0) =      -36.39422632


--------------------------------------------------------------------------------------------------------




--------------------------------------- Iteration      1(   9)  ---------------------------------------


    POTLOK:  cpu time    0.2183: real time    0.2187
    SETDIJ:  cpu time    0.3062: real time    0.3065
     EDDAV:  cpu time    7.7864: real time    7.7968
       DOS:  cpu time    0.0015: real time    0.0015
    CHARGE:  cpu time    2.0175: real time    2.0192
    MIXING:  cpu time    0.0073: real time    0.0073
    --------------------------------------------
      LOOP:  cpu time   10.3371: real time   10.3501

 eigenvalue-minimisations  : 20088
 total energy-change (2. order) : 0.9527180E-04  (-0.8549835E-04)
 number of electron       8.0000000 magnetization      -0.0017695     -0.0017691     -0.0017700
 augmentation part       -1.3403647 magnetization      -0.0017133     -0.0017045     -0.0017145

 Broyden mixing:
  rms(total) = 0.45821E-02    rms(broyden)= 0.45813E-02
  rms(prec ) = 0.11079E-01
  weight for this iteration     100.00

 eigenvalues of (default mixing * dielectric matrix)
  average eigenvalue GAMMA=   0.7042
  0.8426  0.7182  0.7182  0.5379

 Free energy of the ion-electron system (eV)
  ---------------------------------------------------
  alpha Z        PSCENC =        22.61767795
  Ewald energy   TEWEN  =      -344.53113738
  -Hartree energ DENC   =       -64.35674687
  -exchange      EXHF   =         0.00000000
  -V(xc)+E(xc)   XCENC  =       -57.18541735
  PAW double counting   =       417.86557297     -377.52640535
  entropy T*S    EENTRO =        -0.00000000
  eigenvalues    EBANDS =       -62.78045553
  atomic energy  EATOM  =       429.50278051
  Solvation  Ediel_sol  =         0.00000000
  ---------------------------------------------------
  free energy    TOTEN  =       -36.39413105 eV

  energy without entropy =      -36.39413105  energy(sigma->0) =      -36.39413105


--------------------------------------------------------------------------------------------------------




--------------------------------------- Iteration      1(  10)  ---------------------------------------


    POTLOK:  cpu time    0.2204: real time    0.2208
    SETDIJ:  cpu time    0.3037: real time    0.3041
     EDDAV:  cpu time    7.6567: real time    7.6674
       DOS:  cpu time    0.0015: real time    0.0015
    CHARGE:  cpu time    2.0201: real time    2.0218
    MIXING:  cpu time    0.0073: real time    0.0073
    --------------------------------------------
      LOOP:  cpu time   10.2098: real time   10.2230

 eigenvalue-minimisations  : 19400
 total energy-change (2. order) : 0.2923553E-04  (-0.7714492E-04)
 number of electron       8.0000000 magnetization      -0.0001285     -0.0001300     -0.0001315
 augmentation part       -1.3395022 magnetization      -0.0001056     -0.0000636     -0.0000924

 Broyden mixing:
  rms(total) = 0.36679E-02    rms(broyden)= 0.36675E-02
  rms(prec ) = 0.42114E-02
  weight for this iteration     100.00

 eigenvalues of (default mixing * dielectric matrix)
  average eigenvalue GAMMA=   0.8406
  1.3053  0.9399  0.7980  0.5923  0.5676

 Free energy of the ion-electron system (eV)
  ---------------------------------------------------
  alpha Z        PSCENC =        22.61767795
  Ewald energy   TEWEN  =      -344.53113738
  -Hartree energ DENC   =       -64.46750909
  -exchange      EXHF   =         0.00000000
  -V(xc)+E(xc)   XCENC  =       -57.17449919
  PAW double counting   =       417.64518160     -377.31736777
  entropy T*S    EENTRO =        -0.00000000
  eigenvalues    EBANDS =       -62.66922843
  atomic energy  EATOM  =       429.50278051
  Solvation  Ediel_sol  =         0.00000000
  ---------------------------------------------------
  free energy    TOTEN  =       -36.39410181 eV

  energy without entropy =      -36.39410181  energy(sigma->0) =      -36.39410181


--------------------------------------------------------------------------------------------------------




--------------------------------------- Iteration      1(  11)  ---------------------------------------


    POTLOK:  cpu time    0.2191: real time    0.2211
    SETDIJ:  cpu time    0.3056: real time    0.3060
     EDDAV:  cpu time    7.5379: real time    7.5481
       DOS:  cpu time    0.0016: real time    0.0016
    CHARGE:  cpu time    2.0179: real time    2.0196
    MIXING:  cpu time    0.0075: real time    0.0075
    --------------------------------------------
      LOOP:  cpu time   10.0895: real time   10.1038

 eigenvalue-minimisations  : 18736
 total energy-change (2. order) : 0.7224136E-04  (-0.5154933E-04)
 number of electron       8.0000000 magnetization      -0.0000629     -0.0000635     -0.0000639
 augmentation part       -1.3392786 magnetization      -0.0000323     -0.0000239     -0.0000301

 Broyden mixing:
  rms(total) = 0.16553E-02    rms(broyden)= 0.16552E-02
  rms(prec ) = 0.19885E-02
  weight for this iteration     100.00

 eigenvalues of (default mixing * dielectric matrix)
  average eigenvalue GAMMA=   0.9288
  1.9873  0.9153  0.7775  0.7775  0.5374  0.5779

 Free energy of the ion-electron system (eV)
  ---------------------------------------------------
  alpha Z        PSCENC =        22.61767795
  Ewald energy   TEWEN  =      -344.53113738
  -Hartree energ DENC   =       -64.48728878
  -exchange      EXHF   =         0.00000000
  -V(xc)+E(xc)   XCENC  =       -57.17234782
  PAW double counting   =       417.71267093     -377.38583681
  entropy T*S    EENTRO =        -0.00000000
  eigenvalues    EBANDS =       -62.65054817
  atomic energy  EATOM  =       429.50278051
  Solvation  Ediel_sol  =         0.00000000
  ---------------------------------------------------
  free energy    TOTEN  =       -36.39402957 eV

  energy without entropy =      -36.39402957  energy(sigma->0) =      -36.39402957


--------------------------------------------------------------------------------------------------------




--------------------------------------- Iteration      1(  12)  ---------------------------------------


    POTLOK:  cpu time    0.2181: real time    0.2185
    SETDIJ:  cpu time    0.3051: real time    0.3055
     EDDAV:  cpu time    7.9476: real time    7.9587
       DOS:  cpu time    0.0016: real time    0.0016
    CHARGE:  cpu time    2.0012: real time    2.0029
    MIXING:  cpu time    0.0079: real time    0.0079
    --------------------------------------------
      LOOP:  cpu time   10.4813: real time   10.4950

 eigenvalue-minimisations  : 20576
 total energy-change (2. order) :-0.1664974E-04  (-0.1898054E-05)
 number of electron       8.0000000 magnetization      -0.0000745     -0.0000734     -0.0000728
 augmentation part       -1.3392510 magnetization      -0.0000501     -0.0000444     -0.0000457

[...]
 -0.000  -0.000   0.000  -0.000  -0.000   0.000  -0.000  -0.000  -0.000  -0.000   0.000  -0.000  -0.000   0.000   0.000  -0.000
  0.000  -0.000   0.000  -0.000   0.000  -0.000  -0.000  -0.000   0.000   0.000  -0.000   0.000   0.000  -0.000  -0.000   0.000
 -0.000  -0.000   0.000  -0.000  -0.000  -0.000  -0.000  -0.000  -0.000  -0.000   0.000  -0.000  -0.000   0.000   0.000   0.000
 -0.000  -0.000   0.000  -0.000  -0.000   0.000  -0.000   0.000  -0.000  -0.000  -0.000   0.000  -0.000  -0.000  -0.000   0.000
  0.000   0.000  -0.000  -0.000  -0.000  -0.000  -0.000  -0.000  -0.000  -0.000   0.000  -0.000  -0.000  -0.000   0.000  -0.000
  0.000   0.000  -0.000  -0.000   0.000   0.000  -0.000   0.000  -0.000  -0.000   0.000  -0.000  -0.000  -0.000   0.000   0.000
 -0.000  -0.000  -0.000  -0.000   0.000  -0.000  -0.000  -0.000  -0.000  -0.000  -0.000  -0.000  -0.000  -0.000  -0.000   0.000
  0.000  -0.000   0.000  -0.000  -0.000   0.000  -0.000  -0.000   0.000  -0.000   0.000   0.000   0.000   0.000  -0.000  -0.000
 total augmentation occupancy for first ion, spin component:           2
 -0.000  -0.000  -0.000  -0.000   0.000  -0.000   0.000  -0.000   0.000   0.000  -0.000   0.000   0.000   0.000   0.000  -0.000
 -0.000  -0.000   0.000  -0.000   0.000  -0.000   0.000  -0.000   0.000   0.000  -0.000   0.000   0.000   0.000   0.000  -0.000
 -0.000   0.000  -0.000   0.000   0.000   0.000  -0.000  -0.000   0.000   0.000   0.000   0.000   0.000  -0.000  -0.000  -0.000
 -0.000  -0.000   0.000  -0.000   0.000  -0.000   0.000  -0.000  -0.000   0.000   0.000  -0.000   0.000   0.000  -0.000  -0.000
  0.000   0.000   0.000   0.000  -0.000  -0.000  -0.000   0.000  -0.000   0.000  -0.000  -0.000   0.000   0.000   0.000   0.000
 -0.000  -0.000   0.000  -0.000  -0.000   0.000  -0.000   0.000  -0.000  -0.000  -0.000  -0.000  -0.000  -0.000   0.000  -0.000
  0.000   0.000  -0.000   0.000  -0.000  -0.000   0.000  -0.000   0.000  -0.000  -0.000   0.000  -0.000   0.000  -0.000  -0.000
 -0.000  -0.000  -0.000  -0.000   0.000   0.000  -0.000  -0.000  -0.000   0.000  -0.000  -0.000  -0.000  -0.000   0.000  -0.000
  0.000   0.000   0.000  -0.000  -0.000  -0.000   0.000  -0.000  -0.000  -0.000   0.000  -0.000   0.000  -0.000  -0.000  -0.000
  0.000   0.000   0.000   0.000   0.000  -0.000  -0.000   0.000  -0.000  -0.000   0.000  -0.000  -0.000  -0.000   0.000  -0.000
 -0.000  -0.000   0.000   0.000  -0.000  -0.000  -0.000  -0.000   0.000   0.000  -0.000  -0.000   0.000   0.000  -0.000  -0.000
  0.000   0.000   0.000  -0.000  -0.000  -0.000   0.000  -0.000  -0.000  -0.000  -0.000  -0.000  -0.000   0.000  -0.000  -0.000
  0.000   0.000   0.000   0.000   0.000  -0.000  -0.000  -0.000   0.000  -0.000   0.000  -0.000  -0.000  -0.000   0.000  -0.000
  0.000   0.000  -0.000   0.000   0.000  -0.000   0.000  -0.000  -0.000  -0.000   0.000   0.000  -0.000  -0.000   0.000  -0.000
  0.000   0.000  -0.000  -0.000   0.000   0.000  -0.000   0.000  -0.000   0.000  -0.000  -0.000   0.000   0.000   0.000  -0.000
 -0.000  -0.000  -0.000  -0.000   0.000  -0.000  -0.000  -0.000  -0.000  -0.000  -0.000  -0.000  -0.000  -0.000  -0.000  -0.000
  0.000   0.000   0.000   0.000  -0.000  -0.000   0.000   0.000  -0.000  -0.000   0.000  -0.000  -0.000   0.000  -0.000  -0.000
  0.000   0.000  -0.000  -0.000   0.000   0.000  -0.000   0.000  -0.000   0.000  -0.000   0.000  -0.000  -0.000   0.000  -0.000
  0.000   0.000   0.000  -0.000  -0.000  -0.000   0.000   0.000   0.000  -0.000  -0.000   0.000  -0.000  -0.000   0.000   0.000
 -0.000  -0.000  -0.000   0.000   0.000   0.000   0.000   0.000  -0.000   0.000   0.000  -0.000   0.000   0.000  -0.000  -0.000
  0.000  -0.000   0.000  -0.000   0.000   0.000  -0.000  -0.000  -0.000   0.000   0.000  -0.000   0.000   0.000  -0.000  -0.000
  0.000   0.000  -0.000   0.000   0.000   0.000   0.000   0.000   0.000  -0.000  -0.000   0.000  -0.000  -0.000   0.000   0.000
 -0.000  -0.000   0.000  -0.000   0.000  -0.000  -0.000  -0.000  -0.000   0.000   0.000  -0.000   0.000   0.000  -0.000   0.000
 -0.000  -0.000  -0.000  -0.000  -0.000  -0.000  -0.000  -0.000  -0.000  -0.000  -0.000  -0.000  -0.000   0.000  -0.000   0.000
  0.000  -0.000   0.000  -0.000  -0.000  -0.000   0.000   0.000  -0.000  -0.000  -0.000  -0.000  -0.000   0.000  -0.000   0.000
 -0.000   0.000   0.000  -0.000  -0.000   0.000   0.000   0.000   0.000  -0.000  -0.000   0.000  -0.000  -0.000   0.000   0.000
  0.000  -0.000  -0.000  -0.000  -0.000   0.000   0.000   0.000  -0.000   0.000   0.000  -0.000   0.000   0.000  -0.000  -0.000
 -0.000  -0.000   0.000  -0.000   0.000   0.000  -0.000   0.000  -0.000   0.000   0.000  -0.000   0.000   0.000  -0.000  -0.000
 -0.000   0.000  -0.000   0.000   0.000   0.000  -0.000   0.000   0.000  -0.000  -0.000   0.000  -0.000  -0.000   0.000   0.000
  0.000  -0.000   0.000  -0.000   0.000  -0.000  -0.000  -0.000  -0.000   0.000   0.000  -0.000   0.000   0.000  -0.000   0.000
 -0.000  -0.000  -0.000  -0.000  -0.000  -0.000   0.000  -0.000  -0.000  -0.000  -0.000  -0.000  -0.000   0.000  -0.000   0.000
  0.000  -0.000   0.000  -0.000  -0.000  -0.000   0.000  -0.000  -0.000  -0.000  -0.000  -0.000  -0.000   0.000  -0.000   0.000
 total augmentation occupancy for first ion, spin component:           3
  0.000   0.000  -0.000   0.000  -0.000   0.000  -0.000   0.000   0.000   0.000  -0.000  -0.000   0.000   0.000   0.000  -0.000
  0.000   0.000  -0.000   0.000  -0.000   0.000  -0.000   0.000   0.000   0.000  -0.000  -0.000   0.000   0.000   0.000  -0.000
 -0.000  -0.000  -0.000   0.000   0.000   0.000  -0.000  -0.000  -0.000   0.000   0.000   0.000  -0.000  -0.000   0.000  -0.000
  0.000   0.000   0.000  -0.000  -0.000  -0.000   0.000   0.000   0.000   0.000  -0.000   0.000   0.000  -0.000  -0.000   0.000
 -0.000  -0.000   0.000  -0.000  -0.000  -0.000   0.000   0.000  -0.000  -0.000  -0.000  -0.000  -0.000   0.000  -0.000   0.000
  0.000   0.000   0.000  -0.000  -0.000  -0.000  -0.000  -0.000  -0.000  -0.000   0.000  -0.000   0.000   0.000  -0.000   0.000
 -0.000  -0.000  -0.000   0.000   0.000  -0.000   0.000   0.000  -0.000  -0.000   0.000  -0.000  -0.000  -0.000  -0.000  -0.000
  0.000   0.000  -0.000   0.000   0.000  -0.000   0.000   0.000   0.000   0.000   0.000   0.000   0.000   0.000   0.000   0.000
  0.000   0.000  -0.000   0.000  -0.000  -0.000  -0.000   0.000  -0.000   0.000  -0.000  -0.000   0.000   0.000   0.000   0.000
  0.000   0.000   0.000   0.000  -0.000  -0.000  -0.000   0.000   0.000   0.000  -0.000   0.000  -0.000  -0.000  -0.000  -0.000
 -0.000  -0.000   0.000  -0.000  -0.000   0.000   0.000   0.000  -0.000  -0.000  -0.000  -0.000  -0.000   0.000  -0.000   0.000
 -0.000  -0.000   0.000   0.000  -0.000  -0.000  -0.000   0.000  -0.000   0.000  -0.000  -0.000   0.000  -0.000  -0.000  -0.000
  0.000   0.000  -0.000   0.000  -0.000   0.000  -0.000   0.000   0.000  -0.000  -0.000   0.000  -0.000   0.000  -0.000  -0.000
  0.000   0.000  -0.000  -0.000   0.000   0.000  -0.000   0.000   0.000  -0.000   0.000  -0.000   0.000   0.000  -0.000  -0.000
  0.000   0.000   0.000  -0.000  -0.000  -0.000  -0.000   0.000   0.000  -0.000  -0.000  -0.000  -0.000  -0.000   0.000  -0.000
 -0.000  -0.000  -0.000   0.000   0.000   0.000  -0.000   0.000   0.000  -0.000   0.000  -0.000  -0.000  -0.000  -0.000   0.000
 -0.000  -0.000  -0.000  -0.000   0.000  -0.000  -0.000  -0.000   0.000  -0.000  -0.000  -0.000   0.000   0.000  -0.000  -0.000
  0.000   0.000   0.000  -0.000  -0.000   0.000  -0.000   0.000  -0.000  -0.000  -0.000  -0.000  -0.000   0.000   0.000  -0.000
 -0.000  -0.000   0.000  -0.000   0.000   0.000   0.000  -0.000  -0.000  -0.000   0.000  -0.000  -0.000   0.000   0.000  -0.000
  0.000   0.000   0.000  -0.000  -0.000   0.000   0.000   0.000   0.000   0.000   0.000   0.000   0.000  -0.000  -0.000  -0.000
 -0.000   0.000   0.000  -0.000   0.000  -0.000   0.000  -0.000   0.000   0.000  -0.000   0.000   0.000  -0.000  -0.000  -0.000
 -0.000  -0.000  -0.000  -0.000  -0.000   0.000  -0.000   0.000  -0.000  -0.000   0.000  -0.000  -0.000   0.000   0.000  -0.000
  0.000   0.000   0.000  -0.000   0.000  -0.000  -0.000  -0.000   0.000   0.000  -0.000   0.000   0.000  -0.000  -0.000  -0.000
 -0.000   0.000  -0.000   0.000   0.000  -0.000  -0.000   0.000   0.000   0.000  -0.000   0.000   0.000   0.000   0.000   0.000
 -0.000  -0.000   0.000  -0.000   0.000  -0.000  -0.000  -0.000  -0.000  -0.000  -0.000  -0.000  -0.000   0.000   0.000   0.000
  0.000  -0.000   0.000  -0.000  -0.000  -0.000   0.000  -0.000  -0.000  -0.000   0.000  -0.000  -0.000   0.000   0.000  -0.000
  0.000   0.000   0.000  -0.000  -0.000  -0.000   0.000   0.000   0.000   0.000   0.000   0.000   0.000  -0.000  -0.000  -0.000
 -0.000   0.000   0.000  -0.000  -0.000  -0.000   0.000  -0.000   0.000   0.000  -0.000   0.000   0.000  -0.000  -0.000  -0.000
 -0.000  -0.000  -0.000  -0.000  -0.000   0.000  -0.000   0.000  -0.000  -0.000   0.000  -0.000  -0.000   0.000   0.000  -0.000
  0.000   0.000  -0.000  -0.000   0.000  -0.000  -0.000  -0.000   0.000   0.000  -0.000   0.000   0.000  -0.000  -0.000  -0.000
 -0.000   0.000  -0.000   0.000   0.000  -0.000  -0.000   0.000   0.000   0.000  -0.000   0.000   0.000   0.000   0.000   0.000
  0.000  -0.000  -0.000   0.000   0.000  -0.000  -0.000  -0.000  -0.000  -0.000  -0.000  -0.000  -0.000   0.000   0.000   0.000
 total augmentation occupancy for first ion, spin component:           4
  0.000   0.000  -0.000  -0.000   0.000   0.000   0.000  -0.000   0.000   0.000   0.000   0.000   0.000   0.000   0.000   0.000
  0.000   0.000  -0.000  -0.000   0.000   0.000   0.000  -0.000   0.000   0.000   0.000   0.000   0.000   0.000   0.000   0.000
 -0.000  -0.000  -0.000   0.000   0.000   0.000  -0.000  -0.000  -0.000  -0.000   0.000  -0.000  -0.000   0.000   0.000   0.000
 -0.000  -0.000   0.000  -0.000   0.000  -0.000   0.000  -0.000  -0.000  -0.000  -0.000   0.000   0.000   0.000  -0.000  -0.000
  0.000   0.000   0.000   0.000  -0.000  -0.000  -0.000   0.000   0.000  -0.000  -0.000   0.000  -0.000  -0.000   0.000  -0.000
  0.000   0.000   0.000  -0.000  -0.000   0.000  -0.000   0.000   0.000   0.000  -0.000   0.000   0.000   0.000   0.000  -0.000
  0.000   0.000  -0.000   0.000  -0.000  -0.000  -0.000  -0.000  -0.000   0.000  -0.000  -0.000   0.000  -0.000   0.000  -0.000
 -0.000  -0.000  -0.000  -0.000   0.000   0.000  -0.000   0.000  -0.000   0.000   0.000  -0.000   0.000  -0.000   0.000   0.000
  0.000   0.000  -0.000  -0.000   0.000   0.000  -0.000  -0.000  -0.000  -0.000  -0.000  -0.000  -0.000  -0.000  -0.000   0.000
  0.000   0.000  -0.000  -0.000  -0.000   0.000   0.000   0.000  -0.000  -0.000   0.000  -0.000   0.000  -0.000   0.000  -0.000
  0.000   0.000   0.000  -0.000  -0.000  -0.000  -0.000   0.000  -0.000   0.000  -0.000  -0.000  -0.000   0.000  -0.000   0.000
  0.000   0.000  -0.000   0.000   0.000   0.000  -0.000  -0.000  -0.000  -0.000  -0.000  -0.000   0.000  -0.000  -0.000  -0.000
  0.000   0.000  -0.000   0.000  -0.000   0.000   0.000   0.000  -0.000   0.000  -0.000   0.000  -0.000   0.000  -0.000   0.000
  0.000   0.000   0.000   0.000  -0.000   0.000  -0.000  -0.000  -0.000  -0.000   0.000  -0.000   0.000   0.000   0.000   0.000
  0.000   0.000   0.000  -0.000   0.000   0.000   0.000   0.000  -0.000   0.000  -0.000  -0.000  -0.000   0.000   0.000  -0.000
  0.000   0.000   0.000  -0.000  -0.000  -0.000  -0.000   0.000   0.000  -0.000   0.000  -0.000   0.000   0.000  -0.000   0.000
  0.000   0.000   0.000   0.000  -0.000   0.000  -0.000  -0.000  -0.000   0.000  -0.000  -0.000   0.000  -0.000   0.000  -0.000
  0.000   0.000   0.000  -0.000   0.000   0.000   0.000   0.000   0.000  -0.000   0.000  -0.000   0.000   0.000   0.000   0.000
  0.000   0.000  -0.000   0.000  -0.000   0.000   0.000   0.000  -0.000   0.000   0.000  -0.000   0.000  -0.000  -0.000   0.000
 -0.000  -0.000  -0.000  -0.000  -0.000   0.000   0.000  -0.000  -0.000   0.000   0.000  -0.000   0.000  -0.000  -0.000  -0.000
 -0.000  -0.000  -0.000  -0.000   0.000  -0.000   0.000   0.000  -0.000  -0.000   0.000  -0.000  -0.000   0.000   0.000  -0.000
  0.000  -0.000   0.000   0.000  -0.000   0.000   0.000  -0.000   0.000  -0.000  -0.000   0.000  -0.000  -0.000   0.000   0.000
  0.000   0.000   0.000  -0.000   0.000   0.000  -0.000   0.000   0.000  -0.000  -0.000   0.000  -0.000   0.000   0.000   0.000
  0.000   0.000   0.000  -0.000   0.000  -0.000  -0.000   0.000   0.000   0.000  -0.000   0.000   0.000  -0.000  -0.000   0.000
  0.000   0.000   0.000   0.000  -0.000   0.000  -0.000  -0.000   0.000   0.000  -0.000   0.000   0.000   0.000  -0.000   0.000
  0.000   0.000  -0.000  -0.000  -0.000   0.000  -0.000   0.000  -0.000   0.000  -0.000  -0.000   0.000  -0.000  -0.000   0.000
 -0.000  -0.000  -0.000  -0.000  -0.000   0.000   0.000   0.000  -0.000   0.000   0.000  -0.000   0.000  -0.000  -0.000  -0.000
 -0.000  -0.000  -0.000  -0.000   0.000  -0.000   0.000   0.000  -0.000  -0.000   0.000  -0.000  -0.000   0.000   0.000  -0.000
 -0.000  -0.000   0.000   0.000   0.000   0.000   0.000  -0.000   0.000  -0.000   0.000   0.000  -0.000  -0.000   0.000   0.000
  0.000   0.000   0.000  -0.000   0.000   0.000   0.000   0.000   0.000  -0.000  -0.000   0.000  -0.000   0.000   0.000   0.000
  0.000   0.000   0.000  -0.000  -0.000  -0.000  -0.000   0.000   0.000   0.000  -0.000   0.000   0.000  -0.000  -0.000   0.000
 -0.000   0.000   0.000   0.000  -0.000   0.000  -0.000  -0.000   0.000   0.000  -0.000   0.000   0.000   0.000  -0.000   0.000


------------------------ aborting loop because EDIFF is reached ----------------------------------------


    CHARGE:  cpu time    0.3402: real time    0.3406
    FORLOC:  cpu time    0.0015: real time    0.0015
    FORNL :  cpu time    1.7837: real time    1.7859
    STRESS:  cpu time   37.2788: real time   37.3103
    FORCOR:  cpu time    0.1834: real time    0.1837
    FORHAR:  cpu time    0.0091: real time    0.0091
    MIXING:  cpu time    0.0118: real time    0.0118
    OFIELD:  cpu time    0.0001: real time    0.0001

  FORCE on cell =-STRESS in cart. coord.  units (eV):
  Direction    XX          YY          ZZ          XY          YZ          ZX
  --------------------------------------------------------------------------------------
  Alpha Z    22.61768    22.61768    22.61768
  Ewald    -114.84372  -114.84372  -114.84372    -0.00000    -0.00000    -0.00000
  Hartree    21.49637    21.49843    21.49894    -0.00178    -0.00073    -0.00126
  E(xc)     -39.96872   -39.96811   -39.96795    -0.00053    -0.00022    -0.00038
  Local     -14.68598   -14.68475   -14.68444    -0.00107    -0.00044    -0.00075
  n-local    44.73012    44.72829    44.72783     0.00159     0.00065     0.00112
  augment   -11.71429   -11.71304   -11.71272    -0.00109    -0.00044    -0.00077
  Kinetic    92.44804    92.43794    92.43541     0.00875     0.00356     0.00619
  Fock        0.00000     0.00000     0.00000     0.00000     0.00000     0.00000
  -------------------------------------------------------------------------------------
  Total       0.07950     0.07273     0.07104     0.00587     0.00239     0.00415
  in kB       2.20977     2.02138     1.97443     0.16308     0.06637     0.11536
  external pressure =        2.07 kB  Pullay stress =        0.00 kB


 VOLUME and BASIS-vectors are now :
 -----------------------------------------------------------------------------
  energy-cutoff  :      300.00
  volume of cell :       57.64
      direct lattice vectors                 reciprocal lattice vectors
     4.335995782  0.000000000  0.000000000     0.230627531 -0.133152867 -0.094153295
     2.167997891  3.755082498 -0.000000000     0.000000000  0.266305734 -0.094153295
     2.167997891  1.251694166  3.540325731    -0.000000000  0.000000000  0.282459885

  length of vectors
     4.335995782  4.335995782  4.335995782     0.282459885  0.282459885  0.282459885


 FORCES acting on ions
    electron-ion (+dipol)            ewald-force                    non-local-force                 convergence-correction
 -----------------------------------------------------------------------------------------------
   -.222E-07 0.522E-07 0.825E-07   0.118E-15 0.307E-16 0.152E-15   0.358E-07 -.369E-07 -.844E-07   0.138E-08 -.304E-07 -.429E-08
 -----------------------------------------------------------------------------------------------
   -.180E-07 0.457E-07 0.709E-07   0.118E-15 0.307E-16 0.152E-15   0.358E-07 -.369E-07 -.844E-07   0.138E-08 -.304E-07 -.429E-08
 
 
 POSITION                                       TOTAL-FORCE (eV/Angst)
 -----------------------------------------------------------------------------------
      0.00000      0.00000      0.00000         0.000000     -0.000000     -0.000000
 -----------------------------------------------------------------------------------
    total drift:                                0.000000     -0.000000     -0.000000


--------------------------------------------------------------------------------------------------------



  FREE ENERGIE OF THE ION-ELECTRON SYSTEM (eV)
  ---------------------------------------------------
  free  energy   TOTEN  =       -36.39405633 eV

  energy  without entropy=      -36.39405633  energy(sigma->0) =      -36.39405633
 


--------------------------------------------------------------------------------------------------------


    POTLOK:  cpu time    0.5226: real time    0.5232


--------------------------------------------------------------------------------------------------------


 writing wavefunctions
     LOOP+:  cpu time  252.6548: real time  253.1452
    4ORBIT:  cpu time    0.0000: real time    0.0000

 Spin-Orbit-Coupling matrix elements

 Ion:    1  E_soc:     -0.2841599
 l=   1
     0.0000000    -0.0473590    -0.0473508
    -0.0473590     0.0000000    -0.0473524
    -0.0473508    -0.0473524     0.0000000
 l=   2
     0.0000000    -0.0000011     0.0000000    -0.0000011    -0.0000048
    -0.0000011     0.0000000    -0.0000036    -0.0000011    -0.0000011
     0.0000000    -0.0000036     0.0000000    -0.0000036     0.0000000
    -0.0000011    -0.0000011    -0.0000036     0.0000000    -0.0000011
    -0.0000048    -0.0000011     0.0000000    -0.0000011     0.0000000
 l=   3
     0.0000000     0.0000000     0.0000000     0.0000000     0.0000000     0.0000000    -0.0000000
     0.0000000     0.0000000    -0.0000000     0.0000000    -0.0000000    -0.0000000    -0.0000000
     0.0000000    -0.0000000     0.0000000    -0.0000000    -0.0000000    -0.0000000     0.0000000
     0.0000000     0.0000000    -0.0000000     0.0000000    -0.0000000     0.0000000     0.0000000
     0.0000000    -0.0000000    -0.0000000    -0.0000000     0.0000000    -0.0000000     0.0000000
     0.0000000    -0.0000000    -0.0000000     0.0000000    -0.0000000     0.0000000    -0.0000000
    -0.0000000    -0.0000000     0.0000000     0.0000000     0.0000000    -0.0000000     0.0000000

 total amount of memory used by VASP MPI-rank0   113366. kBytes
=======================================================================

   base      :      30000. kBytes
   nonl-proj :      11602. kBytes
   fftplans  :       8155. kBytes
   grid      :       8625. kBytes
   one-center:        196. kBytes
   wavefun   :      54788. kBytes
 
  
  
 General timing and accounting informations for this job:
 ========================================================
  
                  Total CPU time used (sec):      256.983
                            User time (sec):      253.166
                          System time (sec):        3.817
                         Elapsed time (sec):      256.479
  
                   Maximum memory used (kb):      196792.
                   Average memory used (kb):           0.
  
                          Minor page faults:        66991
                          Major page faults:            0
                 Voluntary context switches:         4949
