   1   1   0   0
  0.3298244E+02  0.3599697E-09  0.3599697E-09  0.3599697E-09  0.1000000E-15
  1.000000000000000E-004
  CAR 
 Og_FCC                                  
     89.15135923    -29.02161986  301     -7.94743859      1.00000000
    -29.022  0.0000E+00  0.0000E+00
    -28.628  0.0000E+00  0.0000E+00
    -28.234  0.0000E+00  0.0000E+00
    -27.840  0.0000E+00  0.0000E+00
    -27.446  0.0000E+00  0.0000E+00
    -27.052  0.0000E+00  0.0000E+00
    -26.658  0.0000E+00  0.0000E+00
    -26.264  0.0000E+00  0.0000E+00
    -25.870  0.0000E+00  0.0000E+00
    -25.476  0.0000E+00  0.0000E+00
    -25.083  0.0000E+00  0.0000E+00
    -24.689  0.0000E+00  0.0000E+00
    -24.295  0.0000E+00  0.0000E+00
    -23.901  0.0000E+00  0.0000E+00
    -23.507  0.1379E+00  0.1418E+00
    -23.113  0.0000E+00  0.2000E+01
    -22.719  0.0000E+00  0.2000E+01
    -22.325  0.0000E+00  0.2000E+01
    -21.931  0.0000E+00  0.2000E+01
    -21.537  0.0000E+00  0.2000E+01
    -21.143  0.0000E+00  0.2000E+01
    -20.750  0.0000E+00  0.2000E+01
    -20.356  0.0000E+00  0.2000E+01
    -19.962  0.0000E+00  0.2000E+01
    -19.568  0.0000E+00  0.2000E+01
    -19.174  0.0000E+00  0.2000E+01
    -18.780  0.0000E+00  0.2000E+01
    -18.386  0.0000E+00  0.2000E+01
    -17.992  0.0000E+00  0.2000E+01
    -17.598  0.0000E+00  0.2000E+01
    -17.204  0.0000E+00  0.2000E+01
    -16.810  0.0000E+00  0.2000E+01
    -16.417  0.0000E+00  0.2000E+01
    -16.023  0.0000E+00  0.2000E+01
    -15.629  0.0000E+00  0.2000E+01
    -15.235  0.0000E+00  0.2000E+01
    -14.841  0.0000E+00  0.2000E+01
    -14.447  0.0000E+00  0.2000E+01
    -14.053  0.0000E+00  0.2000E+01
    -13.659  0.0000E+00  0.2000E+01
    -13.265  0.0000E+00  0.2000E+01
    -12.871  0.0000E+00  0.2000E+01
    -12.477  0.0000E+00  0.2000E+01
    -12.083  0.0000E+00  0.2000E+01
    -11.690  0.0000E+00  0.2000E+01
    -11.296  0.0000E+00  0.2000E+01
    -10.902  0.0000E+00  0.2000E+01
    -10.508  0.0000E+00  0.2000E+01
    -10.114  0.3553E+00  0.2187E+01
     -9.720  0.1776E+00  0.3341E+01
     -9.326  0.0000E+00  0.3843E+01
     -8.932  0.0000E+00  0.4752E+01
     -8.538  0.0000E+00  0.6583E+01
     -8.144  0.0000E+00  0.7988E+01
     -7.750  0.0000E+00  0.8000E+01
     -7.357  0.0000E+00  0.8000E+01
     -6.963  0.0000E+00  0.8000E+01
     -6.569  0.0000E+00  0.8000E+01
     -6.175  0.0000E+00  0.8000E+01
     -5.781  0.0000E+00  0.8000E+01
     -5.387  0.0000E+00  0.8000E+01
     -4.993  0.0000E+00  0.8000E+01
     -4.599  0.0000E+00  0.8000E+01
     -4.205  0.0000E+00  0.8000E+01
     -3.811  0.0000E+00  0.8000E+01
     -3.417  0.0000E+00  0.8000E+01
     -3.024  0.0000E+00  0.8000E+01
     -2.630  0.0000E+00  0.8000E+01
     -2.236  0.0000E+00  0.8000E+01
     -1.842  0.0000E+00  0.8000E+01
     -1.448  0.0000E+00  0.8000E+01
     -1.054  0.0000E+00  0.8000E+01
     -0.660  0.0000E+00  0.8000E+01
     -0.266  0.0000E+00  0.8000E+01
      0.128  0.0000E+00  0.8000E+01
      0.522  0.0000E+00  0.8000E+01
      0.916  0.0000E+00  0.8000E+01
      1.309  0.0000E+00  0.8000E+01
      1.703  0.0000E+00  0.8000E+01
      2.097  0.0000E+00  0.8000E+01
      2.491  0.0000E+00  0.8000E+01
      2.885  0.0000E+00  0.8000E+01
      3.279  0.0000E+00  0.8000E+01
      3.673  0.0000E+00  0.8000E+01
      4.067  0.0000E+00  0.8000E+01
      4.461  0.0000E+00  0.8000E+01
      4.855  0.0000E+00  0.8000E+01
      5.249  0.0000E+00  0.8000E+01
      5.642  0.0000E+00  0.8000E+01
      6.036  0.0000E+00  0.8006E+01
      6.430  0.0000E+00  0.8006E+01
      6.824  0.8882E-01  0.8087E+01
      7.218  0.0000E+00  0.8087E+01
      7.612  0.0000E+00  0.8157E+01
      8.006  0.0000E+00  0.8297E+01
      8.400  0.0000E+00  0.8344E+01
      8.794  0.0000E+00  0.8414E+01
      9.188  0.0000E+00  0.8950E+01
      9.582  0.0000E+00  0.9230E+01
      9.975  0.0000E+00  0.9650E+01
     10.369  0.0000E+00  0.1000E+02
     10.763  0.0000E+00  0.1003E+02
     11.157  0.6377E-12  0.1066E+02
     11.551  0.0000E+00  0.1133E+02
     11.945  0.0000E+00  0.1166E+02
     12.339  0.0000E+00  0.1191E+02
     12.733  0.0000E+00  0.1265E+02
     13.127  0.0000E+00  0.1321E+02
     13.521  0.0000E+00  0.1399E+02
     13.915  0.0000E+00  0.1440E+02
     14.308  0.0000E+00  0.1477E+02
     14.702  0.2368E+00  0.1616E+02
     15.096  0.0000E+00  0.1641E+02
     15.490  0.0000E+00  0.1766E+02
     15.884  0.0000E+00  0.1874E+02
     16.278  0.0000E+00  0.1934E+02
     16.672  0.0000E+00  0.1994E+02
     17.066  0.0000E+00  0.2006E+02
     17.460  0.0000E+00  0.2006E+02
     17.854  0.0000E+00  0.2132E+02
     18.248  0.0000E+00  0.2165E+02
     18.641  0.0000E+00  0.2217E+02
     19.035  0.0000E+00  0.2258E+02
     19.429  0.0000E+00  0.2272E+02
     19.823  0.1980E-14  0.2311E+02
     20.217  0.0000E+00  0.2414E+02
     20.611  0.2627E-01  0.2502E+02
     21.005  0.0000E+00  0.2541E+02
     21.399  0.0000E+00  0.2571E+02
     21.793  0.0000E+00  0.2637E+02
     22.187  0.0000E+00  0.2665E+02
     22.581  0.0000E+00  0.2714E+02
     22.974  0.1776E+00  0.2756E+02
     23.368  0.0000E+00  0.2789E+02
     23.762  0.1184E+00  0.2823E+02
     24.156  0.0000E+00  0.2823E+02
     24.550  0.0000E+00  0.2907E+02
     24.944  0.0000E+00  0.2963E+02
     25.338  0.0000E+00  0.2980E+02
     25.732  0.0000E+00  0.2994E+02
     26.126  0.0000E+00  0.3096E+02
     26.520  0.0000E+00  0.3135E+02
     26.914  0.0000E+00  0.3225E+02
     27.308  0.0000E+00  0.3300E+02
     27.701  0.0000E+00  0.3330E+02
     28.095  0.0000E+00  0.3348E+02
     28.489  0.3553E+00  0.3397E+02
     28.883  0.3599E-08  0.3431E+02
     29.277  0.0000E+00  0.3491E+02
     29.671  0.0000E+00  0.3556E+02
     30.065  0.0000E+00  0.3581E+02
     30.459  0.0000E+00  0.3634E+02
     30.853  0.0000E+00  0.3662E+02
     31.247  0.1759E+00  0.3742E+02
     31.641  0.3464E+00  0.3832E+02
     32.034  0.0000E+00  0.3910E+02
     32.428  0.0000E+00  0.3952E+02
     32.822  0.0000E+00  0.4022E+02
     33.216  0.1025E-14  0.4022E+02
     33.610  0.6675E+00  0.4067E+02
     34.004  0.0000E+00  0.4104E+02
     34.398  0.0000E+00  0.4221E+02
     34.792  0.1184E+00  0.4265E+02
     35.186  0.7097E+00  0.4332E+02
     35.580  0.0000E+00  0.4378E+02
     35.974  0.0000E+00  0.4422E+02
     36.367  0.0000E+00  0.4506E+02
     36.761  0.0000E+00  0.4527E+02
     37.155  0.3553E+00  0.4590E+02
     37.549  0.0000E+00  0.4673E+02
     37.943  0.0000E+00  0.4728E+02
     38.337  0.0000E+00  0.4802E+02
     38.731  0.0000E+00  0.4837E+02
     39.125  0.0000E+00  0.4890E+02
     39.519  0.0000E+00  0.4956E+02
     39.913  0.0000E+00  0.5005E+02
     40.307  0.0000E+00  0.5054E+02
     40.700  0.0000E+00  0.5110E+02
     41.094  0.0000E+00  0.5166E+02
     41.488  0.3714E-08  0.5224E+02
     41.882  0.2196E-01  0.5343E+02
     42.276  0.0000E+00  0.5392E+02
     42.670  0.0000E+00  0.5457E+02
     43.064  0.0000E+00  0.5517E+02
     43.458  0.0000E+00  0.5552E+02
     43.852  0.6555E+00  0.5623E+02
     44.246  0.0000E+00  0.5706E+02
     44.640  0.3553E+00  0.5748E+02
     45.033  0.0000E+00  0.5842E+02
     45.427  0.0000E+00  0.5893E+02
     45.821  0.3553E+00  0.5954E+02
     46.215  0.0000E+00  0.6038E+02
     46.609  0.0000E+00  0.6052E+02
     47.003  0.5617E-06  0.6102E+02
     47.397  0.0000E+00  0.6160E+02
     47.791  0.0000E+00  0.6244E+02
     48.185  0.0000E+00  0.6298E+02
     48.579  0.0000E+00  0.6389E+02
     48.973  0.3553E+00  0.6465E+02
     49.366  0.9532E-01  0.6528E+02
     49.760  0.0000E+00  0.6597E+02
     50.154  0.0000E+00  0.6690E+02
     50.548  0.0000E+00  0.6746E+02
     50.942  0.0000E+00  0.6811E+02
     51.336  0.1184E+00  0.6894E+02
     51.730  0.0000E+00  0.6927E+02
     52.124  0.0000E+00  0.6970E+02
     52.518  0.0000E+00  0.7061E+02
     52.912  0.0000E+00  0.7093E+02
     53.306  0.0000E+00  0.7135E+02
     53.699  0.0000E+00  0.7187E+02
     54.093  0.0000E+00  0.7285E+02
     54.487  0.8814E-01  0.7343E+02
     54.881  0.1117E+00  0.7429E+02
     55.275  0.0000E+00  0.7545E+02
     55.669  0.0000E+00  0.7583E+02
     56.063  0.0000E+00  0.7622E+02
     56.457  0.0000E+00  0.7683E+02
     56.851  0.0000E+00  0.7764E+02
     57.245  0.0000E+00  0.7808E+02
     57.639  0.0000E+00  0.7840E+02
     58.032  0.0000E+00  0.7982E+02
     58.426  0.0000E+00  0.8080E+02
     58.820  0.0000E+00  0.8176E+02
     59.214  0.0000E+00  0.8240E+02
     59.608  0.0000E+00  0.8292E+02
     60.002  0.0000E+00  0.8329E+02
     60.396  0.0000E+00  0.8378E+02
     60.790  0.3553E+00  0.8458E+02
     61.184  0.0000E+00  0.8535E+02
     61.578  0.0000E+00  0.8599E+02
     61.972  0.1776E+00  0.8669E+02
     62.365  0.3553E+00  0.8740E+02
     62.759  0.0000E+00  0.8843E+02
     63.153  0.0000E+00  0.8914E+02
     63.547  0.0000E+00  0.9002E+02
     63.941  0.0000E+00  0.9098E+02
     64.335  0.0000E+00  0.9154E+02
     64.729  0.8882E-01  0.9213E+02
     65.123  0.0000E+00  0.9313E+02
     65.517  0.0000E+00  0.9395E+02
     65.911  0.0000E+00  0.9457E+02
     66.305  0.0000E+00  0.9597E+02
     66.698  0.0000E+00  0.9688E+02
     67.092  0.2836E+00  0.9724E+02
     67.486  0.0000E+00  0.9773E+02
     67.880  0.0000E+00  0.9892E+02
     68.274  0.4052E-04  0.9936E+02
     68.668  0.0000E+00  0.1003E+03
     69.062  0.4513E-07  0.1008E+03
     69.456  0.0000E+00  0.1016E+03
     69.850  0.0000E+00  0.1019E+03
     70.244  0.0000E+00  0.1027E+03
     70.638  0.1761E-05  0.1034E+03
     71.032  0.2066E-04  0.1044E+03
     71.425  0.0000E+00  0.1055E+03
     71.819  0.0000E+00  0.1061E+03
     72.213  0.0000E+00  0.1066E+03
     72.607  0.0000E+00  0.1072E+03
     73.001  0.0000E+00  0.1082E+03
     73.395  0.0000E+00  0.1090E+03
     73.789  0.0000E+00  0.1102E+03
     74.183  0.0000E+00  0.1113E+03
     74.577  0.0000E+00  0.1121E+03
     74.971  0.0000E+00  0.1126E+03
     75.365  0.0000E+00  0.1130E+03
     75.758  0.0000E+00  0.1140E+03
     76.152  0.0000E+00  0.1145E+03
     76.546  0.0000E+00  0.1152E+03
     76.940  0.0000E+00  0.1161E+03
     77.334  0.0000E+00  0.1168E+03
     77.728  0.0000E+00  0.1174E+03
     78.122  0.0000E+00  0.1184E+03
     78.516  0.0000E+00  0.1192E+03
     78.910  0.0000E+00  0.1200E+03
     79.304  0.1776E+00  0.1212E+03
     79.698  0.0000E+00  0.1222E+03
     80.091  0.0000E+00  0.1228E+03
     80.485  0.0000E+00  0.1242E+03
     80.879  0.1972E-16  0.1251E+03
     81.273  0.0000E+00  0.1259E+03
     81.667  0.0000E+00  0.1263E+03
     82.061  0.0000E+00  0.1268E+03
     82.455  0.0000E+00  0.1274E+03
     82.849  0.0000E+00  0.1277E+03
     83.243  0.0000E+00  0.1277E+03
     83.637  0.0000E+00  0.1280E+03
     84.031  0.0000E+00  0.1280E+03
     84.424  0.0000E+00  0.1280E+03
     84.818  0.0000E+00  0.1280E+03
     85.212  0.0000E+00  0.1280E+03
     85.606  0.0000E+00  0.1280E+03
     86.000  0.0000E+00  0.1280E+03
     86.394  0.0000E+00  0.1280E+03
     86.788  0.0000E+00  0.1280E+03
     87.182  0.0000E+00  0.1280E+03
     87.576  0.0000E+00  0.1280E+03
     87.970  0.0000E+00  0.1280E+03
     88.364  0.0000E+00  0.1280E+03
     88.757  0.0000E+00  0.1280E+03
     89.151  0.0000E+00  0.1280E+03
