    1    1    1    1
  0.3298244E+02  0.3599697E-09  0.3599697E-09  0.3599697E-09  0.1000000E-15
  1.000000000000000E-004
  CAR 
 Og_FCC                                  
      8    343    128
 
  0.0000000E+00  0.0000000E+00  0.0000000E+00  0.2915452E-02
    1      -23.650121   1.000000
    2      -23.650121   1.000000
    3       -8.325486   1.000000
    4       -8.325486   1.000000
    5       -8.125602   1.000000
    6       -8.125602   1.000000
    7       -8.125571   1.000000
    8       -8.125571   1.000000
    9        5.936739   0.000000
   10        5.936739   0.000000
   11       14.461479   0.000000
   12       14.461479   0.000000
   13       14.463186   0.000000
   14       14.463187   0.000000
   15       14.463208   0.000000
   16       14.463208   0.000000
   17       13.932995   0.000000
   18       13.932995   0.000000
   19       13.932995   0.000000
   20       13.932995   0.000000
   21       16.984586   0.000000
   22       16.984587   0.000000
   23       20.035426   0.000000
   24       20.035426   0.000000
   25       20.048174   0.000000
   26       20.048174   0.000000
   27       20.048174   0.000000
   28       20.048174   0.000000
   29       22.351844   0.000000
   30       22.351848   0.000000
   31       29.507233   0.000000
   32       29.507233   0.000000
   33       29.507234   0.000000
   34       29.507234   0.000000
   35       29.514352   0.000000
   36       29.514352   0.000000
   37       31.406536   0.000000
   38       31.406536   0.000000
   39       31.538925   0.000000
   40       31.538925   0.000000
   41       31.538925   0.000000
   42       31.538925   0.000000
   43       33.951029   0.000000
   44       33.951029   0.000000
   45       33.951030   0.000000
   46       33.951030   0.000000
   47       40.816048   0.000000
   48       40.816048   0.000000
   49       40.816048   0.000000
   50       40.816048   0.000000
   51       40.816049   0.000000
   52       40.816049   0.000000
   53       41.540337   0.000000
   54       41.540339   0.000000
   55       48.169710   0.000000
   56       48.169710   0.000000
   57       48.169710   0.000000
   58       48.169711   0.000000
   59       51.861149   0.000000
   60       51.861149   0.000000
   61       51.861149   0.000000
   62       51.861149   0.000000
   63       51.863723   0.000000
   64       51.863723   0.000000
   65       52.293162   0.000000
   66       52.293163   0.000000
   67       52.342531   0.000000
   68       52.342532   0.000000
   69       52.342532   0.000000
   70       52.342532   0.000000
   71       55.968415   0.000000
   72       55.968415   0.000000
   73       56.261210   0.000000
   74       56.261210   0.000000
   75       56.269335   0.000000
   76       56.269335   0.000000
   77       56.269335   0.000000
   78       56.269335   0.000000
   79       59.511876   0.000000
   80       59.511876   0.000000
   81       59.511877   0.000000
   82       59.511877   0.000000
   83       59.511877   0.000000
   84       59.511877   0.000000
   85       59.718577   0.000000
   86       59.718578   0.000000
   87       59.718578   0.000000
   88       59.718578   0.000000
   89       59.718578   0.000000
   90       59.718578   0.000000
   91       59.846902   0.000000
   92       59.846906   0.000000
   93       62.156804   0.000000
   94       62.156804   0.000000
   95       62.156804   0.000000
   96       62.156804   0.000000
   97       62.156810   0.000000
   98       62.156810   0.000000
   99       62.864309   0.000000
  100       62.864310   0.000000
  101       62.864310   0.000000
  102       62.864311   0.000000
  103       66.774436   0.000000
  104       66.774436   0.000000
  105       66.777340   0.000000
  106       66.777340   0.000000
  107       66.777340   0.000000
  108       66.777340   0.000000
  109       66.954846   0.000000
  110       66.954847   0.000000
  111       66.954847   0.000000
  112       66.954847   0.000000
  113       66.955092   0.000000
  114       66.955093   0.000000
  115       67.092752   0.000000
  116       67.092753   0.000000
  117       67.506045   0.000000
  118       67.506045   0.000000
  119       78.920686   0.000000
  120       78.920687   0.000000
  121       78.920687   0.000000
  122       78.920687   0.000000
  123       83.772389   0.000000
  124       83.772389   0.000000
  125       83.772390   0.000000
  126       83.772390   0.000000
  127       83.779860   0.000000
  128       83.779860   0.000000
 
  0.1428571E+00  0.1549796E-16 -0.6938894E-17  0.2915452E-02
    1      -23.592107   1.000000
    2      -23.592107   1.000000
    3       -8.653251   1.000000
    4       -8.653251   1.000000
    5       -8.280761   1.000000
    6       -8.280761   1.000000
    7       -8.171755   1.000000
    8       -8.171754   1.000000
    9        6.606088   0.000000
   10        6.606088   0.000000
   11       13.455379   0.000000
   12       13.455379   0.000000
   13       14.694649   0.000000
   14       14.694649   0.000000
   15       14.696650   0.000000
   16       14.696651   0.000000
   17       13.592163   0.000000
   18       13.592163   0.000000
   19       13.593511   0.000000
   20       13.593511   0.000000
   21       17.903341   0.000000
   22       17.903342   0.000000
   23       18.866640   0.000000
   24       18.866641   0.000000
   25       21.233515   0.000000
   26       21.233515   0.000000
   27       21.241956   0.000000
   28       21.241956   0.000000
   29       24.485493   0.000000
   30       24.485495   0.000000
   31       27.064598   0.000000
   32       27.064599   0.000000
   33       27.609879   0.000000
   34       27.609879   0.000000
   35       27.632567   0.000000
   36       27.632567   0.000000
   37       31.375162   0.000000
   38       31.375162   0.000000
   39       31.407649   0.000000
   40       31.407649   0.000000
   41       33.464250   0.000000
   42       33.464250   0.000000
   43       34.761091   0.000000
   44       34.761091   0.000000
   45       34.786059   0.000000
   46       34.786059   0.000000
   47       41.079257   0.000000
   48       41.079257   0.000000
   49       41.234411   0.000000
   50       41.234411   0.000000
   51       41.236455   0.000000
   52       41.236455   0.000000
   53       42.524744   0.000000
   54       42.524746   0.000000
   55       47.036034   0.000000
   56       47.036034   0.000000
   57       47.259732   0.000000
   58       47.259732   0.000000
   59       47.267578   0.000000
   60       47.267578   0.000000
   61       50.632386   0.000000
   62       50.632386   0.000000
   63       50.637293   0.000000
   64       50.637293   0.000000
   65       52.164896   0.000000
   66       52.164898   0.000000
   67       53.550604   0.000000
   68       53.550604   0.000000
   69       53.550715   0.000000
   70       53.550715   0.000000
   71       54.862330   0.000000
   72       54.862330   0.000000
   73       54.880076   0.000000
   74       54.880076   0.000000
   75       55.198382   0.000000
   76       55.198382   0.000000
   77       55.635324   0.000000
   78       55.635324   0.000000
   79       57.198276   0.000000
   80       57.198276   0.000000
   81       57.201665   0.000000
   82       57.201665   0.000000
   83       58.064728   0.000000
   84       58.064729   0.000000
   85       58.803546   0.000000
   86       58.803546   0.000000
   87       61.242300   0.000000
   88       61.242300   0.000000
   89       61.242413   0.000000
   90       61.242413   0.000000
   91       62.326701   0.000000
   92       62.326701   0.000000
   93       62.328184   0.000000
   94       62.328184   0.000000
   95       62.371070   0.000000
   96       62.371073   0.000000
   97       63.709788   0.000000
   98       63.709789   0.000000
   99       64.804617   0.000000
  100       64.804617   0.000000
  101       65.347049   0.000000
  102       65.347049   0.000000
  103       65.347722   0.000000
  104       65.347722   0.000000
  105       65.607106   0.000000
  106       65.607107   0.000000
  107       69.111414   0.000000
  108       69.111414   0.000000
  109       69.111564   0.000000
  110       69.111565   0.000000
  111       70.765895   0.000000
  112       70.765895   0.000000
  113       70.766129   0.000000
  114       70.766130   0.000000
  115       70.981573   0.000000
  116       70.981574   0.000000
  117       75.732667   0.000000
  118       75.732667   0.000000
  119       75.750120   0.000000
  120       75.750120   0.000000
  121       76.495497   0.000000
  122       76.495497   0.000000
  123       80.118289   0.000000
  124       80.118289   0.000000
  125       80.885070   0.000000
  126       80.885071   0.000000
  127       80.885123   0.000000
  128       80.885123   0.000000
 
  0.2857143E+00  0.5875149E-16  0.2775558E-16  0.2915452E-02
    1      -23.454850   1.000000
    2      -23.454850   1.000000
    3       -9.524888   1.000000
    4       -9.524888   1.000000
    5       -8.396797   1.000000
    6       -8.396797   1.000000
    7       -8.272255   1.000000
    8       -8.272254   1.000000
    9        8.030844   0.000000
   10        8.030844   0.000000
   11       12.237529   0.000000
   12       12.237529   0.000000
   13       14.490280   0.000000
   14       14.490280   0.000000
   15       14.491950   0.000000
   16       14.491951   0.000000
   17       14.019747   0.000000
   18       14.019747   0.000000
   19       14.023482   0.000000
   20       14.023482   0.000000
   21       16.686339   0.000000
   22       16.686341   0.000000
   23       20.748810   0.000000
   24       20.748811   0.000000
   25       23.347458   0.000000
   26       23.347459   0.000000
   27       23.738040   0.000000
   28       23.738040   0.000000
   29       23.759679   0.000000
   30       23.759679   0.000000
   31       24.389556   0.000000
   32       24.389556   0.000000
   33       24.401883   0.000000
   34       24.401883   0.000000
   35       29.902443   0.000000
   36       29.902445   0.000000
   37       31.429229   0.000000
   38       31.429229   0.000000
   39       31.448961   0.000000
   40       31.448961   0.000000
   41       34.149093   0.000000
   42       34.149093   0.000000
   43       35.740164   0.000000
   44       35.740164   0.000000
   45       35.774656   0.000000
   46       35.774656   0.000000
   47       39.366878   0.000000
   48       39.366879   0.000000
   49       39.369306   0.000000
   50       39.369306   0.000000
   51       40.909523   0.000000
   52       40.909524   0.000000
   53       41.825316   0.000000
   54       41.825316   0.000000
   55       45.635871   0.000000
   56       45.635872   0.000000
   57       47.006128   0.000000
   58       47.006128   0.000000
   59       47.007116   0.000000
   60       47.007116   0.000000
   61       49.591370   0.000000
   62       49.591371   0.000000
   63       49.893356   0.000000
   64       49.893356   0.000000
   65       49.893610   0.000000
   66       49.893610   0.000000
   67       51.313883   0.000000
   68       51.313883   0.000000
   69       51.331172   0.000000
   70       51.331172   0.000000
   71       51.688429   0.000000
   72       51.688429   0.000000
   73       52.633432   0.000000
   74       52.633432   0.000000
   75       55.132573   0.000000
   76       55.132573   0.000000
   77       55.133058   0.000000
   78       55.133058   0.000000
   79       55.226948   0.000000
   80       55.226948   0.000000
   81       58.130692   0.000000
   82       58.130692   0.000000
   83       58.140719   0.000000
   84       58.140720   0.000000
   85       59.330770   0.000000
   86       59.330770   0.000000
   87       61.424567   0.000000
   88       61.424567   0.000000
   89       61.425295   0.000000
   90       61.425296   0.000000
   91       63.353930   0.000000
   92       63.353932   0.000000
   93       65.710064   0.000000
   94       65.710065   0.000000
   95       65.710276   0.000000
   96       65.710276   0.000000
   97       68.225995   0.000000
   98       68.225995   0.000000
   99       68.849097   0.000000
  100       68.849097   0.000000
  101       68.850973   0.000000
  102       68.850973   0.000000
  103       70.047998   0.000000
  104       70.048000   0.000000
  105       70.726369   0.000000
  106       70.726369   0.000000
  107       70.918263   0.000000
  108       70.918264   0.000000
  109       70.949047   0.000000
  110       70.949047   0.000000
  111       74.288937   0.000000
  112       74.288937   0.000000
  113       74.857859   0.000000
  114       74.857859   0.000000
  115       74.858851   0.000000
  116       74.858851   0.000000
  117       75.578338   0.000000
  118       75.578338   0.000000
  119       75.579947   0.000000
  120       75.579947   0.000000
  121       75.975322   0.000000
  122       75.975323   0.000000
  123       76.962240   0.000000
  124       76.962241   0.000000
  125       77.953569   0.000000
  126       77.953569   0.000000
  127       77.954385   0.000000
  128       77.954385   0.000000
 
  0.4285714E+00  0.3261608E-16  0.0000000E+00  0.2915452E-02
    1      -23.337888   1.000000
    2      -23.337887   1.000000
    3      -10.167531   1.000000
    4      -10.167530   1.000000
    5       -8.476040   1.000000
    6       -8.476040   1.000000
    7       -8.350252   1.000000
    8       -8.350251   1.000000
    9        9.001194   0.000000
   10        9.001194   0.000000
   11       11.823266   0.000000
   12       11.823266   0.000000
   13       13.981550   0.000000
   14       13.981550   0.000000
   15       13.982637   0.000000
   16       13.982640   0.000000
   17       15.399992   0.000000
   18       15.399992   0.000000
   19       15.403248   0.000000
   20       15.403248   0.000000
   21       16.387733   0.000000
   22       16.387734   0.000000
   23       18.758814   0.000000
   24       18.758815   0.000000
   25       21.455363   0.000000
   26       21.455363   0.000000
   27       21.486424   0.000000
   28       21.486424   0.000000
   29       26.325901   0.000000
   30       26.325901   0.000000
   31       26.619590   0.000000
   32       26.619590   0.000000
   33       26.621487   0.000000
   34       26.621487   0.000000
   35       31.274530   0.000000
   36       31.274530   0.000000
   37       31.312099   0.000000
   38       31.312099   0.000000
   39       31.474718   0.000000
   40       31.474720   0.000000
   41       35.396763   0.000000
   42       35.396764   0.000000
   43       35.771720   0.000000
   44       35.771720   0.000000
   45       35.780079   0.000000
   46       35.780079   0.000000
   47       37.589798   0.000000
   48       37.589798   0.000000
   49       37.608240   0.000000
   50       37.608240   0.000000
   51       38.910809   0.000000
   52       38.910809   0.000000
   53       42.111315   0.000000
   54       42.111316   0.000000
   55       42.650661   0.000000
   56       42.650661   0.000000
   57       45.047498   0.000000
   58       45.047498   0.000000
   59       45.049405   0.000000
   60       45.049405   0.000000
   61       46.791277   0.000000
   62       46.791278   0.000000
   63       48.616707   0.000000
   64       48.616707   0.000000
   65       48.616801   0.000000
   66       48.616801   0.000000
   67       49.472631   0.000000
   68       49.472632   0.000000
   69       54.362655   0.000000
   70       54.362655   0.000000
   71       54.363754   0.000000
   72       54.363754   0.000000
   73       54.963191   0.000000
   74       54.963191   0.000000
   75       55.065684   0.000000
   76       55.065684   0.000000
   77       55.421660   0.000000
   78       55.421660   0.000000
   79       55.430560   0.000000
   80       55.430560   0.000000
   81       57.987094   0.000000
   82       57.987094   0.000000
   83       57.998920   0.000000
   84       57.998920   0.000000
   85       58.933574   0.000000
   86       58.933574   0.000000
   87       63.668696   0.000000
   88       63.668696   0.000000
   89       63.679015   0.000000
   90       63.679015   0.000000
   91       63.731182   0.000000
   92       63.731183   0.000000
   93       65.872046   0.000000
   94       65.872046   0.000000
   95       65.891564   0.000000
   96       65.891564   0.000000
   97       68.250833   0.000000
   98       68.250835   0.000000
   99       69.158319   0.000000
  100       69.158319   0.000000
  101       69.159074   0.000000
  102       69.159075   0.000000
  103       71.365285   0.000000
  104       71.365285   0.000000
  105       72.315174   0.000000
  106       72.315174   0.000000
  107       72.323100   0.000000
  108       72.323101   0.000000
  109       75.007862   0.000000
  110       75.007862   0.000000
  111       75.009350   0.000000
  112       75.009350   0.000000
  113       75.287226   0.000000
  114       75.287226   0.000000
  115       77.320029   0.000000
  116       77.320029   0.000000
  117       78.531508   0.000000
  118       78.531510   0.000000
  119       79.048078   0.000000
  120       79.048078   0.000000
  121       79.055015   0.000000
  122       79.055015   0.000000
  123       81.177211   0.000000
  124       81.177211   0.000000
  125       81.178211   0.000000
  126       81.178211   0.000000
  127       81.713886   0.000000
  128       81.713886   0.000000
 
 -0.4285714E+00 -0.3261608E-16  0.0000000E+00  0.2915452E-02
    1      -23.337888   1.000000
    2      -23.337887   1.000000
    3      -10.167531   1.000000
    4      -10.167530   1.000000
    5       -8.476040   1.000000
    6       -8.476040   1.000000
    7       -8.350252   1.000000
    8       -8.350251   1.000000
    9        9.001193   0.000000
   10        9.001194   0.000000
   11       11.823266   0.000000
   12       11.823266   0.000000
   13       13.981550   0.000000
   14       13.981550   0.000000
   15       13.982638   0.000000
   16       13.982641   0.000000
   17       15.399992   0.000000
   18       15.399992   0.000000
   19       15.403248   0.000000
   20       15.403248   0.000000
   21       16.387733   0.000000
   22       16.387734   0.000000
   23       18.758814   0.000000
   24       18.758815   0.000000
   25       21.455363   0.000000
   26       21.455363   0.000000
   27       21.486424   0.000000
   28       21.486424   0.000000
   29       26.325901   0.000000
   30       26.325901   0.000000
   31       26.619590   0.000000
   32       26.619590   0.000000
   33       26.621487   0.000000
   34       26.621487   0.000000
   35       31.274530   0.000000
   36       31.274530   0.000000
   37       31.312099   0.000000
   38       31.312099   0.000000
   39       31.474718   0.000000
   40       31.474720   0.000000
   41       35.396763   0.000000
   42       35.396764   0.000000
   43       35.771720   0.000000
   44       35.771720   0.000000
   45       35.780079   0.000000
   46       35.780079   0.000000
   47       37.589798   0.000000
   48       37.589798   0.000000
   49       37.608240   0.000000
   50       37.608240   0.000000
   51       38.910809   0.000000
   52       38.910809   0.000000
   53       42.111315   0.000000
   54       42.111316   0.000000
   55       42.650661   0.000000
   56       42.650661   0.000000
   57       45.047498   0.000000
   58       45.047498   0.000000
   59       45.049405   0.000000
   60       45.049405   0.000000
   61       46.791277   0.000000
   62       46.791278   0.000000
   63       48.616707   0.000000
   64       48.616707   0.000000
   65       48.616801   0.000000
   66       48.616801   0.000000
   67       49.472631   0.000000
   68       49.472632   0.000000
   69       54.362655   0.000000
   70       54.362655   0.000000
   71       54.363754   0.000000
   72       54.363754   0.000000
   73       54.963191   0.000000
   74       54.963191   0.000000
   75       55.065684   0.000000
   76       55.065684   0.000000
   77       55.421660   0.000000
   78       55.421660   0.000000
   79       55.430560   0.000000
   80       55.430560   0.000000
   81       57.987094   0.000000
   82       57.987094   0.000000
   83       57.998920   0.000000
   84       57.998920   0.000000
   85       58.933574   0.000000
   86       58.933574   0.000000
   87       63.668696   0.000000
   88       63.668696   0.000000
   89       63.679015   0.000000
   90       63.679015   0.000000
   91       63.731182   0.000000
   92       63.731183   0.000000
   93       65.872046   0.000000
   94       65.872046   0.000000
   95       65.891564   0.000000
   96       65.891564   0.000000
   97       68.250833   0.000000
   98       68.250835   0.000000
   99       69.158319   0.000000
  100       69.158319   0.000000
  101       69.159074   0.000000
  102       69.159075   0.000000
  103       71.365285   0.000000
  104       71.365285   0.000000
  105       72.315174   0.000000
  106       72.315174   0.000000
  107       72.323100   0.000000
  108       72.323101   0.000000
  109       75.007862   0.000000
  110       75.007862   0.000000
  111       75.009350   0.000000
  112       75.009350   0.000000
  113       75.287226   0.000000
  114       75.287226   0.000000
  115       77.320029   0.000000
  116       77.320029   0.000000
  117       78.531508   0.000000
  118       78.531510   0.000000
  119       79.048078   0.000000
  120       79.048078   0.000000
  121       79.055015   0.000000
  122       79.055015   0.000000
  123       81.177211   0.000000
  124       81.177211   0.000000
  125       81.178211   0.000000
  126       81.178211   0.000000
  127       81.713886   0.000000
  128       81.713886   0.000000
 
 -0.2857143E+00 -0.5875149E-16 -0.2775558E-16  0.2915452E-02
    1      -23.454850   1.000000
    2      -23.454850   1.000000
    3       -9.524888   1.000000
    4       -9.524888   1.000000
    5       -8.396797   1.000000
    6       -8.396797   1.000000
    7       -8.272255   1.000000
    8       -8.272254   1.000000
    9        8.030844   0.000000
   10        8.030844   0.000000
   11       12.237529   0.000000
   12       12.237529   0.000000
   13       14.490280   0.000000
   14       14.490280   0.000000
   15       14.491950   0.000000
   16       14.491951   0.000000
   17       14.019747   0.000000
   18       14.019747   0.000000
   19       14.023482   0.000000
   20       14.023482   0.000000
   21       16.686339   0.000000
   22       16.686341   0.000000
   23       20.748810   0.000000
   24       20.748811   0.000000
   25       23.347458   0.000000
   26       23.347459   0.000000
   27       23.738040   0.000000
   28       23.738040   0.000000
   29       23.759679   0.000000
   30       23.759679   0.000000
   31       24.389556   0.000000
   32       24.389556   0.000000
   33       24.401883   0.000000
   34       24.401883   0.000000
   35       29.902443   0.000000
   36       29.902445   0.000000
   37       31.429229   0.000000
   38       31.429229   0.000000
   39       31.448961   0.000000
   40       31.448961   0.000000
   41       34.149093   0.000000
   42       34.149093   0.000000
   43       35.740164   0.000000
   44       35.740164   0.000000
   45       35.774656   0.000000
   46       35.774656   0.000000
   47       39.366878   0.000000
   48       39.366879   0.000000
   49       39.369306   0.000000
   50       39.369306   0.000000
   51       40.909523   0.000000
   52       40.909524   0.000000
   53       41.825316   0.000000
   54       41.825316   0.000000
   55       45.635871   0.000000
   56       45.635872   0.000000
   57       47.006128   0.000000
   58       47.006128   0.000000
   59       47.007116   0.000000
   60       47.007116   0.000000
   61       49.591370   0.000000
   62       49.591371   0.000000
   63       49.893356   0.000000
   64       49.893356   0.000000
   65       49.893610   0.000000
   66       49.893610   0.000000
   67       51.313883   0.000000
   68       51.313883   0.000000
   69       51.331172   0.000000
   70       51.331172   0.000000
   71       51.688429   0.000000
   72       51.688429   0.000000
   73       52.633432   0.000000
   74       52.633432   0.000000
   75       55.132573   0.000000
   76       55.132573   0.000000
   77       55.133058   0.000000
   78       55.133058   0.000000
   79       55.226948   0.000000
   80       55.226948   0.000000
   81       58.130692   0.000000
   82       58.130692   0.000000
   83       58.140719   0.000000
   84       58.140720   0.000000
   85       59.330770   0.000000
   86       59.330770   0.000000
   87       61.424567   0.000000
   88       61.424567   0.000000
   89       61.425295   0.000000
   90       61.425296   0.000000
   91       63.353930   0.000000
   92       63.353932   0.000000
   93       65.710064   0.000000
   94       65.710065   0.000000
   95       65.710276   0.000000
   96       65.710276   0.000000
   97       68.225995   0.000000
   98       68.225995   0.000000
   99       68.849097   0.000000
  100       68.849097   0.000000
  101       68.850973   0.000000
  102       68.850973   0.000000
  103       70.047998   0.000000
  104       70.048000   0.000000
  105       70.726369   0.000000
  106       70.726369   0.000000
  107       70.918263   0.000000
  108       70.918264   0.000000
  109       70.949047   0.000000
  110       70.949047   0.000000
  111       74.288937   0.000000
  112       74.288937   0.000000
  113       74.857859   0.000000
  114       74.857859   0.000000
  115       74.858851   0.000000
  116       74.858851   0.000000
  117       75.578338   0.000000
  118       75.578338   0.000000
  119       75.579947   0.000000
  120       75.579947   0.000000
  121       75.975322   0.000000
  122       75.975323   0.000000
  123       76.962240   0.000000
  124       76.962241   0.000000
  125       77.953569   0.000000
  126       77.953569   0.000000
  127       77.954385   0.000000
  128       77.954385   0.000000
 
 -0.1428571E+00 -0.1549796E-16  0.0000000E+00  0.2915452E-02
    1      -23.592107   1.000000
    2      -23.592107   1.000000
    3       -8.653251   1.000000
    4       -8.653251   1.000000
    5       -8.280761   1.000000
    6       -8.280761   1.000000
    7       -8.171755   1.000000
    8       -8.171754   1.000000
    9        6.606088   0.000000
   10        6.606088   0.000000
   11       13.455379   0.000000
   12       13.455379   0.000000
   13       14.694649   0.000000
   14       14.694649   0.000000
   15       14.696650   0.000000
   16       14.696651   0.000000
   17       13.592163   0.000000
   18       13.592163   0.000000
   19       13.593511   0.000000
   20       13.593511   0.000000
   21       17.903341   0.000000
   22       17.903342   0.000000
   23       18.866640   0.000000
   24       18.866641   0.000000
   25       21.233515   0.000000
   26       21.233515   0.000000
   27       21.241956   0.000000
   28       21.241956   0.000000
   29       24.485493   0.000000
   30       24.485495   0.000000
   31       27.064598   0.000000
   32       27.064599   0.000000
   33       27.609879   0.000000
   34       27.609879   0.000000
   35       27.632567   0.000000
   36       27.632567   0.000000
   37       31.375162   0.000000
   38       31.375162   0.000000
   39       31.407649   0.000000
   40       31.407649   0.000000
   41       33.464250   0.000000
   42       33.464250   0.000000
   43       34.761091   0.000000
   44       34.761091   0.000000
   45       34.786059   0.000000
   46       34.786059   0.000000
   47       41.079257   0.000000
   48       41.079257   0.000000
   49       41.234411   0.000000
   50       41.234411   0.000000
   51       41.236455   0.000000
   52       41.236455   0.000000
   53       42.524744   0.000000
   54       42.524746   0.000000
   55       47.036034   0.000000
   56       47.036034   0.000000
   57       47.259732   0.000000
   58       47.259732   0.000000
   59       47.267578   0.000000
   60       47.267578   0.000000
   61       50.632386   0.000000
   62       50.632386   0.000000
   63       50.637293   0.000000
   64       50.637293   0.000000
   65       52.164896   0.000000
   66       52.164898   0.000000
   67       53.550604   0.000000
   68       53.550604   0.000000
   69       53.550715   0.000000
   70       53.550715   0.000000
   71       54.862330   0.000000
   72       54.862330   0.000000
   73       54.880076   0.000000
   74       54.880076   0.000000
   75       55.198382   0.000000
   76       55.198382   0.000000
   77       55.635324   0.000000
   78       55.635324   0.000000
   79       57.198276   0.000000
   80       57.198276   0.000000
   81       57.201665   0.000000
   82       57.201665   0.000000
   83       58.064728   0.000000
   84       58.064729   0.000000
   85       58.803546   0.000000
   86       58.803546   0.000000
   87       61.242300   0.000000
   88       61.242300   0.000000
   89       61.242413   0.000000
   90       61.242413   0.000000
   91       62.326701   0.000000
   92       62.326701   0.000000
   93       62.328184   0.000000
   94       62.328184   0.000000
   95       62.371070   0.000000
   96       62.371073   0.000000
   97       63.709788   0.000000
   98       63.709789   0.000000
   99       64.804617   0.000000
  100       64.804617   0.000000
  101       65.347049   0.000000
  102       65.347049   0.000000
  103       65.347722   0.000000
  104       65.347722   0.000000
  105       65.607106   0.000000
  106       65.607107   0.000000
  107       69.111414   0.000000
  108       69.111414   0.000000
  109       69.111564   0.000000
  110       69.111565   0.000000
  111       70.765895   0.000000
  112       70.765895   0.000000
  113       70.766129   0.000000
  114       70.766130   0.000000
  115       70.981573   0.000000
  116       70.981574   0.000000
  117       75.732667   0.000000
  118       75.732667   0.000000
  119       75.750120   0.000000
  120       75.750120   0.000000
  121       76.495497   0.000000