 vasp.5.4.4.18Apr17-6-g9f103f2a35 (build Nov 03 2018 10:20:46) complex          
  
 executed on             LinuxIFC date 2018.12.05  17:21:18
 running on   56 total cores
 distrk:  each k-point on    4 cores,   14 groups
 distr:  one band on NCORES_PER_BAND=   1 cores,    4 groups


--------------------------------------------------------------------------------------------------------


 INCAR:
 POTCAR:    PAW_PBE Ar_GW 21Aug2013               

 ----------------------------------------------------------------------------- 
|                                                                             |
|           W    W    AA    RRRRR   N    N  II  N    N   GGGG   !!!           |
|           W    W   A  A   R    R  NN   N  II  NN   N  G    G  !!!           |
|           W    W  A    A  R    R  N N  N  II  N N  N  G       !!!           |
|           W WW W  AAAAAA  RRRRR   N  N N  II  N  N N  G  GGG   !            |
|           WW  WW  A    A  R   R   N   NN  II  N   NN  G    G                |
|           W    W  A    A  R    R  N    N  II  N    N   GGGG   !!!           |
|                                                                             |
|      For optimal performance we recommend to set                            |
|        NCORE= 4 - approx SQRT( number of cores)                             |
|      NCORE specifies how many cores store one orbital (NPAR=cpu/NCORE).     |
|      This setting can  greatly improve the performance of VASP for DFT.     |
|      The default,   NCORE=1            might be grossly inefficient         |
|      on modern multi-core architectures or massively parallel machines.     |
|      Do your own testing !!!!                                               |
|      Unfortunately you need to use the default for GW and RPA calculations. |
|      (for HF NCORE is supported but not extensively tested yet)             |
|                                                                             |
 ----------------------------------------------------------------------------- 


 ----------------------------------------------------------------------------- 
|                                                                             |
|           W    W    AA    RRRRR   N    N  II  N    N   GGGG   !!!           |
|           W    W   A  A   R    R  NN   N  II  NN   N  G    G  !!!           |
|           W    W  A    A  R    R  N N  N  II  N N  N  G       !!!           |
|           W WW W  AAAAAA  RRRRR   N  N N  II  N  N N  G  GGG   !            |
|           WW  WW  A    A  R   R   N   NN  II  N   NN  G    G                |
|           W    W  A    A  R    R  N    N  II  N    N   GGGG   !!!           |
|                                                                             |
|      You have enabled k-point parallelism (KPAR>1).                         |
|      This developmental code was originally  written by Paul Kent at ORNL,  |
|      and carefully double checked in Vienna.                                |
|      GW as well as linear response parallelism added by Martijn Marsman     |
|      and Georg Kresse.                                                      |
|      Carefully verify results versus KPAR=1.                                |
|      Report problems to Paul Kent and Vienna.                               |
|                                                                             |
 ----------------------------------------------------------------------------- 

 POTCAR:    PAW_PBE Ar_GW 21Aug2013               
  local pseudopotential read in
  partial core-charges read in
  partial kinetic energy density read in
  kinetic energy density of atom read in
  atomic valenz-charges read in
  non local Contribution for L=           0  read in
    real space projection operators read in
  non local Contribution for L=           0  read in
    real space projection operators read in
  non local Contribution for L=           1  read in
    real space projection operators read in
  non local Contribution for L=           1  read in
    real space projection operators read in
  non local Contribution for L=           2  read in
    real space projection operators read in
  non local Contribution for L=           2  read in
    real space projection operators read in
    PAW grid and wavefunctions read in
 
   number of l-projection  operators is LMAX  =           6
   number of lm-projection operators is LMMAX =          18
 
  PAW_PBE Ar_GW 21Aug2013               :
 energy of atom  1       EATOM= -579.0493
 kinetic energy error for atom=    0.0359 (will be added to EATOM!!)
 
 
 POSCAR: Ar_FCC                                  
  positions in direct lattice
  velocities in cartesian coordinates
 exchange correlation table for  LEXCH =        8
   RHO(1)=    0.500       N(1)  =     2000
   RHO(2)=  100.500       N(2)  =     4000
 


--------------------------------------------------------------------------------------------------------


 ion  position               nearest neighbor table
   1  0.000  0.000  0.000-
 

IMPORTANT INFORMATION: All symmetrisations will be switched off!
NOSYMM: (Re-)initialisation of all symmetry stuff for point group C_1.

 
 
 KPOINTS: k-points                                

Automatic generation of k-mesh.
Space group operators:
 irot       det(A)        alpha          n_x          n_y          n_z        tau_x        tau_y        tau_z
    1     1.000000     0.000000     1.000000     0.000000     0.000000     0.000000     0.000000     0.000000
 
 Subroutine IBZKPT returns following result:
 ===========================================
 
 Found    343 irreducible k-points:
 
 Following reciprocal coordinates:
            Coordinates               Weight
  0.000000  0.000000  0.000000      1.000000
  0.142857  0.000000 -0.000000      1.000000
  0.285714  0.000000  0.000000      1.000000
  0.428571  0.000000  0.000000      1.000000
 -0.428571 -0.000000  0.000000      1.000000
 -0.285714 -0.000000 -0.000000      1.000000
 -0.142857 -0.000000  0.000000      1.000000
 -0.000000  0.142857  0.000000      1.000000
  0.142857  0.142857  0.000000      1.000000
  0.285714  0.142857  0.000000      1.000000
  0.428571  0.142857  0.000000      1.000000
 -0.428571  0.142857  0.000000      1.000000
 -0.285714  0.142857 -0.000000      1.000000
 -0.142857  0.142857  0.000000      1.000000
  0.000000  0.285714  0.000000      1.000000
  0.142857  0.285714 -0.000000      1.000000
  0.285714  0.285714  0.000000      1.000000
  0.428571  0.285714  0.000000      1.000000
 -0.428571  0.285714 -0.000000      1.000000
 -0.285714  0.285714 -0.000000      1.000000
 -0.142857  0.285714 -0.000000      1.000000
  0.000000  0.428571  0.000000      1.000000
  0.142857  0.428571 -0.000000      1.000000
  0.285714  0.428571  0.000000      1.000000
  0.428571  0.428571  0.000000      1.000000
 -0.428571  0.428571 -0.000000      1.000000
 -0.285714  0.428571 -0.000000      1.000000
 -0.142857  0.428571 -0.000000      1.000000
  0.000000 -0.428571  0.000000      1.000000
  0.142857 -0.428571  0.000000      1.000000
  0.285714 -0.428571  0.000000      1.000000
  0.428571 -0.428571  0.000000      1.000000
 -0.428571 -0.428571 -0.000000      1.000000
 -0.285714 -0.428571 -0.000000      1.000000
 -0.142857 -0.428571  0.000000      1.000000
 -0.000000 -0.285714  0.000000      1.000000
  0.142857 -0.285714 -0.000000      1.000000
  0.285714 -0.285714  0.000000      1.000000
  0.428571 -0.285714  0.000000      1.000000
 -0.428571 -0.285714 -0.000000      1.000000
 -0.285714 -0.285714  0.000000      1.000000
 -0.142857 -0.285714 -0.000000      1.000000
  0.000000 -0.142857  0.000000      1.000000
  0.142857 -0.142857  0.000000      1.000000
  0.285714 -0.142857  0.000000      1.000000
  0.428571 -0.142857 -0.000000      1.000000
 -0.428571 -0.142857  0.000000      1.000000
 -0.285714 -0.142857  0.000000      1.000000
 -0.142857 -0.142857  0.000000      1.000000
  0.000000 -0.000000  0.142857      1.000000
  0.142857  0.000000  0.142857      1.000000
  0.285714  0.000000  0.142857      1.000000
  0.428571  0.000000  0.142857      1.000000
 -0.428571 -0.000000  0.142857      1.000000
 -0.285714 -0.000000  0.142857      1.000000
 -0.142857 -0.000000  0.142857      1.000000
  0.000000  0.142857  0.142857      1.000000
  0.142857  0.142857  0.142857      1.000000
  0.285714  0.142857  0.142857      1.000000
  0.428571  0.142857  0.142857      1.000000
 -0.428571  0.142857  0.142857      1.000000
 -0.285714  0.142857  0.142857      1.000000
 -0.142857  0.142857  0.142857      1.000000
  0.000000  0.285714  0.142857      1.000000
  0.142857  0.285714  0.142857      1.000000
  0.285714  0.285714  0.142857      1.000000
  0.428571  0.285714  0.142857      1.000000
 -0.428571  0.285714  0.142857      1.000000
 -0.285714  0.285714  0.142857      1.000000
 -0.142857  0.285714  0.142857      1.000000
 -0.000000  0.428571  0.142857      1.000000
  0.142857  0.428571  0.142857      1.000000
  0.285714  0.428571  0.142857      1.000000
  0.428571  0.428571  0.142857      1.000000
 -0.428571  0.428571  0.142857      1.000000
 -0.285714  0.428571  0.142857      1.000000
 -0.142857  0.428571  0.142857      1.000000
  0.000000 -0.428571  0.142857      1.000000
  0.142857 -0.428571  0.142857      1.000000
  0.285714 -0.428571  0.142857      1.000000
  0.428571 -0.428571  0.142857      1.000000
 -0.428571 -0.428571  0.142857      1.000000
 -0.285714 -0.428571  0.142857      1.000000
 -0.142857 -0.428571  0.142857      1.000000
  0.000000 -0.285714  0.142857      1.000000
  0.142857 -0.285714  0.142857      1.000000
  0.285714 -0.285714  0.142857      1.000000
  0.428571 -0.285714  0.142857      1.000000
 -0.428571 -0.285714  0.142857      1.000000
 -0.285714 -0.285714  0.142857      1.000000
 -0.142857 -0.285714  0.142857      1.000000
  0.000000 -0.142857  0.142857      1.000000
  0.142857 -0.142857  0.142857      1.000000
  0.285714 -0.142857  0.142857      1.000000
  0.428571 -0.142857  0.142857      1.000000
 -0.428571 -0.142857  0.142857      1.000000
 -0.285714 -0.142857  0.142857      1.000000
 -0.142857 -0.142857  0.142857      1.000000
 -0.000000 -0.000000  0.285714      1.000000
  0.142857  0.000000  0.285714      1.000000
  0.285714  0.000000  0.285714      1.000000
  0.428571  0.000000  0.285714      1.000000
 -0.428571 -0.000000  0.285714      1.000000
 -0.285714 -0.000000  0.285714      1.000000
 -0.142857 -0.000000  0.285714      1.000000
  0.000000  0.142857  0.285714      1.000000
  0.142857  0.142857  0.285714      1.000000
  0.285714  0.142857  0.285714      1.000000
  0.428571  0.142857  0.285714      1.000000
 -0.428571  0.142857  0.285714      1.000000
 -0.285714  0.142857  0.285714      1.000000
 -0.142857  0.142857  0.285714      1.000000
  0.000000  0.285714  0.285714      1.000000
  0.142857  0.285714  0.285714      1.000000
  0.285714  0.285714  0.285714      1.000000
  0.428571  0.285714  0.285714      1.000000
 -0.428571  0.285714  0.285714      1.000000
 -0.285714  0.285714  0.285714      1.000000
 -0.142857  0.285714  0.285714      1.000000
 -0.000000  0.428571  0.285714      1.000000
  0.142857  0.428571  0.285714      1.000000
  0.285714  0.428571  0.285714      1.000000
  0.428571  0.428571  0.285714      1.000000
 -0.428571  0.428571  0.285714      1.000000
 -0.285714  0.428571  0.285714      1.000000
 -0.142857  0.428571  0.285714      1.000000
  0.000000 -0.428571  0.285714      1.000000
  0.142857 -0.428571  0.285714      1.000000
  0.285714 -0.428571  0.285714      1.000000
  0.428571 -0.428571  0.285714      1.000000
 -0.428571 -0.428571  0.285714      1.000000
 -0.285714 -0.428571  0.285714      1.000000
 -0.142857 -0.428571  0.285714      1.000000
  0.000000 -0.285714  0.285714      1.000000
  0.142857 -0.285714  0.285714      1.000000
  0.285714 -0.285714  0.285714      1.000000
  0.428571 -0.285714  0.285714      1.000000
 -0.428571 -0.285714  0.285714      1.000000
 -0.285714 -0.285714  0.285714      1.000000
 -0.142857 -0.285714  0.285714      1.000000
 -0.000000 -0.142857  0.285714      1.000000
  0.142857 -0.142857  0.285714      1.000000
  0.285714 -0.142857  0.285714      1.000000
  0.428571 -0.142857  0.285714      1.000000
 -0.428571 -0.142857  0.285714      1.000000
 -0.285714 -0.142857  0.285714      1.000000
 -0.142857 -0.142857  0.285714      1.000000
  0.000000  0.000000  0.428571      1.000000
  0.142857  0.000000  0.428571      1.000000
  0.285714  0.000000  0.428571      1.000000
  0.428571  0.000000  0.428571      1.000000
 -0.428571  0.000000  0.428571      1.000000
 -0.285714 -0.000000  0.428571      1.000000
 -0.142857 -0.000000  0.428571      1.000000
 -0.000000  0.142857  0.428571      1.000000
  0.142857  0.142857  0.428571      1.000000
  0.285714  0.142857  0.428571      1.000000
  0.428571  0.142857  0.428571      1.000000
 -0.428571  0.142857  0.428571      1.000000
 -0.285714  0.142857  0.428571      1.000000
 -0.142857  0.142857  0.428571      1.000000
  0.000000  0.285714  0.428571      1.000000
  0.142857  0.285714  0.428571      1.000000
  0.285714  0.285714  0.428571      1.000000
  0.428571  0.285714  0.428571      1.000000
 -0.428571  0.285714  0.428571      1.000000
 -0.285714  0.285714  0.428571      1.000000
 -0.142857  0.285714  0.428571      1.000000
 -0.000000  0.428571  0.428571      1.000000
  0.142857  0.428571  0.428571      1.000000
  0.285714  0.428571  0.428571      1.000000
  0.428571  0.428571  0.428571      1.000000
 -0.428571  0.428571  0.428571      1.000000
 -0.285714  0.428571  0.428571      1.000000
 -0.142857  0.428571  0.428571      1.000000
  0.000000 -0.428571  0.428571      1.000000
  0.142857 -0.428571  0.428571      1.000000
  0.285714 -0.428571  0.428571      1.000000
  0.428571 -0.428571  0.428571      1.000000
 -0.428571 -0.428571  0.428571      1.000000
 -0.285714 -0.428571  0.428571      1.000000
 -0.142857 -0.428571  0.428571      1.000000
  0.000000 -0.285714  0.428571      1.000000
  0.142857 -0.285714  0.428571      1.000000
  0.285714 -0.285714  0.428571      1.000000
  0.428571 -0.285714  0.428571      1.000000
 -0.428571 -0.285714  0.428571      1.000000
 -0.285714 -0.285714  0.428571      1.000000
 -0.142857 -0.285714  0.428571      1.000000
  0.000000 -0.142857  0.428571      1.000000
  0.142857 -0.142857  0.428571      1.000000
  0.285714 -0.142857  0.428571      1.000000
  0.428571 -0.142857  0.428571      1.000000
 -0.428571 -0.142857  0.428571      1.000000
 -0.285714 -0.142857  0.428571      1.000000
 -0.142857 -0.142857  0.428571      1.000000
  0.000000 -0.000000 -0.428571      1.000000
  0.142857  0.000000 -0.428571      1.000000
  0.285714  0.000000 -0.428571      1.000000
  0.428571 -0.000000 -0.428571      1.000000
 -0.428571 -0.000000 -0.428571      1.000000
 -0.285714 -0.000000 -0.428571      1.000000
 -0.142857 -0.000000 -0.428571      1.000000
  0.000000  0.142857 -0.428571      1.000000
  0.142857  0.142857 -0.428571      1.000000
  0.285714  0.142857 -0.428571      1.000000
  0.428571  0.142857 -0.428571      1.000000
 -0.428571  0.142857 -0.428571      1.000000
 -0.285714  0.142857 -0.428571      1.000000
 -0.142857  0.142857 -0.428571      1.000000
  0.000000  0.285714 -0.428571      1.000000
  0.142857  0.285714 -0.428571      1.000000
  0.285714  0.285714 -0.428571      1.000000
  0.428571  0.285714 -0.428571      1.000000
 -0.428571  0.285714 -0.428571      1.000000
 -0.285714  0.285714 -0.428571      1.000000
 -0.142857  0.285714 -0.428571      1.000000
  0.000000  0.428571 -0.428571      1.000000
  0.142857  0.428571 -0.428571      1.000000
  0.285714  0.428571 -0.428571      1.000000
  0.428571  0.428571 -0.428571      1.000000
 -0.428571  0.428571 -0.428571      1.000000
 -0.285714  0.428571 -0.428571      1.000000
 -0.142857  0.428571 -0.428571      1.000000
  0.000000 -0.428571 -0.428571      1.000000
  0.142857 -0.428571 -0.428571      1.000000
  0.285714 -0.428571 -0.428571      1.000000
  0.428571 -0.428571 -0.428571      1.000000
 -0.428571 -0.428571 -0.428571      1.000000
 -0.285714 -0.428571 -0.428571      1.000000
 -0.142857 -0.428571 -0.428571      1.000000
  0.000000 -0.285714 -0.428571      1.000000
  0.142857 -0.285714 -0.428571      1.000000
  0.285714 -0.285714 -0.428571      1.000000
  0.428571 -0.285714 -0.428571      1.000000
 -0.428571 -0.285714 -0.428571      1.000000
 -0.285714 -0.285714 -0.428571      1.000000
 -0.142857 -0.285714 -0.428571      1.000000
  0.000000 -0.142857 -0.428571      1.000000
  0.142857 -0.142857 -0.428571      1.000000
  0.285714 -0.142857 -0.428571      1.000000
  0.428571 -0.142857 -0.428571      1.000000
 -0.428571 -0.142857 -0.428571      1.000000
 -0.285714 -0.142857 -0.428571      1.000000
 -0.142857 -0.142857 -0.428571      1.000000
  0.000000  0.000000 -0.285714      1.000000
  0.142857  0.000000 -0.285714      1.000000
  0.285714  0.000000 -0.285714      1.000000
  0.428571  0.000000 -0.285714      1.000000
 -0.428571 -0.000000 -0.285714      1.000000
 -0.285714 -0.000000 -0.285714      1.000000
 -0.142857 -0.000000 -0.285714      1.000000
 -0.000000  0.142857 -0.285714      1.000000
  0.142857  0.142857 -0.285714      1.000000
  0.285714  0.142857 -0.285714      1.000000
  0.428571  0.142857 -0.285714      1.000000
 -0.428571  0.142857 -0.285714      1.000000
 -0.285714  0.142857 -0.285714      1.000000
 -0.142857  0.142857 -0.285714      1.000000
 -0.000000  0.285714 -0.285714      1.000000
  0.142857  0.285714 -0.285714      1.000000
  0.285714  0.285714 -0.285714      1.000000
  0.428571  0.285714 -0.285714      1.000000
 -0.428571  0.285714 -0.285714      1.000000
 -0.285714  0.285714 -0.285714      1.000000
 -0.142857  0.285714 -0.285714      1.000000
  0.000000  0.428571 -0.285714      1.000000
  0.142857  0.428571 -0.285714      1.000000
  0.285714  0.428571 -0.285714      1.000000
  0.428571  0.428571 -0.285714      1.000000
 -0.428571  0.428571 -0.285714      1.000000
 -0.285714  0.428571 -0.285714      1.000000
 -0.142857  0.428571 -0.285714      1.000000
  0.000000 -0.428571 -0.285714      1.000000
  0.142857 -0.428571 -0.285714      1.000000
  0.285714 -0.428571 -0.285714      1.000000
  0.428571 -0.428571 -0.285714      1.000000
 -0.428571 -0.428571 -0.285714      1.000000
 -0.285714 -0.428571 -0.285714      1.000000
 -0.142857 -0.428571 -0.285714      1.000000
  0.000000 -0.285714 -0.285714      1.000000
  0.142857 -0.285714 -0.285714      1.000000
  0.285714 -0.285714 -0.285714      1.000000
  0.428571 -0.285714 -0.285714      1.000000
 -0.428571 -0.285714 -0.285714      1.000000
 -0.285714 -0.285714 -0.285714      1.000000
 -0.142857 -0.285714 -0.285714      1.000000
  0.000000 -0.142857 -0.285714      1.000000
  0.142857 -0.142857 -0.285714      1.000000
  0.285714 -0.142857 -0.285714      1.000000
  0.428571 -0.142857 -0.285714      1.000000
 -0.428571 -0.142857 -0.285714      1.000000
 -0.285714 -0.142857 -0.285714      1.000000
 -0.142857 -0.142857 -0.285714      1.000000
  0.000000  0.000000 -0.142857      1.000000
  0.142857  0.000000 -0.142857      1.000000
  0.285714  0.000000 -0.142857      1.000000
  0.428571  0.000000 -0.142857      1.000000
 -0.428571 -0.000000 -0.142857      1.000000
 -0.285714 -0.000000 -0.142857      1.000000
 -0.142857 -0.000000 -0.142857      1.000000
  0.000000  0.142857 -0.142857      1.000000
  0.142857  0.142857 -0.142857      1.000000
  0.285714  0.142857 -0.142857      1.000000
  0.428571  0.142857 -0.142857      1.000000
 -0.428571  0.142857 -0.142857      1.000000
 -0.285714  0.142857 -0.142857      1.000000
 -0.142857  0.142857 -0.142857      1.000000
 -0.000000  0.285714 -0.142857      1.000000
  0.142857  0.285714 -0.142857      1.000000
  0.285714  0.285714 -0.142857      1.000000
  0.428571  0.285714 -0.142857      1.000000
 -0.428571  0.285714 -0.142857      1.000000
 -0.285714  0.285714 -0.142857      1.000000
 -0.142857  0.285714 -0.142857      1.000000
 -0.000000  0.428571 -0.142857      1.000000
  0.142857  0.428571 -0.142857      1.000000
  0.285714  0.428571 -0.142857      1.000000
  0.428571  0.428571 -0.142857      1.000000
 -0.428571  0.428571 -0.142857      1.000000
 -0.285714  0.428571 -0.142857      1.000000
 -0.142857  0.428571 -0.142857      1.000000
  0.000000 -0.428571 -0.142857      1.000000
  0.142857 -0.428571 -0.142857      1.000000
  0.285714 -0.428571 -0.142857      1.000000
  0.428571 -0.428571 -0.142857      1.000000
 -0.428571 -0.428571 -0.142857      1.000000
 -0.285714 -0.428571 -0.142857      1.000000
 -0.142857 -0.428571 -0.142857      1.000000
 -0.000000 -0.285714 -0.142857      1.000000
  0.142857 -0.285714 -0.142857      1.000000
  0.285714 -0.285714 -0.142857      1.000000
  0.428571 -0.285714 -0.142857      1.000000
 -0.428571 -0.285714 -0.142857      1.000000
 -0.285714 -0.285714 -0.142857      1.000000
 -0.142857 -0.285714 -0.142857      1.000000
  0.000000 -0.142857 -0.142857      1.000000
  0.142857 -0.142857 -0.142857      1.000000
  0.285714 -0.142857 -0.142857      1.000000
  0.428571 -0.142857 -0.142857      1.000000
 -0.428571 -0.142857 -0.142857      1.000000
 -0.285714 -0.142857 -0.142857      1.000000
 -0.142857 -0.142857 -0.142857      1.000000
 
 Following cartesian coordinates:
            Coordinates               Weight
  0.000000  0.000000  0.000000      1.000000
  0.039686 -0.022913 -0.016202      1.000000
  0.079372 -0.045825 -0.032403      1.000000
  0.119058 -0.068738 -0.048605      1.000000
 -0.119058  0.068738  0.048605      1.000000
 -0.079372  0.045825  0.032403      1.000000
 -0.039686  0.022913  0.016202      1.000000
  0.000000  0.045825 -0.016202      1.000000
  0.039686  0.022913 -0.032403      1.000000
  0.079372  0.000000 -0.048605      1.000000
  0.119058 -0.022913 -0.064807      1.000000
 -0.119058  0.114563  0.032403      1.000000
 -0.079372  0.091651  0.016202      1.000000
 -0.039686  0.068738  0.000000      1.000000
  0.000000  0.091651 -0.032403      1.000000
  0.039686  0.068738 -0.048605      1.000000
  0.079372  0.045825 -0.064807      1.000000
  0.119058  0.022913 -0.081008      1.000000
 -0.119058  0.160389  0.016202      1.000000
 -0.079372  0.137476  0.000000      1.000000
 -0.039686  0.114563 -0.016202      1.000000
  0.000000  0.137476 -0.048605      1.000000
  0.039686  0.114563 -0.064807      1.000000
  0.079372  0.091651 -0.081008      1.000000
  0.119058  0.068738 -0.097210      1.000000
 -0.119058  0.206214  0.000000      1.000000
 -0.079372  0.183301 -0.016202      1.000000
 -0.039686  0.160389 -0.032403      1.000000
 -0.000000 -0.137476  0.048605      1.000000
  0.039686 -0.160389  0.032403      1.000000
  0.079372 -0.183301  0.016202      1.000000
  0.119058 -0.206214 -0.000000      1.000000
 -0.119058 -0.068738  0.097210      1.000000
 -0.079372 -0.091651  0.081008      1.000000
 -0.039686 -0.114563  0.064807      1.000000
 -0.000000 -0.091651  0.032403      1.000000
  0.039686 -0.114563  0.016202      1.000000
  0.079372 -0.137476 -0.000000      1.000000
  0.119058 -0.160389 -0.016202      1.000000
 -0.119058 -0.022913  0.081008      1.000000
 -0.079372 -0.045825  0.064807      1.000000
 -0.039686 -0.068738  0.048605      1.000000
 -0.000000 -0.045825  0.016202      1.000000
  0.039686 -0.068738 -0.000000      1.000000
  0.079372 -0.091651 -0.016202      1.000000
  0.119058 -0.114563 -0.032403      1.000000
 -0.119058  0.022913  0.064807      1.000000
 -0.079372  0.000000  0.048605      1.000000
 -0.039686 -0.022913  0.032403      1.000000
 -0.000000  0.000000  0.048605      1.000000
  0.039686 -0.022913  0.032403      1.000000
  0.079372 -0.045825  0.016202      1.000000
  0.119058 -0.068738 -0.000000      1.000000
 -0.119058  0.068738  0.097210      1.000000
 -0.079372  0.045825  0.081008      1.000000
 -0.039686  0.022913  0.064807      1.000000
 -0.000000  0.045825  0.032403      1.000000
  0.039686  0.022913  0.016202      1.000000
  0.079372  0.000000  0.000000      1.000000
  0.119058 -0.022913 -0.016202      1.000000
 -0.119058  0.114563  0.081008      1.000000
 -0.079372  0.091651  0.064807      1.000000
 -0.039686  0.068738  0.048605      1.000000
 -0.000000  0.091651  0.016202      1.000000
  0.039686  0.068738  0.000000      1.000000
  0.079372  0.045825 -0.016202      1.000000
  0.119058  0.022913 -0.032403      1.000000
 -0.119058  0.160389  0.064807      1.000000
 -0.079372  0.137476  0.048605      1.000000
 -0.039686  0.114563  0.032403      1.000000
 -0.000000  0.137476  0.000000      1.000000
  0.039686  0.114563 -0.016202      1.000000
  0.079372  0.091651 -0.032403      1.000000
  0.119058  0.068738 -0.048605      1.000000
 -0.119058  0.206214  0.048605      1.000000
 -0.079372  0.183301  0.032403      1.000000
 -0.039686  0.160389  0.016202      1.000000
 -0.000000 -0.137476  0.097210      1.000000
  0.039686 -0.160389  0.081008      1.000000
  0.079372 -0.183301  0.064807      1.000000
  0.119058 -0.206214  0.048605      1.000000
 -0.119058 -0.068738  0.145815      1.000000
 -0.079372 -0.091651  0.129614      1.000000
 -0.039686 -0.114563  0.113412      1.000000
 -0.000000 -0.091651  0.081008      1.000000
  0.039686 -0.114563  0.064807      1.000000
  0.079372 -0.137476  0.048605      1.000000
  0.119058 -0.160389  0.032403      1.000000
 -0.119058 -0.022913  0.129614      1.000000
 -0.079372 -0.045825  0.113412      1.000000
 -0.039686 -0.068738  0.097210      1.000000
 -0.000000 -0.045825  0.064807      1.000000
  0.039686 -0.068738  0.048605      1.000000
  0.079372 -0.091651  0.032403      1.000000
  0.119058 -0.114563  0.016202      1.000000
 -0.119058  0.022913  0.113412      1.000000
 -0.079372  0.000000  0.097210      1.000000
 -0.039686 -0.022913  0.081008      1.000000
 -0.000000  0.000000  0.097210      1.000000
  0.039686 -0.022913  0.081008      1.000000
  0.079372 -0.045825  0.064807      1.000000
  0.119058 -0.068738  0.048605      1.000000
 -0.119058  0.068738  0.145815      1.000000
 -0.079372  0.045825  0.129614      1.000000
 -0.039686  0.022913  0.113412      1.000000
 -0.000000  0.045825  0.081008      1.000000
  0.039686  0.022913  0.064807      1.000000
  0.079372  0.000000  0.048605      1.000000
  0.119058 -0.022913  0.032403      1.000000
 -0.119058  0.114563  0.129614      1.000000
 -0.079372  0.091651  0.113412      1.000000
 -0.039686  0.068738  0.097210      1.000000
 -0.000000  0.091651  0.064807      1.000000
  0.039686  0.068738  0.048605      1.000000
  0.079372  0.045825  0.032403      1.000000
  0.119058  0.022913  0.016202      1.000000
 -0.119058  0.160389  0.113412      1.000000
 -0.079372  0.137476  0.097210      1.000000
 -0.039686  0.114563  0.081008      1.000000
 -0.000000  0.137476  0.048605      1.000000
  0.039686  0.114563  0.032403      1.000000
  0.079372  0.091651  0.016202      1.000000
  0.119058  0.068738  0.000000      1.000000
 -0.119058  0.206214  0.097210      1.000000
 -0.079372  0.183301  0.081008      1.000000
 -0.039686  0.160389  0.064807      1.000000
 -0.000000 -0.137476  0.145815      1.000000
  0.039686 -0.160389  0.129614      1.000000
  0.079372 -0.183301  0.113412      1.000000
  0.119058 -0.206214  0.097210      1.000000
 -0.119058 -0.068738  0.194420      1.000000
 -0.079372 -0.091651  0.178219      1.000000
 -0.039686 -0.114563  0.162017      1.000000
 -0.000000 -0.091651  0.129614      1.000000
  0.039686 -0.114563  0.113412      1.000000
  0.079372 -0.137476  0.097210      1.000000
  0.119058 -0.160389  0.081008      1.000000
 -0.119058 -0.022913  0.178219      1.000000
 -0.079372 -0.045825  0.162017      1.000000
 -0.039686 -0.068738  0.145815      1.000000
 -0.000000 -0.045825  0.113412      1.000000
  0.039686 -0.068738  0.097210      1.000000
  0.079372 -0.091651  0.081008      1.000000
  0.119058 -0.114563  0.064807      1.000000
 -0.119058  0.022913  0.162017      1.000000
 -0.079372  0.000000  0.145815      1.000000
 -0.039686 -0.022913  0.129614      1.000000
 -0.000000  0.000000  0.145815      1.000000
  0.039686 -0.022913  0.129614      1.000000
  0.079372 -0.045825  0.113412      1.000000
  0.119058 -0.068738  0.097210      1.000000
 -0.119058  0.068738  0.194420      1.000000
 -0.079372  0.045825  0.178219      1.000000
 -0.039686  0.022913  0.162017      1.000000
 -0.000000  0.045825  0.129614      1.000000
  0.039686  0.022913  0.113412      1.000000
  0.079372  0.000000  0.097210      1.000000
  0.119058 -0.022913  0.081008      1.000000
 -0.119058  0.114563  0.178219      1.000000
 -0.079372  0.091651  0.162017      1.000000
 -0.039686  0.068738  0.145815      1.000000
 -0.000000  0.091651  0.113412      1.000000
  0.039686  0.068738  0.097210      1.000000
  0.079372  0.045825  0.081008      1.000000
  0.119058  0.022913  0.064807      1.000000
 -0.119058  0.160389  0.162017      1.000000
 -0.079372  0.137476  0.145815      1.000000
 -0.039686  0.114563  0.129614      1.000000
 -0.000000  0.137476  0.097210      1.000000
  0.039686  0.114563  0.081008      1.000000
  0.079372  0.091651  0.064807      1.000000
  0.119058  0.068738  0.048605      1.000000
 -0.119058  0.206214  0.145815      1.000000
 -0.079372  0.183301  0.129614      1.000000
 -0.039686  0.160389  0.113412      1.000000
 -0.000000 -0.137476  0.194420      1.000000
  0.039686 -0.160389  0.178219      1.000000
  0.079372 -0.183301  0.162017      1.000000
  0.119058 -0.206214  0.145815      1.000000
 -0.119058 -0.068738  0.243025      1.000000
 -0.079372 -0.091651  0.226824      1.000000
 -0.039686 -0.114563  0.210622      1.000000
 -0.000000 -0.091651  0.178219      1.000000
  0.039686 -0.114563  0.162017      1.000000
  0.079372 -0.137476  0.145815      1.000000
  0.119058 -0.160389  0.129614      1.000000
 -0.119058 -0.022913  0.226824      1.000000
 -0.079372 -0.045825  0.210622      1.000000
 -0.039686 -0.068738  0.194420      1.000000
 -0.000000 -0.045825  0.162017      1.000000
  0.039686 -0.068738  0.145815      1.000000
  0.079372 -0.091651  0.129614      1.000000
  0.119058 -0.114563  0.113412      1.000000
 -0.119058  0.022913  0.210622      1.000000
 -0.079372  0.000000  0.194420      1.000000
 -0.039686 -0.022913  0.178219      1.000000
  0.000000 -0.000000 -0.145815      1.000000
  0.039686 -0.022913 -0.162017      1.000000
  0.079372 -0.045825 -0.178219      1.000000
  0.119058 -0.068738 -0.194420      1.000000
 -0.119058  0.068738 -0.097210      1.000000
 -0.079372  0.045825 -0.113412      1.000000
 -0.039686  0.022913 -0.129614      1.000000
  0.000000  0.045825 -0.162017      1.000000
  0.039686  0.022913 -0.178219      1.000000
  0.079372  0.000000 -0.194420      1.000000
  0.119058 -0.022913 -0.210622      1.000000
 -0.119058  0.114563 -0.113412      1.000000
 -0.079372  0.091651 -0.129614      1.000000
 -0.039686  0.068738 -0.145815      1.000000
  0.000000  0.091651 -0.178219      1.000000
  0.039686  0.068738 -0.194420      1.000000
  0.079372  0.045825 -0.210622      1.000000
  0.119058  0.022913 -0.226824      1.000000
 -0.119058  0.160389 -0.129614      1.000000
 -0.079372  0.137476 -0.145815      1.000000
 -0.039686  0.114563 -0.162017      1.000000
  0.000000  0.137476 -0.194420      1.000000
  0.039686  0.114563 -0.210622      1.000000
  0.079372  0.091651 -0.226824      1.000000
  0.119058  0.068738 -0.243025      1.000000
 -0.119058  0.206214 -0.145815      1.000000
 -0.079372  0.183301 -0.162017      1.000000
 -0.039686  0.160389 -0.178219      1.000000
  0.000000 -0.137476 -0.097210      1.000000
  0.039686 -0.160389 -0.113412      1.000000
  0.079372 -0.183301 -0.129614      1.000000
  0.119058 -0.206214 -0.145815      1.000000
 -0.119058 -0.068738 -0.048605      1.000000
 -0.079372 -0.091651 -0.064807      1.000000
 -0.039686 -0.114563 -0.081008      1.000000
  0.000000 -0.091651 -0.113412      1.000000
  0.039686 -0.114563 -0.129614      1.000000
  0.079372 -0.137476 -0.145815      1.000000
  0.119058 -0.160389 -0.162017      1.000000
 -0.119058 -0.022913 -0.064807      1.000000
 -0.079372 -0.045825 -0.081008      1.000000
 -0.039686 -0.068738 -0.097210      1.000000
  0.000000 -0.045825 -0.129614      1.000000
  0.039686 -0.068738 -0.145815      1.000000
  0.079372 -0.091651 -0.162017      1.000000
  0.119058 -0.114563 -0.178219      1.000000
 -0.119058  0.022913 -0.081008      1.000000
 -0.079372  0.000000 -0.097210      1.000000
 -0.039686 -0.022913 -0.113412      1.000000
  0.000000 -0.000000 -0.097210      1.000000
  0.039686 -0.022913 -0.113412      1.000000
  0.079372 -0.045825 -0.129614      1.000000
  0.119058 -0.068738 -0.145815      1.000000
 -0.119058  0.068738 -0.048605      1.000000
 -0.079372  0.045825 -0.064807      1.000000
 -0.039686  0.022913 -0.081008      1.000000
  0.000000  0.045825 -0.113412      1.000000
  0.039686  0.022913 -0.129614      1.000000
  0.079372  0.000000 -0.145815      1.000000
  0.119058 -0.022913 -0.162017      1.000000
 -0.119058  0.114563 -0.064807      1.000000
 -0.079372  0.091651 -0.081008      1.000000
 -0.039686  0.068738 -0.097210      1.000000
  0.000000  0.091651 -0.129614      1.000000
  0.039686  0.068738 -0.145815      1.000000
  0.079372  0.045825 -0.162017      1.000000
  0.119058  0.022913 -0.178219      1.000000
 -0.119058  0.160389 -0.081008      1.000000
 -0.079372  0.137476 -0.097210      1.000000
 -0.039686  0.114563 -0.113412      1.000000
  0.000000  0.137476 -0.145815      1.000000
  0.039686  0.114563 -0.162017      1.000000
  0.079372  0.091651 -0.178219      1.000000
  0.119058  0.068738 -0.194420      1.000000
 -0.119058  0.206214 -0.097210      1.000000
 -0.079372  0.183301 -0.113412      1.000000
 -0.039686  0.160389 -0.129614      1.000000
  0.000000 -0.137476 -0.048605      1.000000
  0.039686 -0.160389 -0.064807      1.000000
  0.079372 -0.183301 -0.081008      1.000000
  0.119058 -0.206214 -0.097210      1.000000
 -0.119058 -0.068738 -0.000000      1.000000
 -0.079372 -0.091651 -0.016202      1.000000
 -0.039686 -0.114563 -0.032403      1.000000
  0.000000 -0.091651 -0.064807      1.000000
  0.039686 -0.114563 -0.081008      1.000000
  0.079372 -0.137476 -0.097210      1.000000
  0.119058 -0.160389 -0.113412      1.000000
 -0.119058 -0.022913 -0.016202      1.000000
 -0.079372 -0.045825 -0.032403      1.000000
 -0.039686 -0.068738 -0.048605      1.000000
  0.000000 -0.045825 -0.081008      1.000000
  0.039686 -0.068738 -0.097210      1.000000
  0.079372 -0.091651 -0.113412      1.000000
  0.119058 -0.114563 -0.129614      1.000000
 -0.119058  0.022913 -0.032403      1.000000
 -0.079372  0.000000 -0.048605      1.000000
 -0.039686 -0.022913 -0.064807      1.000000
  0.000000 -0.000000 -0.048605      1.000000
  0.039686 -0.022913 -0.064807      1.000000
  0.079372 -0.045825 -0.081008      1.000000
  0.119058 -0.068738 -0.097210      1.000000
 -0.119058  0.068738  0.000000      1.000000
 -0.079372  0.045825 -0.016202      1.000000
 -0.039686  0.022913 -0.032403      1.000000
  0.000000  0.045825 -0.064807      1.000000
  0.039686  0.022913 -0.081008      1.000000
  0.079372  0.000000 -0.097210      1.000000
  0.119058 -0.022913 -0.113412      1.000000
 -0.119058  0.114563 -0.016202      1.000000
 -0.079372  0.091651 -0.032403      1.000000
 -0.039686  0.068738 -0.048605      1.000000
  0.000000  0.091651 -0.081008      1.000000
  0.039686  0.068738 -0.097210      1.000000
  0.079372  0.045825 -0.113412      1.000000
  0.119058  0.022913 -0.129614      1.000000
 -0.119058  0.160389 -0.032403      1.000000
 -0.079372  0.137476 -0.048605      1.000000
 -0.039686  0.114563 -0.064807      1.000000
  0.000000  0.137476 -0.097210      1.000000
  0.039686  0.114563 -0.113412      1.000000
  0.079372  0.091651 -0.129614      1.000000
  0.119058  0.068738 -0.145815      1.000000
 -0.119058  0.206214 -0.048605      1.000000
 -0.079372  0.183301 -0.064807      1.000000
 -0.039686  0.160389 -0.081008      1.000000
  0.000000 -0.137476 -0.000000      1.000000
  0.039686 -0.160389 -0.016202      1.000000
  0.079372 -0.183301 -0.032403      1.000000
  0.119058 -0.206214 -0.048605      1.000000
 -0.119058 -0.068738  0.048605      1.000000
 -0.079372 -0.091651  0.032403      1.000000
 -0.039686 -0.114563  0.016202      1.000000
  0.000000 -0.091651 -0.016202      1.000000
  0.039686 -0.114563 -0.032403      1.000000
  0.079372 -0.137476 -0.048605      1.000000
  0.119058 -0.160389 -0.064807      1.000000
 -0.119058 -0.022913  0.032403      1.000000
 -0.079372 -0.045825  0.016202      1.000000
 -0.039686 -0.068738 -0.000000      1.000000
  0.000000 -0.045825 -0.032403      1.000000
  0.039686 -0.068738 -0.048605      1.000000
  0.079372 -0.091651 -0.064807      1.000000
  0.119058 -0.114563 -0.081008      1.000000
 -0.119058  0.022913  0.016202      1.000000
 -0.079372  0.000000  0.000000      1.000000
 -0.039686 -0.022913 -0.016202      1.000000
 
 
 Subroutine IBZKPT_HF returns following result:
 ==============================================
 
 Found    343 k-points in 1st BZ
 the following    343 k-points will be used (e.g. in the exchange kernel)
 Following reciprocal coordinates:   # in IRBZ
  0.000000  0.000000  0.000000    0.00291545   1 t-inv F
  0.142857  0.000000 -0.000000    0.00291545   2 t-inv F
  0.285714  0.000000  0.000000    0.00291545   3 t-inv F
  0.428571  0.000000  0.000000    0.00291545   4 t-inv F
 -0.428571 -0.000000  0.000000    0.00291545   5 t-inv F
 -0.285714 -0.000000 -0.000000    0.00291545   6 t-inv F
 -0.142857 -0.000000  0.000000    0.00291545   7 t-inv F
 -0.000000  0.142857  0.000000    0.00291545   8 t-inv F
  0.142857  0.142857  0.000000    0.00291545   9 t-inv F
  0.285714  0.142857  0.000000    0.00291545  10 t-inv F
  0.428571  0.142857  0.000000    0.00291545  11 t-inv F
 -0.428571  0.142857  0.000000    0.00291545  12 t-inv F
 -0.285714  0.142857 -0.000000    0.00291545  13 t-inv F
 -0.142857  0.142857  0.000000    0.00291545  14 t-inv F
  0.000000  0.285714  0.000000    0.00291545  15 t-inv F
  0.142857  0.285714 -0.000000    0.00291545  16 t-inv F
  0.285714  0.285714  0.000000    0.00291545  17 t-inv F
  0.428571  0.285714  0.000000    0.00291545  18 t-inv F
 -0.428571  0.285714 -0.000000    0.00291545  19 t-inv F
 -0.285714  0.285714 -0.000000    0.00291545  20 t-inv F
 -0.142857  0.285714 -0.000000    0.00291545  21 t-inv F
  0.000000  0.428571  0.000000    0.00291545  22 t-inv F
  0.142857  0.428571 -0.000000    0.00291545  23 t-inv F
  0.285714  0.428571  0.000000    0.00291545  24 t-inv F
  0.428571  0.428571  0.000000    0.00291545  25 t-inv F
 -0.428571  0.428571 -0.000000    0.00291545  26 t-inv F
 -0.285714  0.428571 -0.000000    0.00291545  27 t-inv F
 -0.142857  0.428571 -0.000000    0.00291545  28 t-inv F
  0.000000 -0.428571  0.000000    0.00291545  29 t-inv F
  0.142857 -0.428571  0.000000    0.00291545  30 t-inv F
  0.285714 -0.428571  0.000000    0.00291545  31 t-inv F
  0.428571 -0.428571  0.000000    0.00291545  32 t-inv F
 -0.428571 -0.428571 -0.000000    0.00291545  33 t-inv F
 -0.285714 -0.428571 -0.000000    0.00291545  34 t-inv F
 -0.142857 -0.428571  0.000000    0.00291545  35 t-inv F
 -0.000000 -0.285714  0.000000    0.00291545  36 t-inv F
  0.142857 -0.285714 -0.000000    0.00291545  37 t-inv F
  0.285714 -0.285714  0.000000    0.00291545  38 t-inv F
  0.428571 -0.285714  0.000000    0.00291545  39 t-inv F
 -0.428571 -0.285714 -0.000000    0.00291545  40 t-inv F
 -0.285714 -0.285714  0.000000    0.00291545  41 t-inv F
 -0.142857 -0.285714 -0.000000    0.00291545  42 t-inv F
  0.000000 -0.142857  0.000000    0.00291545  43 t-inv F
  0.142857 -0.142857  0.000000    0.00291545  44 t-inv F
  0.285714 -0.142857  0.000000    0.00291545  45 t-inv F
  0.428571 -0.142857 -0.000000    0.00291545  46 t-inv F
 -0.428571 -0.142857  0.000000    0.00291545  47 t-inv F
 -0.285714 -0.142857  0.000000    0.00291545  48 t-inv F
 -0.142857 -0.142857  0.000000    0.00291545  49 t-inv F
  0.000000 -0.000000  0.142857    0.00291545  50 t-inv F
  0.142857  0.000000  0.142857    0.00291545  51 t-inv F
  0.285714  0.000000  0.142857    0.00291545  52 t-inv F
  0.428571  0.000000  0.142857    0.00291545  53 t-inv F
 -0.428571 -0.000000  0.142857    0.00291545  54 t-inv F
 -0.285714 -0.000000  0.142857    0.00291545  55 t-inv F
 -0.142857 -0.000000  0.142857    0.00291545  56 t-inv F
  0.000000  0.142857  0.142857    0.00291545  57 t-inv F
  0.142857  0.142857  0.142857    0.00291545  58 t-inv F
  0.285714  0.142857  0.142857    0.00291545  59 t-inv F
  0.428571  0.142857  0.142857    0.00291545  60 t-inv F
 -0.428571  0.142857  0.142857    0.00291545  61 t-inv F
 -0.285714  0.142857  0.142857    0.00291545  62 t-inv F
 -0.142857  0.142857  0.142857    0.00291545  63 t-inv F
  0.000000  0.285714  0.142857    0.00291545  64 t-inv F
  0.142857  0.285714  0.142857    0.00291545  65 t-inv F
  0.285714  0.285714  0.142857    0.00291545  66 t-inv F
  0.428571  0.285714  0.142857    0.00291545  67 t-inv F
 -0.428571  0.285714  0.142857    0.00291545  68 t-inv F
 -0.285714  0.285714  0.142857    0.00291545  69 t-inv F
 -0.142857  0.285714  0.142857    0.00291545  70 t-inv F
 -0.000000  0.428571  0.142857    0.00291545  71 t-inv F
  0.142857  0.428571  0.142857    0.00291545  72 t-inv F
  0.285714  0.428571  0.142857    0.00291545  73 t-inv F
  0.428571  0.428571  0.142857    0.00291545  74 t-inv F
 -0.428571  0.428571  0.142857    0.00291545  75 t-inv F
 -0.285714  0.428571  0.142857    0.00291545  76 t-inv F
 -0.142857  0.428571  0.142857    0.00291545  77 t-inv F
  0.000000 -0.428571  0.142857    0.00291545  78 t-inv F
  0.142857 -0.428571  0.142857    0.00291545  79 t-inv F
  0.285714 -0.428571  0.142857    0.00291545  80 t-inv F
  0.428571 -0.428571  0.142857    0.00291545  81 t-inv F
 -0.428571 -0.428571  0.142857    0.00291545  82 t-inv F
 -0.285714 -0.428571  0.142857    0.00291545  83 t-inv F
 -0.142857 -0.428571  0.142857    0.00291545  84 t-inv F
  0.000000 -0.285714  0.142857    0.00291545  85 t-inv F
  0.142857 -0.285714  0.142857    0.00291545  86 t-inv F
  0.285714 -0.285714  0.142857    0.00291545  87 t-inv F
  0.428571 -0.285714  0.142857    0.00291545  88 t-inv F
 -0.428571 -0.285714  0.142857    0.00291545  89 t-inv F
 -0.285714 -0.285714  0.142857    0.00291545  90 t-inv F
 -0.142857 -0.285714  0.142857    0.00291545  91 t-inv F
  0.000000 -0.142857  0.142857    0.00291545  92 t-inv F
  0.142857 -0.142857  0.142857    0.00291545  93 t-inv F
  0.285714 -0.142857  0.142857    0.00291545  94 t-inv F
  0.428571 -0.142857  0.142857    0.00291545  95 t-inv F
 -0.428571 -0.142857  0.142857    0.00291545  96 t-inv F
 -0.285714 -0.142857  0.142857    0.00291545  97 t-inv F
 -0.142857 -0.142857  0.142857    0.00291545  98 t-inv F
 -0.000000 -0.000000  0.285714    0.00291545  99 t-inv F
  0.142857  0.000000  0.285714    0.00291545 100 t-inv F
  0.285714  0.000000  0.285714    0.00291545 101 t-inv F
  0.428571  0.000000  0.285714    0.00291545 102 t-inv F
 -0.428571 -0.000000  0.285714    0.00291545 103 t-inv F
 -0.285714 -0.000000  0.285714    0.00291545 104 t-inv F
 -0.142857 -0.000000  0.285714    0.00291545 105 t-inv F
  0.000000  0.142857  0.285714    0.00291545 106 t-inv F
  0.142857  0.142857  0.285714    0.00291545 107 t-inv F
  0.285714  0.142857  0.285714    0.00291545 108 t-inv F
  0.428571  0.142857  0.285714    0.00291545 109 t-inv F
 -0.428571  0.142857  0.285714    0.00291545 110 t-inv F
 -0.285714  0.142857  0.285714    0.00291545 111 t-inv F
 -0.142857  0.142857  0.285714    0.00291545 112 t-inv F
  0.000000  0.285714  0.285714    0.00291545 113 t-inv F
  0.142857  0.285714  0.285714    0.00291545 114 t-inv F
  0.285714  0.285714  0.285714    0.00291545 115 t-inv F
  0.428571  0.285714  0.285714    0.00291545 116 t-inv F
 -0.428571  0.285714  0.285714    0.00291545 117 t-inv F
 -0.285714  0.285714  0.285714    0.00291545 118 t-inv F
 -0.142857  0.285714  0.285714    0.00291545 119 t-inv F
 -0.000000  0.428571  0.285714    0.00291545 120 t-inv F
  0.142857  0.428571  0.285714    0.00291545 121 t-inv F
  0.285714  0.428571  0.285714    0.00291545 122 t-inv F
  0.428571  0.428571  0.285714    0.00291545 123 t-inv F
 -0.428571  0.428571  0.285714    0.00291545 124 t-inv F
 -0.285714  0.428571  0.285714    0.00291545 125 t-inv F
 -0.142857  0.428571  0.285714    0.00291545 126 t-inv F
  0.000000 -0.428571  0.285714    0.00291545 127 t-inv F
  0.142857 -0.428571  0.285714    0.00291545 128 t-inv F
  0.285714 -0.428571  0.285714    0.00291545 129 t-inv F
  0.428571 -0.428571  0.285714    0.00291545 130 t-inv F
 -0.428571 -0.428571  0.285714    0.00291545 131 t-inv F
 -0.285714 -0.428571  0.285714    0.00291545 132 t-inv F
 -0.142857 -0.428571  0.285714    0.00291545 133 t-inv F
  0.000000 -0.285714  0.285714    0.00291545 134 t-inv F
  0.142857 -0.285714  0.285714    0.00291545 135 t-inv F
  0.285714 -0.285714  0.285714    0.00291545 136 t-inv F
  0.428571 -0.285714  0.285714    0.00291545 137 t-inv F
 -0.428571 -0.285714  0.285714    0.00291545 138 t-inv F
 -0.285714 -0.285714  0.285714    0.00291545 139 t-inv F
 -0.142857 -0.285714  0.285714    0.00291545 140 t-inv F
 -0.000000 -0.142857  0.285714    0.00291545 141 t-inv F
  0.142857 -0.142857  0.285714    0.00291545 142 t-inv F
  0.285714 -0.142857  0.285714    0.00291545 143 t-inv F
  0.428571 -0.142857  0.285714    0.00291545 144 t-inv F
 -0.428571 -0.142857  0.285714    0.00291545 145 t-inv F
 -0.285714 -0.142857  0.285714    0.00291545 146 t-inv F
 -0.142857 -0.142857  0.285714    0.00291545 147 t-inv F
  0.000000  0.000000  0.428571    0.00291545 148 t-inv F
  0.142857  0.000000  0.428571    0.00291545 149 t-inv F
  0.285714  0.000000  0.428571    0.00291545 150 t-inv F
  0.428571  0.000000  0.428571    0.00291545 151 t-inv F
 -0.428571  0.000000  0.428571    0.00291545 152 t-inv F
 -0.285714 -0.000000  0.428571    0.00291545 153 t-inv F
 -0.142857 -0.000000  0.428571    0.00291545 154 t-inv F
 -0.000000  0.142857  0.428571    0.00291545 155 t-inv F
  0.142857  0.142857  0.428571    0.00291545 156 t-inv F
  0.285714  0.142857  0.428571    0.00291545 157 t-inv F
  0.428571  0.142857  0.428571    0.00291545 158 t-inv F
 -0.428571  0.142857  0.428571    0.00291545 159 t-inv F
 -0.285714  0.142857  0.428571    0.00291545 160 t-inv F
 -0.142857  0.142857  0.428571    0.00291545 161 t-inv F
  0.000000  0.285714  0.428571    0.00291545 162 t-inv F
  0.142857  0.285714  0.428571    0.00291545 163 t-inv F
  0.285714  0.285714  0.428571    0.00291545 164 t-inv F
  0.428571  0.285714  0.428571    0.00291545 165 t-inv F
 -0.428571  0.285714  0.428571    0.00291545 166 t-inv F
 -0.285714  0.285714  0.428571    0.00291545 167 t-inv F
 -0.142857  0.285714  0.428571    0.00291545 168 t-inv F
 -0.000000  0.428571  0.428571    0.00291545 169 t-inv F
  0.142857  0.428571  0.428571    0.00291545 170 t-inv F
  0.285714  0.428571  0.428571    0.00291545 171 t-inv F
  0.428571  0.428571  0.428571    0.00291545 172 t-inv F
 -0.428571  0.428571  0.428571    0.00291545 173 t-inv F
 -0.285714  0.428571  0.428571    0.00291545 174 t-inv F
 -0.142857  0.428571  0.428571    0.00291545 175 t-inv F
  0.000000 -0.428571  0.428571    0.00291545 176 t-inv F
  0.142857 -0.428571  0.428571    0.00291545 177 t-inv F
  0.285714 -0.428571  0.428571    0.00291545 178 t-inv F
  0.428571 -0.428571  0.428571    0.00291545 179 t-inv F
 -0.428571 -0.428571  0.428571    0.00291545 180 t-inv F
 -0.285714 -0.428571  0.428571    0.00291545 181 t-inv F
 -0.142857 -0.428571  0.428571    0.00291545 182 t-inv F
  0.000000 -0.285714  0.428571    0.00291545 183 t-inv F
  0.142857 -0.285714  0.428571    0.00291545 184 t-inv F
  0.285714 -0.285714  0.428571    0.00291545 185 t-inv F
  0.428571 -0.285714  0.428571    0.00291545 186 t-inv F
 -0.428571 -0.285714  0.428571    0.00291545 187 t-inv F
 -0.285714 -0.285714  0.428571    0.00291545 188 t-inv F
 -0.142857 -0.285714  0.428571    0.00291545 189 t-inv F
  0.000000 -0.142857  0.428571    0.00291545 190 t-inv F
  0.142857 -0.142857  0.428571    0.00291545 191 t-inv F
  0.285714 -0.142857  0.428571    0.00291545 192 t-inv F
  0.428571 -0.142857  0.428571    0.00291545 193 t-inv F
 -0.428571 -0.142857  0.428571    0.00291545 194 t-inv F
 -0.285714 -0.142857  0.428571    0.00291545 195 t-inv F
 -0.142857 -0.142857  0.428571    0.00291545 196 t-inv F
  0.000000 -0.000000 -0.428571    0.00291545 197 t-inv F
  0.142857  0.000000 -0.428571    0.00291545 198 t-inv F
  0.285714  0.000000 -0.428571    0.00291545 199 t-inv F
  0.428571 -0.000000 -0.428571    0.00291545 200 t-inv F
 -0.428571 -0.000000 -0.428571    0.00291545 201 t-inv F
 -0.285714 -0.000000 -0.428571    0.00291545 202 t-inv F
 -0.142857 -0.000000 -0.428571    0.00291545 203 t-inv F
  0.000000  0.142857 -0.428571    0.00291545 204 t-inv F
  0.142857  0.142857 -0.428571    0.00291545 205 t-inv F
  0.285714  0.142857 -0.428571    0.00291545 206 t-inv F
  0.428571  0.142857 -0.428571    0.00291545 207 t-inv F
 -0.428571  0.142857 -0.428571    0.00291545 208 t-inv F
 -0.285714  0.142857 -0.428571    0.00291545 209 t-inv F
 -0.142857  0.142857 -0.428571    0.00291545 210 t-inv F
  0.000000  0.285714 -0.428571    0.00291545 211 t-inv F
  0.142857  0.285714 -0.428571    0.00291545 212 t-inv F
  0.285714  0.285714 -0.428571    0.00291545 213 t-inv F
  0.428571  0.285714 -0.428571    0.00291545 214 t-inv F
 -0.428571  0.285714 -0.428571    0.00291545 215 t-inv F
 -0.285714  0.285714 -0.428571    0.00291545 216 t-inv F
 -0.142857  0.285714 -0.428571    0.00291545 217 t-inv F
  0.000000  0.428571 -0.428571    0.00291545 218 t-inv F
  0.142857  0.428571 -0.428571    0.00291545 219 t-inv F
  0.285714  0.428571 -0.428571    0.00291545 220 t-inv F
  0.428571  0.428571 -0.428571    0.00291545 221 t-inv F
 -0.428571  0.428571 -0.428571    0.00291545 222 t-inv F
 -0.285714  0.428571 -0.428571    0.00291545 223 t-inv F
 -0.142857  0.428571 -0.428571    0.00291545 224 t-inv F
  0.000000 -0.428571 -0.428571    0.00291545 225 t-inv F
  0.142857 -0.428571 -0.428571    0.00291545 226 t-inv F
  0.285714 -0.428571 -0.428571    0.00291545 227 t-inv F
  0.428571 -0.428571 -0.428571    0.00291545 228 t-inv F
 -0.428571 -0.428571 -0.428571    0.00291545 229 t-inv F
 -0.285714 -0.428571 -0.428571    0.00291545 230 t-inv F
 -0.142857 -0.428571 -0.428571    0.00291545 231 t-inv F
  0.000000 -0.285714 -0.428571    0.00291545 232 t-inv F
  0.142857 -0.285714 -0.428571    0.00291545 233 t-inv F
  0.285714 -0.285714 -0.428571    0.00291545 234 t-inv F
  0.428571 -0.285714 -0.428571    0.00291545 235 t-inv F
 -0.428571 -0.285714 -0.428571    0.00291545 236 t-inv F
 -0.285714 -0.285714 -0.428571    0.00291545 237 t-inv F
 -0.142857 -0.285714 -0.428571    0.00291545 238 t-inv F
  0.000000 -0.142857 -0.428571    0.00291545 239 t-inv F
  0.142857 -0.142857 -0.428571    0.00291545 240 t-inv F
  0.285714 -0.142857 -0.428571    0.00291545 241 t-inv F
  0.428571 -0.142857 -0.428571    0.00291545 242 t-inv F
 -0.428571 -0.142857 -0.428571    0.00291545 243 t-inv F
 -0.285714 -0.142857 -0.428571    0.00291545 244 t-inv F
 -0.142857 -0.142857 -0.428571    0.00291545 245 t-inv F
  0.000000  0.000000 -0.285714    0.00291545 246 t-inv F
  0.142857  0.000000 -0.285714    0.00291545 247 t-inv F
  0.285714  0.000000 -0.285714    0.00291545 248 t-inv F
  0.428571  0.000000 -0.285714    0.00291545 249 t-inv F
 -0.428571 -0.000000 -0.285714    0.00291545 250 t-inv F
 -0.285714 -0.000000 -0.285714    0.00291545 251 t-inv F
 -0.142857 -0.000000 -0.285714    0.00291545 252 t-inv F
 -0.000000  0.142857 -0.285714    0.00291545 253 t-inv F
  0.142857  0.142857 -0.285714    0.00291545 254 t-inv F
  0.285714  0.142857 -0.285714    0.00291545 255 t-inv F
  0.428571  0.142857 -0.285714    0.00291545 256 t-inv F
 -0.428571  0.142857 -0.285714    0.00291545 257 t-inv F
 -0.285714  0.142857 -0.285714    0.00291545 258 t-inv F
 -0.142857  0.142857 -0.285714    0.00291545 259 t-inv F
 -0.000000  0.285714 -0.285714    0.00291545 260 t-inv F
  0.142857  0.285714 -0.285714    0.00291545 261 t-inv F
  0.285714  0.285714 -0.285714    0.00291545 262 t-inv F
  0.428571  0.285714 -0.285714    0.00291545 263 t-inv F
 -0.428571  0.285714 -0.285714    0.00291545 264 t-inv F
 -0.285714  0.285714 -0.285714    0.00291545 265 t-inv F
 -0.142857  0.285714 -0.285714    0.00291545 266 t-inv F
  0.000000  0.428571 -0.285714    0.00291545 267 t-inv F
  0.142857  0.428571 -0.285714    0.00291545 268 t-inv F
  0.285714  0.428571 -0.285714    0.00291545 269 t-inv F
  0.428571  0.428571 -0.285714    0.00291545 270 t-inv F
 -0.428571  0.428571 -0.285714    0.00291545 271 t-inv F
 -0.285714  0.428571 -0.285714    0.00291545 272 t-inv F
 -0.142857  0.428571 -0.285714    0.00291545 273 t-inv F
  0.000000 -0.428571 -0.285714    0.00291545 274 t-inv F
  0.142857 -0.428571 -0.285714    0.00291545 275 t-inv F
  0.285714 -0.428571 -0.285714    0.00291545 276 t-inv F
  0.428571 -0.428571 -0.285714    0.00291545 277 t-inv F
 -0.428571 -0.428571 -0.285714    0.00291545 278 t-inv F
 -0.285714 -0.428571 -0.285714    0.00291545 279 t-inv F
 -0.142857 -0.428571 -0.285714    0.00291545 280 t-inv F
  0.000000 -0.285714 -0.285714    0.00291545 281 t-inv F
  0.142857 -0.285714 -0.285714    0.00291545 282 t-inv F
  0.285714 -0.285714 -0.285714    0.00291545 283 t-inv F
  0.428571 -0.285714 -0.285714    0.00291545 284 t-inv F
 -0.428571 -0.285714 -0.285714    0.00291545 285 t-inv F
 -0.285714 -0.285714 -0.285714    0.00291545 286 t-inv F
 -0.142857 -0.285714 -0.285714    0.00291545 287 t-inv F
  0.000000 -0.142857 -0.285714    0.00291545 288 t-inv F
  0.142857 -0.142857 -0.285714    0.00291545 289 t-inv F
  0.285714 -0.142857 -0.285714    0.00291545 290 t-inv F
  0.428571 -0.142857 -0.285714    0.00291545 291 t-inv F
 -0.428571 -0.142857 -0.285714    0.00291545 292 t-inv F
 -0.285714 -0.142857 -0.285714    0.00291545 293 t-inv F
 -0.142857 -0.142857 -0.285714    0.00291545 294 t-inv F
  0.000000  0.000000 -0.142857    0.00291545 295 t-inv F
  0.142857  0.000000 -0.142857    0.00291545 296 t-inv F
  0.285714  0.000000 -0.142857    0.00291545 297 t-inv F
  0.428571  0.000000 -0.142857    0.00291545 298 t-inv F
 -0.428571 -0.000000 -0.142857    0.00291545 299 t-inv F
 -0.285714 -0.000000 -0.142857    0.00291545 300 t-inv F
 -0.142857 -0.000000 -0.142857    0.00291545 301 t-inv F
  0.000000  0.142857 -0.142857    0.00291545 302 t-inv F
  0.142857  0.142857 -0.142857    0.00291545 303 t-inv F
  0.285714  0.142857 -0.142857    0.00291545 304 t-inv F
  0.428571  0.142857 -0.142857    0.00291545 305 t-inv F
 -0.428571  0.142857 -0.142857    0.00291545 306 t-inv F
 -0.285714  0.142857 -0.142857    0.00291545 307 t-inv F
 -0.142857  0.142857 -0.142857    0.00291545 308 t-inv F
 -0.000000  0.285714 -0.142857    0.00291545 309 t-inv F
  0.142857  0.285714 -0.142857    0.00291545 310 t-inv F
  0.285714  0.285714 -0.142857    0.00291545 311 t-inv F
  0.428571  0.285714 -0.142857    0.00291545 312 t-inv F
 -0.428571  0.285714 -0.142857    0.00291545 313 t-inv F
 -0.285714  0.285714 -0.142857    0.00291545 314 t-inv F
 -0.142857  0.285714 -0.142857    0.00291545 315 t-inv F
 -0.000000  0.428571 -0.142857    0.00291545 316 t-inv F
  0.142857  0.428571 -0.142857    0.00291545 317 t-inv F
  0.285714  0.428571 -0.142857    0.00291545 318 t-inv F
  0.428571  0.428571 -0.142857    0.00291545 319 t-inv F
 -0.428571  0.428571 -0.142857    0.00291545 320 t-inv F
 -0.285714  0.428571 -0.142857    0.00291545 321 t-inv F
 -0.142857  0.428571 -0.142857    0.00291545 322 t-inv F
  0.000000 -0.428571 -0.142857    0.00291545 323 t-inv F
  0.142857 -0.428571 -0.142857    0.00291545 324 t-inv F
  0.285714 -0.428571 -0.142857    0.00291545 325 t-inv F
  0.428571 -0.428571 -0.142857    0.00291545 326 t-inv F
 -0.428571 -0.428571 -0.142857    0.00291545 327 t-inv F
 -0.285714 -0.428571 -0.142857    0.00291545 328 t-inv F
 -0.142857 -0.428571 -0.142857    0.00291545 329 t-inv F
 -0.000000 -0.285714 -0.142857    0.00291545 330 t-inv F
  0.142857 -0.285714 -0.142857    0.00291545 331 t-inv F
  0.285714 -0.285714 -0.142857    0.00291545 332 t-inv F
  0.428571 -0.285714 -0.142857    0.00291545 333 t-inv F
 -0.428571 -0.285714 -0.142857    0.00291545 334 t-inv F
 -0.285714 -0.285714 -0.142857    0.00291545 335 t-inv F
 -0.142857 -0.285714 -0.142857    0.00291545 336 t-inv F
  0.000000 -0.142857 -0.142857    0.00291545 337 t-inv F
  0.142857 -0.142857 -0.142857    0.00291545 338 t-inv F
  0.285714 -0.142857 -0.142857    0.00291545 339 t-inv F
  0.428571 -0.142857 -0.142857    0.00291545 340 t-inv F
 -0.428571 -0.142857 -0.142857    0.00291545 341 t-inv F
 -0.285714 -0.142857 -0.142857    0.00291545 342 t-inv F
 -0.142857 -0.142857 -0.142857    0.00291545 343 t-inv F


--------------------------------------------------------------------------------------------------------




 Dimension of arrays:
   k-points           NKPTS =    343   k-points in BZ     NKDIM =    343   number of bands    NBANDS=    128
   number of dos      NEDOS =    301   number of ions     NIONS =      1
   non local maximal  LDIM  =      6   non local SUM 2l+1 LMDIM =     18
   total plane-waves  NPLWV =   8000
   max r-space proj   IRMAX =      1   max aug-charges    IRDMAX=  35530
   dimension x,y,z NGX =    20 NGY =   20 NGZ =   20
   dimension x,y,z NGXF=    40 NGYF=   40 NGZF=   40
   support grid    NGXF=    80 NGYF=   80 NGZF=   80
   ions per type =               1
   NGX,Y,Z   is equivalent  to a cutoff of   9.24,  9.24,  9.24 a.u.
   NGXF,Y,Z  is equivalent  to a cutoff of  18.47, 18.47, 18.47 a.u.

 SYSTEM =  Og_FCC                                  
 POSCAR =  Ar_FCC                                  

 Startparameter for this run:
   NWRITE =      1    write-flag & timer
   PREC   = accura    normal or accurate (medium, high low for compatibility)
   ISTART =      1    job   : 0-new  1-cont  2-samecut
   ICHARG =      0    charge: 1-file 2-atom 10-const
   ISPIN  =      1    spin polarized calculation?
   LNONCOLLINEAR =      T non collinear calculations
   LSORBIT =      T    spin-orbit coupling
   INIWAV =      1    electr: 0-lowe 1-rand  2-diag
   LASPH  =      F    aspherical Exc in radial PAW
   METAGGA=      F    non-selfconsistent MetaGGA calc.

 Electronic Relaxation 1
   ENCUT  =  300.0 eV  22.05 Ry    4.70 a.u.   5.08  5.08  5.08*2*pi/ulx,y,z
   ENINI  =  300.0     initial cutoff
   ENAUG  =  799.9 eV  augmentation charge cutoff
   NELM   =      1;   NELMIN=  2; NELMDL=  0     # of ELM steps 
   EDIFF  = 0.1E-07   stopping-criterion for ELM
   LREAL  =      F    real-space projection
   NLSPLINE    = F    spline interpolate recip. space projectors
   LCOMPAT=      F    compatible to vasp.4.4
   GGA_COMPAT  = F    GGA compatible to vasp.4.4-vasp.4.6
   LMAXPAW     = -100 max onsite density
   LMAXMIX     =    2 max onsite mixed and CHGCAR
   VOSKOWN=      0    Vosko Wilk Nusair interpolation
   ROPT   =    0.00000
 Ionic relaxation
   EDIFFG = 0.1E-04   stopping-criterion for IOM
   NSW    =      1    number of steps for IOM
   NBLOCK =      1;   KBLOCK =      1    inner block; outer block 
   IBRION =     -1    ionic relax: 0-MD 1-quasi-New 2-CG
   NFREE  =      5    steps in history (QN), initial steepest desc. (CG)
   ISIF   =      3    stress and relaxation
   IWAVPR =     10    prediction:  0-non 1-charg 2-wave 3-comb
   ISYM   =      0    0-nonsym 1-usesym 2-fastsym
   LCORR  =      T    Harris-Foulkes like correction to forces

   POTIM  = 0.1000    time-step for ionic-motion
   TEIN   =    0.0    initial temperature
   TEBEG  =    0.0;   TEEND  =   0.0 temperature during run
   SMASS  =  -3.00    Nose mass-parameter (am)
   estimated Nose-frequenzy (Omega)   =  0.10E-29 period in steps =****** mass=  -0.296E-27a.u.
   SCALEE = 1.0000    scale energy and forces
   NPACO  =    256;   APACO  = 16.0  distance and # of slots for P.C.
   PSTRESS=    0.0 pullay stress

  Mass of Ions in am
   POMASS =  39.95
  Ionic Valenz
   ZVAL   =   8.00
  Atomic Wigner-Seitz radii
   RWIGS  =  -1.00
  virtual crystal weights 
   VCA    =   1.00
   NELECT =       8.0000    total number of electrons
   NUPDOWN=      -1.0000    fix difference up-down

 DOS related values:
   EMIN   =  10.00;   EMAX   =-10.00  energy-range for DOS
   EFERMI =   0.00
   ISMEAR =     0;   SIGMA  =   0.00  broadening in eV -4-tet -1-fermi 0-gaus

 Electronic relaxation 2 (details)
   IALGO  =     38    algorithm
   LDIAG  =      T    sub-space diagonalisation (order eigenvalues)
   LSUBROT=      F    optimize rotation matrix (better conditioning)
   TURBO    =      0    0=normal 1=particle mesh
   IRESTART =      0    0=no restart 2=restart with 2 vectors
   NREBOOT  =      0    no. of reboots
   NMIN     =      0    reboot dimension
   EREF     =   0.00    reference energy to select bands
   IMIX   =      1    mixing-type and parameters
     AMIX     =   0.40;   BMIX     =  1.00
     AMIX_MAG =   1.60;   BMIX_MAG =  1.00
     AMIN     =   0.10
     WC   =   100.;   INIMIX=   1;  MIXPRE=   1;  MAXMIX=  50

 Intra band minimization:
   WEIMIN = 0.0000     energy-eigenvalue tresh-hold
   EBREAK =  0.20E-10  absolut break condition
   DEPER  =   0.30     relativ break condition  

   TIME   =   0.40     timestep for ELM

  volume/ion in A,a.u.               =      32.98       222.58
  Fermi-wavevector in a.u.,A,eV,Ry     =   1.020964  1.929343 14.182280  1.042368
  Thomas-Fermi vector in A             =   2.154563
 
 Write flags
   LWAVE        =      T    write WAVECAR
   LDOWNSAMPLE  =      F    k-point downsampling of WAVECAR
   LCHARG       =      F    write CHGCAR
   LVTOT        =      F    write LOCPOT, total local potential
   LVHAR        =      F    write LOCPOT, Hartree potential only
   LELF         =      F    write electronic localiz. function (ELF)
   LORBIT       =      0    0 simple, 1 ext, 2 COOP (PROOUT), +10 PAW based schemes


 Dipole corrections
   LMONO  =      F    monopole corrections only (constant potential shift)
   LDIPOL =      F    correct potential (dipole corrections)
   IDIPOL =      0    1-x, 2-y, 3-z, 4-all directions 
   EPSILON=  1.0000000 bulk dielectric constant

 Exchange correlation treatment:
   GGA     =    PE    GGA type
   LEXCH   =     8    internal setting for exchange type
   VOSKOWN=      0    Vosko Wilk Nusair interpolation
   EXXOEP  =     0    0=HF, 1=EXX-LHF (local Hartree Fock) 2=EXX OEP
   LHFCALC =     T    Hartree Fock is set to
   LSYMGRAD=     F    symmetrize gradient (conserves proper symmetry)
   PRECFOCK=normal    Normal, Fast or Accurate (Low or Medium for compatibility)
   LRHFCALC=     F    long range Hartree Fock
   LRSCOR  =     F    long range correlation only (use DFT for short range part)
   LTHOMAS =     F    Thomas Fermi screening in HF
   LMODELHF=     F    short range full HF, long range fraction AEXX
   ENCUT4O =  -1.0   cutoff for four orbital integrals eV
   LMAXFOCK=     4    L truncation for augmentation on plane wave grid
   LMAXFOCKAE=   4    L truncation for all-electron charge restoration on plane wave grid
   NMAXFOCKAE=   1    number of basis functions for all-electron charge restoration
   LFOCKAEDFT=     F  apply the AE augmentation even for DFT
   NKREDX  =     1    reduce k-point grid by
   NKREDY  =     1    reduce k-point grid by
   NKREDZ  =     1    reduce k-point grid by
   SHIFTRED=     F    shift reduced grid of Gamma
   HFKIDENT=     F    idential grid for each k-point
   ODDONLY =     F    use only odd q-grid points
   EVENONLY=     F    use only even q-grid points
   HFALPHA =   -1.0000 decay constant for conv. correction
   MCALPHA =    0.0000 extent of test-charge in conv. correction in multipole expansion
   AEXX    =    1.0000 exact exchange contribution
   HFSCREEN=    0.0000 screening length (either q_TF or 0.3 A-1)
   HFSCREENC=   0.0000 screening length for correlation (either q_TF or 0.3 A-1)
   HFRCUT  =    0.0000 spherical cutoff for potential kernel
   ALDAX   =    0.0000 LDA exchange part
   AGGAX   =    0.0000 GGA exchange part
   ALDAC   =    0.0000 LDA correlation
   AGGAC   =    0.0000 GGA correlation
   ENCUTFOCK=  -1.0 apply spherical cutoff to Coloumb kernel
   NBANDSGWLOW=     1    first orbital included in HF term
   NBLOCK_FOCK=    64    blocking factor in FOCK_ACC
 Linear response parameters
   LEPSILON=     F    determine dielectric tensor
   LRPA    =     F    only Hartree local field effects (RPA)
   LNABLA  =     F    use nabla operator in PAW spheres
   LVEL    =     F    velocity operator in full k-point grid
   LINTERFAST=   F  fast interpolation
   KINTER  =     0    interpolate to denser k-point grid
   CSHIFT  =0.1000    complex shift for real part using Kramers Kronig
   OMEGAMAX=  -1.0    maximum frequency
   DEG_THRESHOLD= 0.2000000E-02 threshold for treating states as degnerate
   RTIME   =   -0.100 relaxation time in fs
  (WPLASMAI=    0.000 imaginary part of plasma frequency in eV, 0.658/RTIME)
   DFIELD  = 0.0000000 0.0000000 0.0000000 field for delta impulse in time
 
 Orbital magnetization related:
   ORBITALMAG=     F  switch on orbital magnetization
   LCHIMAG   =     F  perturbation theory with respect to B field
   DQ        =  0.001000  dq finite difference perturbation B field
   LLRAUG    =     F  two centre corrections for induced B field

 Response functions by sum over occupied states:
   ALGO    =QPGW       execute GW part
   LFXC    =     F    include DFT xc kernel in TD-HF and W
   LADDER  =     F    particle hole ladder diagrams for BSE/TD-HF and W (Nano-quanta)
   LRPAFORCE=     F   calculate RPA forces
   LHARTREE=     T    include Hartree terms (bubbles-RPA) in BSE/TD-HF
   IBSE    =     0    BSE modus: 0 exact, 1 time-evolution (store matrix), 10 time-evolution (implicit)
   KPOINT  =    -1   0   0   0    k-point index at which BSE equation is solved (and G at which response is eval.)
   LTRIPLET=     F    triplet instead of singlet excitation (BSE only)
   LRSRPA  =     F    range separated RPA (total - short) in ACFDT
   LTCTE   =     F    use test-charge test-electron dielectric function
   LTETE   =     F    use test-electron test-electron dielectric function
   LFXCEPS =     F    determine f_xc=epsilon-1/Xi Sharma and Gross kernel
   LFXHEG  =     F    model exchange using f_x(G,k_F) from free electron gas
   NATURALO=     2    0 natural orbitals, 1 only virtual, 2 only occupied-virtual rotation
   L2ORDER =     F    2nd order terms only
   LMP2LT   =     F    use LT MP2
   LUSEW   =     F    use screened W from WXXXX.tmp files instead of (screened) HF kernel
   ENCUTGW = 200.0    cutoff for response function in eV
   ENCUTGWSOFT = 200.0 soft cutoff for Coulomb kernel in GW response function in eV
   ENCUTLF =  -1.0    cutoff for local field effects
   LMAXMP2 =    -1    maximum L for one center terms
   SCISSOR =   0.0    scissor correction
   NOMEGA  =    50    number of frequencies
   NOMEGAR =    50    number of frequencies along real axis
   NBANDSGW=    -1    number of bands for which selfenergy shift is calculated
   NBANDSGWLOW=     1 lowest band included in GW (to exclude core correlation)
   NBANDSO =    -1    number of bands for electron-hole treatment (occupied)
   NBANDSV =    -1    number of bands for electron-hole treatment (virtual)
   NELM    =     1    number of iterations in solving QP/BSE equation
   NELMHF  =     1    number of iterations in the inner HF iteration
   DIM     =     3    dimensionality of system (0=0D molecules, 3=3D)
   ANTIRES =     0    antiresonant part (0) no TDA (1) w=0 exact (2) accurate
   OMEGAMAX= -30.0    maximum frequency
   OMEGAMIN= -30.000    minimum frequency
   OMEGATL =-200.0    maximum frequency of tail
   OMEGAGRID=     0    grid type (0 default)
   CSHIFT  =-0.100    complex shift used in evaluation of response functions
   SELFENERGY=   F    calculate selfenergy instead of QP shifts
   LSPECTRAL =   T    use spectral functions                   
   LSPECTRALGW=   F   use spectral functions to calculate int dz G(w-z) W(z) (more accurate)
   LSINGLES  =   F   calculate the singles contribution to the correlation energy
   LFERMIGW  =   F   update Fermi-energy in the Greens function

   ODDONLYGW =   F    avoid all even points for polarizability 
   EVENONLYGW=   F    avoid all odd  points for polarizability 
   NKREDLFX  =   1   NKREDLFY  =   1   NKREDLFZ  =   1

   TELESCOPE =   0   use telescope k-point sampling
   TAUPAR    =   1   number of TAU groups used in imaginary time calculation
   OMEGAPAR  =  -1   number of OMEGA groups used in imaginary frequency calculation



--------------------------------------------------------------------------------------------------------


 Static calculation
 charge density and potential will be updated during run
 non collinear spin polarized calculation
 Variant of blocked Davidson
 Davidson routine will perform the subspace rotation
 perform sub-space diagonalisation
    after iterative eigenvector-optimisation
 Kerker-like  mixing scheme
 using additional bands          124
 reciprocal scheme for non local part
 use partial core corrections
 calculate Harris-corrections to forces 
   (improved forces if not selfconsistent)
 use gradient corrections 
 use of overlap-Matrix (Vanderbilt PP)
 Gauss-broadening in eV      SIGMA  =   0.00


--------------------------------------------------------------------------------------------------------


  energy-cutoff  :      300.00
  volume of cell :       32.98
      direct lattice vectors                 reciprocal lattice vectors
     3.599696745  0.000000000  0.000000000     0.277801179 -0.160388585 -0.113411856
     1.799848373  3.117428827 -0.000000000     0.000000000  0.320777171 -0.113411856
     1.799848373  1.039142942  2.939140085    -0.000000000  0.000000000  0.340235569

  length of vectors
     3.599696745  3.599696745  3.599696745     0.340235569  0.340235569  0.340235569


 
 old parameters found on file WAVECAR:
  energy-cutoff  :      300.00
  volume of cell :       32.98
      direct lattice vectors                 reciprocal lattice vectors
     3.599696745  0.000000000  0.000000000     0.277801179 -0.160388585 -0.113411856
     1.799848373  3.117428827 -0.000000000     0.000000000  0.320777171 -0.113411856
     1.799848373  1.039142942  2.939140085    -0.000000000  0.000000000  0.340235569

  length of vectors

 
 k-points in units of 2pi/SCALE and weight: k-points                                
   0.00000000  0.00000000  0.00000000       0.003
   0.03968588 -0.02291266 -0.01620169       0.003
   0.07937177 -0.04582531 -0.03240339       0.003
   0.11905765 -0.06873797 -0.04860508       0.003
  -0.11905765  0.06873797  0.04860508       0.003
  -0.07937177  0.04582531  0.03240339       0.003
  -0.03968588  0.02291266  0.01620169       0.003
   0.00000000  0.04582531 -0.01620169       0.003
   0.03968588  0.02291266 -0.03240339       0.003
   0.07937177  0.00000000 -0.04860508       0.003
   0.11905765 -0.02291266 -0.06480678       0.003
  -0.11905765  0.11456328  0.03240339       0.003
  -0.07937177  0.09165062  0.01620169       0.003
  -0.03968588  0.06873797  0.00000000       0.003
   0.00000000  0.09165062 -0.03240339       0.003
   0.03968588  0.06873797 -0.04860508       0.003
   0.07937177  0.04582531 -0.06480678       0.003
   0.11905765  0.02291266 -0.08100847       0.003
  -0.11905765  0.16038859  0.01620169       0.003
  -0.07937177  0.13747593  0.00000000       0.003
  -0.03968588  0.11456328 -0.01620169       0.003
   0.00000000  0.13747593 -0.04860508       0.003
   0.03968588  0.11456328 -0.06480678       0.003
   0.07937177  0.09165062 -0.08100847       0.003
   0.11905765  0.06873797 -0.09721016       0.003
  -0.11905765  0.20621390  0.00000000       0.003
  -0.07937177  0.18330124 -0.01620169       0.003
  -0.03968588  0.16038859 -0.03240339       0.003
  -0.00000000 -0.13747593  0.04860508       0.003
   0.03968588 -0.16038859  0.03240339       0.003
   0.07937177 -0.18330124  0.01620169       0.003
   0.11905765 -0.20621390 -0.00000000       0.003
  -0.11905765 -0.06873797  0.09721016       0.003
  -0.07937177 -0.09165062  0.08100847       0.003
  -0.03968588 -0.11456328  0.06480678       0.003
  -0.00000000 -0.09165062  0.03240339       0.003
   0.03968588 -0.11456328  0.01620169       0.003
   0.07937177 -0.13747593 -0.00000000       0.003
   0.11905765 -0.16038859 -0.01620169       0.003
  -0.11905765 -0.02291266  0.08100847       0.003
  -0.07937177 -0.04582531  0.06480678       0.003
  -0.03968588 -0.06873797  0.04860508       0.003
  -0.00000000 -0.04582531  0.01620169       0.003
   0.03968588 -0.06873797 -0.00000000       0.003
   0.07937177 -0.09165062 -0.01620169       0.003
   0.11905765 -0.11456328 -0.03240339       0.003
  -0.11905765  0.02291266  0.06480678       0.003
  -0.07937177  0.00000000  0.04860508       0.003
  -0.03968588 -0.02291266  0.03240339       0.003
  -0.00000000  0.00000000  0.04860508       0.003
   0.03968588 -0.02291266  0.03240339       0.003
   0.07937177 -0.04582531  0.01620169       0.003
   0.11905765 -0.06873797 -0.00000000       0.003
  -0.11905765  0.06873797  0.09721016       0.003
  -0.07937177  0.04582531  0.08100847       0.003
  -0.03968588  0.02291266  0.06480678       0.003
  -0.00000000  0.04582531  0.03240339       0.003
   0.03968588  0.02291266  0.01620169       0.003
   0.07937177  0.00000000  0.00000000       0.003
   0.11905765 -0.02291266 -0.01620169       0.003
  -0.11905765  0.11456328  0.08100847       0.003
  -0.07937177  0.09165062  0.06480678       0.003
  -0.03968588  0.06873797  0.04860508       0.003
  -0.00000000  0.09165062  0.01620169       0.003
   0.03968588  0.06873797  0.00000000       0.003
   0.07937177  0.04582531 -0.01620169       0.003
   0.11905765  0.02291266 -0.03240339       0.003
  -0.11905765  0.16038859  0.06480678       0.003
  -0.07937177  0.13747593  0.04860508       0.003
  -0.03968588  0.11456328  0.03240339       0.003
  -0.00000000  0.13747593  0.00000000       0.003
   0.03968588  0.11456328 -0.01620169       0.003
   0.07937177  0.09165062 -0.03240339       0.003
   0.11905765  0.06873797 -0.04860508       0.003
  -0.11905765  0.20621390  0.04860508       0.003
  -0.07937177  0.18330124  0.03240339       0.003
  -0.03968588  0.16038859  0.01620169       0.003
  -0.00000000 -0.13747593  0.09721016       0.003
   0.03968588 -0.16038859  0.08100847       0.003
   0.07937177 -0.18330124  0.06480678       0.003
   0.11905765 -0.20621390  0.04860508       0.003
  -0.11905765 -0.06873797  0.14581524       0.003
  -0.07937177 -0.09165062  0.12961355       0.003
  -0.03968588 -0.11456328  0.11341186       0.003
  -0.00000000 -0.09165062  0.08100847       0.003
   0.03968588 -0.11456328  0.06480678       0.003
   0.07937177 -0.13747593  0.04860508       0.003
   0.11905765 -0.16038859  0.03240339       0.003
  -0.11905765 -0.02291266  0.12961355       0.003
  -0.07937177 -0.04582531  0.11341186       0.003
  -0.03968588 -0.06873797  0.09721016       0.003
  -0.00000000 -0.04582531  0.06480678       0.003
   0.03968588 -0.06873797  0.04860508       0.003
   0.07937177 -0.09165062  0.03240339       0.003
   0.11905765 -0.11456328  0.01620169       0.003
  -0.11905765  0.02291266  0.11341186       0.003
  -0.07937177  0.00000000  0.09721016       0.003
  -0.03968588 -0.02291266  0.08100847       0.003
  -0.00000000  0.00000000  0.09721016       0.003
   0.03968588 -0.02291266  0.08100847       0.003
   0.07937177 -0.04582531  0.06480678       0.003
   0.11905765 -0.06873797  0.04860508       0.003
  -0.11905765  0.06873797  0.14581524       0.003
  -0.07937177  0.04582531  0.12961355       0.003
  -0.03968588  0.02291266  0.11341186       0.003
  -0.00000000  0.04582531  0.08100847       0.003
   0.03968588  0.02291266  0.06480678       0.003
   0.07937177  0.00000000  0.04860508       0.003
   0.11905765 -0.02291266  0.03240339       0.003
  -0.11905765  0.11456328  0.12961355       0.003
  -0.07937177  0.09165062  0.11341186       0.003
  -0.03968588  0.06873797  0.09721016       0.003
  -0.00000000  0.09165062  0.06480678       0.003
   0.03968588  0.06873797  0.04860508       0.003
   0.07937177  0.04582531  0.03240339       0.003
   0.11905765  0.02291266  0.01620169       0.003
  -0.11905765  0.16038859  0.11341186       0.003
  -0.07937177  0.13747593  0.09721016       0.003
  -0.03968588  0.11456328  0.08100847       0.003
  -0.00000000  0.13747593  0.04860508       0.003
   0.03968588  0.11456328  0.03240339       0.003
   0.07937177  0.09165062  0.01620169       0.003
   0.11905765  0.06873797  0.00000000       0.003
  -0.11905765  0.20621390  0.09721016       0.003
  -0.07937177  0.18330124  0.08100847       0.003
  -0.03968588  0.16038859  0.06480678       0.003
  -0.00000000 -0.13747593  0.14581524       0.003
   0.03968588 -0.16038859  0.12961355       0.003
   0.07937177 -0.18330124  0.11341186       0.003
   0.11905765 -0.20621390  0.09721016       0.003
  -0.11905765 -0.06873797  0.19442033       0.003
  -0.07937177 -0.09165062  0.17821863       0.003
  -0.03968588 -0.11456328  0.16201694       0.003
  -0.00000000 -0.09165062  0.12961355       0.003
   0.03968588 -0.11456328  0.11341186       0.003
   0.07937177 -0.13747593  0.09721016       0.003
   0.11905765 -0.16038859  0.08100847       0.003
  -0.11905765 -0.02291266  0.17821863       0.003
  -0.07937177 -0.04582531  0.16201694       0.003
  -0.03968588 -0.06873797  0.14581524       0.003
  -0.00000000 -0.04582531  0.11341186       0.003
   0.03968588 -0.06873797  0.09721016       0.003
   0.07937177 -0.09165062  0.08100847       0.003
   0.11905765 -0.11456328  0.06480678       0.003
  -0.11905765  0.02291266  0.16201694       0.003
  -0.07937177  0.00000000  0.14581524       0.003
  -0.03968588 -0.02291266  0.12961355       0.003
  -0.00000000  0.00000000  0.14581524       0.003
   0.03968588 -0.02291266  0.12961355       0.003
   0.07937177 -0.04582531  0.11341186       0.003
   0.11905765 -0.06873797  0.09721016       0.003
  -0.11905765  0.06873797  0.19442033       0.003
  -0.07937177  0.04582531  0.17821863       0.003
  -0.03968588  0.02291266  0.16201694       0.003
  -0.00000000  0.04582531  0.12961355       0.003
   0.03968588  0.02291266  0.11341186       0.003
   0.07937177  0.00000000  0.09721016       0.003
   0.11905765 -0.02291266  0.08100847       0.003
  -0.11905765  0.11456328  0.17821863       0.003
  -0.07937177  0.09165062  0.16201694       0.003
  -0.03968588  0.06873797  0.14581524       0.003
  -0.00000000  0.09165062  0.11341186       0.003
   0.03968588  0.06873797  0.09721016       0.003
   0.07937177  0.04582531  0.08100847       0.003
   0.11905765  0.02291266  0.06480678       0.003
  -0.11905765  0.16038859  0.16201694       0.003
  -0.07937177  0.13747593  0.14581524       0.003
  -0.03968588  0.11456328  0.12961355       0.003
  -0.00000000  0.13747593  0.09721016       0.003
   0.03968588  0.11456328  0.08100847       0.003
   0.07937177  0.09165062  0.06480678       0.003
   0.11905765  0.06873797  0.04860508       0.003
  -0.11905765  0.20621390  0.14581524       0.003
  -0.07937177  0.18330124  0.12961355       0.003
  -0.03968588  0.16038859  0.11341186       0.003
  -0.00000000 -0.13747593  0.19442033       0.003
   0.03968588 -0.16038859  0.17821863       0.003
   0.07937177 -0.18330124  0.16201694       0.003
   0.11905765 -0.20621390  0.14581524       0.003
  -0.11905765 -0.06873797  0.24302541       0.003
  -0.07937177 -0.09165062  0.22682371       0.003
  -0.03968588 -0.11456328  0.21062202       0.003
  -0.00000000 -0.09165062  0.17821863       0.003
   0.03968588 -0.11456328  0.16201694       0.003
   0.07937177 -0.13747593  0.14581524       0.003
   0.11905765 -0.16038859  0.12961355       0.003
  -0.11905765 -0.02291266  0.22682371       0.003
  -0.07937177 -0.04582531  0.21062202       0.003
  -0.03968588 -0.06873797  0.19442033       0.003
  -0.00000000 -0.04582531  0.16201694       0.003
   0.03968588 -0.06873797  0.14581524       0.003
   0.07937177 -0.09165062  0.12961355       0.003
   0.11905765 -0.11456328  0.11341186       0.003
  -0.11905765  0.02291266  0.21062202       0.003
  -0.07937177  0.00000000  0.19442033       0.003
  -0.03968588 -0.02291266  0.17821863       0.003
[...]
     14      12.0277      12.3181      12.3161      12.3447       0.9099       0.0000
     15      14.7086      15.0310      15.0304      15.0656       0.9012       0.0000
     16      14.7086      15.0310      15.0304      15.0656       0.9012       0.0000
 

 k-point 333 :       0.4286   -0.2857   -0.1429
  band No. DFT-energies  QP-energies  QP-e(diag)   sigma(DFT)    Z            occupation

      1     -21.0158     -22.7513     -22.7492     -23.3488       0.7430       1.0000
      2     -21.0158     -22.7513     -22.7492     -23.3488       0.7430       1.0000
      3      -8.9628      -9.7027      -9.7023      -9.8077       0.8752       1.0000
      4      -8.9628      -9.7026      -9.7023      -9.8078       0.8752       1.0000
      5      -8.2086      -8.9259      -8.9257      -9.0288       0.8744       1.0000
      6      -8.2085      -8.9259      -8.9257      -9.0288       0.8744       1.0000
      7      -7.7639      -8.4678      -8.4677      -8.5686       0.8746       1.0000
      8      -7.7638      -8.4678      -8.4677      -8.5686       0.8746       1.0000
      9       9.7916      10.0588      10.0561      10.0809       0.9143       0.0000
     10       9.7916      10.0588      10.0561      10.0809       0.9143       0.0000
     11      10.7206      10.9911      10.9892      11.0146       0.9136       0.0000
     12      10.7206      10.9911      10.9892      11.0146       0.9136       0.0000
     13      12.0279      12.3181      12.3161      12.3447       0.9099       0.0000
     14      12.0279      12.3181      12.3161      12.3447       0.9099       0.0000
     15      14.7089      15.0310      15.0304      15.0656       0.9011       0.0000
     16      14.7089      15.0310      15.0304      15.0656       0.9011       0.0000
 

 k-point 334 :      -0.4286   -0.2857   -0.1429
  band No. DFT-energies  QP-energies  QP-e(diag)   sigma(DFT)    Z            occupation

      1     -21.1015     -22.8342     -22.8319     -23.4357       0.7413       1.0000
      2     -21.1015     -22.8342     -22.8319     -23.4357       0.7413       1.0000
      3      -8.7339      -9.4618      -9.4616      -9.5655       0.8751       1.0000
      4      -8.7339      -9.4618      -9.4616      -9.5655       0.8751       1.0000
      5      -7.9662      -8.6794      -8.6793      -8.7816       0.8746       1.0000
      6      -7.9662      -8.6794      -8.6793      -8.7816       0.8746       1.0000
      7      -7.6393      -8.3405      -8.3404      -8.4407       0.8749       1.0000
      8      -7.6393      -8.3405      -8.3404      -8.4407       0.8749       1.0000
      9       8.7119       8.9718       8.9684       8.9921       0.9153       0.0000
     10       8.7119       8.9718       8.9684       8.9921       0.9153       0.0000
     11      11.3916      11.6612      11.6603      11.6860       0.9126       0.0000
     12      11.3916      11.6612      11.6603      11.6860       0.9126       0.0000
     13      12.1180      12.4021      12.4016      12.4284       0.9136       0.0000
     14      12.1181      12.4021      12.4016      12.4284       0.9136       0.0000
     15      15.1186      15.4420      15.4412      15.4777       0.8984       0.0000
     16      15.1186      15.4420      15.4412      15.4777       0.8984       0.0000
 

 k-point 335 :      -0.2857   -0.2857   -0.1429
  band No. DFT-energies  QP-energies  QP-e(diag)   sigma(DFT)    Z            occupation

      1     -21.2101     -22.9362     -22.9334     -23.5375       0.7404       1.0000
      2     -21.2100     -22.9362     -22.9334     -23.5375       0.7405       1.0000
      3      -8.4090      -9.1264      -9.1265      -9.2294       0.8746       1.0000
      4      -8.4089      -9.1264      -9.1265      -9.2294       0.8746       1.0000
      5      -7.6476      -8.3491      -8.3491      -8.4496       0.8746       1.0000
      6      -7.6475      -8.3491      -8.3491      -8.4497       0.8746       1.0000
      7      -7.5320      -8.2298      -8.2297      -8.3291       0.8753       1.0000
      8      -7.5319      -8.2297      -8.2297      -8.3291       0.8753       1.0000
      9       7.6300       7.8761       7.8726       7.8948       0.9164       0.0000
     10       7.6300       7.8761       7.8726       7.8948       0.9164       0.0000
     11      11.8135      12.0871      12.0864      12.1127       0.9120       0.0000
     12      11.8135      12.0871      12.0864      12.1127       0.9120       0.0000
     13      13.3930      13.6810      13.6809      13.7093       0.9102       0.0000
     14      13.3930      13.6810      13.6809      13.7093       0.9102       0.0000
     15      14.6880      14.9930      14.9926      15.0257       0.9021       0.0000
     16      14.6880      14.9930      14.9926      15.0257       0.9021       0.0000
 

 k-point 336 :      -0.1429   -0.2857   -0.1429
  band No. DFT-energies  QP-energies  QP-e(diag)   sigma(DFT)    Z            occupation

      1     -21.2561     -22.9810     -22.9780     -23.5816       0.7404       1.0000
      2     -21.2560     -22.9810     -22.9780     -23.5817       0.7404       1.0000
      3      -8.2176      -8.9298      -8.9298      -9.0317       0.8749       1.0000
      4      -8.2175      -8.9298      -8.9298      -9.0317       0.8749       1.0000
      5      -7.6417      -8.3425      -8.3424      -8.4426       0.8749       1.0000
      6      -7.6417      -8.3425      -8.3424      -8.4426       0.8749       1.0000
      7      -7.3929      -8.0852      -8.0852      -8.1838       0.8753       1.0000
      8      -7.3929      -8.0852      -8.0852      -8.1838       0.8753       1.0000
      9       7.1956       7.4382       7.4350       7.4567       0.9170       0.0000
     10       7.1956       7.4382       7.4350       7.4567       0.9170       0.0000
     11      12.2836      12.5653      12.5646      12.5920       0.9110       0.0000
     12      12.2836      12.5653      12.5646      12.5920       0.9110       0.0000
     13      13.6932      13.9884      13.9881      14.0178       0.9083       0.0000
     14      13.6932      13.9884      13.9881      14.0178       0.9083       0.0000
     15      14.8461      15.1407      15.1407      15.1729       0.9016       0.0000
     16      14.8461      15.1407      15.1407      15.1729       0.9016       0.0000
 

 k-point 337 :       0.0000   -0.1429   -0.1429
  band No. DFT-energies  QP-energies  QP-e(diag)   sigma(DFT)    Z            occupation

      1     -21.3240     -23.0425     -23.0388     -23.6449       0.7388       1.0000
      2     -21.3239     -23.0424     -23.0388     -23.6449       0.7389       1.0000
      3      -7.7965      -8.4996      -8.4997      -8.6003       0.8748       1.0000
      4      -7.7963      -8.4996      -8.4997      -8.6004       0.8748       1.0000
      5      -7.5151      -8.2109      -8.2109      -8.3103       0.8750       1.0000
      6      -7.5151      -8.2109      -8.2109      -8.3103       0.8750       1.0000
      7      -7.4187      -8.1120      -8.1120      -8.2108       0.8753       1.0000
      8      -7.4186      -8.1120      -8.1120      -8.2108       0.8753       1.0000
      9       6.4698       6.7048       6.7023       6.7230       0.9183       0.0000
     10       6.4699       6.7048       6.7023       6.7229       0.9182       0.0000
     11      12.7469      13.0258      13.0258      13.0532       0.9106       0.0000
     12      12.7469      13.0258      13.0258      13.0532       0.9106       0.0000
     13      14.4738      14.7736      14.7734      14.8053       0.9037       0.0000
     14      14.4738      14.7736      14.7734      14.8053       0.9037       0.0000
     15      14.4787      14.7758      14.7756      14.8073       0.9036       0.0000
     16      14.4787      14.7758      14.7756      14.8073       0.9036       0.0000
 

 k-point 338 :       0.1429   -0.1429   -0.1429
  band No. DFT-energies  QP-energies  QP-e(diag)   sigma(DFT)    Z            occupation

      1     -21.2095     -22.9364     -22.9336     -23.5377       0.7406       1.0000
      2     -21.2095     -22.9364     -22.9336     -23.5377       0.7406       1.0000
      3      -8.4083      -9.1266      -9.1266      -9.2295       0.8747       1.0000
      4      -8.4082      -9.1266      -9.1266      -9.2295       0.8747       1.0000
      5      -7.6482      -8.3490      -8.3490      -8.4495       0.8745       1.0000
      6      -7.6482      -8.3490      -8.3490      -8.4496       0.8745       1.0000
      7      -7.5329      -8.2297      -8.2296      -8.3290       0.8751       1.0000
      8      -7.5327      -8.2296      -8.2296      -8.3290       0.8752       1.0000
      9       7.6295       7.8761       7.8726       7.8948       0.9165       0.0000
     10       7.6295       7.8761       7.8726       7.8948       0.9165       0.0000
     11      11.8135      12.0870      12.0864      12.1127       0.9120       0.0000
     12      11.8135      12.0870      12.0864      12.1127       0.9120       0.0000
     13      13.3931      13.6811      13.6810      13.7094       0.9102       0.0000
     14      13.3931      13.6811      13.6810      13.7094       0.9102       0.0000
     15      14.6883      14.9931      14.9927      15.0258       0.9021       0.0000
     16      14.6883      14.9931      14.9927      15.0258       0.9021       0.0000
 

 k-point 339 :       0.2857   -0.1429   -0.1429
  band No. DFT-energies  QP-energies  QP-e(diag)   sigma(DFT)    Z            occupation

      1     -21.0829     -22.8163     -22.8141     -23.4163       0.7419       1.0000
      2     -21.0828     -22.8163     -22.8141     -23.4163       0.7419       1.0000
      3      -9.0336      -9.7744      -9.7741      -9.8793       0.8756       1.0000
      4      -9.0335      -9.7744      -9.7741      -9.8793       0.8756       1.0000
      5      -7.7758      -8.4805      -8.4804      -8.5818       0.8742       1.0000
      6      -7.7757      -8.4805      -8.4804      -8.5819       0.8742       1.0000
      7      -7.6325      -8.3341      -8.3341      -8.4343       0.8750       1.0000
      8      -7.6325      -8.3341      -8.3341      -8.4343       0.8750       1.0000
      9       8.8775       9.1359       9.1336       9.1571       0.9162       0.0000
     10       8.8775       9.1359       9.1336       9.1571       0.9162       0.0000
     11      11.1315      11.4141      11.4115      11.4385       0.9119       0.0000
     12      11.1315      11.4141      11.4115      11.4385       0.9119       0.0000
     13      12.7770      13.0668      13.0661      13.0945       0.9106       0.0000
     14      12.7770      13.0668      13.0661      13.0945       0.9106       0.0000
     15      14.2424      14.5462      14.5460      14.5774       0.9063       0.0000
     16      14.2424      14.5462      14.5460      14.5774       0.9063       0.0000
 

 k-point 340 :       0.4286   -0.1429   -0.1429
  band No. DFT-energies  QP-energies  QP-e(diag)   sigma(DFT)    Z            occupation

      1     -21.0426     -22.7770     -22.7752     -23.3769       0.7423       1.0000
      2     -21.0426     -22.7769     -22.7752     -23.3769       0.7423       1.0000
      3      -9.2137      -9.9594      -9.9588     -10.0645       0.8758       1.0000
      4      -9.2135      -9.9594      -9.9588     -10.0645       0.8759       1.0000
      5      -7.8764      -8.5857      -8.5856      -8.6876       0.8743       1.0000
      6      -7.8763      -8.5856      -8.5856      -8.6876       0.8743       1.0000
      7      -7.6132      -8.3133      -8.3133      -8.4134       0.8748       1.0000
      8      -7.6130      -8.3133      -8.3133      -8.4135       0.8749       1.0000
      9       9.3470       9.6025       9.6012       9.6243       0.9167       0.0000
     10       9.3470       9.6025       9.6012       9.6243       0.9167       0.0000
     11      10.8869      11.1793      11.1756      11.2037       0.9115       0.0000
     12      10.8869      11.1793      11.1756      11.2037       0.9115       0.0000
     13      12.8155      13.1147      13.1130      13.1430       0.9083       0.0000
     14      12.8155      13.1147      13.1130      13.1430       0.9083       0.0000
     15      13.9587      14.2577      14.2576      14.2876       0.9087       0.0000
     16      13.9588      14.2577      14.2576      14.2876       0.9087       0.0000
 

 k-point 341 :      -0.4286   -0.1429   -0.1429
  band No. DFT-energies  QP-energies  QP-e(diag)   sigma(DFT)    Z            occupation

      1     -21.1203     -22.8525     -22.8499     -23.4545       0.7410       1.0000
      2     -21.1203     -22.8525     -22.8499     -23.4545       0.7410       1.0000
      3      -8.8471      -9.5786      -9.5785      -9.6825       0.8755       1.0000
      4      -8.8471      -9.5786      -9.5785      -9.6825       0.8755       1.0000
      5      -7.8467      -8.5541      -8.5540      -8.6554       0.8746       1.0000
      6      -7.8467      -8.5541      -8.5540      -8.6554       0.8746       1.0000
      7      -7.5042      -8.2001      -8.2001      -8.2996       0.8749       1.0000
      8      -7.5042      -8.2001      -8.2001      -8.2996       0.8749       1.0000
      9       8.5997       8.8582       8.8550       8.8786       0.9156       0.0000
     10       8.5997       8.8582       8.8550       8.8786       0.9156       0.0000
     11      11.5077      11.7916      11.7895      11.8169       0.9113       0.0000
     12      11.5077      11.7916      11.7895      11.8169       0.9113       0.0000
     13      12.7470      13.0342      13.0338      13.0616       0.9116       0.0000
     14      12.7471      13.0342      13.0338      13.0616       0.9116       0.0000
     15      14.2503      14.5470      14.5470      14.5779       0.9057       0.0000
     16      14.2503      14.5470      14.5470      14.5779       0.9057       0.0000
 

 k-point 342 :      -0.2857   -0.1429   -0.1429
  band No. DFT-energies  QP-energies  QP-e(diag)   sigma(DFT)    Z            occupation

      1     -21.2562     -22.9807     -22.9778     -23.5816       0.7403       1.0000
      2     -21.2562     -22.9807     -22.9778     -23.5816       0.7403       1.0000
      3      -8.2176      -8.9298      -8.9298      -9.0317       0.8749       1.0000
      4      -8.2175      -8.9298      -8.9298      -9.0317       0.8749       1.0000
      5      -7.6417      -8.3425      -8.3424      -8.4426       0.8749       1.0000
      6      -7.6416      -8.3425      -8.3424      -8.4426       0.8749       1.0000
      7      -7.3928      -8.0852      -8.0852      -8.1838       0.8753       1.0000
      8      -7.3928      -8.0852      -8.0852      -8.1838       0.8753       1.0000
      9       7.1955       7.4382       7.4350       7.4567       0.9170       0.0000
     10       7.1955       7.4382       7.4350       7.4567       0.9170       0.0000
     11      12.2837      12.5653      12.5646      12.5920       0.9110       0.0000
     12      12.2837      12.5653      12.5646      12.5920       0.9110       0.0000
     13      13.6931      13.9884      13.9881      14.0178       0.9083       0.0000
     14      13.6932      13.9884      13.9881      14.0178       0.9083       0.0000
     15      14.8461      15.1407      15.1407      15.1728       0.9016       0.0000
     16      14.8461      15.1407      15.1407      15.1728       0.9016       0.0000
 

 k-point 343 :      -0.1429   -0.1429   -0.1429
  band No. DFT-energies  QP-energies  QP-e(diag)   sigma(DFT)    Z            occupation

      1     -21.3436     -23.0612     -23.0574     -23.6638       0.7386       1.0000
      2     -21.3436     -23.0612     -23.0574     -23.6638       0.7386       1.0000
      3      -7.7996      -8.5019      -8.5020      -8.6024       0.8749       1.0000
      4      -7.7995      -8.5019      -8.5020      -8.6024       0.8750       1.0000
      5      -7.4360      -8.1295      -8.1295      -8.2288       0.8747       1.0000
      6      -7.4360      -8.1295      -8.1295      -8.2288       0.8747       1.0000
      7      -7.3304      -8.0217      -8.0217      -8.1197       0.8758       1.0000
      8      -7.3304      -8.0217      -8.0217      -8.1197       0.8758       1.0000
      9       6.2599       6.4929       6.4907       6.5110       0.9190       0.0000
     10       6.2600       6.4929       6.4907       6.5110       0.9190       0.0000
     11      13.0465      13.3339      13.3336      13.3622       0.9093       0.0000
     12      13.0465      13.3339      13.3336      13.3622       0.9093       0.0000
     13      14.2722      14.5650      14.5650      14.5957       0.9051       0.0000
     14      14.2722      14.5650      14.5650      14.5957       0.9051       0.0000
     15      14.2728      14.5667      14.5667      14.5975       0.9050       0.0000
     16      14.2728      14.5667      14.5667      14.5975       0.9050       0.0000
 


--------------------------------------------------------------------------------------------------------



IMPORTANT INFORMATION: All symmetrisations will be switched off!
NOSYMM: (Re-)initialisation of all symmetry stuff for point group C_1.

   GW_DIAG:  cpu time    1.7625: real time    1.7684
    GWLOOP:  cpu time 2591.0530: real time 2592.6204
 writing wavefunctions
    --------------------------------------------
   GWTOTAL:  cpu time 2592.8118: real time 2594.8361
    4ORBIT:  cpu time    0.0000: real time    0.0000

 Spin-Orbit-Coupling matrix elements

 Ion:    1  E_soc:     -0.0046935
 l=   1
     0.0000000    -0.0007822    -0.0007822
    -0.0007822     0.0000000    -0.0007822
    -0.0007822    -0.0007822     0.0000000
 l=   2
     0.0000000    -0.0000000     0.0000000    -0.0000000    -0.0000000
    -0.0000000     0.0000000    -0.0000000    -0.0000000    -0.0000000
     0.0000000    -0.0000000     0.0000000    -0.0000000     0.0000000
    -0.0000000    -0.0000000    -0.0000000     0.0000000    -0.0000000
    -0.0000000    -0.0000000     0.0000000    -0.0000000     0.0000000
 l=   3
     0.0000000     0.0000000     0.0000000     0.0000000     0.0000000     0.0000000     0.0000000
     0.0000000     0.0000000     0.0000000     0.0000000     0.0000000     0.0000000     0.0000000
     0.0000000     0.0000000     0.0000000     0.0000000     0.0000000     0.0000000     0.0000000
     0.0000000     0.0000000     0.0000000     0.0000000     0.0000000     0.0000000     0.0000000
     0.0000000     0.0000000     0.0000000     0.0000000     0.0000000     0.0000000     0.0000000
     0.0000000     0.0000000     0.0000000     0.0000000     0.0000000     0.0000000     0.0000000
     0.0000000     0.0000000     0.0000000     0.0000000     0.0000000     0.0000000     0.0000000

 total amount of memory used by VASP MPI-rank0   205309. kBytes
=======================================================================

   base      :      30000. kBytes
   nonl-proj :      19565. kBytes
   fftplans  :       4720. kBytes
   grid      :       4608. kBytes
   one-center:         62. kBytes
   HF        :        129. kBytes
   nonlr-proj:        113. kBytes
   wavefun   :     146112. kBytes
   2eintegral:          0. kBytes
   fockhandle:          0. kBytes
   response  :          0. kBytes
   cacher    :          0. kBytes
 
  
  
 General timing and accounting informations for this job:
 ========================================================
  
                  Total CPU time used (sec):     2599.252
                            User time (sec):     2584.114
                          System time (sec):       15.138
                         Elapsed time (sec):     2601.094
  
                   Maximum memory used (kb):     1695272.
                   Average memory used (kb):           0.
  
                          Minor page faults:       339022
                          Major page faults:            0
                 Voluntary context switches:        17567
