    1    1    1    1
  0.6083477E+02  0.4414576E-09  0.4414576E-09  0.4414576E-09  0.1000000E-15
  1.000000000000000E-004
  CAR 
 Og_FCC                                  
     18    216    196
