<?xml version="1.0" encoding="ISO-8859-1"?>
<modeling>
 <generator>
  <i name="program" type="string">vasp </i>
  <i name="version" type="string">5.4.4.18Apr17-6-g9f103f2a35  </i>
  <i name="subversion" type="string">(build Nov 03 2018 10:20:46) complex            parallel </i>
  <i name="platform" type="string">LinuxIFC </i>
  <i name="date" type="string">2018 12 26 </i>
  <i name="time" type="string">11:07:11 </i>
 </generator>
 <incar>
  <i type="string" name="SYSTEM">   Og_FCC</i>
  <i type="string" name="PREC">accurate</i>
  <i type="string" name="ALGO">   QPGW</i>
  <i type="logical" name="ADDGRID"> T  </i>
  <i type="logical" name="LSORBIT"> T  </i>
  <i type="int" name="ISPIN">     1</i>
  <i type="int" name="MAXMIX">    50</i>
  <i type="int" name="NELM">     1</i>
  <i type="int" name="IBRION">    -1</i>
  <i type="int" name="NFREE">     5</i>
  <i name="EDIFF">      0.00000001</i>
  <i name="EDIFFG">      0.00001000</i>
  <i type="int" name="NSW">     1</i>
  <i type="int" name="ISIF">     3</i>
  <i type="int" name="ISYM">     0</i>
  <i name="SYMPREC">      0.00000010</i>
  <i name="ENCUT">    400.00000000</i>
  <i type="int" name="NBANDS">   196</i>
  <i name="POTIM">      0.10000000</i>
  <i type="logical" name="LREAL"> F  </i>
  <i type="int" name="ISMEAR">     0</i>
  <i name="SIGMA">      0.05100000</i>
  <i type="int" name="NWRITE">     1</i>
  <i type="logical" name="LWAVE"> T  </i>
  <i type="logical" name="LCHARG"> F  </i>
  <i type="logical" name="LVTOT"> F  </i>
  <i type="logical" name="GGA_COMPAT"> F  </i>
  <i type="int" name="NOMEGA">    50</i>
  <v type="int" name="KPOINT_BSE">    -1     0     0     0</v>
  <i type="logical" name="LSPECTRAL"> T  </i>
  <i type="int" name="NELM">     1</i>
  <i type="string" name="GGA"> PE</i>
 </incar>
 <structure name="primitive_cell" >
  <crystal>
   <varray name="basis" >
    <v>       4.41457561       0.00000000       0.00000000 </v>
    <v>       2.20728780       3.82313462      -0.00000000 </v>
    <v>       2.20728780       1.27437821       3.60448589 </v>
   </varray>
   <i name="volume">     60.83477135 </i>
   <varray name="rec_basis" >
    <v>       0.22652234      -0.13078273      -0.09247736 </v>
    <v>       0.00000000       0.26156547      -0.09247736 </v>
    <v>      -0.00000000       0.00000000       0.27743208 </v>
   </varray>
  </crystal>
  <varray name="positions" >
   <v>       0.00000000       0.00000000       0.00000000 </v>
  </varray>
 </structure>
 <varray name="primitive_index" >
  <v type="int" >        1 </v>
 </varray>
 <kpoints>
  <generation param="Gamma">
   <v type="int" name="divisions">       6        6        6 </v>
   <v name="usershift">      0.00000000       0.00000000       0.00000000 </v>
   <v name="genvec1">      0.16666667      -0.00000000       0.00000000 </v>
   <v name="genvec2">      0.00000000       0.16666667       0.00000000 </v>
   <v name="genvec3">     -0.00000000       0.00000000       0.16666667 </v>
   <v name="shift">      0.00000000       0.00000000       0.00000000 </v>
  </generation>
  <varray name="kpointlist" >
   <v>       0.00000000       0.00000000       0.00000000 </v>
   <v>       0.16666667       0.00000000       0.00000000 </v>
   <v>       0.33333333       0.00000000       0.00000000 </v>
   <v>       0.50000000       0.00000000       0.00000000 </v>
   <v>      -0.33333333      -0.00000000      -0.00000000 </v>
   <v>      -0.16666667      -0.00000000      -0.00000000 </v>
   <v>       0.00000000       0.16666667      -0.00000000 </v>
   <v>       0.16666667       0.16666667       0.00000000 </v>
   <v>       0.33333333       0.16666667       0.00000000 </v>
   <v>       0.50000000       0.16666667       0.00000000 </v>
   <v>      -0.33333333       0.16666667      -0.00000000 </v>
   <v>      -0.16666667       0.16666667      -0.00000000 </v>
   <v>       0.00000000       0.33333333       0.00000000 </v>
   <v>       0.16666667       0.33333333       0.00000000 </v>
   <v>       0.33333333       0.33333333       0.00000000 </v>
   <v>       0.50000000       0.33333333       0.00000000 </v>
   <v>      -0.33333333       0.33333333      -0.00000000 </v>
   <v>      -0.16666667       0.33333333      -0.00000000 </v>
   <v>       0.00000000       0.50000000       0.00000000 </v>
   <v>       0.16666667       0.50000000       0.00000000 </v>
   <v>       0.33333333       0.50000000       0.00000000 </v>
   <v>       0.50000000       0.50000000       0.00000000 </v>
   <v>      -0.33333333       0.50000000      -0.00000000 </v>
   <v>      -0.16666667       0.50000000      -0.00000000 </v>
   <v>       0.00000000      -0.33333333       0.00000000 </v>
   <v>       0.16666667      -0.33333333       0.00000000 </v>
   <v>       0.33333333      -0.33333333       0.00000000 </v>
   <v>       0.50000000      -0.33333333       0.00000000 </v>
   <v>      -0.33333333      -0.33333333      -0.00000000 </v>
   <v>      -0.16666667      -0.33333333      -0.00000000 </v>
   <v>       0.00000000      -0.16666667       0.00000000 </v>
   <v>       0.16666667      -0.16666667       0.00000000 </v>
   <v>       0.33333333      -0.16666667       0.00000000 </v>
   <v>       0.50000000      -0.16666667       0.00000000 </v>
   <v>      -0.33333333      -0.16666667      -0.00000000 </v>
   <v>      -0.16666667      -0.16666667      -0.00000000 </v>
   <v>       0.00000000      -0.00000000       0.16666667 </v>
   <v>       0.16666667       0.00000000       0.16666667 </v>
   <v>       0.33333333       0.00000000       0.16666667 </v>
   <v>       0.50000000       0.00000000       0.16666667 </v>
   <v>      -0.33333333      -0.00000000       0.16666667 </v>
   <v>      -0.16666667      -0.00000000       0.16666667 </v>
   <v>       0.00000000       0.16666667       0.16666667 </v>
   <v>       0.16666667       0.16666667       0.16666667 </v>
   <v>       0.33333333       0.16666667       0.16666667 </v>
   <v>       0.50000000       0.16666667       0.16666667 </v>
   <v>      -0.33333333       0.16666667       0.16666667 </v>
   <v>      -0.16666667       0.16666667       0.16666667 </v>
   <v>       0.00000000       0.33333333       0.16666667 </v>
   <v>       0.16666667       0.33333333       0.16666667 </v>
   <v>       0.33333333       0.33333333       0.16666667 </v>
   <v>       0.50000000       0.33333333       0.16666667 </v>
   <v>      -0.33333333       0.33333333       0.16666667 </v>
   <v>      -0.16666667       0.33333333       0.16666667 </v>
   <v>       0.00000000       0.50000000       0.16666667 </v>
   <v>       0.16666667       0.50000000       0.16666667 </v>
   <v>       0.33333333       0.50000000       0.16666667 </v>
   <v>       0.50000000       0.50000000       0.16666667 </v>
   <v>      -0.33333333       0.50000000       0.16666667 </v>
   <v>      -0.16666667       0.50000000       0.16666667 </v>
   <v>      -0.00000000      -0.33333333       0.16666667 </v>
   <v>       0.16666667      -0.33333333       0.16666667 </v>
   <v>       0.33333333      -0.33333333       0.16666667 </v>
   <v>       0.50000000      -0.33333333       0.16666667 </v>
   <v>      -0.33333333      -0.33333333       0.16666667 </v>
   <v>      -0.16666667      -0.33333333       0.16666667 </v>
   <v>      -0.00000000      -0.16666667       0.16666667 </v>
   <v>       0.16666667      -0.16666667       0.16666667 </v>
   <v>       0.33333333      -0.16666667       0.16666667 </v>
   <v>       0.50000000      -0.16666667       0.16666667 </v>
   <v>      -0.33333333      -0.16666667       0.16666667 </v>
   <v>      -0.16666667      -0.16666667       0.16666667 </v>
   <v>      -0.00000000      -0.00000000       0.33333333 </v>
   <v>       0.16666667       0.00000000       0.33333333 </v>
   <v>       0.33333333       0.00000000       0.33333333 </v>
   <v>       0.50000000       0.00000000       0.33333333 </v>
   <v>      -0.33333333      -0.00000000       0.33333333 </v>
   <v>      -0.16666667      -0.00000000       0.33333333 </v>
   <v>      -0.00000000       0.16666667       0.33333333 </v>
   <v>       0.16666667       0.16666667       0.33333333 </v>
   <v>       0.33333333       0.16666667       0.33333333 </v>
   <v>       0.50000000       0.16666667       0.33333333 </v>
   <v>      -0.33333333       0.16666667       0.33333333 </v>
   <v>      -0.16666667       0.16666667       0.33333333 </v>
   <v>      -0.00000000       0.33333333       0.33333333 </v>
   <v>       0.16666667       0.33333333       0.33333333 </v>
   <v>       0.33333333       0.33333333       0.33333333 </v>
   <v>       0.50000000       0.33333333       0.33333333 </v>
   <v>      -0.33333333       0.33333333       0.33333333 </v>
   <v>      -0.16666667       0.33333333       0.33333333 </v>
   <v>       0.00000000       0.50000000       0.33333333 </v>
   <v>       0.16666667       0.50000000       0.33333333 </v>
   <v>       0.33333333       0.50000000       0.33333333 </v>
   <v>       0.50000000       0.50000000       0.33333333 </v>
   <v>      -0.33333333       0.50000000       0.33333333 </v>
   <v>      -0.16666667       0.50000000       0.33333333 </v>
   <v>      -0.00000000      -0.33333333       0.33333333 </v>
   <v>       0.16666667      -0.33333333       0.33333333 </v>
   <v>       0.33333333      -0.33333333       0.33333333 </v>
   <v>       0.50000000      -0.33333333       0.33333333 </v>
   <v>      -0.33333333      -0.33333333       0.33333333 </v>
   <v>      -0.16666667      -0.33333333       0.33333333 </v>
   <v>      -0.00000000      -0.16666667       0.33333333 </v>
   <v>       0.16666667      -0.16666667       0.33333333 </v>
   <v>       0.33333333      -0.16666667       0.33333333 </v>
   <v>       0.50000000      -0.16666667       0.33333333 </v>
   <v>      -0.33333333      -0.16666667       0.33333333 </v>
   <v>      -0.16666667      -0.16666667       0.33333333 </v>
   <v>      -0.00000000      -0.00000000       0.50000000 </v>
   <v>       0.16666667       0.00000000       0.50000000 </v>
   <v>       0.33333333       0.00000000       0.50000000 </v>
   <v>       0.50000000       0.00000000       0.50000000 </v>
   <v>      -0.33333333      -0.00000000       0.50000000 </v>
   <v>      -0.16666667      -0.00000000       0.50000000 </v>
   <v>      -0.00000000       0.16666667       0.50000000 </v>
   <v>       0.16666667       0.16666667       0.50000000 </v>
   <v>       0.33333333       0.16666667       0.50000000 </v>
   <v>       0.50000000       0.16666667       0.50000000 </v>
   <v>      -0.33333333       0.16666667       0.50000000 </v>
   <v>      -0.16666667       0.16666667       0.50000000 </v>
   <v>      -0.00000000       0.33333333       0.50000000 </v>
   <v>       0.16666667       0.33333333       0.50000000 </v>
   <v>       0.33333333       0.33333333       0.50000000 </v>
   <v>       0.50000000       0.33333333       0.50000000 </v>
   <v>      -0.33333333       0.33333333       0.50000000 </v>
   <v>      -0.16666667       0.33333333       0.50000000 </v>
   <v>      -0.00000000       0.50000000       0.50000000 </v>
   <v>       0.16666667       0.50000000       0.50000000 </v>
   <v>       0.33333333       0.50000000       0.50000000 </v>
   <v>       0.50000000       0.50000000       0.50000000 </v>
   <v>      -0.33333333       0.50000000       0.50000000 </v>
   <v>      -0.16666667       0.50000000       0.50000000 </v>
   <v>       0.00000000      -0.33333333       0.50000000 </v>
   <v>       0.16666667      -0.33333333       0.50000000 </v>
   <v>       0.33333333      -0.33333333       0.50000000 </v>
   <v>       0.50000000      -0.33333333       0.50000000 </v>
   <v>      -0.33333333      -0.33333333       0.50000000 </v>
   <v>      -0.16666667      -0.33333333       0.50000000 </v>
   <v>       0.00000000      -0.16666667       0.50000000 </v>
   <v>       0.16666667      -0.16666667       0.50000000 </v>
   <v>       0.33333333      -0.16666667       0.50000000 </v>
   <v>       0.50000000      -0.16666667       0.50000000 </v>
   <v>      -0.33333333      -0.16666667       0.50000000 </v>
   <v>      -0.16666667      -0.16666667       0.50000000 </v>
   <v>       0.00000000       0.00000000      -0.33333333 </v>
   <v>       0.16666667       0.00000000      -0.33333333 </v>
   <v>       0.33333333       0.00000000      -0.33333333 </v>
   <v>       0.50000000       0.00000000      -0.33333333 </v>
   <v>      -0.33333333      -0.00000000      -0.33333333 </v>
   <v>      -0.16666667      -0.00000000      -0.33333333 </v>
   <v>       0.00000000       0.16666667      -0.33333333 </v>
   <v>       0.16666667       0.16666667      -0.33333333 </v>
   <v>       0.33333333       0.16666667      -0.33333333 </v>
   <v>       0.50000000       0.16666667      -0.33333333 </v>
   <v>      -0.33333333       0.16666667      -0.33333333 </v>
   <v>      -0.16666667       0.16666667      -0.33333333 </v>
   <v>       0.00000000       0.33333333      -0.33333333 </v>
   <v>       0.16666667       0.33333333      -0.33333333 </v>
   <v>       0.33333333       0.33333333      -0.33333333 </v>
   <v>       0.50000000       0.33333333      -0.33333333 </v>
   <v>      -0.33333333       0.33333333      -0.33333333 </v>
   <v>      -0.16666667       0.33333333      -0.33333333 </v>
   <v>       0.00000000       0.50000000      -0.33333333 </v>
   <v>       0.16666667       0.50000000      -0.33333333 </v>
   <v>       0.33333333       0.50000000      -0.33333333 </v>
   <v>       0.50000000       0.50000000      -0.33333333 </v>
   <v>      -0.33333333       0.50000000      -0.33333333 </v>
   <v>      -0.16666667       0.50000000      -0.33333333 </v>
   <v>       0.00000000      -0.33333333      -0.33333333 </v>
   <v>       0.16666667      -0.33333333      -0.33333333 </v>
   <v>       0.33333333      -0.33333333      -0.33333333 </v>
   <v>       0.50000000      -0.33333333      -0.33333333 </v>
   <v>      -0.33333333      -0.33333333      -0.33333333 </v>
   <v>      -0.16666667      -0.33333333      -0.33333333 </v>
   <v>       0.00000000      -0.16666667      -0.33333333 </v>
   <v>       0.16666667      -0.16666667      -0.33333333 </v>
   <v>       0.33333333      -0.16666667      -0.33333333 </v>
   <v>       0.50000000      -0.16666667      -0.33333333 </v>
   <v>      -0.33333333      -0.16666667      -0.33333333 </v>
   <v>      -0.16666667      -0.16666667      -0.33333333 </v>
   <v>       0.00000000       0.00000000      -0.16666667 </v>
   <v>       0.16666667       0.00000000      -0.16666667 </v>
   <v>       0.33333333       0.00000000      -0.16666667 </v>
   <v>       0.50000000       0.00000000      -0.16666667 </v>
   <v>      -0.33333333      -0.00000000      -0.16666667 </v>
   <v>      -0.16666667      -0.00000000      -0.16666667 </v>
   <v>       0.00000000       0.16666667      -0.16666667 </v>
   <v>       0.16666667       0.16666667      -0.16666667 </v>
   <v>       0.33333333       0.16666667      -0.16666667 </v>
   <v>       0.50000000       0.16666667      -0.16666667 </v>
   <v>      -0.33333333       0.16666667      -0.16666667 </v>
   <v>      -0.16666667       0.16666667      -0.16666667 </v>
   <v>       0.00000000       0.33333333      -0.16666667 </v>
   <v>       0.16666667       0.33333333      -0.16666667 </v>
   <v>       0.33333333       0.33333333      -0.16666667 </v>
   <v>       0.50000000       0.33333333      -0.16666667 </v>
   <v>      -0.33333333       0.33333333      -0.16666667 </v>
   <v>      -0.16666667       0.33333333      -0.16666667 </v>
   <v>      -0.00000000       0.50000000      -0.16666667 </v>
   <v>       0.16666667       0.50000000      -0.16666667 </v>
   <v>       0.33333333       0.50000000      -0.16666667 </v>
   <v>       0.50000000       0.50000000      -0.16666667 </v>
   <v>      -0.33333333       0.50000000      -0.16666667 </v>
   <v>      -0.16666667       0.50000000      -0.16666667 </v>
   <v>      -0.00000000      -0.33333333      -0.16666667 </v>
   <v>       0.16666667      -0.33333333      -0.16666667 </v>
   <v>       0.33333333      -0.33333333      -0.16666667 </v>
   <v>       0.50000000      -0.33333333      -0.16666667 </v>
   <v>      -0.33333333      -0.33333333      -0.16666667 </v>
   <v>      -0.16666667      -0.33333333      -0.16666667 </v>
   <v>      -0.00000000      -0.16666667      -0.16666667 </v>
   <v>       0.16666667      -0.16666667      -0.16666667 </v>
   <v>       0.33333333      -0.16666667      -0.16666667 </v>
   <v>       0.50000000      -0.16666667      -0.16666667 </v>
   <v>      -0.33333333      -0.16666667      -0.16666667 </v>
   <v>      -0.16666667      -0.16666667      -0.16666667 </v>
  </varray>
  <varray name="weights" >
   <v>       0.00462963 </v>
   <v>       0.00462963 </v>
   <v>       0.00462963 </v>
   <v>       0.00462963 </v>
   <v>       0.00462963 </v>
   <v>       0.00462963 </v>
   <v>       0.00462963 </v>
   <v>       0.00462963 </v>
   <v>       0.00462963 </v>
   <v>       0.00462963 </v>
   <v>       0.00462963 </v>
   <v>       0.00462963 </v>
   <v>       0.00462963 </v>
   <v>       0.00462963 </v>
   <v>       0.00462963 </v>
   <v>       0.00462963 </v>
   <v>       0.00462963 </v>
   <v>       0.00462963 </v>
   <v>       0.00462963 </v>
   <v>       0.00462963 </v>
   <v>       0.00462963 </v>
   <v>       0.00462963 </v>
   <v>       0.00462963 </v>
   <v>       0.00462963 </v>
   <v>       0.00462963 </v>
   <v>       0.00462963 </v>
   <v>       0.00462963 </v>
   <v>       0.00462963 </v>
   <v>       0.00462963 </v>
   <v>       0.00462963 </v>
   <v>       0.00462963 </v>
   <v>       0.00462963 </v>
   <v>       0.00462963 </v>
   <v>       0.00462963 </v>
   <v>       0.00462963 </v>
   <v>       0.00462963 </v>
   <v>       0.00462963 </v>
   <v>       0.00462963 </v>
   <v>       0.00462963 </v>
   <v>       0.00462963 </v>
   <v>       0.00462963 </v>
   <v>       0.00462963 </v>
   <v>       0.00462963 </v>
   <v>       0.00462963 </v>
   <v>       0.00462963 </v>
   <v>       0.00462963 </v>
   <v>       0.00462963 </v>
   <v>       0.00462963 </v>
   <v>       0.00462963 </v>
   <v>       0.00462963 </v>
   <v>       0.00462963 </v>
   <v>       0.00462963 </v>
   <v>       0.00462963 </v>
   <v>       0.00462963 </v>
   <v>       0.00462963 </v>
   <v>       0.00462963 </v>
   <v>       0.00462963 </v>
   <v>       0.00462963 </v>
   <v>       0.00462963 </v>
   <v>       0.00462963 </v>
   <v>       0.00462963 </v>
   <v>       0.00462963 </v>
   <v>       0.00462963 </v>
   <v>       0.00462963 </v>
   <v>       0.00462963 </v>
   <v>       0.00462963 </v>
   <v>       0.00462963 </v>
   <v>       0.00462963 </v>
   <v>       0.00462963 </v>
   <v>       0.00462963 </v>
   <v>       0.00462963 </v>
   <v>       0.00462963 </v>
   <v>       0.00462963 </v>
   <v>       0.00462963 </v>
   <v>       0.00462963 </v>
   <v>       0.00462963 </v>
   <v>       0.00462963 </v>
   <v>       0.00462963 </v>
   <v>       0.00462963 </v>
   <v>       0.00462963 </v>
   <v>       0.00462963 </v>
   <v>       0.00462963 </v>
   <v>       0.00462963 </v>
   <v>       0.00462963 </v>
   <v>       0.00462963 </v>
   <v>       0.00462963 </v>
   <v>       0.00462963 </v>
   <v>       0.00462963 </v>
   <v>       0.00462963 </v>
   <v>       0.00462963 </v>
   <v>       0.00462963 </v>
   <v>       0.00462963 </v>
   <v>       0.00462963 </v>
   <v>       0.00462963 </v>
   <v>       0.00462963 </v>
   <v>       0.00462963 </v>
   <v>       0.00462963 </v>
   <v>       0.00462963 </v>
   <v>       0.00462963 </v>
   <v>       0.00462963 </v>
   <v>       0.00462963 </v>
   <v>       0.00462963 </v>
   <v>       0.00462963 </v>
   <v>       0.00462963 </v>
   <v>       0.00462963 </v>
   <v>       0.00462963 </v>
   <v>       0.00462963 </v>
   <v>       0.00462963 </v>
   <v>       0.00462963 </v>
   <v>       0.00462963 </v>
   <v>       0.00462963 </v>
   <v>       0.00462963 </v>
   <v>       0.00462963 </v>
   <v>       0.00462963 </v>
   <v>       0.00462963 </v>
   <v>       0.00462963 </v>
   <v>       0.00462963 </v>
   <v>       0.00462963 </v>
   <v>       0.00462963 </v>
   <v>       0.00462963 </v>
   <v>       0.00462963 </v>
   <v>       0.00462963 </v>
   <v>       0.00462963 </v>
   <v>       0.00462963 </v>
   <v>       0.00462963 </v>
   <v>       0.00462963 </v>
   <v>       0.00462963 </v>
   <v>       0.00462963 </v>
   <v>       0.00462963 </v>
   <v>       0.00462963 </v>
   <v>       0.00462963 </v>
   <v>       0.00462963 </v>
   <v>       0.00462963 </v>
   <v>       0.00462963 </v>
   <v>       0.00462963 </v>
   <v>       0.00462963 </v>
   <v>       0.00462963 </v>
   <v>       0.00462963 </v>
   <v>       0.00462963 </v>
   <v>       0.00462963 </v>
   <v>       0.00462963 </v>
   <v>       0.00462963 </v>
   <v>       0.00462963 </v>
   <v>       0.00462963 </v>
   <v>       0.00462963 </v>
   <v>       0.00462963 </v>
   <v>       0.00462963 </v>
   <v>       0.00462963 </v>
   <v>       0.00462963 </v>
   <v>       0.00462963 </v>
   <v>       0.00462963 </v>
   <v>       0.00462963 </v>
   <v>       0.00462963 </v>
   <v>       0.00462963 </v>
   <v>       0.00462963 </v>
   <v>       0.00462963 </v>
   <v>       0.00462963 </v>
   <v>       0.00462963 </v>
   <v>       0.00462963 </v>
   <v>       0.00462963 </v>
   <v>       0.00462963 </v>
   <v>       0.00462963 </v>
   <v>       0.00462963 </v>
   <v>       0.00462963 </v>
   <v>       0.00462963 </v>
   <v>       0.00462963 </v>
   <v>       0.00462963 </v>
   <v>       0.00462963 </v>
   <v>       0.00462963 </v>
   <v>       0.00462963 </v>
   <v>       0.00462963 </v>
   <v>       0.00462963 </v>
   <v>       0.00462963 </v>
   <v>       0.00462963 </v>
   <v>       0.00462963 </v>
   <v>       0.00462963 </v>
   <v>       0.00462963 </v>
   <v>       0.00462963 </v>
   <v>       0.00462963 </v>
   <v>       0.00462963 </v>
   <v>       0.00462963 </v>
   <v>       0.00462963 </v>
   <v>       0.00462963 </v>
   <v>       0.00462963 </v>
   <v>       0.00462963 </v>
   <v>       0.00462963 </v>
   <v>       0.00462963 </v>
   <v>       0.00462963 </v>
   <v>       0.00462963 </v>
   <v>       0.00462963 </v>
   <v>       0.00462963 </v>
   <v>       0.00462963 </v>
   <v>       0.00462963 </v>
   <v>       0.00462963 </v>
   <v>       0.00462963 </v>
   <v>       0.00462963 </v>
   <v>       0.00462963 </v>
   <v>       0.00462963 </v>
   <v>       0.00462963 </v>
   <v>       0.00462963 </v>
   <v>       0.00462963 </v>
   <v>       0.00462963 </v>
   <v>       0.00462963 </v>
   <v>       0.00462963 </v>
   <v>       0.00462963 </v>
   <v>       0.00462963 </v>
   <v>       0.00462963 </v>
   <v>       0.00462963 </v>
   <v>       0.00462963 </v>
   <v>       0.00462963 </v>
   <v>       0.00462963 </v>
   <v>       0.00462963 </v>
   <v>       0.00462963 </v>
   <v>       0.00462963 </v>
   <v>       0.00462963 </v>
   <v>       0.00462963 </v>
  </varray>
 </kpoints>
 <parameters>
  <separator name="general" >
   <i type="string" name="SYSTEM">Og_FCC</i>
   <i type="logical" name="LCOMPAT"> F  </i>
  </separator>
  <separator name="electronic" >
   <i type="string" name="PREC">accura</i>
   <i name="ENMAX">    400.00000000</i>
   <i name="ENAUG">    715.60700000</i>
   <i name="EDIFF">      0.00000001</i>
   <i type="int" name="IALGO">    38</i>
   <i type="int" name="IWAVPR">    10</i>
   <i type="int" name="NBANDS">   196</i>
   <i name="NELECT">     18.00000000</i>
   <i type="int" name="TURBO">     0</i>
   <i type="int" name="IRESTART">     0</i>
   <i type="int" name="NREBOOT">     0</i>
   <i type="int" name="NMIN">     0</i>
   <i name="EREF">      0.00000000</i>
   <separator name="electronic smearing" >
    <i type="int" name="ISMEAR">     0</i>
    <i name="SIGMA">      0.05100000</i>
    <i name="KSPACING">      0.50000000</i>
    <i type="logical" name="KGAMMA"> T  </i>
   </separator>
   <separator name="electronic projectors" >
    <i type="logical" name="LREAL"> F  </i>
    <v name="ROPT">      0.00000000</v>
    <i type="int" name="LMAXPAW">  -100</i>
    <i type="int" name="LMAXMIX">     2</i>
    <i type="logical" name="NLSPLINE"> F  </i>
   </separator>
   <separator name="electronic startup" >
    <i type="int" name="ISTART">     1</i>
    <i type="int" name="ICHARG">     0</i>
    <i type="int" name="INIWAV">     1</i>
   </separator>
   <separator name="electronic spin" >
    <i type="int" name="ISPIN">     1</i>
    <i type="logical" name="LNONCOLLINEAR"> T  </i>
    <v name="MAGMOM">      1.00000000      1.00000000      1.00000000</v>
    <i name="NUPDOWN">     -1.00000000</i>
    <i type="logical" name="LSORBIT"> T  </i>
    <v name="SAXIS">      0.00000000      0.00000000      1.00000000</v>
    <i type="logical" name="LSPIRAL"> F  </i>
    <v name="QSPIRAL">      0.00000000      0.00000000      0.00000000</v>
    <i type="logical" name="LZEROZ"> F  </i>
   </separator>
   <separator name="electronic exchange-correlation" >
    <i type="logical" name="LASPH"> F  </i>
    <i type="logical" name="LMETAGGA"> F  </i>
   </separator>
   <separator name="electronic convergence" >
    <i type="int" name="NELM">     1</i>
    <i type="int" name="NELMDL">     0</i>
    <i type="int" name="NELMIN">     2</i>
    <i name="ENINI">    400.00000000</i>
    <separator name="electronic convergence detail" >
     <i type="logical" name="LDIAG"> T  </i>
     <i type="logical" name="LSUBROT"> F  </i>
     <i name="WEIMIN">      0.00000000</i>
     <i name="EBREAK">      0.00000000</i>
     <i name="DEPER">      0.30000000</i>
     <i type="int" name="NRMM">     4</i>
     <i name="TIME">      0.40000000</i>
    </separator>
   </separator>
   <separator name="electronic mixer" >
    <i name="AMIX">      0.40000000</i>
    <i name="BMIX">      1.00000000</i>
    <i name="AMIN">      0.10000000</i>
    <i name="AMIX_MAG">      1.60000000</i>
    <i name="BMIX_MAG">      1.00000000</i>
    <separator name="electronic mixer details" >
     <i type="int" name="IMIX">     1</i>
     <i type="logical" name="MIXFIRST"> F  </i>
     <i type="int" name="MAXMIX">    50</i>
     <i name="WC">    100.00000000</i>
     <i type="int" name="INIMIX">     1</i>
     <i type="int" name="MIXPRE">     1</i>
     <i type="int" name="MREMOVE">     5</i>
    </separator>
   </separator>
   <separator name="electronic dipolcorrection" >
    <i type="logical" name="LDIPOL"> F  </i>
    <i type="logical" name="LMONO"> F  </i>
    <i type="int" name="IDIPOL">     0</i>
    <i name="EPSILON">      1.00000000</i>
    <v name="DIPOL">   -100.00000000   -100.00000000   -100.00000000</v>
    <i name="EFIELD">      0.00000000</i>
   </separator>
  </separator>
  <separator name="grids" >
   <i type="int" name="NGX">    30</i>
   <i type="int" name="NGY">    30</i>
   <i type="int" name="NGZ">    30</i>
   <i type="int" name="NGXF">    60</i>
   <i type="int" name="NGYF">    60</i>
   <i type="int" name="NGZF">    60</i>
   <i type="logical" name="ADDGRID"> T  </i>
  </separator>
  <separator name="ionic" >
   <i type="int" name="NSW">     1</i>
   <i type="int" name="IBRION">    -1</i>
   <i type="int" name="MDALGO">     0</i>
   <i type="int" name="ISIF">     3</i>
   <i name="PSTRESS">      0.00000000</i>
   <i name="EDIFFG">      0.00001000</i>
   <i type="int" name="NFREE">     5</i>
   <i name="POTIM">      0.10000000</i>
   <i name="SMASS">     -3.00000000</i>
   <i name="SCALEE">      1.00000000</i>
  </separator>
  <separator name="ionic md" >
   <i name="TEBEG">      0.00010000</i>
   <i name="TEEND">      0.00010000</i>
   <i type="int" name="NBLOCK">     1</i>
   <i type="int" name="KBLOCK">     1</i>
   <i type="int" name="NPACO">   256</i>
   <i name="APACO">     16.00000000</i>
  </separator>
  <separator name="symmetry" >
   <i type="int" name="ISYM">     0</i>
   <i name="SYMPREC">      0.00000010</i>
  </separator>
  <separator name="dos" >
   <i type="int" name="LORBIT">     0</i>
   <v name="RWIGS">     -1.00000000</v>
   <i type="int" name="NEDOS">   301</i>
   <i name="EMIN">     10.00000000</i>
   <i name="EMAX">    -10.00000000</i>
   <i name="EFERMI">      0.00000000</i>
  </separator>
  <separator name="writing" >
   <i type="int" name="NWRITE">     1</i>
   <i type="logical" name="LWAVE"> T  </i>
   <i type="logical" name="LDOWNSAMPLE"> F  </i>
   <i type="logical" name="LCHARG"> F  </i>
   <i type="logical" name="LPARD"> F  </i>
   <i type="logical" name="LVTOT"> F  </i>
   <i type="logical" name="LVHAR"> F  </i>
   <i type="logical" name="LELF"> F  </i>
   <i type="logical" name="LOPTICS"> F  </i>
   <v name="STM">      0.00000000      0.00000000      0.00000000      0.00000000      0.00000000      0.00000000      0.00000000</v>
  </separator>
  <separator name="performance" >
   <i type="int" name="NPAR">     4</i>
   <i type="int" name="NSIM">     4</i>
   <i type="int" name="NBLK">    -1</i>
   <i type="logical" name="LPLANE"> T  </i>
   <i type="logical" name="LSCALAPACK"> T  </i>
   <i type="logical" name="LSCAAWARE"> F  </i>
   <i type="logical" name="LSCALU"> F  </i>
   <i type="logical" name="LASYNC"> F  </i>
   <i type="logical" name="LORBITALREAL"> F  </i>
  </separator>
  <separator name="miscellaneous" >
   <i type="int" name="IDIOT">     3</i>
   <i type="int" name="ISPECIAL">     0</i>
   <i type="logical" name="LMUSIC"> F  </i>
   <v name="POMASS">    220.17000000</v>
   <v name="DARWINR">      0.00000000</v>
   <v name="DARWINV">      1.00000000</v>
   <i type="logical" name="LCORR"> T  </i>
  </separator>
  <i type="logical" name="GGA_COMPAT"> F  </i>
  <i type="logical" name="LBERRY"> F  </i>
  <i type="int" name="ICORELEVEL">     0</i>
  <i type="logical" name="LDAU"> F  </i>
  <i type="int" name="I_CONSTRAINED_M">     0</i>
  <separator name="electronic exchange-correlation" >
   <i type="string" name="GGA">PE</i>
   <i type="int" name="VOSKOWN">     0</i>
   <i type="logical" name="LHFCALC"> T  </i>
   <i type="string" name="PRECFOCK">normal</i>
   <i type="logical" name="LSYMGRAD"> F  </i>
   <i type="logical" name="LHFONE"> F  </i>
   <i type="logical" name="LRHFCALC"> F  </i>
   <i type="logical" name="LTHOMAS"> F  </i>
   <i type="logical" name="LMODELHF"> F  </i>
   <i name="ENCUT4O">     -1.00000000</i>
   <i type="int" name="EXXOEP">     0</i>
   <i type="int" name="FOURORBIT">     0</i>
   <i name="AEXX">      1.00000000</i>
   <i name="HFALPHA">     -1.00000000</i>
   <i name="MCALPHA">      0.00000000</i>
   <i name="ALDAX">      0.00000000</i>
   <i name="AGGAX">      0.00000000</i>
   <i name="ALDAC">      0.00000000</i>
   <i name="AGGAC">      0.00000000</i>
   <i type="int" name="NKREDX">     1</i>
   <i type="int" name="NKREDY">     1</i>
   <i type="int" name="NKREDZ">     1</i>
   <i type="logical" name="SHIFTRED"> F  </i>
   <i type="logical" name="ODDONLY"> F  </i>
   <i type="logical" name="EVENONLY"> F  </i>
   <i type="int" name="LMAXFOCK">     4</i>
   <i type="int" name="NMAXFOCKAE">     1</i>
   <i type="logical" name="LFOCKAEDFT"> F  </i>
   <i name="HFSCREEN">      0.00000000</i>
   <i name="HFSCREENC">      0.00000000</i>
   <i type="int" name="NBANDSGWLOW">     1</i>
  </separator>
  <separator name="vdW DFT" >
   <i type="logical" name="LUSE_VDW"> F  </i>
   <i name="Zab_VDW">     -0.84910000</i>
   <i name="PARAM1">      0.12340000</i>
   <i name="PARAM2">      1.00000000</i>
   <i name="PARAM3">      0.00000000</i>
  </separator>
  <separator name="model GW" >
   <i type="int" name="MODEL_GW">     0</i>
   <i name="MODEL_EPS0">     36.50086281</i>
   <i name="MODEL_ALPHA">      1.00000000</i>
  </separator>
  <separator name="linear response parameters" >
   <i type="logical" name="LEPSILON"> F  </i>
   <i type="logical" name="LRPA"> F  </i>
   <i type="logical" name="LNABLA"> F  </i>
   <i type="logical" name="LVEL"> F  </i>
   <i type="int" name="KINTER">     0</i>
   <i name="CSHIFT">      0.10000000</i>
   <i name="OMEGAMAX">     -1.00000000</i>
   <i name="DEG_THRESHOLD">      0.00200000</i>
   <i name="RTIME">     -0.10000000</i>
   <i name="WPLASMAI">      0.00000000</i>
   <v name="DFIELD">      0.00000000      0.00000000      0.00000000</v>
   <v name="WPLASMA">      0.00000000      0.00000000      0.00000000      0.00000000      0.00000000      0.00000000      0.00000000      0.00000000      0.00000000</v>
  </separator>
  <separator name="orbital magnetization" >
   <i type="logical" name="NUCIND"> F  </i>
   <v name="MAGPOS">      0.00000000      0.00000000      0.00000000</v>
   <i type="logical" name="LNICSALL"> T  </i>
   <i type="logical" name="ORBITALMAG"> F  </i>
   <i type="logical" name="LMAGBLOCH"> F  </i>
   <i type="logical" name="LCHIMAG"> F  </i>
   <i type="logical" name="LGAUGE"> T  </i>
   <i type="int" name="MAGATOM">     0</i>
   <v name="MAGDIPOL">      0.00000000      0.00000000      0.00000000</v>
   <v name="AVECCONST">      0.00000000      0.00000000      0.00000000</v>
  </separator>
  <separator name="response functions" >
   <i type="logical" name="LADDER"> F  </i>
   <i type="logical" name="LRPAFORCE"> F  </i>
   <i type="logical" name="LFXC"> F  </i>
   <i type="logical" name="LHARTREE"> T  </i>
   <i type="int" name="IBSE">     0</i>
   <v type="int" name="KPOINT">    -1     0     0     0</v>
   <i type="logical" name="LTCTE"> F  </i>
   <i type="logical" name="LTETE"> F  </i>
   <i type="logical" name="LTRIPLET"> F  </i>
   <i type="logical" name="LFXCEPS"> F  </i>
   <i type="logical" name="LFXHEG"> F  </i>
   <i type="int" name="NATURALO">     2</i>
   <i type="logical" name="L2ORDER"> F  </i>
   <i type="logical" name="LMP2LT"> F  </i>
   <i type="logical" name="LUSEW"> F  </i>
   <i name="ENCUTGW">    266.66666667</i>
   <i name="ENCUTGWSOFT">    266.66666667</i>
   <i name="ENCUTLF">     -1.00000000</i>
   <i type="int" name="LMAXMP2">    -1</i>
   <i name="SCISSOR">      0.00000000</i>
   <i type="int" name="NOMEGA">    50</i>
   <i type="int" name="NOMEGAR">    50</i>
   <i type="int" name="NBANDSGW">    -1</i>
   <i type="int" name="NBANDSO">    -1</i>
   <i type="int" name="NBANDSV">    -1</i>
   <i type="int" name="NELM">     1</i>
   <i type="int" name="NELMHF">     1</i>
   <i type="int" name="DIM">     3</i>
   <i type="int" name="ANTIRES">     0</i>
   <i name="OMEGAMAX">    -30.00000000</i>
   <i name="OMEGAMIN">    -30.00000000</i>
   <i name="OMEGATL">   -200.00000000</i>
   <i type="int" name="OMEGAGRID">     0</i>
   <i name="CSHIFT">     -0.10000000</i>
   <i type="logical" name="SELFENERGY"> F  </i>
   <i type="logical" name="LSPECTRAL"> T  </i>
   <i type="logical" name="LSPECTRALGW"> F  </i>
   <i type="logical" name="LSINGLES"> F  </i>
   <i type="logical" name="LFERMIGW"> F  </i>
   <i type="logical" name="ODDONLYGW"> F  </i>
   <i type="logical" name="EVENONLYGW"> F  </i>
   <i type="int" name="NKREDLFX">     1</i>
   <i type="int" name="NKREDLFY">     1</i>
   <i type="int" name="NKREDLFZ">     1</i>
   <i type="int" name="MAXMEM">  2800</i>
   <i type="int" name="TELESCOPE">     0</i>
   <i type="int" name="TAUPAR">     1</i>
   <i type="int" name="OMEGAPAR">    -1</i>
   <i name="LAMBDA">      1.00000000</i>
  </separator>
  <separator name="External order field" >
   <i name="OFIELD_KAPPA">      0.00000000</i>
   <v name="OFIELD_K">      0.00000000      0.00000000      0.00000000</v>
   <i name="OFIELD_Q6_NEAR">      0.00000000</i>
   <i name="OFIELD_Q6_FAR">      0.00000000</i>
   <i name="OFIELD_A">      0.00000000</i>
  </separator>
 </parameters>
 <atominfo>
  <atoms>       1 </atoms>
  <types>       1 </types>
  <array name="atoms" >
   <dimension dim="1">ion</dimension>
   <field type="string">element</field>
   <field type="int">atomtype</field>
   <set>
    <rc><c>Rn</c><c>   1</c></rc>
   </set>
  </array>
  <array name="atomtypes" >
   <dimension dim="1">type</dimension>
   <field type="int">atomspertype</field>
   <field type="string">element</field>
   <field>mass</field>
   <field>valence</field>
   <field type="string">pseudopotential</field>
   <set>
    <rc><c>   1</c><c>Rn</c><c>    220.17000000</c><c>     18.00000000</c><c>  PAW_PBE Rn_d_GW 14Apr2014             </c></rc>
   </set>
  </array>
 </atominfo>
 <structure name="initialpos" >
  <crystal>
   <varray name="basis" >
    <v>       4.41457561       0.00000000       0.00000000 </v>
    <v>       2.20728780       3.82313462      -0.00000000 </v>
    <v>       2.20728780       1.27437821       3.60448589 </v>
   </varray>
   <i name="volume">     60.83477135 </i>
   <varray name="rec_basis" >
    <v>       0.22652234      -0.13078273      -0.09247736 </v>
    <v>       0.00000000       0.26156547      -0.09247736 </v>
    <v>      -0.00000000       0.00000000       0.27743208 </v>
   </varray>
  </crystal>
  <varray name="positions" >
   <v>       0.00000000       0.00000000       0.00000000 </v>
  </varray>
  <varray name="velocities" >
   <v>       0.00000000       0.00000000       0.00000000 </v>
  </varray>
 </structure>
 <kpoints>
  <generation param="Gamma">
   <v type="int" name="divisions">       6        6        6 </v>
   <v name="usershift">      0.00000000       0.00000000       0.00000000 </v>
   <v name="genvec1">      0.16666667      -0.00000000       0.00000000 </v>
   <v name="genvec2">      0.00000000       0.16666667       0.00000000 </v>
   <v name="genvec3">     -0.00000000       0.00000000       0.16666667 </v>
   <v name="shift">      0.00000000       0.00000000       0.00000000 </v>
  </generation>
  <varray name="kpointlist" >
   <v>       0.00000000       0.00000000       0.00000000 </v>
   <v>       0.16666667       0.00000000       0.00000000 </v>
   <v>       0.33333333       0.00000000       0.00000000 </v>
   <v>       0.50000000       0.00000000       0.00000000 </v>
   <v>      -0.33333333      -0.00000000      -0.00000000 </v>
   <v>      -0.16666667      -0.00000000      -0.00000000 </v>
   <v>       0.00000000       0.16666667      -0.00000000 </v>
   <v>       0.16666667       0.16666667       0.00000000 </v>
   <v>       0.33333333       0.16666667       0.00000000 </v>
   <v>       0.50000000       0.16666667       0.00000000 </v>
   <v>      -0.33333333       0.16666667      -0.00000000 </v>
   <v>      -0.16666667       0.16666667      -0.00000000 </v>
   <v>       0.00000000       0.33333333       0.00000000 </v>
   <v>       0.16666667       0.33333333       0.00000000 </v>
   <v>       0.33333333       0.33333333       0.00000000 </v>
   <v>       0.50000000       0.33333333       0.00000000 </v>
   <v>      -0.33333333       0.33333333      -0.00000000 </v>
   <v>      -0.16666667       0.33333333      -0.00000000 </v>
   <v>       0.00000000       0.50000000       0.00000000 </v>
   <v>       0.16666667       0.50000000       0.00000000 </v>
   <v>       0.33333333       0.50000000       0.00000000 </v>
   <v>       0.50000000       0.50000000       0.00000000 </v>
   <v>      -0.33333333       0.50000000      -0.00000000 </v>
   <v>      -0.16666667       0.50000000      -0.00000000 </v>
   <v>       0.00000000      -0.33333333       0.00000000 </v>
   <v>       0.16666667      -0.33333333       0.00000000 </v>
   <v>       0.33333333      -0.33333333       0.00000000 </v>
   <v>       0.50000000      -0.33333333       0.00000000 </v>
   <v>      -0.33333333      -0.33333333      -0.00000000 </v>
   <v>      -0.16666667      -0.33333333      -0.00000000 </v>
   <v>       0.00000000      -0.16666667       0.00000000 </v>
   <v>       0.16666667      -0.16666667       0.00000000 </v>
   <v>       0.33333333      -0.16666667       0.00000000 </v>
   <v>       0.50000000      -0.16666667       0.00000000 </v>
   <v>      -0.33333333      -0.16666667      -0.00000000 </v>
   <v>      -0.16666667      -0.16666667      -0.00000000 </v>
   <v>       0.00000000      -0.00000000       0.16666667 </v>
   <v>       0.16666667       0.00000000       0.16666667 </v>
   <v>       0.33333333       0.00000000       0.16666667 </v>
   <v>       0.50000000       0.00000000       0.16666667 </v>
   <v>      -0.33333333      -0.00000000       0.16666667 </v>
   <v>      -0.16666667      -0.00000000       0.16666667 </v>
   <v>       0.00000000       0.16666667       0.16666667 </v>
   <v>       0.16666667       0.16666667       0.16666667 </v>
   <v>       0.33333333       0.16666667       0.16666667 </v>
   <v>       0.50000000       0.16666667       0.16666667 </v>
   <v>      -0.33333333       0.16666667       0.16666667 </v>
   <v>      -0.16666667       0.16666667       0.16666667 </v>
   <v>       0.00000000       0.33333333       0.16666667 </v>
   <v>       0.16666667       0.33333333       0.16666667 </v>
   <v>       0.33333333       0.33333333       0.16666667 </v>
   <v>       0.50000000       0.33333333       0.16666667 </v>
   <v>      -0.33333333       0.33333333       0.16666667 </v>
   <v>      -0.16666667       0.33333333       0.16666667 </v>
   <v>       0.00000000       0.50000000       0.16666667 </v>
   <v>       0.16666667       0.50000000       0.16666667 </v>
   <v>       0.33333333       0.50000000       0.16666667 </v>
   <v>       0.50000000       0.50000000       0.16666667 </v>
   <v>      -0.33333333       0.50000000       0.16666667 </v>
   <v>      -0.16666667       0.50000000       0.16666667 </v>
   <v>      -0.00000000      -0.33333333       0.16666667 </v>
   <v>       0.16666667      -0.33333333       0.16666667 </v>
   <v>       0.33333333      -0.33333333       0.16666667 </v>
   <v>       0.50000000      -0.33333333       0.16666667 </v>
   <v>      -0.33333333      -0.33333333       0.16666667 </v>
   <v>      -0.16666667      -0.33333333       0.16666667 </v>
   <v>      -0.00000000      -0.16666667       0.16666667 </v>
   <v>       0.16666667      -0.16666667       0.16666667 </v>
   <v>       0.33333333      -0.16666667       0.16666667 </v>
   <v>       0.50000000      -0.16666667       0.16666667 </v>
   <v>      -0.33333333      -0.16666667       0.16666667 </v>
   <v>      -0.16666667      -0.16666667       0.16666667 </v>
   <v>      -0.00000000      -0.00000000       0.33333333 </v>
   <v>       0.16666667       0.00000000       0.33333333 </v>
   <v>       0.33333333       0.00000000       0.33333333 </v>
   <v>       0.50000000       0.00000000       0.33333333 </v>
   <v>      -0.33333333      -0.00000000       0.33333333 </v>
   <v>      -0.16666667      -0.00000000       0.33333333 </v>
   <v>      -0.00000000       0.16666667       0.33333333 </v>
   <v>       0.16666667       0.16666667       0.33333333 </v>
   <v>       0.33333333       0.16666667       0.33333333 </v>
   <v>       0.50000000       0.16666667       0.33333333 </v>
   <v>      -0.33333333       0.16666667       0.33333333 </v>
   <v>      -0.16666667       0.16666667       0.33333333 </v>
   <v>      -0.00000000       0.33333333       0.33333333 </v>
   <v>       0.16666667       0.33333333       0.33333333 </v>
   <v>       0.33333333       0.33333333       0.33333333 </v>
   <v>       0.50000000       0.33333333       0.33333333 </v>
   <v>      -0.33333333       0.33333333       0.33333333 </v>
   <v>      -0.16666667       0.33333333       0.33333333 </v>
   <v>       0.00000000       0.50000000       0.33333333 </v>
   <v>       0.16666667       0.50000000       0.33333333 </v>
   <v>       0.33333333       0.50000000       0.33333333 </v>
   <v>       0.50000000       0.50000000       0.33333333 </v>
   <v>      -0.33333333       0.50000000       0.33333333 </v>
   <v>      -0.16666667       0.50000000       0.33333333 </v>
   <v>      -0.00000000      -0.33333333       0.33333333 </v>
   <v>       0.16666667      -0.33333333       0.33333333 </v>
   <v>       0.33333333      -0.33333333       0.33333333 </v>
   <v>       0.50000000      -0.33333333       0.33333333 </v>
   <v>      -0.33333333      -0.33333333       0.33333333 </v>
   <v>      -0.16666667      -0.33333333       0.33333333 </v>
   <v>      -0.00000000      -0.16666667       0.33333333 </v>
   <v>       0.16666667      -0.16666667       0.33333333 </v>
   <v>       0.33333333      -0.16666667       0.33333333 </v>
   <v>       0.50000000      -0.16666667       0.33333333 </v>
   <v>      -0.33333333      -0.16666667       0.33333333 </v>
   <v>      -0.16666667      -0.16666667       0.33333333 </v>
   <v>      -0.00000000      -0.00000000       0.50000000 </v>
   <v>       0.16666667       0.00000000       0.50000000 </v>
   <v>       0.33333333       0.00000000       0.50000000 </v>
   <v>       0.50000000       0.00000000       0.50000000 </v>
   <v>      -0.33333333      -0.00000000       0.50000000 </v>
   <v>      -0.16666667      -0.00000000       0.50000000 </v>
   <v>      -0.00000000       0.16666667       0.50000000 </v>
   <v>       0.16666667       0.16666667       0.50000000 </v>
   <v>       0.33333333       0.16666667       0.50000000 </v>
   <v>       0.50000000       0.16666667       0.50000000 </v>
   <v>      -0.33333333       0.16666667       0.50000000 </v>
   <v>      -0.16666667       0.16666667       0.50000000 </v>
   <v>      -0.00000000       0.33333333       0.50000000 </v>
   <v>       0.16666667       0.33333333       0.50000000 </v>
   <v>       0.33333333       0.33333333       0.50000000 </v>
   <v>       0.50000000       0.33333333       0.50000000 </v>
   <v>      -0.33333333       0.33333333       0.50000000 </v>
   <v>      -0.16666667       0.33333333       0.50000000 </v>
   <v>      -0.00000000       0.50000000       0.50000000 </v>
   <v>       0.16666667       0.50000000       0.50000000 </v>
   <v>       0.33333333       0.50000000       0.50000000 </v>
   <v>       0.50000000       0.50000000       0.50000000 </v>
   <v>      -0.33333333       0.50000000       0.50000000 </v>
   <v>      -0.16666667       0.50000000       0.50000000 </v>
   <v>       0.00000000      -0.33333333       0.50000000 </v>
   <v>       0.16666667      -0.33333333       0.50000000 </v>
   <v>       0.33333333      -0.33333333       0.50000000 </v>
   <v>       0.50000000      -0.33333333       0.50000000 </v>
   <v>      -0.33333333      -0.33333333       0.50000000 </v>
   <v>      -0.16666667      -0.33333333       0.50000000 </v>
   <v>       0.00000000      -0.16666667       0.50000000 </v>
   <v>       0.16666667      -0.16666667       0.50000000 </v>
   <v>       0.33333333      -0.16666667       0.50000000 </v>
   <v>       0.50000000      -0.16666667       0.50000000 </v>
   <v>      -0.33333333      -0.16666667       0.50000000 </v>
   <v>      -0.16666667      -0.16666667       0.50000000 </v>
   <v>       0.00000000       0.00000000      -0.33333333 </v>
   <v>       0.16666667       0.00000000      -0.33333333 </v>
   <v>       0.33333333       0.00000000      -0.33333333 </v>
   <v>       0.50000000       0.00000000      -0.33333333 </v>
   <v>      -0.33333333      -0.00000000      -0.33333333 </v>
   <v>      -0.16666667      -0.00000000      -0.33333333 </v>
   <v>       0.00000000       0.16666667      -0.33333333 </v>
   <v>       0.16666667       0.16666667      -0.33333333 </v>
   <v>       0.33333333       0.16666667      -0.33333333 </v>
   <v>       0.50000000       0.16666667      -0.33333333 </v>
   <v>      -0.33333333       0.16666667      -0.33333333 </v>
   <v>      -0.16666667       0.16666667      -0.33333333 </v>
   <v>       0.00000000       0.33333333      -0.33333333 </v>
   <v>       0.16666667       0.33333333      -0.33333333 </v>
   <v>       0.33333333       0.33333333      -0.33333333 </v>
   <v>       0.50000000       0.33333333      -0.33333333 </v>
   <v>      -0.33333333       0.33333333      -0.33333333 </v>
   <v>      -0.16666667       0.33333333      -0.33333333 </v>
   <v>       0.00000000       0.50000000      -0.33333333 </v>
   <v>       0.16666667       0.50000000      -0.33333333 </v>
   <v>       0.33333333       0.50000000      -0.33333333 </v>
   <v>       0.50000000       0.50000000      -0.33333333 </v>
   <v>      -0.33333333       0.50000000      -0.33333333 </v>
   <v>      -0.16666667       0.50000000      -0.33333333 </v>
   <v>       0.00000000      -0.33333333      -0.33333333 </v>
   <v>       0.16666667      -0.33333333      -0.33333333 </v>
   <v>       0.33333333      -0.33333333      -0.33333333 </v>
   <v>       0.50000000      -0.33333333      -0.33333333 </v>
   <v>      -0.33333333      -0.33333333      -0.33333333 </v>
   <v>      -0.16666667      -0.33333333      -0.33333333 </v>
   <v>       0.00000000      -0.16666667      -0.33333333 </v>
   <v>       0.16666667      -0.16666667      -0.33333333 </v>
   <v>       0.33333333      -0.16666667      -0.33333333 </v>
   <v>       0.50000000      -0.16666667      -0.33333333 </v>
   <v>      -0.33333333      -0.16666667      -0.33333333 </v>
   <v>      -0.16666667      -0.16666667      -0.33333333 </v>
   <v>       0.00000000       0.00000000      -0.16666667 </v>
   <v>       0.16666667       0.00000000      -0.16666667 </v>
   <v>       0.33333333       0.00000000      -0.16666667 </v>
   <v>       0.50000000       0.00000000      -0.16666667 </v>
   <v>      -0.33333333      -0.00000000      -0.16666667 </v>
   <v>      -0.16666667      -0.00000000      -0.16666667 </v>
   <v>       0.00000000       0.16666667      -0.16666667 </v>
   <v>       0.16666667       0.16666667      -0.16666667 </v>
   <v>       0.33333333       0.16666667      -0.16666667 </v>
   <v>       0.50000000       0.16666667      -0.16666667 </v>
   <v>      -0.33333333       0.16666667      -0.16666667 </v>
   <v>      -0.16666667       0.16666667      -0.16666667 </v>
   <v>       0.00000000       0.33333333      -0.16666667 </v>
   <v>       0.16666667       0.33333333      -0.16666667 </v>
   <v>       0.33333333       0.33333333      -0.16666667 </v>
   <v>       0.50000000       0.33333333      -0.16666667 </v>
   <v>      -0.33333333       0.33333333      -0.16666667 </v>
   <v>      -0.16666667       0.33333333      -0.16666667 </v>
   <v>      -0.00000000       0.50000000      -0.16666667 </v>
   <v>       0.16666667       0.50000000      -0.16666667 </v>
   <v>       0.33333333       0.50000000      -0.16666667 </v>
   <v>       0.50000000       0.50000000      -0.16666667 </v>
   <v>      -0.33333333       0.50000000      -0.16666667 </v>
   <v>      -0.16666667       0.50000000      -0.16666667 </v>
   <v>      -0.00000000      -0.33333333      -0.16666667 </v>
   <v>       0.16666667      -0.33333333      -0.16666667 </v>
   <v>       0.33333333      -0.33333333      -0.16666667 </v>
   <v>       0.50000000      -0.33333333      -0.16666667 </v>
   <v>      -0.33333333      -0.33333333      -0.16666667 </v>
   <v>      -0.16666667      -0.33333333      -0.16666667 </v>
   <v>      -0.00000000      -0.16666667      -0.16666667 </v>
   <v>       0.16666667      -0.16666667      -0.16666667 </v>
   <v>       0.33333333      -0.16666667      -0.16666667 </v>
   <v>       0.50000000      -0.16666667      -0.16666667 </v>
   <v>      -0.33333333      -0.16666667      -0.16666667 </v>
   <v>      -0.16666667      -0.16666667      -0.16666667 </v>
  </varray>
  <varray name="weights" >
   <v>       0.00462963 </v>
   <v>       0.00462963 </v>
   <v>       0.00462963 </v>
   <v>       0.00462963 </v>
   <v>       0.00462963 </v>
   <v>       0.00462963 </v>
   <v>       0.00462963 </v>
   <v>       0.00462963 </v>
   <v>       0.00462963 </v>
   <v>       0.00462963 </v>
   <v>       0.00462963 </v>
   <v>       0.00462963 </v>
   <v>       0.00462963 </v>
   <v>       0.00462963 </v>
   <v>       0.00462963 </v>
   <v>       0.00462963 </v>
   <v>       0.00462963 </v>
   <v>       0.00462963 </v>
   <v>       0.00462963 </v>
   <v>       0.00462963 </v>
   <v>       0.00462963 </v>
   <v>       0.00462963 </v>
   <v>       0.00462963 </v>
   <v>       0.00462963 </v>
   <v>       0.00462963 </v>
   <v>       0.00462963 </v>
   <v>       0.00462963 </v>
   <v>       0.00462963 </v>
   <v>       0.00462963 </v>
   <v>       0.00462963 </v>
   <v>       0.00462963 </v>
   <v>       0.00462963 </v>
   <v>       0.00462963 </v>
   <v>       0.00462963 </v>
   <v>       0.00462963 </v>
   <v>       0.00462963 </v>
   <v>       0.00462963 </v>
   <v>       0.00462963 </v>
   <v>       0.00462963 </v>
   <v>       0.00462963 </v>
   <v>       0.00462963 </v>
   <v>       0.00462963 </v>
   <v>       0.00462963 </v>
   <v>       0.00462963 </v>
   <v>       0.00462963 </v>
   <v>       0.00462963 </v>
   <v>       0.00462963 </v>
   <v>       0.00462963 </v>
   <v>       0.00462963 </v>
   <v>       0.00462963 </v>
   <v>       0.00462963 </v>
   <v>       0.00462963 </v>
   <v>       0.00462963 </v>
   <v>       0.00462963 </v>
   <v>       0.00462963 </v>
   <v>       0.00462963 </v>
   <v>       0.00462963 </v>
   <v>       0.00462963 </v>
   <v>       0.00462963 </v>
   <v>       0.00462963 </v>
   <v>       0.00462963 </v>
   <v>       0.00462963 </v>
   <v>       0.00462963 </v>
   <v>       0.00462963 </v>
   <v>       0.00462963 </v>
   <v>       0.00462963 </v>
   <v>       0.00462963 </v>
   <v>       0.00462963 </v>
   <v>       0.00462963 </v>
   <v>       0.00462963 </v>
   <v>       0.00462963 </v>
   <v>       0.00462963 </v>
   <v>       0.00462963 </v>
   <v>       0.00462963 </v>
   <v>       0.00462963 </v>
   <v>       0.00462963 </v>
   <v>       0.00462963 </v>
   <v>       0.00462963 </v>
   <v>       0.00462963 </v>
   <v>       0.00462963 </v>
   <v>       0.00462963 </v>
   <v>       0.00462963 </v>
   <v>       0.00462963 </v>
   <v>       0.00462963 </v>
   <v>       0.00462963 </v>
   <v>       0.00462963 </v>
   <v>       0.00462963 </v>
   <v>       0.00462963 </v>
   <v>       0.00462963 </v>
   <v>       0.00462963 </v>
   <v>       0.00462963 </v>
   <v>       0.00462963 </v>
   <v>       0.00462963 </v>
   <v>       0.00462963 </v>
   <v>       0.00462963 </v>
   <v>       0.00462963 </v>
   <v>       0.00462963 </v>
   <v>       0.00462963 </v>
   <v>       0.00462963 </v>
   <v>       0.00462963 </v>
   <v>       0.00462963 </v>
   <v>       0.00462963 </v>
   <v>       0.00462963 </v>
   <v>       0.00462963 </v>
   <v>       0.00462963 </v>
   <v>       0.00462963 </v>
   <v>       0.00462963 </v>
   <v>       0.00462963 </v>
   <v>       0.00462963 </v>
   <v>       0.00462963 </v>
   <v>       0.00462963 </v>
   <v>       0.00462963 </v>
   <v>       0.00462963 </v>
   <v>       0.00462963 </v>
   <v>       0.00462963 </v>
   <v>       0.00462963 </v>
   <v>       0.00462963 </v>
   <v>       0.00462963 </v>
   <v>       0.00462963 </v>
   <v>       0.00462963 </v>
   <v>       0.00462963 </v>
   <v>       0.00462963 </v>
   <v>       0.00462963 </v>
   <v>       0.00462963 </v>
   <v>       0.00462963 </v>
   <v>       0.00462963 </v>
   <v>       0.00462963 </v>
   <v>       0.00462963 </v>
   <v>       0.00462963 </v>
   <v>       0.00462963 </v>
   <v>       0.00462963 </v>
   <v>       0.00462963 </v>
   <v>       0.00462963 </v>
   <v>       0.00462963 </v>
   <v>       0.00462963 </v>
   <v>       0.00462963 </v>
   <v>       0.00462963 </v>
   <v>       0.00462963 </v>
   <v>       0.00462963 </v>
   <v>       0.00462963 </v>
   <v>       0.00462963 </v>
   <v>       0.00462963 </v>
   <v>       0.00462963 </v>
   <v>       0.00462963 </v>
   <v>       0.00462963 </v>
   <v>       0.00462963 </v>
   <v>       0.00462963 </v>
   <v>       0.00462963 </v>
   <v>       0.00462963 </v>
   <v>       0.00462963 </v>
   <v>       0.00462963 </v>
   <v>       0.00462963 </v>
   <v>       0.00462963 </v>
   <v>       0.00462963 </v>
   <v>       0.00462963 </v>
   <v>       0.00462963 </v>
   <v>       0.00462963 </v>
   <v>       0.00462963 </v>
   <v>       0.00462963 </v>
   <v>       0.00462963 </v>
   <v>       0.00462963 </v>
   <v>       0.00462963 </v>
   <v>       0.00462963 </v>
   <v>       0.00462963 </v>
   <v>       0.00462963 </v>
   <v>       0.00462963 </v>
   <v>       0.00462963 </v>
   <v>       0.00462963 </v>
   <v>       0.00462963 </v>
   <v>       0.00462963 </v>
   <v>       0.00462963 </v>
   <v>       0.00462963 </v>
   <v>       0.00462963 </v>
   <v>       0.00462963 </v>
   <v>       0.00462963 </v>
   <v>       0.00462963 </v>
   <v>       0.00462963 </v>
   <v>       0.00462963 </v>
   <v>       0.00462963 </v>
   <v>       0.00462963 </v>
   <v>       0.00462963 </v>
   <v>       0.00462963 </v>
   <v>       0.00462963 </v>
   <v>       0.00462963 </v>
   <v>       0.00462963 </v>
   <v>       0.00462963 </v>
   <v>       0.00462963 </v>
   <v>       0.00462963 </v>
   <v>       0.00462963 </v>
   <v>       0.00462963 </v>
   <v>       0.00462963 </v>
   <v>       0.00462963 </v>
   <v>       0.00462963 </v>
   <v>       0.00462963 </v>
   <v>       0.00462963 </v>
   <v>       0.00462963 </v>
   <v>       0.00462963 </v>
   <v>       0.00462963 </v>
   <v>       0.00462963 </v>
   <v>       0.00462963 </v>
   <v>       0.00462963 </v>
   <v>       0.00462963 </v>
   <v>       0.00462963 </v>
   <v>       0.00462963 </v>
   <v>       0.00462963 </v>
   <v>       0.00462963 </v>
   <v>       0.00462963 </v>
   <v>       0.00462963 </v>
   <v>       0.00462963 </v>
   <v>       0.00462963 </v>
   <v>       0.00462963 </v>
   <v>       0.00462963 </v>
   <v>       0.00462963 </v>
   <v>       0.00462963 </v>
   <v>       0.00462963 </v>
   <v>       0.00462963 </v>
  </varray>
 </kpoints>
 <dielectricfunction comment="HEAD OF MICROSCOPIC DIELECTRIC TENSOR (INDEPENDENT PARTICLE)">
  <imag>
   <array>
    <dimension dim="1">gridpoints</dimension>
    <field>energy</field>
    <field>xx</field>
    <field>yy</field>
    <field>zz</field>
    <field>xy</field>
    <field>yz</field>
    <field>zx</field>
    <set>
     <r>     0.0000     0.0000    -0.0000     0.0000    -0.0000    -0.0000    -0.0000 </r>
     <r>     1.5105     0.0335     0.0335     0.0335     0.0000    -0.0000    -0.0000 </r>
     <r>     3.0159     0.0774     0.0774     0.0774     0.0000     0.0000    -0.0000 </r>
     <r>     4.5114     0.1563     0.1563     0.1563     0.0000     0.0000     0.0000 </r>
     <r>     5.9924     0.3443     0.3443     0.3443     0.0000     0.0000     0.0000 </r>
     <r>     7.4555     0.7868     0.7868     0.7868     0.0000     0.0000     0.0000 </r>
     <r>     8.8979     1.6046     1.6046     1.6046     0.0000    -0.0000     0.0000 </r>
     <r>    10.3177     2.5669     2.5669     2.5669    -0.0000    -0.0000    -0.0000 </r>
     <r>    11.7139     2.8959     2.8959     2.8959    -0.0000     0.0000    -0.0000 </r>
     <r>    13.0864     2.5984     2.5984     2.5984    -0.0000     0.0000     0.0000 </r>
     <r>    14.4359     2.1447     2.1447     2.1447     0.0000     0.0000     0.0000 </r>
     <r>    15.7638     1.7113     1.7113     1.7113     0.0000    -0.0000    -0.0000 </r>
     <r>    17.0718     1.3132     1.3132     1.3132    -0.0000    -0.0000    -0.0000 </r>
     <r>    18.3625     0.9658     0.9658     0.9658     0.0000    -0.0000    -0.0000 </r>
     <r>    19.6386     0.8102     0.8102     0.8102     0.0000    -0.0000     0.0000 </r>
     <r>    20.9034     0.6908     0.6908     0.6908     0.0000     0.0000     0.0000 </r>
     <r>    22.1603     0.5767     0.5767     0.5767     0.0000    -0.0000     0.0000 </r>
     <r>    23.4132     0.5283     0.5283     0.5283     0.0000    -0.0000    -0.0000 </r>
     <r>    24.6660     0.3993     0.3993     0.3993    -0.0000    -0.0000    -0.0000 </r>
     <r>    25.9231     0.2948     0.2948     0.2948    -0.0000    -0.0000    -0.0000 </r>
     <r>    27.1891     0.2179     0.2179     0.2179    -0.0000    -0.0000    -0.0000 </r>
     <r>    28.4689     0.1625     0.1625     0.1625    -0.0000    -0.0000    -0.0000 </r>
     <r>    29.7681     0.1342     0.1342     0.1342     0.0000    -0.0000    -0.0000 </r>
     <r>    31.0922     0.1165     0.1165     0.1165     0.0000     0.0000     0.0000 </r>
     <r>    32.4479     0.1032     0.1032     0.1032    -0.0000     0.0000    -0.0000 </r>
     <r>    33.8422     0.0873     0.0873     0.0873    -0.0000    -0.0000    -0.0000 </r>
     <r>    35.2830     0.0726     0.0726     0.0726     0.0000    -0.0000    -0.0000 </r>
     <r>    36.7789     0.0613     0.0613     0.0613     0.0000    -0.0000    -0.0000 </r>
     <r>    38.3403     0.0493     0.0493     0.0493     0.0000     0.0000    -0.0000 </r>
     <r>    39.9789     0.0410     0.0410     0.0410    -0.0000     0.0000     0.0000 </r>
     <r>    41.7078     0.0337     0.0337     0.0337     0.0000     0.0000     0.0000 </r>
     <r>    43.5429     0.0276     0.0276     0.0276    -0.0000    -0.0000    -0.0000 </r>
     <r>    45.5026     0.0241     0.0241     0.0241    -0.0000    -0.0000    -0.0000 </r>
     <r>    47.6089     0.0229     0.0229     0.0229    -0.0000    -0.0000    -0.0000 </r>
     <r>    49.8888     0.0252     0.0252     0.0252     0.0000     0.0000     0.0000 </r>
     <r>    52.3742     0.0327     0.0327     0.0327     0.0000     0.0000     0.0000 </r>
     <r>    55.1049     0.0461     0.0461     0.0461     0.0000     0.0000     0.0000 </r>
     <r>    58.1308     0.0790     0.0790     0.0790     0.0000     0.0000     0.0000 </r>
     <r>    61.5139     0.1802     0.1802     0.1802    -0.0000    -0.0000    -0.0000 </r>
     <r>    65.3344     0.2883     0.2883     0.2883    -0.0000    -0.0000    -0.0000 </r>
     <r>    69.6961     0.2987     0.2987     0.2987     0.0000     0.0000     0.0000 </r>
     <r>    74.7362     0.2114     0.2114     0.2114     0.0000     0.0000     0.0000 </r>
     <r>    80.6403     0.1313     0.1313     0.1313     0.0000     0.0000     0.0000 </r>
     <r>    87.6649     0.0809     0.0809     0.0809     0.0000    -0.0000    -0.0000 </r>
     <r>    96.1748     0.0450     0.0450     0.0450     0.0000    -0.0000    -0.0000 </r>
     <r>   106.7068     0.0250     0.0250     0.0250     0.0000    -0.0000    -0.0000 </r>
     <r>   120.0836     0.0072     0.0072     0.0072     0.0000    -0.0000    -0.0000 </r>
     <r>   137.6331     0.0011     0.0011     0.0011    -0.0000    -0.0000    -0.0000 </r>
     <r>   161.6463     0.0004     0.0004     0.0004    -0.0000    -0.0000    -0.0000 </r>
     <r>   196.4426     0.0002     0.0002     0.0002    -0.0000    -0.0000    -0.0000 </r>
    </set>
   </array>
  </imag>
  <real>
   <array>
    <dimension dim="1">gridpoints</dimension>
    <field>energy</field>
    <field>xx</field>
    <field>yy</field>
    <field>zz</field>
    <field>xy</field>
    <field>yz</field>
    <field>zx</field>
    <set>
     <r>     0.0000     2.5581     2.5581     2.5581     0.0000     0.0000     0.0000 </r>
     <r>     1.5105     2.5833     2.5833     2.5833     0.0000     0.0000     0.0000 </r>
     <r>     3.0159     2.6650     2.6650     2.6650     0.0000     0.0000     0.0000 </r>
     <r>     4.5114     2.8248     2.8248     2.8248     0.0000     0.0000     0.0000 </r>
     <r>     5.9924     3.0862     3.0862     3.0862     0.0000    -0.0000     0.0000 </r>
     <r>     7.4555     3.3922     3.3922     3.3922     0.0000    -0.0000     0.0000 </r>
     <r>     8.8979     3.4945     3.4945     3.4945    -0.0000    -0.0000    -0.0000 </r>
     <r>    10.3177     2.9241     2.9241     2.9241    -0.0000     0.0000    -0.0000 </r>
     <r>    11.7139     1.8477     1.8477     1.8477     0.0000     0.0000     0.0000 </r>
     <r>    13.0864     0.9859     0.9859     0.9859     0.0000     0.0000     0.0000 </r>
     <r>    14.4359     0.5124     0.5124     0.5124     0.0000    -0.0000    -0.0000 </r>
     <r>    15.7638     0.2665     0.2665     0.2665    -0.0000    -0.0000    -0.0000 </r>
     <r>    17.0718     0.1577     0.1577     0.1577     0.0000    -0.0000    -0.0000 </r>
     <r>    18.3625     0.2145     0.2145     0.2145     0.0000     0.0000     0.0000 </r>
     <r>    19.6386     0.3168     0.3168     0.3168     0.0000     0.0000     0.0000 </r>
     <r>    20.9034     0.3441     0.3441     0.3441     0.0000    -0.0000    -0.0000 </r>
     <r>    22.1603     0.3981     0.3981     0.3981    -0.0000    -0.0000    -0.0000 </r>
     <r>    23.4132     0.4061     0.4061     0.4061    -0.0000    -0.0000    -0.0000 </r>
     <r>    24.6660     0.3984     0.3984     0.3984    -0.0000     0.0000    -0.0000 </r>
     <r>    25.9231     0.4557     0.4557     0.4557    -0.0000    -0.0000    -0.0000 </r>
     <r>    27.1891     0.5158     0.5158     0.5158     0.0000     0.0000     0.0000 </r>
     <r>    28.4689     0.5840     0.5840     0.5840     0.0000     0.0000     0.0000 </r>
     <r>    29.7681     0.6456     0.6456     0.6456     0.0000     0.0000     0.0000 </r>
     <r>    31.0922     0.6923     0.6923     0.6923     0.0000     0.0000     0.0000 </r>
     <r>    32.4479     0.7281     0.7281     0.7281     0.0000    -0.0000    -0.0000 </r>
     <r>    33.8422     0.7578     0.7578     0.7578     0.0000     0.0000     0.0000 </r>
     <r>    35.2830     0.7878     0.7878     0.7878     0.0000     0.0000     0.0000 </r>
     <r>    36.7789     0.8152     0.8152     0.8152     0.0000     0.0000     0.0000 </r>
     <r>    38.3403     0.8417     0.8417     0.8417     0.0000     0.0000     0.0000 </r>
     <r>    39.9789     0.8684     0.8684     0.8684     0.0000     0.0000     0.0000 </r>
     <r>    41.7078     0.8932     0.8932     0.8932     0.0000    -0.0000    -0.0000 </r>
     <r>    43.5429     0.9189     0.9189     0.9189     0.0000    -0.0000     0.0000 </r>
     <r>    45.5026     0.9452     0.9452     0.9452     0.0000     0.0000     0.0000 </r>
     <r>    47.6089     0.9723     0.9723     0.9723     0.0000     0.0000     0.0000 </r>
     <r>    49.8888     1.0015     1.0015     1.0015     0.0000     0.0000     0.0000 </r>
     <r>    52.3742     1.0326     1.0326     1.0326     0.0000     0.0000     0.0000 </r>
     <r>    55.1049     1.0684     1.0684     1.0684    -0.0000    -0.0000    -0.0000 </r>
     <r>    58.1308     1.1209     1.1209     1.1209    -0.0000    -0.0000    -0.0000 </r>
     <r>    61.5139     1.1464     1.1464     1.1464    -0.0000    -0.0000    -0.0000 </r>
     <r>    65.3344     1.0734     1.0734     1.0734     0.0000     0.0000     0.0000 </r>
     <r>    69.6961     0.9406     0.9406     0.9406     0.0000     0.0000     0.0000 </r>
     <r>    74.7362     0.8573     0.8573     0.8573    -0.0000    -0.0000    -0.0000 </r>
     <r>    80.6403     0.8494     0.8494     0.8494    -0.0000    -0.0000    -0.0000 </r>
     <r>    87.6649     0.8661     0.8661     0.8661    -0.0000    -0.0000    -0.0000 </r>
     <r>    96.1748     0.8887     0.8887     0.8887    -0.0000    -0.0000    -0.0000 </r>
     <r>   106.7068     0.9116     0.9116     0.9116    -0.0000    -0.0000    -0.0000 </r>
     <r>   120.0836     0.9333     0.9333     0.9333    -0.0000    -0.0000    -0.0000 </r>
     <r>   137.6331     0.9556     0.9556     0.9556    -0.0000    -0.0000    -0.0000 </r>
     <r>   161.6463     0.9713     0.9713     0.9713    -0.0000    -0.0000    -0.0000 </r>
     <r>   196.4426     0.9818     0.9818     0.9818    -0.0000    -0.0000    -0.0000 </r>
    </set>
   </array>
  </real>
 </dielectricfunction>
 <varray name="epsilon_diag_mic" >
  <v>       0.00000000       2.55812696 </v>
  <v>       1.74315714       1.41451551 </v>
  <v>       3.48631428       1.09059850 </v>
  <v>       5.22947141       1.01288806 </v>
  <v>       6.97262855       1.00208082 </v>
  <v>       6.97262855       1.00208082 </v>
  <v>       5.22947141       1.01288806 </v>
  <v>       3.48631428       1.09059850 </v>
  <v>       1.74315714       1.41451551 </v>
  <v>       1.74315714       1.41451551 </v>
  <v>       2.01282449       1.32065079 </v>
  <v>       3.33789179       1.10384861 </v>
  <v>       4.93039293       1.01864578 </v>
  <v>       6.59948641       1.00288783 </v>
  <v>       8.29908796       1.00074559 </v>
  <v>       7.73039912       1.00113043 </v>
  <v>       6.03847346       1.00500237 </v>
  <v>       4.38684926       1.03561826 </v>
  <v>       2.84656369       1.15843899 </v>
  <v>       3.48631428       1.09059850 </v>
  <v>       3.33789179       1.10384861 </v>
  <v>       4.02564897       1.05293833 </v>
  <v>       5.22947141       1.01288629 </v>
  <v>       6.67578359       1.00269764 </v>
  <v>       8.23783924       1.00077853 </v>
  <v>       7.18722100       1.00174459 </v>
  <v>       5.69312737       1.00738736 </v>
  <v>       4.38684926       1.03561826 </v>
  <v>       5.22947141       1.01288806 </v>
  <v>       4.93039293       1.01864578 </v>
  <v>       5.22947141       1.01288629 </v>
  <v>       6.03847346       1.00501235 </v>
  <v>       7.18722100       1.00174163 </v>
  <v>       7.18722100       1.00174459 </v>
  <v>       6.03847346       1.00500237 </v>
  <v>       6.97262855       1.00208082 </v>
  <v>       6.59948641       1.00288783 </v>
  <v>       6.67578359       1.00269764 </v>
  <v>       7.18722100       1.00174163 </v>
  <v>       8.05129794       1.00089061 </v>
  <v>       7.73039912       1.00113043 </v>
  <v>       8.29908796       1.00074559 </v>
  <v>       8.23783924       1.00077853 </v>
  <v>       8.23783924       1.00077853 </v>
  <v>       8.29908796       1.00074559 </v>
  <v>       6.97262855       1.00208082 </v>
  <v>       7.73039912       1.00113043 </v>
  <v>       8.05129794       1.00089061 </v>
  <v>       7.18722100       1.00174163 </v>
  <v>       6.67578359       1.00269764 </v>
  <v>       6.59948641       1.00288783 </v>
  <v>       5.22947141       1.01288806 </v>
  <v>       6.03847346       1.00500237 </v>
  <v>       7.18722100       1.00174459 </v>
  <v>       7.18722100       1.00174163 </v>
  <v>       6.03847346       1.00501235 </v>
  <v>       5.22947141       1.01288629 </v>
  <v>       4.93039293       1.01864578 </v>
  <v>       3.48631428       1.09059850 </v>
  <v>       4.38684926       1.03561826 </v>
  <v>       5.69312737       1.00738736 </v>
  <v>       7.18722100       1.00174459 </v>
  <v>       8.23783924       1.00077853 </v>
  <v>       6.67578359       1.00269764 </v>
  <v>       5.22947141       1.01288629 </v>
  <v>       4.02564897       1.05293833 </v>
  <v>       3.33789179       1.10384861 </v>
  <v>       1.74315714       1.41451551 </v>
  <v>       2.84656369       1.15843899 </v>
  <v>       4.38684926       1.03561826 </v>
  <v>       6.03847346       1.00500237 </v>
  <v>       7.73039912       1.00113043 </v>
  <v>       8.29908796       1.00074559 </v>
  <v>       6.59948641       1.00288783 </v>
  <v>       4.93039293       1.01864578 </v>
  <v>       3.33789179       1.10384861 </v>
  <v>       2.01282449       1.32065079 </v>
  <v>       1.74315714       1.41451550 </v>
  <v>       2.01282449       1.32065079 </v>
  <v>       3.33789179       1.10384861 </v>
  <v>       4.93039293       1.01864578 </v>
  <v>       6.59948641       1.00288783 </v>
  <v>       8.29908796       1.00074559 </v>
  <v>       7.73039912       1.00113043 </v>
  <v>       6.03847346       1.00500237 </v>
  <v>       4.38684926       1.03561826 </v>
  <v>       2.84656369       1.15843899 </v>
  <v>       2.01282449       1.32065079 </v>
  <v>       1.74315714       1.41451544 </v>
  <v>       2.84656369       1.15843898 </v>
  <v>       4.38684926       1.03561826 </v>
  <v>       6.03847346       1.00500237 </v>
  <v>       7.73039912       1.00113043 </v>
  <v>       8.29908796       1.00074559 </v>
  <v>       6.59948641       1.00288783 </v>
  <v>       4.93039293       1.01864578 </v>
  <v>       3.33789179       1.10384861 </v>
  <v>       3.33789179       1.10384861 </v>
  <v>       2.84656369       1.15843898 </v>
  <v>       3.33789179       1.10384861 </v>
  <v>       4.50081238       1.03119439 </v>
  <v>       5.95401512       1.00548354 </v>
  <v>       7.53129960       1.00131998 </v>
  <v>       7.53129960       1.00131998 </v>
  <v>       5.95401512       1.00548354 </v>
  <v>       4.50081238       1.03119439 </v>
  <v>       4.93039293       1.01864578 </v>
  <v>       4.38684926       1.03561826 </v>
  <v>       4.50081238       1.03119439 </v>
  <v>       5.22947141       1.01288629 </v>
  <v>       6.36510990       1.00360142 </v>
  <v>       7.73039912       1.00113134 </v>
  <v>       7.25734189       1.00164654 </v>
  <v>       5.95401512       1.00548354 </v>
  <v>       6.59948641       1.00288783 </v>
  <v>       6.03847346       1.00500237 </v>
  <v>       5.95401512       1.00548354 </v>
  <v>       6.36510990       1.00360142 </v>
  <v>       7.18722100       1.00174163 </v>
  <v>       8.29908796       1.00074650 </v>
  <v>       7.53129960       1.00131998 </v>
  <v>       8.29908796       1.00074559 </v>
  <v>       7.73039912       1.00113043 </v>
  <v>       7.53129960       1.00131998 </v>
  <v>       7.73039912       1.00113134 </v>
  <v>       8.29908796       1.00074650 </v>
  <v>       7.73039912       1.00113043 </v>
  <v>       8.29908796       1.00074559 </v>
  <v>       8.29908796       1.00074650 </v>
  <v>       7.73039912       1.00113134 </v>
  <v>       7.53129960       1.00131998 </v>
  <v>       6.03847346       1.00500237 </v>
  <v>       6.59948641       1.00288783 </v>
  <v>       7.53129960       1.00131998 </v>
  <v>       8.29908796       1.00074650 </v>
  <v>       7.18722100       1.00174163 </v>
  <v>       6.36510990       1.00360142 </v>
  <v>       5.95401512       1.00548354 </v>
  <v>       4.38684926       1.03561826 </v>
  <v>       4.93039293       1.01864578 </v>
  <v>       5.95401512       1.00548354 </v>
  <v>       7.25734189       1.00164654 </v>
  <v>       7.73039912       1.00113134 </v>
  <v>       6.36510990       1.00360142 </v>
  <v>       5.22947141       1.01288629 </v>
  <v>       4.50081238       1.03119439 </v>
  <v>       2.84656369       1.15843899 </v>
  <v>       3.33789179       1.10384861 </v>
  <v>       4.50081238       1.03119439 </v>
  <v>       5.95401512       1.00548354 </v>
  <v>       7.53129960       1.00131998 </v>
  <v>       7.53129960       1.00131998 </v>
  <v>       5.95401512       1.00548354 </v>
  <v>       4.50081238       1.03119439 </v>
  <v>       3.33789179       1.10384861 </v>
  <v>       3.48631428       1.09059850 </v>
  <v>       3.33789179       1.10384861 </v>
  <v>       4.02564897       1.05293833 </v>
  <v>       5.22947141       1.01288629 </v>
  <v>       6.67578359       1.00269764 </v>
  <v>       8.23783924       1.00077853 </v>
  <v>       7.18722100       1.00174459 </v>
  <v>       5.69312737       1.00738736 </v>
  <v>       4.38684926       1.03561826 </v>
  <v>       3.33789179       1.10384861 </v>
  <v>       2.84656369       1.15843898 </v>
  <v>       3.33789179       1.10384861 </v>
  <v>       4.50081238       1.03119439 </v>
  <v>       5.95401512       1.00548354 </v>
  <v>       7.53129960       1.00131998 </v>
  <v>       7.53129960       1.00131998 </v>
  <v>       5.95401512       1.00548354 </v>
  <v>       4.50081238       1.03119439 </v>
  <v>       4.02564897       1.05293833 </v>
  <v>       3.33789179       1.10384861 </v>
  <v>       3.48631428       1.09059851 </v>
  <v>       4.38684926       1.03561826 </v>
  <v>       5.69312737       1.00738736 </v>
  <v>       7.18722100       1.00174459 </v>
  <v>       8.23783924       1.00077853 </v>
  <v>       6.67578359       1.00269764 </v>
  <v>       5.22947141       1.01288629 </v>
  <v>       5.22947141       1.01288629 </v>
  <v>       4.50081238       1.03119439 </v>
  <v>       4.38684926       1.03561826 </v>
  <v>       4.93039293       1.01864578 </v>
  <v>       5.95401512       1.00548354 </v>
  <v>       7.25734189       1.00164654 </v>
  <v>       7.73039912       1.00113134 </v>
  <v>       6.36510990       1.00360142 </v>
  <v>       6.67578359       1.00269764 </v>
  <v>       5.95401512       1.00548354 </v>
  <v>       5.69312737       1.00738736 </v>
  <v>       5.95401512       1.00548354 </v>
  <v>       6.67578359       1.00269764 </v>
  <v>       7.73039912       1.00113134 </v>
  <v>       7.73039912       1.00113134 </v>
  <v>       8.23783924       1.00077853 </v>
  <v>       7.53129960       1.00131998 </v>
  <v>       7.18722100       1.00174459 </v>
  <v>       7.25734189       1.00164654 </v>
  <v>       7.73039912       1.00113134 </v>
  <v>       7.18722100       1.00174459 </v>
  <v>       7.53129960       1.00131998 </v>
  <v>       8.23783924       1.00077853 </v>
  <v>       7.73039912       1.00113134 </v>
  <v>       7.25734189       1.00164654 </v>
  <v>       5.69312737       1.00738736 </v>
  <v>       5.95401512       1.00548354 </v>
  <v>       6.67578359       1.00269764 </v>
  <v>       7.73039912       1.00113134 </v>
  <v>       7.73039912       1.00113134 </v>
  <v>       6.67578359       1.00269764 </v>
  <v>       5.95401512       1.00548354 </v>
  <v>       4.38684926       1.03561826 </v>
  <v>       4.50081238       1.03119439 </v>
  <v>       5.22947141       1.01288629 </v>
  <v>       6.36510990       1.00360142 </v>
  <v>       7.73039912       1.00113134 </v>
  <v>       7.25734189       1.00164654 </v>
  <v>       5.95401512       1.00548354 </v>
  <v>       4.93039293       1.01864578 </v>
  <v>       5.22947141       1.01288806 </v>
  <v>       4.93039293       1.01864578 </v>
  <v>       5.22947141       1.01288629 </v>
  <v>       6.03847346       1.00501235 </v>
  <v>       7.18722100       1.00174163 </v>
  <v>       7.18722100       1.00174459 </v>
  <v>       6.03847346       1.00500237 </v>
  <v>       4.93039293       1.01864578 </v>
  <v>       4.38684926       1.03561826 </v>
  <v>       4.50081238       1.03119439 </v>
  <v>       5.22947141       1.01288629 </v>
  <v>       6.36510990       1.00360142 </v>
  <v>       7.73039912       1.00113134 </v>
  <v>       7.25734189       1.00164654 </v>
  <v>       5.95401512       1.00548354 </v>
  <v>       5.22947141       1.01288629 </v>
  <v>       4.50081238       1.03119439 </v>
  <v>       4.38684926       1.03561826 </v>
  <v>       4.93039293       1.01864578 </v>
  <v>       5.95401512       1.00548354 </v>
  <v>       7.25734189       1.00164654 </v>
  <v>       7.73039912       1.00113134 </v>
  <v>       6.36510990       1.00360142 </v>
  <v>       6.03847346       1.00501235 </v>
  <v>       5.22947141       1.01288629 </v>
  <v>       4.93039293       1.01864578 </v>
  <v>       5.22947141       1.01288806 </v>
  <v>       6.03847346       1.00500237 </v>
  <v>       7.18722100       1.00174459 </v>
  <v>       7.18722100       1.00174163 </v>
  <v>       7.18722100       1.00174163 </v>
  <v>       6.36510990       1.00360142 </v>
  <v>       5.95401512       1.00548354 </v>
  <v>       6.03847346       1.00500237 </v>
  <v>       6.59948641       1.00288783 </v>
  <v>       7.53129960       1.00131998 </v>
  <v>       8.29908796       1.00074650 </v>
  <v>       7.73039912       1.00113134 </v>
  <v>       7.25734189       1.00164654 </v>
  <v>       7.18722100       1.00174459 </v>
  <v>       7.53129960       1.00131998 </v>
  <v>       8.23783924       1.00077853 </v>
  <v>       7.18722100       1.00174459 </v>
  <v>       7.25734189       1.00164654 </v>
  <v>       7.73039912       1.00113134 </v>
  <v>       8.23783924       1.00077853 </v>
  <v>       7.53129960       1.00131998 </v>
  <v>       6.03847346       1.00500237 </v>
  <v>       5.95401512       1.00548354 </v>
  <v>       6.36510990       1.00360142 </v>
  <v>       7.18722100       1.00174163 </v>
  <v>       8.29908796       1.00074650 </v>
  <v>       7.53129960       1.00131998 </v>
  <v>       6.59948641       1.00288783 </v>
  <v>       6.97262855       1.00208082 </v>
  <v>       6.59948641       1.00288783 </v>
  <v>       6.67578359       1.00269764 </v>
  <v>       7.18722100       1.00174163 </v>
  <v>       8.05129794       1.00089061 </v>
[...]
  <v>       4.27971802       0.96690525 </v>
  <v>       2.61473571       0.86696290 </v>
  <v>       3.08833576       0.90472297 </v>
  <v>       4.27971802       0.96690525 </v>
  <v>       5.75945731       0.99388748 </v>
  <v>       7.35553562       0.99859983 </v>
  <v>       7.53690117       0.99878390 </v>
  <v>       5.93271267       0.99493847 </v>
  <v>       4.43468982       0.97184689 </v>
  <v>       3.19578809       0.91204476 </v>
  <v>       3.40052187       0.92543181 </v>
  <v>       3.19578809       0.91204476 </v>
  <v>       3.86519956       0.95021093 </v>
  <v>       5.07382177       0.98640455 </v>
  <v>       6.52876411       0.99718364 </v>
  <v>       8.09833611       0.99919717 </v>
  <v>       7.21652084       0.99842952 </v>
  <v>       5.70053548       0.99344431 </v>
  <v>       4.35789284       0.96940708 </v>
  <v>       3.40052187       0.92514036 </v>
  <v>       2.86135113       0.88742460 </v>
  <v>       3.29974321       0.91889992 </v>
  <v>       4.43468982       0.97184689 </v>
  <v>       5.87552857       0.99461367 </v>
  <v>       7.44677056       0.99869534 </v>
  <v>       7.62596661       0.99886458 </v>
  <v>       6.04545839       0.99550494 </v>
  <v>       4.58442595       0.97613119 </v>
  <v>       4.20008840       0.96409729 </v>
  <v>       3.49839859       0.93096064 </v>
  <v>       3.59361050       0.93652707 </v>
  <v>       4.43468982       0.97185247 </v>
  <v>       5.70053548       0.99344431 </v>
  <v>       7.16958362       0.99836777 </v>
  <v>       6.83199994       0.99784472 </v>
  <v>       5.39628447       0.99073094 </v>
  <v>       5.45849153       0.99138823 </v>
  <v>       4.72942372       0.97969408 </v>
  <v>       4.58442595       0.97603384 </v>
  <v>       5.07382177       0.98640197 </v>
  <v>       6.04545839       0.99550494 </v>
  <v>       7.30949113       0.99854355 </v>
  <v>       7.92982174       0.99909522 </v>
  <v>       6.58027389       0.99731254 </v>
  <v>       6.93013064       0.99802159 </v>
  <v>       6.21074056       0.99619915 </v>
  <v>       5.93271267       0.99493464 </v>
  <v>       6.15613959       0.99598365 </v>
  <v>       6.83199994       0.99784472 </v>
  <v>       7.84420712       0.99903567 </v>
  <v>       7.97228427       0.99912346 </v>
  <v>       7.80104747       0.99900774 </v>
  <v>       7.44677056       0.99869750 </v>
  <v>       7.49197140       0.99874224 </v>
  <v>       7.92982174       0.99909522 </v>
  <v>       6.93013064       0.99801503 </v>
  <v>       7.26315474       0.99849555 </v>
  <v>       7.97228427       0.99912404 </v>
  <v>       7.53690117       0.99878564 </v>
  <v>       7.02689107       0.99816968 </v>
  <v>       5.45849153       0.99131474 </v>
  <v>       5.70053548       0.99346644 </v>
  <v>       6.42450569       0.99690596 </v>
  <v>       7.49197140       0.99874387 </v>
  <v>       7.62596661       0.99886444 </v>
  <v>       6.52876411       0.99718364 </v>
  <v>       5.75945731       0.99388748 </v>
  <v>       4.20008840       0.96407527 </v>
  <v>       4.27971802       0.96690525 </v>
  <v>       5.00683769       0.98528613 </v>
  <v>       6.15613959       0.99598420 </v>
  <v>       7.53690117       0.99878564 </v>
  <v>       7.21652084       0.99842952 </v>
  <v>       5.87552857       0.99461367 </v>
  <v>       4.80028046       0.98128657 </v>
  <v>       5.13993299       0.98742499 </v>
  <v>       4.80028046       0.98128657 </v>
  <v>       5.07382177       0.98640455 </v>
  <v>       5.87552857       0.99461952 </v>
  <v>       7.02689107       0.99817218 </v>
  <v>       7.16958362       0.99836777 </v>
  <v>       5.98935083       0.99523591 </v>
  <v>       4.93894522       0.98406455 </v>
  <v>       4.35789284       0.96940708 </v>
  <v>       4.43468982       0.97184689 </v>
  <v>       5.13993299       0.98743126 </v>
  <v>       6.26486569       0.99638783 </v>
  <v>       7.62596661       0.99886444 </v>
  <v>       7.30949113       0.99854355 </v>
  <v>       5.98935083       0.99523203 </v>
  <v>       5.33335189       0.99001471 </v>
  <v>       4.58442595       0.97613119 </v>
  <v>       4.43468982       0.97185247 </v>
  <v>       4.93894522       0.98406724 </v>
  <v>       5.93271267       0.99493847 </v>
  <v>       7.21652084       0.99842952 </v>
  <v>       7.84420712       0.99903567 </v>
  <v>       6.47684468       0.99704396 </v>
  <v>       6.21074056       0.99619383 </v>
  <v>       5.39628447       0.99073094 </v>
  <v>       5.07382177       0.98640197 </v>
  <v>       5.33335189       0.99001375 </v>
  <v>       6.10104998       0.99575714 </v>
  <v>       7.21652084       0.99842952 </v>
  <v>       7.35553562       0.99859982 </v>
  <v>       7.40129367       0.99865101 </v>
  <v>       6.58027389       0.99731254 </v>
  <v>       6.15613959       0.99598365 </v>
  <v>       6.21074056       0.99619745 </v>
  <v>       6.73243906       0.99765112 </v>
  <v>       7.62596661       0.99886458 </v>
  <v>       7.97228427       0.99912346 </v>
  <v>       7.49197140       0.99874224 </v>
  <v>       7.40129367       0.99864813 </v>
  <v>       7.71400377       0.99893882 </v>
  <v>       8.30417163       0.99930356 </v>
  <v>       6.97867856       0.99809310 </v>
  <v>       7.02689107       0.99816968 </v>
  <v>       7.49197140       0.99874387 </v>
  <v>       8.30417163       0.99930350 </v>
  <v>       8.09833611       0.99919717 </v>
  <v>       7.35553562       0.99859983 </v>
  <v>       5.87552857       0.99462562 </v>
  <v>       5.75945731       0.99388748 </v>
  <v>       6.15613959       0.99598420 </v>
  <v>       6.97867856       0.99809903 </v>
  <v>       8.09833611       0.99919754 </v>
  <v>       7.44677056       0.99869534 </v>
  <v>       6.47684468       0.99704792 </v>
  <v>       6.88124022       0.99793425 </v>
  <v>       6.47684468       0.99704792 </v>
  <v>       6.52876411       0.99718364 </v>
  <v>       7.02689107       0.99817218 </v>
  <v>       7.88713060       0.99906643 </v>
  <v>       7.67011150       0.99890244 </v>
  <v>       6.58027389       0.99731130 </v>
  <v>       5.98935083       0.99523591 </v>
  <v>       5.87552857       0.99461367 </v>
  <v>       6.26486569       0.99638783 </v>
  <v>       7.07477504       0.99824239 </v>
  <v>       8.18129178       0.99924189 </v>
  <v>       7.53690117       0.99878394 </v>
  <v>       6.73243906       0.99764909 </v>
  <v>       5.98935083       0.99523203 </v>
  <v>       5.70053548       0.99344431 </v>
  <v>       5.93271267       0.99493847 </v>
  <v>       6.63138358       0.99743055 </v>
  <v>       7.67011150       0.99890195 </v>
  <v>       7.80104747       0.99900421 </v>
  <v>       7.30949113       0.99854659 </v>
  <v>       6.47684468       0.99704396 </v>
  <v>       6.04545839       0.99550494 </v>
  <v>       6.10104998       0.99575714 </v>
  <v>       6.63138358       0.99743171 </v>
  <v>       7.53690117       0.99878390 </v>
  <v>       8.22245577       0.99926297 </v>
  <v>       7.35553562       0.99859982 </v>
  <v>       6.83199994       0.99784472 </v>
  <v>       6.73243906       0.99765112 </v>
  <v>       7.07477504       0.99824327 </v>
  <v>       7.80104747       0.99900504 </v>
  <v>       7.92982174       0.99909522 </v>
  <v>       7.71400377       0.99893882 </v>
  <v>       7.88713060       0.99906664 </v>
  <v>       7.58156468       0.99882647 </v>
  <v>       7.35553562       0.99859983 </v>
  <v>       7.53690117       0.99878564 </v>
  <v>       8.09833611       0.99919754 </v>
  <v>       8.18129178       0.99924227 </v>
  <v>       8.18129178       0.99924227 </v>
  <v>       8.09833611       0.99919717 </v>
  <v>       8.26341471       0.99928358 </v>
  <v>       7.67011150       0.99890244 </v>
  <v>       7.44677056       0.99869534 </v>
  <v>       7.62596661       0.99886444 </v>
  <v>       8.18129178       0.99924189 </v>
  <v>       8.26341471       0.99928322 </v>
  <v>       7.53690117       0.99878394 </v>
  <v>       7.16958362       0.99836777 </v>
  <v>       7.21652084       0.99842952 </v>
  <v>       7.67011150       0.99890195 </v>
  <v>       7.80104747       0.99900421 </v>
  <v>       7.30949113       0.99854355 </v>
  <v>       7.21652084       0.99842952 </v>
  <v>       7.53690117       0.99878390 </v>
  <v>       8.22245577       0.99926320 </v>
  <v>       7.84420712       0.99903567 </v>
  <v>       7.62596661       0.99886458 </v>
  <v>       7.80104747       0.99900504 </v>
  <v>       8.34472948       0.99932164 </v>
  <v>       8.18129178       0.99924227 </v>
  <v>       8.09833611       0.99919717 </v>
  <v>       8.26341471       0.99928358 </v>
  <v>       7.67011150       0.99890244 </v>
  <v>       7.44677056       0.99869534 </v>
  <v>       7.62596661       0.99886444 </v>
  <v>       8.18129178       0.99924189 </v>
  <v>       8.26341471       0.99928322 </v>
  <v>       7.53690117       0.99878394 </v>
  <v>       7.16958362       0.99836777 </v>
  <v>       7.21652084       0.99842952 </v>
  <v>       7.67011150       0.99890195 </v>
  <v>       8.22245577       0.99926320 </v>
  <v>       7.80104747       0.99900421 </v>
  <v>       7.30949113       0.99854355 </v>
  <v>       7.21652084       0.99842952 </v>
  <v>       7.53690117       0.99878390 </v>
  <v>       8.34472948       0.99932164 </v>
  <v>       7.84420712       0.99903567 </v>
  <v>       7.62596661       0.99886458 </v>
  <v>       7.80104747       0.99900504 </v>
  <v>       7.07477504       0.99824327 </v>
  <v>       7.80104747       0.99900504 </v>
  <v>       8.22245577       0.99926297 </v>
  <v>       7.35553562       0.99859982 </v>
  <v>       6.83199994       0.99784472 </v>
  <v>       6.73243906       0.99765112 </v>
  <v>       7.88713060       0.99906664 </v>
  <v>       7.92982174       0.99909522 </v>
  <v>       7.71400377       0.99893882 </v>
  <v>       8.18129178       0.99924227 </v>
  <v>       7.58156468       0.99882647 </v>
  <v>       7.35553562       0.99859983 </v>
  <v>       7.53690117       0.99878564 </v>
  <v>       8.09833611       0.99919754 </v>
  <v>       7.88713060       0.99906643 </v>
  <v>       7.67011150       0.99890244 </v>
  <v>       6.88124022       0.99793425 </v>
  <v>       6.47684468       0.99704792 </v>
  <v>       6.52876411       0.99718364 </v>
  <v>       7.02689107       0.99817218 </v>
  <v>       7.07477504       0.99824239 </v>
  <v>       8.18129178       0.99924189 </v>
  <v>       7.53690117       0.99878394 </v>
  <v>       6.58027389       0.99731130 </v>
  <v>       5.98935083       0.99523591 </v>
  <v>       5.87552857       0.99461367 </v>
  <v>       6.26486569       0.99638783 </v>
  <v>       6.63138358       0.99743055 </v>
  <v>       7.67011150       0.99890195 </v>
  <v>       7.80104747       0.99900421 </v>
  <v>       6.73243906       0.99764909 </v>
  <v>       5.98935083       0.99523203 </v>
  <v>       5.70053548       0.99344431 </v>
  <v>       5.93271267       0.99493847 </v>
  <v>       6.63138358       0.99743171 </v>
  <v>       7.53690117       0.99878390 </v>
  <v>       7.30949113       0.99854659 </v>
  <v>       6.47684468       0.99704396 </v>
  <v>       6.04545839       0.99550494 </v>
  <v>       6.10104998       0.99575714 </v>
  <v>       5.33335189       0.99001375 </v>
  <v>       6.10104998       0.99575714 </v>
  <v>       7.21652084       0.99842952 </v>
  <v>       7.35553562       0.99859982 </v>
  <v>       6.21074056       0.99619383 </v>
  <v>       5.39628447       0.99073094 </v>
  <v>       5.07382177       0.98640197 </v>
  <v>       6.21074056       0.99619745 </v>
  <v>       6.73243906       0.99765112 </v>
  <v>       7.62596661       0.99886458 </v>
  <v>       7.40129367       0.99865101 </v>
  <v>       6.58027389       0.99731254 </v>
  <v>       6.15613959       0.99598365 </v>
  <v>       7.40129367       0.99864813 </v>
  <v>       7.71400377       0.99893882 </v>
  <v>       7.97228427       0.99912346 </v>
  <v>       7.49197140       0.99874224 </v>
  <v>       8.30417163       0.99930356 </v>
  <v>       8.30417163       0.99930350 </v>
  <v>       8.09833611       0.99919717 </v>
  <v>       7.35553562       0.99859983 </v>
  <v>       6.97867856       0.99809310 </v>
  <v>       7.02689107       0.99816968 </v>
  <v>       7.49197140       0.99874387 </v>
  <v>       6.97867856       0.99809903 </v>
  <v>       8.09833611       0.99919754 </v>
  <v>       7.44677056       0.99869534 </v>
  <v>       6.47684468       0.99704792 </v>
  <v>       5.87552857       0.99462562 </v>
  <v>       5.75945731       0.99388748 </v>
  <v>       6.15613959       0.99598420 </v>
  <v>       5.87552857       0.99461952 </v>
  <v>       7.02689107       0.99817218 </v>
  <v>       7.16958362       0.99836777 </v>
  <v>       5.98935083       0.99523591 </v>
  <v>       5.13993299       0.98742499 </v>
  <v>       4.80028046       0.98128657 </v>
  <v>       5.07382177       0.98640455 </v>
  <v>       5.13993299       0.98743126 </v>
  <v>       6.26486569       0.99638783 </v>
  <v>       7.62596661       0.99886444 </v>
  <v>       7.30949113       0.99854355 </v>
  <v>       5.98935083       0.99523203 </v>
  <v>       4.93894522       0.98406454 </v>
  <v>       4.35789284       0.96940708 </v>
  <v>       4.43468982       0.97184689 </v>
  <v>       4.93894522       0.98406724 </v>
  <v>       5.93271267       0.99493847 </v>
  <v>       7.21652084       0.99842952 </v>
  <v>       7.84420712       0.99903567 </v>
  <v>       6.47684468       0.99704396 </v>
  <v>       5.33335189       0.99001471 </v>
  <v>       4.58442595       0.97613119 </v>
  <v>       4.43468982       0.97185247 </v>
  <v>       3.59361050       0.93652707 </v>
  <v>       4.43468982       0.97185247 </v>
  <v>       5.70053548       0.99344431 </v>
  <v>       7.16958362       0.99836777 </v>
  <v>       6.83199994       0.99784472 </v>
  <v>       5.39628447       0.99073094 </v>
  <v>       4.20008840       0.96409729 </v>
  <v>       3.49839859       0.93096065 </v>
  <v>       4.58442595       0.97603384 </v>
  <v>       5.07382177       0.98640197 </v>
  <v>       6.04545839       0.99550494 </v>
  <v>       7.30949113       0.99854355 </v>
  <v>       7.92982174       0.99909522 </v>
  <v>       6.58027389       0.99731254 </v>
  <v>       5.45849153       0.99138823 </v>
  <v>       4.72942372       0.97969408 </v>
  <v>       5.93271267       0.99493464 </v>
  <v>       6.15613959       0.99598365 </v>
  <v>       6.83199994       0.99784472 </v>
  <v>       7.84420712       0.99903567 </v>
  <v>       7.97228427       0.99912346 </v>
  <v>       6.93013064       0.99802159 </v>
  <v>       6.21074056       0.99619915 </v>
  <v>       7.44677056       0.99869750 </v>
  <v>       7.49197140       0.99874224 </v>
  <v>       7.92982174       0.99909522 </v>
  <v>       7.80104747       0.99900774 </v>
  <v>       7.97228427       0.99912404 </v>
  <v>       7.53690117       0.99878564 </v>
  <v>       7.02689107       0.99816968 </v>
  <v>       6.93013064       0.99801503 </v>
  <v>       7.26315474       0.99849555 </v>
  <v>       6.42450569       0.99690596 </v>
  <v>       7.49197140       0.99874387 </v>
  <v>       7.62596661       0.99886444 </v>
  <v>       6.52876411       0.99718364 </v>
  <v>       5.75945731       0.99388748 </v>
  <v>       5.45849153       0.99131474 </v>
  <v>       5.70053548       0.99346644 </v>
  <v>       5.00683769       0.98528613 </v>
  <v>       6.15613959       0.99598420 </v>
  <v>       7.53690117       0.99878564 </v>
  <v>       7.21652084       0.99842952 </v>
  <v>       5.87552857       0.99461367 </v>
  <v>       4.80028046       0.98128657 </v>
  <v>       4.20008840       0.96407526 </v>
  <v>       4.27971802       0.96690525 </v>
  <v>       3.86519956       0.95021093 </v>
  <v>       5.07382177       0.98640455 </v>
  <v>       6.52876411       0.99718364 </v>
  <v>       8.09833611       0.99919717 </v>
  <v>       7.21652084       0.99842952 </v>
  <v>       5.70053548       0.99344431 </v>
  <v>       4.35789284       0.96940708 </v>
  <v>       3.40052187       0.92543181 </v>
  <v>       3.19578809       0.91204476 </v>
  <v>       3.29974321       0.91889992 </v>
  <v>       4.43468982       0.97184689 </v>
  <v>       5.87552857       0.99461367 </v>
  <v>       7.44677056       0.99869534 </v>
  <v>       7.62596661       0.99886458 </v>
  <v>       6.04545839       0.99550494 </v>
  <v>       4.58442595       0.97613119 </v>
  <v>       3.40052187       0.92514036 </v>
  <v>       2.86135113       0.88742461 </v>
  <v>       1.86027529       0.77142896 </v>
  <v>       2.86135113       0.88742461 </v>
  <v>       4.35789284       0.96940708 </v>
  <v>       5.98935083       0.99523591 </v>
  <v>       7.67011150       0.99890244 </v>
  <v>       6.73243906       0.99765112 </v>
  <v>       5.07382177       0.98640197 </v>
  <v>       3.49839859       0.93096065 </v>
  <v>       2.19342463       0.82292605 </v>
  <v>       3.08833576       0.90428816 </v>
  <v>       3.49839859       0.93096065 </v>
  <v>       4.58442595       0.97613119 </v>
  <v>       5.98935083       0.99523203 </v>
  <v>       7.53690117       0.99878394 </v>
  <v>       7.71400377       0.99893882 </v>
  <v>       6.15613959       0.99598365 </v>
  <v>       4.72942372       0.97969408 </v>
  <v>       3.59361050       0.93640551 </v>
  <v>       4.65748913       0.97795885 </v>
  <v>       4.72942372       0.97969408 </v>
  <v>       5.39628447       0.99073094 </v>
  <v>       6.47684468       0.99704396 </v>
  <v>       7.80104747       0.99900421 </v>
  <v>       7.49197140       0.99874224 </v>
  <v>       6.21074056       0.99619915 </v>
  <v>       5.20520459       0.98836951 </v>
  <v>       6.31852719       0.99658037 </v>
  <v>       6.21074056       0.99619915 </v>
  <v>       6.58027389       0.99731254 </v>
  <v>       7.35553562       0.99859982 </v>
  <v>       7.80104747       0.99900774 </v>
  <v>       6.88124022       0.99793944 </v>
  <v>       8.01452184       0.99915090 </v>
  <v>       7.80104747       0.99900774 </v>
  <v>       7.97228427       0.99912346 </v>
  <v>       8.01452184       0.99915052 </v>
  <v>       8.09833611       0.99919754 </v>
  <v>       7.49197140       0.99874387 </v>
  <v>       7.26315474       0.99849555 </v>
  <v>       7.44677056       0.99870074 </v>
  <v>       6.31852719       0.99658369 </v>
  <v>       7.26315474       0.99849555 </v>
  <v>       8.18129178       0.99924189 </v>
  <v>       7.02689107       0.99817218 </v>
  <v>       6.15613959       0.99598420 </v>
  <v>       5.70053548       0.99346644 </v>
  <v>       5.75945731       0.99389269 </v>
  <v>       4.65748913       0.97799691 </v>
  <v>       5.70053548       0.99346644 </v>
  <v>       7.02689107       0.99816968 </v>
  <v>       7.67011150       0.99890195 </v>
  <v>       6.26486569       0.99638783 </v>
  <v>       5.07382177       0.98640455 </v>
  <v>       4.27971802       0.96690525 </v>
  <v>       4.11891962       0.96098636 </v>
  <v>       3.08833576       0.90472297 </v>
  <v>       4.27971802       0.96690525 </v>
  <v>       5.75945731       0.99388748 </v>
  <v>       7.35553562       0.99859983 </v>
  <v>       7.53690117       0.99878390 </v>
  <v>       5.93271267       0.99493847 </v>
  <v>       4.43468982       0.97184689 </v>
  <v>       3.19578809       0.91204476 </v>
  <v>       2.61473571       0.86696290 </v>
  <v>       1.86027529       0.77167646 </v>
  <v>       3.19578809       0.91204476 </v>
  <v>       4.80028046       0.98128657 </v>
  <v>       6.47684468       0.99704792 </v>
  <v>       8.18129178       0.99924227 </v>
  <v>       7.80104747       0.99900504 </v>
  <v>       6.10104998       0.99575714 </v>
  <v>       4.43468982       0.97185247 </v>
  <v>       2.86135113       0.88742461 </v>
  <v>       1.66894590       0.73040115 </v>
 </varray>
