   1   1   0   0
  0.5789729E+02  0.4342346E-09  0.4342346E-09  0.4342346E-09  0.1000000E-15
  1.000000000000000E-004
  CAR 
 Og_FCC                                  
     47.80573703    -34.15633165  301      3.98164344      1.00000000
    -34.156  0.0000E+00  0.0000E+00
    -33.883  0.0000E+00  0.0000E+00
    -33.610  0.0000E+00  0.0000E+00
    -33.337  0.0000E+00  0.0000E+00
    -33.064  0.0000E+00  0.0000E+00
    -32.790  0.0000E+00  0.0000E+00
    -32.517  0.0000E+00  0.0000E+00
    -32.244  0.0000E+00  0.0000E+00
    -31.971  0.0000E+00  0.0000E+00
    -31.697  0.0000E+00  0.0000E+00
    -31.424  0.0000E+00  0.0000E+00
    -31.151  0.0000E+00  0.0000E+00
    -30.878  0.0000E+00  0.0000E+00
    -30.605  0.0000E+00  0.0000E+00
    -30.331  0.0000E+00  0.4000E+01
    -30.058  0.0000E+00  0.4000E+01
    -29.785  0.0000E+00  0.4000E+01
    -29.512  0.0000E+00  0.4000E+01
    -29.239  0.0000E+00  0.4000E+01
    -28.965  0.0000E+00  0.4000E+01
    -28.692  0.0000E+00  0.4000E+01
    -28.419  0.0000E+00  0.4000E+01
    -28.146  0.0000E+00  0.4000E+01
    -27.873  0.0000E+00  0.4000E+01
    -27.599  0.0000E+00  0.4000E+01
    -27.326  0.0000E+00  0.4000E+01
    -27.053  0.0000E+00  0.4000E+01
    -26.780  0.0000E+00  0.4000E+01
    -26.507  0.0000E+00  0.4000E+01
    -26.233  0.0000E+00  0.4000E+01
    -25.960  0.0000E+00  0.4000E+01
    -25.687  0.0000E+00  0.4000E+01
    -25.414  0.0000E+00  0.4000E+01
    -25.141  0.0000E+00  0.4000E+01
    -24.867  0.0000E+00  0.4000E+01
    -24.594  0.0000E+00  0.4000E+01
    -24.321  0.0000E+00  0.4000E+01
    -24.048  0.0000E+00  0.4000E+01
    -23.774  0.9783E-16  0.4000E+01
    -23.501  0.0000E+00  0.1000E+02
    -23.228  0.0000E+00  0.1000E+02
    -22.955  0.0000E+00  0.1000E+02
    -22.682  0.0000E+00  0.1000E+02
    -22.408  0.0000E+00  0.1000E+02
    -22.135  0.0000E+00  0.1000E+02
    -21.862  0.0000E+00  0.1000E+02
    -21.589  0.0000E+00  0.1000E+02
    -21.316  0.0000E+00  0.1000E+02
    -21.042  0.0000E+00  0.1000E+02
    -20.769  0.0000E+00  0.1000E+02
    -20.496  0.0000E+00  0.1000E+02
    -20.223  0.0000E+00  0.1000E+02
    -19.950  0.0000E+00  0.1200E+02
    -19.676  0.0000E+00  0.1200E+02
    -19.403  0.0000E+00  0.1200E+02
    -19.130  0.0000E+00  0.1200E+02
    -18.857  0.0000E+00  0.1200E+02
    -18.584  0.0000E+00  0.1200E+02
    -18.310  0.0000E+00  0.1200E+02
    -18.037  0.0000E+00  0.1200E+02
    -17.764  0.0000E+00  0.1200E+02
    -17.491  0.0000E+00  0.1200E+02
    -17.218  0.0000E+00  0.1200E+02
    -16.944  0.0000E+00  0.1200E+02
    -16.671  0.0000E+00  0.1200E+02
    -16.398  0.0000E+00  0.1200E+02
    -16.125  0.0000E+00  0.1200E+02
    -15.851  0.0000E+00  0.1200E+02
    -15.578  0.0000E+00  0.1200E+02
    -15.305  0.0000E+00  0.1200E+02
    -15.032  0.0000E+00  0.1200E+02
    -14.759  0.0000E+00  0.1200E+02
    -14.485  0.0000E+00  0.1200E+02
    -14.212  0.0000E+00  0.1200E+02
    -13.939  0.0000E+00  0.1200E+02
    -13.666  0.0000E+00  0.1200E+02
    -13.393  0.0000E+00  0.1200E+02
    -13.119  0.0000E+00  0.1200E+02
    -12.846  0.0000E+00  0.1200E+02
    -12.573  0.0000E+00  0.1200E+02
    -12.300  0.0000E+00  0.1200E+02
    -12.027  0.0000E+00  0.1200E+02
    -11.753  0.0000E+00  0.1200E+02
    -11.480  0.0000E+00  0.1200E+02
    -11.207  0.0000E+00  0.1200E+02
    -10.934  0.0000E+00  0.1200E+02
    -10.661  0.0000E+00  0.1200E+02
    -10.387  0.0000E+00  0.1200E+02
    -10.114  0.0000E+00  0.1200E+02
     -9.841  0.0000E+00  0.1200E+02
     -9.568  0.0000E+00  0.1200E+02
     -9.295  0.0000E+00  0.1200E+02
     -9.021  0.0000E+00  0.1200E+02
     -8.748  0.0000E+00  0.1200E+02
     -8.475  0.0000E+00  0.1200E+02
     -8.202  0.0000E+00  0.1200E+02
     -7.928  0.0000E+00  0.1200E+02
     -7.655  0.0000E+00  0.1200E+02
     -7.382  0.0000E+00  0.1200E+02
     -7.109  0.0000E+00  0.1393E+02
     -6.836  0.0000E+00  0.1400E+02
     -6.562  0.0000E+00  0.1400E+02
     -6.289  0.0000E+00  0.1400E+02
     -6.016  0.0000E+00  0.1400E+02
     -5.743  0.0000E+00  0.1400E+02
     -5.470  0.0000E+00  0.1400E+02
     -5.196  0.0000E+00  0.1400E+02
     -4.923  0.0000E+00  0.1400E+02
     -4.650  0.0000E+00  0.1400E+02
     -4.377  0.0000E+00  0.1400E+02
     -4.104  0.0000E+00  0.1400E+02
     -3.830  0.0000E+00  0.1400E+02
     -3.557  0.0000E+00  0.1400E+02
     -3.284  0.0000E+00  0.1400E+02
     -3.011  0.0000E+00  0.1400E+02
     -2.738  0.0000E+00  0.1400E+02
     -2.464  0.0000E+00  0.1400E+02
     -2.191  0.0000E+00  0.1400E+02
     -1.918  0.0000E+00  0.1400E+02
     -1.645  0.0000E+00  0.1400E+02
     -1.372  0.0000E+00  0.1400E+02
     -1.098  0.0000E+00  0.1400E+02
     -0.825  0.0000E+00  0.1400E+02
     -0.552  0.0000E+00  0.1400E+02
     -0.279  0.0000E+00  0.1400E+02
     -0.005  0.0000E+00  0.1400E+02
      0.268  0.0000E+00  0.1400E+02
      0.541  0.0000E+00  0.1400E+02
      0.814  0.5559E-05  0.1400E+02
      1.087  0.4515E-16  0.1511E+02
      1.361  0.0000E+00  0.1593E+02
      1.634  0.0000E+00  0.1593E+02
      1.907  0.0000E+00  0.1593E+02
      2.180  0.0000E+00  0.1681E+02
      2.453  0.0000E+00  0.1681E+02
      2.727  0.0000E+00  0.1726E+02
      3.000  0.0000E+00  0.1726E+02
      3.273  0.0000E+00  0.1726E+02
      3.546  0.5423E+00  0.1770E+02
      3.819  0.0000E+00  0.1793E+02
      4.093  0.0000E+00  0.1807E+02
      4.366  0.0000E+00  0.1807E+02
      4.639  0.0000E+00  0.1807E+02
      4.912  0.0000E+00  0.1807E+02
      5.185  0.0000E+00  0.1807E+02
      5.459  0.0000E+00  0.1807E+02
      5.732  0.0000E+00  0.1807E+02
      6.005  0.0000E+00  0.1807E+02
      6.278  0.0000E+00  0.1867E+02
      6.551  0.0000E+00  0.1867E+02
      6.825  0.0000E+00  0.1867E+02
      7.098  0.0000E+00  0.1911E+02
      7.371  0.0000E+00  0.1911E+02
      7.644  0.0000E+00  0.2000E+02
      7.918  0.0000E+00  0.2000E+02
      8.191  0.0000E+00  0.2044E+02
      8.464  0.0000E+00  0.2044E+02
      8.737  0.0000E+00  0.2044E+02
      9.010  0.0000E+00  0.2133E+02
      9.284  0.0000E+00  0.2133E+02
      9.557  0.0000E+00  0.2133E+02
      9.830  0.0000E+00  0.2133E+02
     10.103  0.0000E+00  0.2178E+02
     10.376  0.0000E+00  0.2178E+02
     10.650  0.0000E+00  0.2296E+02
     10.923  0.0000E+00  0.2311E+02
     11.196  0.0000E+00  0.2378E+02
     11.469  0.0000E+00  0.2533E+02
     11.742  0.0000E+00  0.2622E+02
     12.016  0.0000E+00  0.2622E+02
     12.289  0.0000E+00  0.2622E+02
     12.562  0.1356E+01  0.2711E+02
     12.835  0.0000E+00  0.2756E+02
     13.108  0.0000E+00  0.2756E+02
     13.382  0.0000E+00  0.2822E+02
     13.655  0.0000E+00  0.2985E+02
     13.928  0.0000E+00  0.3030E+02
     14.201  0.0000E+00  0.3030E+02
     14.474  0.0000E+00  0.3044E+02
     14.748  0.0000E+00  0.3044E+02
     15.021  0.0000E+00  0.3044E+02
     15.294  0.0000E+00  0.3089E+02
     15.567  0.0000E+00  0.3089E+02
     15.841  0.0000E+00  0.3089E+02
     16.114  0.0000E+00  0.3089E+02
     16.387  0.0000E+00  0.3274E+02
     16.660  0.5383E+00  0.3422E+02
     16.933  0.0000E+00  0.3467E+02
     17.207  0.0000E+00  0.3467E+02
     17.480  0.0000E+00  0.3511E+02
     17.753  0.0000E+00  0.3570E+02
     18.026  0.0000E+00  0.3630E+02
     18.299  0.0000E+00  0.3674E+02
     18.573  0.0000E+00  0.3867E+02
     18.846  0.1627E+01  0.4015E+02
     19.119  0.0000E+00  0.4163E+02
     19.392  0.0000E+00  0.4296E+02
     19.665  0.1593E-05  0.4296E+02
     19.939  0.0000E+00  0.4430E+02
     20.212  0.0000E+00  0.4519E+02
     20.485  0.0000E+00  0.4541E+02
     20.758  0.0000E+00  0.4600E+02
     21.031  0.0000E+00  0.4600E+02
     21.305  0.0000E+00  0.4659E+02
     21.578  0.0000E+00  0.4659E+02
     21.851  0.0000E+00  0.4793E+02
     22.124  0.0000E+00  0.4793E+02
     22.397  0.0000E+00  0.4793E+02
     22.671  0.0000E+00  0.4793E+02
     22.944  0.0000E+00  0.4793E+02
     23.217  0.0000E+00  0.4889E+02
     23.490  0.0000E+00  0.4889E+02
     23.764  0.8182E+00  0.4911E+02
     24.037  0.0000E+00  0.4993E+02
     24.310  0.0000E+00  0.5037E+02
     24.583  0.0000E+00  0.5126E+02
     24.856  0.0000E+00  0.5304E+02
     25.130  0.0000E+00  0.5348E+02
     25.403  0.0000E+00  0.5556E+02
     25.676  0.0000E+00  0.5644E+02
     25.949  0.0000E+00  0.5733E+02
     26.222  0.0000E+00  0.5733E+02
     26.496  0.0000E+00  0.5815E+02
     26.769  0.0000E+00  0.5815E+02
     27.042  0.0000E+00  0.5815E+02
     27.315  0.0000E+00  0.5874E+02
     27.588  0.3185E+00  0.5994E+02
     27.862  0.0000E+00  0.6074E+02
     28.135  0.0000E+00  0.6074E+02
     28.408  0.0000E+00  0.6074E+02
     28.681  0.0000E+00  0.6074E+02
     28.954  0.0000E+00  0.6163E+02
     29.228  0.0000E+00  0.6163E+02
     29.501  0.0000E+00  0.6178E+02
     29.774  0.0000E+00  0.6237E+02
     30.047  0.0000E+00  0.6415E+02
     30.320  0.0000E+00  0.6467E+02
     30.594  0.0000E+00  0.6481E+02
     30.867  0.0000E+00  0.6489E+02
     31.140  0.0000E+00  0.6593E+02
     31.413  0.0000E+00  0.6637E+02
     31.687  0.0000E+00  0.6756E+02
     31.960  0.0000E+00  0.6904E+02
     32.233  0.0000E+00  0.7067E+02
     32.506  0.0000E+00  0.7067E+02
     32.779  0.0000E+00  0.7111E+02
     33.053  0.0000E+00  0.7111E+02
     33.326  0.1626E+01  0.7289E+02
     33.599  0.0000E+00  0.7333E+02
     33.872  0.0000E+00  0.7452E+02
     34.145  0.0000E+00  0.7541E+02
     34.419  0.0000E+00  0.7541E+02
     34.692  0.0000E+00  0.7630E+02
     34.965  0.0000E+00  0.7733E+02
     35.238  0.0000E+00  0.7778E+02
     35.511  0.0000E+00  0.7778E+02
     35.785  0.0000E+00  0.7926E+02
     36.058  0.1127E+01  0.8060E+02
     36.331  0.0000E+00  0.8207E+02
     36.604  0.0000E+00  0.8267E+02
     36.877  0.0000E+00  0.8311E+02
     37.151  0.0000E+00  0.8311E+02
     37.424  0.0000E+00  0.8311E+02
     37.697  0.0000E+00  0.8311E+02
     37.970  0.1898E+01  0.8422E+02
     38.243  0.0000E+00  0.8422E+02
     38.517  0.0000E+00  0.8511E+02
     38.790  0.0000E+00  0.8541E+02
     39.063  0.0000E+00  0.8674E+02
     39.336  0.2005E-03  0.8763E+02
     39.610  0.0000E+00  0.8881E+02
     39.883  0.0000E+00  0.8881E+02
     40.156  0.0000E+00  0.8985E+02
     40.429  0.1867E-01  0.8986E+02
     40.702  0.1627E+01  0.9133E+02
     40.976  0.0000E+00  0.9193E+02
     41.249  0.0000E+00  0.9252E+02
     41.522  0.0000E+00  0.9348E+02
     41.795  0.0000E+00  0.9348E+02
     42.068  0.0000E+00  0.9348E+02
     42.342  0.0000E+00  0.9407E+02
     42.615  0.0000E+00  0.9415E+02
     42.888  0.0000E+00  0.9422E+02
     43.161  0.0000E+00  0.9511E+02
     43.434  0.0000E+00  0.9511E+02
     43.708  0.0000E+00  0.9511E+02
     43.981  0.0000E+00  0.9511E+02
     44.254  0.0000E+00  0.9600E+02
     44.527  0.0000E+00  0.9600E+02
     44.800  0.0000E+00  0.9600E+02
     45.074  0.0000E+00  0.9600E+02
     45.347  0.0000E+00  0.9600E+02
     45.620  0.0000E+00  0.9600E+02
     45.893  0.0000E+00  0.9600E+02
     46.166  0.0000E+00  0.9600E+02
     46.440  0.0000E+00  0.9600E+02
     46.713  0.0000E+00  0.9600E+02
     46.986  0.0000E+00  0.9600E+02
     47.259  0.0000E+00  0.9600E+02
     47.533  0.0000E+00  0.9600E+02
     47.806  0.0000E+00  0.9600E+02
