   1   1   0   0
  0.5789729E+02  0.4342346E-09  0.4342346E-09  0.4342346E-09  0.1000000E-15
  1.000000000000000E-004
  CAR 
 Og_FCC                                  
     48.30244712    -44.58724350  301      2.94131487      1.00000000
    -44.587  0.0000E+00  0.0000E+00
    -44.278  0.0000E+00  0.0000E+00
    -43.968  0.0000E+00  0.0000E+00
    -43.658  0.0000E+00  0.0000E+00
    -43.349  0.0000E+00  0.0000E+00
    -43.039  0.0000E+00  0.0000E+00
    -42.729  0.0000E+00  0.0000E+00
    -42.420  0.0000E+00  0.0000E+00
    -42.110  0.0000E+00  0.0000E+00
    -41.801  0.0000E+00  0.0000E+00
    -41.491  0.0000E+00  0.0000E+00
    -41.181  0.0000E+00  0.0000E+00
    -40.872  0.0000E+00  0.0000E+00
    -40.562  0.0000E+00  0.0000E+00
    -40.252  0.0000E+00  0.4000E+01
    -39.943  0.0000E+00  0.4000E+01
    -39.633  0.0000E+00  0.4000E+01
    -39.323  0.0000E+00  0.4000E+01
    -39.014  0.0000E+00  0.4000E+01
    -38.704  0.0000E+00  0.4000E+01
    -38.395  0.0000E+00  0.4000E+01
    -38.085  0.0000E+00  0.4000E+01
    -37.775  0.0000E+00  0.4000E+01
    -37.466  0.0000E+00  0.4000E+01
    -37.156  0.0000E+00  0.4000E+01
    -36.846  0.0000E+00  0.4000E+01
    -36.537  0.0000E+00  0.4000E+01
    -36.227  0.0000E+00  0.4000E+01
    -35.918  0.0000E+00  0.4000E+01
    -35.608  0.0000E+00  0.4000E+01
    -35.298  0.0000E+00  0.4000E+01
    -34.989  0.0000E+00  0.4000E+01
    -34.679  0.0000E+00  0.4000E+01
    -34.369  0.0000E+00  0.4000E+01
    -34.060  0.0000E+00  0.4000E+01
    -33.750  0.0000E+00  0.4000E+01
    -33.440  0.0000E+00  0.4000E+01
    -33.131  0.0000E+00  0.4000E+01
    -32.821  0.0000E+00  0.4000E+01
    -32.512  0.0000E+00  0.1000E+02
    -32.202  0.0000E+00  0.1000E+02
    -31.892  0.0000E+00  0.1000E+02
    -31.583  0.0000E+00  0.1000E+02
    -31.273  0.0000E+00  0.1000E+02
    -30.963  0.0000E+00  0.1000E+02
    -30.654  0.0000E+00  0.1000E+02
    -30.344  0.0000E+00  0.1000E+02
    -30.035  0.0000E+00  0.1000E+02
    -29.725  0.0000E+00  0.1000E+02
    -29.415  0.0000E+00  0.1000E+02
    -29.106  0.0000E+00  0.1000E+02
    -28.796  0.0000E+00  0.1000E+02
    -28.486  0.0000E+00  0.1000E+02
    -28.177  0.0000E+00  0.1000E+02
    -27.867  0.0000E+00  0.1000E+02
    -27.557  0.0000E+00  0.1000E+02
    -27.248  0.0000E+00  0.1000E+02
    -26.938  0.0000E+00  0.1000E+02
    -26.629  0.0000E+00  0.1000E+02
    -26.319  0.0000E+00  0.1000E+02
    -26.009  0.0000E+00  0.1000E+02
    -25.700  0.0000E+00  0.1000E+02
    -25.390  0.0000E+00  0.1000E+02
    -25.080  0.0000E+00  0.1000E+02
    -24.771  0.0000E+00  0.1111E+02
    -24.461  0.0000E+00  0.1200E+02
    -24.152  0.0000E+00  0.1200E+02
    -23.842  0.0000E+00  0.1200E+02
    -23.532  0.0000E+00  0.1200E+02
    -23.223  0.0000E+00  0.1200E+02
    -22.913  0.0000E+00  0.1200E+02
    -22.603  0.0000E+00  0.1200E+02
    -22.294  0.0000E+00  0.1200E+02
    -21.984  0.0000E+00  0.1200E+02
    -21.674  0.0000E+00  0.1200E+02
    -21.365  0.0000E+00  0.1200E+02
    -21.055  0.0000E+00  0.1200E+02
    -20.746  0.0000E+00  0.1200E+02
    -20.436  0.0000E+00  0.1200E+02
    -20.126  0.0000E+00  0.1200E+02
    -19.817  0.0000E+00  0.1200E+02
    -19.507  0.0000E+00  0.1200E+02
    -19.197  0.0000E+00  0.1200E+02
    -18.888  0.0000E+00  0.1200E+02
    -18.578  0.0000E+00  0.1200E+02
    -18.268  0.0000E+00  0.1200E+02
    -17.959  0.0000E+00  0.1200E+02
    -17.649  0.0000E+00  0.1200E+02
    -17.340  0.0000E+00  0.1200E+02
    -17.030  0.0000E+00  0.1200E+02
    -16.720  0.0000E+00  0.1200E+02
    -16.411  0.0000E+00  0.1200E+02
    -16.101  0.0000E+00  0.1200E+02
    -15.791  0.0000E+00  0.1200E+02
    -15.482  0.0000E+00  0.1200E+02
    -15.172  0.0000E+00  0.1200E+02
    -14.863  0.0000E+00  0.1200E+02
    -14.553  0.0000E+00  0.1200E+02
    -14.243  0.0000E+00  0.1200E+02
    -13.934  0.0000E+00  0.1200E+02
    -13.624  0.0000E+00  0.1200E+02
    -13.314  0.0000E+00  0.1200E+02
    -13.005  0.0000E+00  0.1200E+02
    -12.695  0.0000E+00  0.1200E+02
    -12.385  0.0000E+00  0.1200E+02
    -12.076  0.0000E+00  0.1200E+02
    -11.766  0.0000E+00  0.1200E+02
    -11.457  0.0000E+00  0.1200E+02
    -11.147  0.0000E+00  0.1200E+02
    -10.837  0.0000E+00  0.1200E+02
    -10.528  0.0000E+00  0.1200E+02
    -10.218  0.0000E+00  0.1200E+02
     -9.908  0.0000E+00  0.1200E+02
     -9.599  0.0000E+00  0.1333E+02
     -9.289  0.0000E+00  0.1400E+02
     -8.980  0.0000E+00  0.1400E+02
     -8.670  0.0000E+00  0.1400E+02
     -8.360  0.0000E+00  0.1400E+02
     -8.051  0.0000E+00  0.1400E+02
     -7.741  0.0000E+00  0.1400E+02
     -7.431  0.0000E+00  0.1400E+02
     -7.122  0.0000E+00  0.1400E+02
     -6.812  0.0000E+00  0.1400E+02
     -6.502  0.0000E+00  0.1400E+02
     -6.193  0.0000E+00  0.1400E+02
     -5.883  0.0000E+00  0.1400E+02
     -5.574  0.0000E+00  0.1400E+02
     -5.264  0.0000E+00  0.1400E+02
     -4.954  0.0000E+00  0.1400E+02
     -4.645  0.0000E+00  0.1400E+02
     -4.335  0.0000E+00  0.1400E+02
     -4.025  0.0000E+00  0.1400E+02
     -3.716  0.0000E+00  0.1400E+02
     -3.406  0.0000E+00  0.1400E+02
     -3.097  0.0000E+00  0.1400E+02
     -2.787  0.0000E+00  0.1400E+02
     -2.477  0.0000E+00  0.1400E+02
     -2.168  0.0000E+00  0.1400E+02
     -1.858  0.0000E+00  0.1400E+02
     -1.548  0.0000E+00  0.1400E+02
     -1.239  0.0000E+00  0.1400E+02
     -0.929  0.0000E+00  0.1400E+02
     -0.619  0.0000E+00  0.1400E+02
     -0.310  0.0000E+00  0.1489E+02
     -0.000  0.0000E+00  0.1593E+02
      0.309  0.0000E+00  0.1593E+02
      0.619  0.0000E+00  0.1593E+02
      0.929  0.0000E+00  0.1681E+02
      1.238  0.0000E+00  0.1681E+02
      1.548  0.0000E+00  0.1726E+02
      1.858  0.0000E+00  0.1726E+02
      2.167  0.0000E+00  0.1726E+02
      2.477  0.0000E+00  0.1785E+02
      2.786  0.0000E+00  0.1785E+02
      3.096  0.0000E+00  0.1800E+02
      3.406  0.0000E+00  0.1800E+02
      3.715  0.0000E+00  0.1807E+02
      4.025  0.0000E+00  0.1807E+02
      4.335  0.0000E+00  0.1807E+02
      4.644  0.0000E+00  0.1807E+02
      4.954  0.0000E+00  0.1807E+02
      5.264  0.0000E+00  0.1807E+02
      5.573  0.0000E+00  0.1807E+02
      5.883  0.0000E+00  0.1807E+02
      6.192  0.0000E+00  0.1867E+02
      6.502  0.0000E+00  0.1867E+02
      6.812  0.0000E+00  0.1911E+02
      7.121  0.0000E+00  0.1911E+02
      7.431  0.0000E+00  0.1911E+02
      7.741  0.0000E+00  0.2000E+02
      8.050  0.0000E+00  0.2000E+02
      8.360  0.0000E+00  0.2044E+02
      8.670  0.0000E+00  0.2044E+02
      8.979  0.0000E+00  0.2133E+02
      9.289  0.0000E+00  0.2133E+02
      9.598  0.0000E+00  0.2133E+02
      9.908  0.0000E+00  0.2133E+02
     10.218  0.0000E+00  0.2133E+02
     10.527  0.0000E+00  0.2178E+02
     10.837  0.0000E+00  0.2237E+02
     11.147  0.0000E+00  0.2296E+02
     11.456  0.0000E+00  0.2370E+02
     11.766  0.2871E+01  0.2467E+02
     12.075  0.1509E-09  0.2533E+02
     12.385  0.0000E+00  0.2622E+02
     12.695  0.0000E+00  0.2622E+02
     13.004  0.0000E+00  0.2711E+02
     13.314  0.0000E+00  0.2756E+02
     13.624  0.0000E+00  0.2756E+02
     13.933  0.0000E+00  0.2756E+02
     14.243  0.0000E+00  0.2822E+02
     14.553  0.0000E+00  0.2985E+02
     14.862  0.0000E+00  0.3044E+02
     15.172  0.0000E+00  0.3044E+02
     15.481  0.0000E+00  0.3044E+02
     15.791  0.0000E+00  0.3044E+02
     16.101  0.0000E+00  0.3044E+02
     16.410  0.0000E+00  0.3096E+02
     16.720  0.0000E+00  0.3096E+02
     17.030  0.0000E+00  0.3096E+02
     17.339  0.0000E+00  0.3185E+02
     17.649  0.0000E+00  0.3185E+02
     17.958  0.0000E+00  0.3422E+02
     18.268  0.0000E+00  0.3511E+02
     18.578  0.0000E+00  0.3556E+02
     18.887  0.0000E+00  0.3615E+02
     19.197  0.0000E+00  0.3674E+02
     19.507  0.0000E+00  0.3911E+02
     19.816  0.0000E+00  0.4044E+02
     20.126  0.0000E+00  0.4133E+02
     20.436  0.0000E+00  0.4363E+02
     20.745  0.0000E+00  0.4422E+02
     21.055  0.0000E+00  0.4422E+02
     21.364  0.0000E+00  0.4481E+02
     21.674  0.0000E+00  0.4570E+02
     21.984  0.0000E+00  0.4793E+02
     22.293  0.0000E+00  0.4793E+02
     22.603  0.0000E+00  0.4793E+02
     22.913  0.0000E+00  0.4793E+02
     23.222  0.0000E+00  0.4889E+02
     23.532  0.0000E+00  0.4889E+02
     23.841  0.0000E+00  0.4933E+02
     24.151  0.0000E+00  0.4993E+02
     24.461  0.7109E+00  0.5081E+02
     24.770  0.0000E+00  0.5215E+02
     25.080  0.0000E+00  0.5348E+02
     25.390  0.0000E+00  0.5556E+02
     25.699  0.0000E+00  0.5644E+02
     26.009  0.0000E+00  0.5733E+02
     26.319  0.0000E+00  0.5748E+02
     26.628  0.0000E+00  0.5815E+02
     26.938  0.0000E+00  0.5815E+02
     27.247  0.0000E+00  0.5874E+02
     27.557  0.0000E+00  0.5963E+02
     27.867  0.0000E+00  0.6074E+02
     28.176  0.0000E+00  0.6074E+02
     28.486  0.0000E+00  0.6074E+02
     28.796  0.0000E+00  0.6074E+02
     29.105  0.0000E+00  0.6163E+02
     29.415  0.4043E-03  0.6163E+02
     29.725  0.0000E+00  0.6237E+02
     30.034  0.0000E+00  0.6415E+02
     30.344  0.1173E-04  0.6467E+02
     30.653  0.0000E+00  0.6481E+02
     30.963  0.0000E+00  0.6489E+02
     31.273  0.7100E+00  0.6615E+02
     31.582  0.0000E+00  0.6741E+02
     31.892  0.0000E+00  0.6844E+02
     32.202  0.9569E+00  0.7067E+02
     32.511  0.0000E+00  0.7067E+02
     32.821  0.0000E+00  0.7111E+02
     33.130  0.0000E+00  0.7200E+02
     33.440  0.0000E+00  0.7289E+02
     33.750  0.0000E+00  0.7393E+02
     34.059  0.0000E+00  0.7452E+02
     34.369  0.0000E+00  0.7541E+02
     34.679  0.0000E+00  0.7630E+02
     34.988  0.0000E+00  0.7733E+02
     35.298  0.0000E+00  0.7778E+02
     35.608  0.0000E+00  0.7867E+02
     35.917  0.0000E+00  0.7970E+02
     36.227  0.0000E+00  0.8119E+02
     36.536  0.0000E+00  0.8267E+02
     36.846  0.4785E+00  0.8281E+02
     37.156  0.0000E+00  0.8311E+02
     37.465  0.0000E+00  0.8311E+02
     37.775  0.0000E+00  0.8311E+02
     38.085  0.0000E+00  0.8422E+02
     38.394  0.0000E+00  0.8467E+02
     38.704  0.0000E+00  0.8541E+02
     39.013  0.0000E+00  0.8630E+02
     39.323  0.0000E+00  0.8763E+02
     39.633  0.0000E+00  0.8881E+02
     39.942  0.0000E+00  0.8881E+02
     40.252  0.0000E+00  0.8985E+02
     40.562  0.0000E+00  0.9074E+02
     40.871  0.0000E+00  0.9133E+02
     41.181  0.0000E+00  0.9252E+02
     41.491  0.0000E+00  0.9348E+02
     41.800  0.0000E+00  0.9348E+02
     42.110  0.6699E+00  0.9384E+02
     42.419  0.0000E+00  0.9407E+02
     42.729  0.0000E+00  0.9415E+02
     43.039  0.7766E-06  0.9422E+02
     43.348  0.0000E+00  0.9511E+02
     43.658  0.0000E+00  0.9511E+02
     43.968  0.0000E+00  0.9511E+02
     44.277  0.0000E+00  0.9600E+02
     44.587  0.0000E+00  0.9600E+02
     44.896  0.0000E+00  0.9600E+02
     45.206  0.0000E+00  0.9600E+02
     45.516  0.0000E+00  0.9600E+02
     45.825  0.0000E+00  0.9600E+02
     46.135  0.0000E+00  0.9600E+02
     46.445  0.0000E+00  0.9600E+02
     46.754  0.0000E+00  0.9600E+02
     47.064  0.0000E+00  0.9600E+02
     47.374  0.0000E+00  0.9600E+02
     47.683  0.0000E+00  0.9600E+02
     47.993  0.0000E+00  0.9600E+02
     48.302  0.0000E+00  0.9600E+02
