    1    1    1    1
  0.5789729E+02  0.4342346E-09  0.4342346E-09  0.4342346E-09  0.1000000E-15
  1.000000000000000E-004
  CAR 
 Og_FCC                                  
     18     27     96
 
  0.0000000E+00  0.0000000E+00  0.0000000E+00  0.3703704E-01
    1      -40.364985   1.000000
    2      -40.364870   1.000000
    3      -40.364826   1.000000
    4      -40.364679   1.000000
    5      -32.787248   1.000000
    6      -32.787024   1.000000
    7      -32.786909   1.000000
    8      -32.786657   1.000000
    9      -32.776750   1.000000
   10      -32.776727   1.000000
   11      -24.916211   1.000000
   12      -24.915782   1.000000
   13       -9.302043   1.000000
   14       -9.299124   1.000000
   15        2.917575   1.000000
   16        2.917898   1.000000
   17        2.922417   1.000000
   18        2.922740   1.000000
   19        3.432183   0.000000
   20        3.432569   0.000000
   21       11.262771   0.000000
   22       11.262839   0.000000
   23       11.262869   0.000000
   24       11.262935   0.000000
   25       11.502492   0.000000
   26       11.502795   0.000000
   27       11.790011   0.000000
   28       11.790764   0.000000
   29       14.060886   0.000000
   30       14.063772   0.000000
   31       14.505232   0.000000
   32       14.505304   0.000000
   33       14.506139   0.000000
   34       14.506220   0.000000
   35       14.828899   0.000000
   36       14.829860   0.000000
   37       14.831484   0.000000
   38       14.832451   0.000000
   39       16.269190   0.000000
   40       16.269503   0.000000
   41       20.405924   0.000000
   42       20.409375   0.000000
   43       20.409953   0.000000
   44       20.420230   0.000000
   45       20.420832   0.000000
   46       20.424281   0.000000
   47       22.964644   0.000000
   48       22.972500   0.000000
   49       26.250285   0.000000
   50       26.252313   0.000000
   51       26.267107   0.000000
   52       26.269109   0.000000
   53       26.470225   0.000000
   54       26.477201   0.000000
   55       27.780752   0.000000
   56       27.795144   0.000000
   57       29.416792   0.000000
   58       29.424542   0.000000
   59       29.428913   0.000000
   60       29.436785   0.000000
   61       30.180776   0.000000
   62       30.186450   0.000000
   63       30.346407   0.000000
   64       30.348502   0.000000
   65       30.354751   0.000000
   66       30.356943   0.000000
   67       30.795014   0.000000
   68       30.795063   0.000000
   69       31.618320   0.000000
   70       31.619110   0.000000
   71       31.628830   0.000000
   72       31.629616   0.000000
   73       37.792457   0.000000
   74       37.799170   0.000000
   75       37.800705   0.000000
   76       37.801571   0.000000
   77       37.803110   0.000000
   78       37.809817   0.000000
   79       38.579729   0.000000
   80       38.592768   0.000000
   81       38.611193   0.000000
   82       38.613235   0.000000
   83       38.625508   0.000000
   84       38.631546   0.000000
   85       38.643828   0.000000
   86       38.645904   0.000000
   87       41.126597   0.000000
   88       41.129250   0.000000
   89       41.131623   0.000000
   90       41.134348   0.000000
   91       41.312596   0.000000
   92       41.316912   0.000000
   93       42.564767   0.000000
   94       42.571677   0.000000
   95       42.854365   0.000000
   96       42.861450   0.000000
 
  0.3333333E+00  0.3133854E-17  0.0000000E+00  0.3703704E-01
    1      -40.361305   1.000000
    2      -40.361075   1.000000
    3      -40.352409   1.000000
    4      -40.352312   1.000000
    5      -32.774761   1.000000
    6      -32.774224   1.000000
    7      -32.767040   1.000000
    8      -32.766688   1.000000
    9      -32.763094   1.000000
   10      -32.762584   1.000000
   11      -24.814932   1.000000
   12      -24.814439   1.000000
   13       -9.567369   1.000000
   14       -9.564349   1.000000
   15       -0.187013   1.000000
   16       -0.185179   1.000000
   17        2.439653   1.000000
   18        2.443525   1.000000
   19        6.160414   0.000000
   20        6.160746   0.000000
   21       10.587428   0.000000
   22       10.587718   0.000000
   23       10.985079   0.000000
   24       10.986017   0.000000
   25       11.248298   0.000000
   26       11.249039   0.000000
   27       11.836317   0.000000
   28       11.837094   0.000000
   29       14.032970   0.000000
   30       14.033838   0.000000
   31       14.366199   0.000000
   32       14.368451   0.000000
   33       17.944844   0.000000
   34       17.945516   0.000000
   35       19.258245   0.000000
   36       19.261708   0.000000
   37       20.165700   0.000000
   38       20.167677   0.000000
   39       20.300130   0.000000
   40       20.301536   0.000000
   41       18.763592   0.000000
   42       18.777857   0.000000
   43       19.063036   0.000000
   44       19.076511   0.000000
   45       20.632713   0.000000
   46       20.643639   0.000000
   47       21.142787   0.000000
   48       21.147386   0.000000
   49       23.995298   0.000000
   50       23.998612   0.000000
   51       25.240763   0.000000
   52       25.251820   0.000000
   53       25.329160   0.000000
   54       25.340045   0.000000
   55       26.406432   0.000000
   56       26.414718   0.000000
   57       27.097047   0.000000
   58       27.102049   0.000000
   59       27.653402   0.000000
   60       27.659715   0.000000
   61       29.635622   0.000000
   62       29.638016   0.000000
   63       31.028814   0.000000
   64       31.044510   0.000000
   65       31.464801   0.000000
   66       31.470964   0.000000
   67       31.912664   0.000000
   68       31.916758   0.000000
   69       32.067438   0.000000
   70       32.077691   0.000000
   71       32.191199   0.000000
   72       32.197388   0.000000
   73       33.691583   0.000000
   74       33.702040   0.000000
   75       33.853054   0.000000
   76       33.857695   0.000000
   77       34.924365   0.000000
   78       34.933115   0.000000
   79       35.704632   0.000000
   80       35.718663   0.000000
   81       36.036298   0.000000
   82       36.041472   0.000000
   83       36.480843   0.000000
   84       36.490252   0.000000
   85       39.338868   0.000000
   86       39.350712   0.000000
   87       39.374634   0.000000
   88       39.383162   0.000000
   89       40.115756   0.000000
   90       40.119053   0.000000
   91       40.693937   0.000000
   92       40.698242   0.000000
   93       40.904864   0.000000
   94       40.909736   0.000000
   95       42.103544   0.000000
   96       42.110148   0.000000
 
 -0.3333333E+00 -0.3133854E-17  0.0000000E+00  0.3703704E-01
    1      -40.361305   1.000000
    2      -40.361074   1.000000
    3      -40.352409   1.000000
    4      -40.352312   1.000000
    5      -32.774762   1.000000
    6      -32.774225   1.000000
    7      -32.767041   1.000000
    8      -32.766689   1.000000
    9      -32.763094   1.000000
   10      -32.762584   1.000000
   11      -24.814906   1.000000
   12      -24.814414   1.000000
   13       -9.567373   1.000000
   14       -9.564353   1.000000
   15       -0.187014   1.000000
   16       -0.185180   1.000000
   17        2.439654   1.000000
   18        2.443527   1.000000
   19        6.160406   0.000000
   20        6.160738   0.000000
   21       10.587422   0.000000
   22       10.587712   0.000000
   23       10.985080   0.000000
   24       10.986015   0.000000
   25       11.248298   0.000000
   26       11.249039   0.000000
   27       11.836316   0.000000
   28       11.837092   0.000000
   29       14.032967   0.000000
   30       14.033835   0.000000
   31       14.366198   0.000000
   32       14.368450   0.000000
   33       17.944844   0.000000
   34       17.945517   0.000000
   35       19.258244   0.000000
   36       19.261707   0.000000
   37       20.165698   0.000000
   38       20.167675   0.000000
   39       20.300127   0.000000
   40       20.301533   0.000000
   41       18.763592   0.000000
   42       18.777857   0.000000
   43       19.063036   0.000000
   44       19.076511   0.000000
   45       20.632713   0.000000
   46       20.643639   0.000000
   47       21.142787   0.000000
   48       21.147386   0.000000
   49       23.995298   0.000000
   50       23.998612   0.000000
   51       25.240763   0.000000
   52       25.251820   0.000000
   53       25.329160   0.000000
   54       25.340044   0.000000
   55       26.406432   0.000000
   56       26.414718   0.000000
   57       27.097047   0.000000
   58       27.102049   0.000000
   59       27.653402   0.000000
   60       27.659715   0.000000
   61       29.635622   0.000000
   62       29.638016   0.000000
   63       31.028814   0.000000
   64       31.044511   0.000000
   65       31.464801   0.000000
   66       31.470964   0.000000
   67       31.912664   0.000000
   68       31.916758   0.000000
   69       32.067438   0.000000
   70       32.077691   0.000000
   71       32.191199   0.000000
   72       32.197388   0.000000
   73       33.691583   0.000000
   74       33.702040   0.000000
   75       33.853054   0.000000
   76       33.857695   0.000000
   77       34.924365   0.000000
   78       34.933115   0.000000
   79       35.704632   0.000000
   80       35.718663   0.000000
   81       36.036298   0.000000
   82       36.041473   0.000000
   83       36.480843   0.000000
   84       36.490252   0.000000
   85       39.338868   0.000000
   86       39.350712   0.000000
   87       39.374634   0.000000
   88       39.383162   0.000000
   89       40.115756   0.000000
   90       40.119053   0.000000
   91       40.693936   0.000000
   92       40.698242   0.000000
   93       40.904864   0.000000
   94       40.909736   0.000000
   95       42.103544   0.000000
   96       42.110148   0.000000
 
  0.3851860E-33  0.3333333E+00 -0.1387779E-16  0.3703704E-01
    1      -40.361214   1.000000
    2      -40.361168   1.000000
    3      -40.352459   1.000000
    4      -40.352260   1.000000
    5      -32.774593   1.000000
    6      -32.774394   1.000000
    7      -32.767018   1.000000
    8      -32.766723   1.000000
    9      -32.762903   1.000000
   10      -32.762765   1.000000
   11      -24.814874   1.000000
   12      -24.814487   1.000000
   13       -9.567354   1.000000
   14       -9.564377   1.000000
   15       -0.186494   1.000000
   16       -0.185700   1.000000
   17        2.441477   1.000000
   18        2.441706   1.000000
   19        6.160445   0.000000
   20        6.160719   0.000000
   21       10.587536   0.000000
   22       10.587600   0.000000
   23       10.985525   0.000000
   24       10.985560   0.000000
   25       11.248190   0.000000
   26       11.249142   0.000000
   27       11.836256   0.000000
   28       11.837139   0.000000
   29       14.033264   0.000000
   30       14.033535   0.000000
   31       14.367271   0.000000
   32       14.367387   0.000000
   33       17.944586   0.000000
   34       17.945797   0.000000
   35       19.257480   0.000000
   36       19.262529   0.000000
   37       20.166549   0.000000
   38       20.166815   0.000000
   39       20.300124   0.000000
   40       20.301536   0.000000
   41       18.769846   0.000000
   42       18.771348   0.000000
   43       19.068924   0.000000
   44       19.070896   0.000000
   45       20.630977   0.000000
   46       20.645393   0.000000
   47       21.141286   0.000000
   48       21.148874   0.000000
   49       23.994156   0.000000
   50       23.999716   0.000000
   51       25.244574   0.000000
   52       25.247855   0.000000
   53       25.334273   0.000000
   54       25.335101   0.000000
   55       26.407646   0.000000
   56       26.413496   0.000000
   57       27.095452   0.000000
   58       27.103618   0.000000
   59       27.656023   0.000000
   60       27.657147   0.000000
   61       29.635434   0.000000
   62       29.638209   0.000000
   63       31.035382   0.000000
   64       31.037862   0.000000
   65       31.462507   0.000000
   66       31.473275   0.000000
   67       31.912143   0.000000
   68       31.917279   0.000000
   69       32.071812   0.000000
   70       32.073435   0.000000
   71       32.189718   0.000000
   72       32.198829   0.000000
   73       33.694188   0.000000
   74       33.699452   0.000000
   75       33.852971   0.000000
   76       33.857762   0.000000
   77       34.926075   0.000000
   78       34.931322   0.000000
   79       35.711273   0.000000
   80       35.712091   0.000000
   81       36.037265   0.000000
   82       36.040481   0.000000
   83       36.484854   0.000000
   84       36.486258   0.000000
   85       39.344043   0.000000
   86       39.344606   0.000000
   87       39.374559   0.000000
   88       39.384192   0.000000
   89       40.114973   0.000000
   90       40.119825   0.000000
   91       40.695554   0.000000
   92       40.696515   0.000000
   93       40.906928   0.000000
   94       40.907751   0.000000
   95       42.101588   0.000000
   96       42.112115   0.000000
 
  0.3333333E+00  0.3333333E+00  0.2775558E-16  0.3703704E-01
    1      -40.359805   1.000000
    2      -40.359641   1.000000
    3      -40.357978   1.000000
    4      -40.357845   1.000000
    5      -32.773780   1.000000
    6      -32.773496   1.000000
    7      -32.773270   1.000000
    8      -32.772571   1.000000
    9      -32.762958   1.000000
   10      -32.762671   1.000000
   11      -24.783076   1.000000
   12      -24.782626   1.000000
   13       -9.635794   1.000000
   14       -9.632807   1.000000
   15       -0.219465   1.000000
   16       -0.216434   1.000000
   17        1.471725   1.000000
   18        1.475522   1.000000
   19        6.786430   0.000000
   20        6.786877   0.000000
   21        8.271178   0.000000
   22        8.271508   0.000000
   23       10.232743   0.000000
   24       10.233752   0.000000
   25       13.290534   0.000000
   26       13.292749   0.000000
   27       14.570537   0.000000
   28       14.572454   0.000000
   29       16.204253   0.000000
   30       16.210215   0.000000
   31       17.795181   0.000000
   32       17.796717   0.000000
   33       17.871668   0.000000
   34       17.872650   0.000000
   35       18.094042   0.000000
   36       18.095204   0.000000
   37       18.180241   0.000000
   38       18.181320   0.000000
   39       19.361776   0.000000
   40       19.363480   0.000000
   41       18.410610   0.000000
   42       18.432578   0.000000
   43       19.292926   0.000000
   44       19.298255   0.000000
   45       19.668636   0.000000
   46       19.674502   0.000000
   47       21.805192   0.000000
   48       21.816889   0.000000
   49       23.756692   0.000000
   50       23.765216   0.000000
   51       24.284551   0.000000
   52       24.293031   0.000000
   53       24.446967   0.000000
   54       24.458625   0.000000
   55       24.463455   0.000000
   56       24.465370   0.000000
   57       24.876063   0.000000
   58       24.894419   0.000000
   59       27.576790   0.000000
   60       27.588357   0.000000
   61       30.216872   0.000000
   62       30.222941   0.000000
   63       30.975634   0.000000
   64       30.982311   0.000000
   65       31.270889   0.000000
   66       31.274797   0.000000
   67       31.520045   0.000000
   68       31.523858   0.000000
   69       32.096717   0.000000
   70       32.100912   0.000000
   71       32.739156   0.000000
   72       32.748598   0.000000
   73       33.562114   0.000000
   74       33.568667   0.000000
   75       34.843849   0.000000
   76       34.847710   0.000000
   77       35.209490   0.000000
   78       35.213347   0.000000
   79       35.869593   0.000000
   80       35.880759   0.000000
   81       36.840270   0.000000
   82       36.866175   0.000000
   83       38.345114   0.000000
   84       38.362329   0.000000
   85       38.466252   0.000000
   86       38.479729   0.000000
   87       39.030770   0.000000
   88       39.037766   0.000000
   89       39.990130   0.000000
   90       39.997255   0.000000
   91       40.430880   0.000000
   92       40.432653   0.000000
   93       40.463165   0.000000
   94       40.469473   0.000000
   95       41.155291   0.000000
   96       41.159354   0.000000
 
 -0.3333333E+00  0.3333333E+00 -0.2543834E-16  0.3703704E-01
    1      -40.354263   1.000000
    2      -40.354129   1.000000
    3      -40.349168   1.000000
    4      -40.349030   1.000000
    5      -32.767963   1.000000
    6      -32.767395   1.000000
    7      -32.765304   1.000000
    8      -32.765048   1.000000
    9      -32.758504   1.000000
   10      -32.758304   1.000000
   11      -24.749401   1.000000
   12      -24.749090   1.000000
   13       -9.716768   1.000000
   14       -9.713824   1.000000
   15       -0.503910   1.000000
   16       -0.501714   1.000000
   17        0.834733   1.000000
   18        0.837469   1.000000
   19        7.533867   0.000000
   20        7.534103   0.000000
   21        8.913804   0.000000
   22        8.914292   0.000000
   23       11.762496   0.000000
   24       11.763089   0.000000
   25       12.079941   0.000000
   26       12.080384   0.000000
   27       12.946813   0.000000
   28       12.948271   0.000000
   29       14.394222   0.000000
   30       14.395523   0.000000
   31       17.323953   0.000000
   32       17.326767   0.000000
   33       17.926099   0.000000
   34       17.927573   0.000000
   35       20.132927   0.000000
   36       20.141546   0.000000
   37       21.443852   0.000000
   38       21.458181   0.000000
   39       21.824264   0.000000
   40       21.826085   0.000000
   41       19.309713   0.000000
   42       19.327357   0.000000
   43       19.742545   0.000000
   44       19.750611   0.000000
   45       20.012517   0.000000
   46       20.024763   0.000000
   47       21.708861   0.000000
   48       21.719006   0.000000
   49       23.168079   0.000000
   50       23.175655   0.000000
   51       24.617922   0.000000
   52       24.619686   0.000000
   53       24.840347   0.000000
   54       24.847081   0.000000
   55       25.186644   0.000000
   56       25.196916   0.000000
   57       25.613665   0.000000
   58       25.621776   0.000000
   59       25.792943   0.000000
   60       25.800407   0.000000
   61       27.433001   0.000000
   62       27.440276   0.000000
   63       28.933359   0.000000
   64       28.938127   0.000000
   65       29.861745   0.000000
   66       29.870824   0.000000
   67       29.997920   0.000000
   68       30.005940   0.000000
   69       31.779476   0.000000
   70       31.786501   0.000000
   71       33.099402   0.000000
   72       33.103248   0.000000
   73       33.314255   0.000000
   74       33.321694   0.000000
   75       34.072070   0.000000
   76       34.081773   0.000000
   77       34.424947   0.000000
   78       34.441577   0.000000
   79       35.538558   0.000000
   80       35.550941   0.000000
   81       36.055701   0.000000
   82       36.063012   0.000000
   83       36.246921   0.000000
   84       36.254515   0.000000
   85       37.961750   0.000000
   86       37.966957   0.000000
   87       38.912394   0.000000
   88       38.917008   0.000000
   89       39.307300   0.000000
   90       39.312156   0.000000
   91       41.458766   0.000000
   92       41.466227   0.000000
   93       43.044873   0.000000
   94       43.049459   0.000000
   95       44.071907   0.000000
   96       44.080133   0.000000
 
 -0.3851860E-33 -0.3333333E+00  0.1387779E-16  0.3703704E-01
    1      -40.361215   1.000000
    2      -40.361167   1.000000
    3      -40.352460   1.000000
    4      -40.352259   1.000000
    5      -32.774593   1.000000
    6      -32.774393   1.000000
    7      -32.767017   1.000000
    8      -32.766725   1.000000
    9      -32.762902   1.000000
   10      -32.762765   1.000000
   11      -24.814848   1.000000
   12      -24.814508   1.000000
   13       -9.567353   1.000000
   14       -9.564373   1.000000
   15       -0.186493   1.000000
   16       -0.185703   1.000000
   17        2.441478   1.000000
   18        2.441707   1.000000
   19        6.160454   0.000000
   20        6.160711   0.000000
   21       10.587529   0.000000
   22       10.587605   0.000000
   23       10.985527   0.000000
   24       10.985562   0.000000
   25       11.248192   0.000000
   26       11.249144   0.000000
   27       11.836259   0.000000
   28       11.837137   0.000000
   29       14.033268   0.000000
   30       14.033535   0.000000
   31       14.367266   0.000000
   32       14.367383   0.000000
   33       17.944580   0.000000
   34       17.945792   0.000000
   35       19.257476   0.000000
   36       19.262525   0.000000
   37       20.166553   0.000000
   38       20.166821   0.000000
   39       20.300122   0.000000
   40       20.301535   0.000000
   41       18.769847   0.000000
   42       18.771349   0.000000
   43       19.068926   0.000000
   44       19.070898   0.000000
   45       20.630977   0.000000
   46       20.645393   0.000000
   47       21.141287   0.000000
   48       21.148875   0.000000
   49       23.994154   0.000000
   50       23.999714   0.000000
   51       25.244569   0.000000
   52       25.247850   0.000000
   53       25.334285   0.000000
   54       25.335113   0.000000
   55       26.407655   0.000000
   56       26.413504   0.000000
   57       27.095450   0.000000
   58       27.103616   0.000000
   59       27.656022   0.000000
   60       27.657145   0.000000
   61       29.635431   0.000000
   62       29.638206   0.000000
   63       31.035381   0.000000
   64       31.037860   0.000000
   65       31.462504   0.000000
   66       31.473273   0.000000
   67       31.912143   0.000000
   68       31.917279   0.000000
   69       32.071811   0.000000
   70       32.073433   0.000000
   71       32.189719   0.000000
   72       32.198830   0.000000
   73       33.694188   0.000000
   74       33.699452   0.000000
   75       33.852974   0.000000
   76       33.857765   0.000000
   77       34.926071   0.000000
   78       34.931318   0.000000
   79       35.711267   0.000000
   80       35.712085   0.000000
   81       36.037274   0.000000
   82       36.040490   0.000000
   83       36.484851   0.000000
   84       36.486255   0.000000
   85       39.344046   0.000000
   86       39.344609   0.000000
   87       39.374557   0.000000
   88       39.384187   0.000000
   89       40.114971   0.000000
   90       40.119823   0.000000
   91       40.695557   0.000000
   92       40.696517   0.000000
   93       40.906933   0.000000
   94       40.907755   0.000000
   95       42.101587   0.000000
   96       42.112115   0.000000
 
  0.3333333E+00 -0.3333333E+00  0.2543834E-16  0.3703704E-01
    1      -40.354263   1.000000
    2      -40.354128   1.000000
    3      -40.349167   1.000000
    4      -40.349031   1.000000
    5      -32.767962   1.000000
    6      -32.767394   1.000000
    7      -32.765303   1.000000
    8      -32.765048   1.000000
    9      -32.758504   1.000000
   10      -32.758305   1.000000
   11      -24.749410   1.000000
   12      -24.749080   1.000000
   13       -9.716768   1.000000
   14       -9.713826   1.000000
   15       -0.503915   1.000000
   16       -0.501720   1.000000
   17        0.834736   1.000000
   18        0.837472   1.000000
   19        7.533866   0.000000
   20        7.534104   0.000000
   21        8.913807   0.000000
   22        8.914293   0.000000
   23       11.762500   0.000000
   24       11.763091   0.000000
   25       12.079940   0.000000
   26       12.080385   0.000000
   27       12.946809   0.000000
   28       12.948268   0.000000
   29       14.394222   0.000000
   30       14.395523   0.000000
   31       17.323953   0.000000
   32       17.326766   0.000000
   33       17.926097   0.000000
   34       17.927571   0.000000
   35       20.132924   0.000000
   36       20.141544   0.000000
   37       21.443855   0.000000
   38       21.458184   0.000000
   39       21.824264   0.000000
   40       21.826084   0.000000
   41       19.309713   0.000000
   42       19.327357   0.000000
   43       19.742547   0.000000
   44       19.750613   0.000000
   45       20.012519   0.000000
   46       20.024765   0.000000
   47       21.708863   0.000000
   48       21.719009   0.000000
   49       23.168077   0.000000
   50       23.175653   0.000000
   51       24.617931   0.000000
   52       24.619696   0.000000
   53       24.840347   0.000000
   54       24.847081   0.000000
   55       25.186634   0.000000
   56       25.196905   0.000000
   57       25.613672   0.000000
   58       25.621783   0.000000
   59       25.792940   0.000000
   60       25.800404   0.000000
   61       27.433007   0.000000
   62       27.440282   0.000000
   63       28.933357   0.000000
   64       28.938125   0.000000
   65       29.861746   0.000000
   66       29.870824   0.000000
   67       29.997920   0.000000
   68       30.005940   0.000000
   69       31.779477   0.000000
   70       31.786502   0.000000
   71       33.099400   0.000000
   72       33.103246   0.000000
   73       33.314258   0.000000
   74       33.321697   0.000000
   75       34.072066   0.000000
   76       34.081769   0.000000
   77       34.424943   0.000000
   78       34.441572   0.000000
   79       35.538570   0.000000
   80       35.550953   0.000000
   81       36.055694   0.000000
   82       36.063005   0.000000
   83       36.246929   0.000000
   84       36.254524   0.000000
   85       37.961748   0.000000
   86       37.966955   0.000000
   87       38.912395   0.000000
   88       38.917009   0.000000
   89       39.307297   0.000000
   90       39.312153   0.000000
   91       41.458766   0.000000
   92       41.466228   0.000000
   93       43.044871   0.000000
   94       43.049457   0.000000
   95       44.071906   0.000000
   96       44.080132   0.000000
 
 -0.3333333E+00 -0.3333333E+00 -0.2775558E-16  0.3703704E-01
    1      -40.359806   1.000000
    2      -40.359642   1.000000
    3      -40.357978   1.000000
    4      -40.357845   1.000000
    5      -32.773781   1.000000
    6      -32.773497   1.000000
    7      -32.773270   1.000000
    8      -32.772570   1.000000
    9      -32.762957   1.000000
   10      -32.762670   1.000000
   11      -24.783047   1.000000
   12      -24.782647   1.000000
   13       -9.635798   1.000000
   14       -9.632809   1.000000
   15       -0.219452   1.000000
   16       -0.216425   1.000000
   17        1.471727   1.000000
   18        1.475522   1.000000
   19        6.786428   0.000000
   20        6.786873   0.000000
   21        8.271178   0.000000
   22        8.271508   0.000000
   23       10.232738   0.000000
   24       10.233750   0.000000
   25       13.290526   0.000000
   26       13.292743   0.000000
   27       14.570535   0.000000
   28       14.572453   0.000000
   29       16.204252   0.000000
   30       16.210214   0.000000
   31       17.795185   0.000000
   32       17.796722   0.000000
   33       17.871668   0.000000
   34       17.872653   0.000000
   35       18.094040   0.000000
   36       18.095200   0.000000
   37       18.180239   0.000000
   38       18.181318   0.000000
   39       19.361778   0.000000
   40       19.363480   0.000000
   41       18.410608   0.000000
   42       18.432576   0.000000
   43       19.292928   0.000000
   44       19.298257   0.000000
   45       19.668637   0.000000
   46       19.674503   0.000000
   47       21.805194   0.000000
   48       21.816892   0.000000
   49       23.756694   0.000000
   50       23.765219   0.000000
   51       24.284551   0.000000
   52       24.293032   0.000000
   53       24.446965   0.000000
   54       24.458625   0.000000
   55       24.463452   0.000000
   56       24.465371   0.000000
   57       24.876064   0.000000
   58       24.894419   0.000000
   59       27.576787   0.000000
   60       27.588354   0.000000
   61       30.216868   0.000000
   62       30.222937   0.000000
   63       30.975634   0.000000
   64       30.982311   0.000000
   65       31.270889   0.000000
   66       31.274797   0.000000
   67       31.520061   0.000000
   68       31.523875   0.000000
   69       32.096718   0.000000
   70       32.100912   0.000000
   71       32.739158   0.000000
   72       32.748600   0.000000
   73       33.562114   0.000000
   74       33.568666   0.000000
   75       34.843841   0.000000
   76       34.847701   0.000000
   77       35.209490   0.000000
   78       35.213347   0.000000
   79       35.869593   0.000000
   80       35.880759   0.000000
   81       36.840270   0.000000
   82       36.866175   0.000000
   83       38.345114   0.000000
   84       38.362329   0.000000
   85       38.466250   0.000000
   86       38.479728   0.000000
   87       39.030773   0.000000
   88       39.037768   0.000000
   89       39.990119   0.000000
   90       39.997245   0.000000
   91       40.430880   0.000000
   92       40.432653   0.000000
   93       40.463177   0.000000
   94       40.469485   0.000000
   95       41.155289   0.000000
   96       41.159352   0.000000
 
  0.0000000E+00  0.0000000E+00  0.3333333E+00  0.3703704E-01
    1      -40.361214   1.000000
    2      -40.361167   1.000000
    3      -40.352474   1.000000
    4      -40.352246   1.000000
    5      -32.774593   1.000000
    6      -32.774393   1.000000
    7      -32.767018   1.000000
    8      -32.766725   1.000000
    9      -32.762900   1.000000
   10      -32.762768   1.000000
   11      -24.814837   1.000000
   12      -24.814501   1.000000
   13       -9.567352   1.000000
   14       -9.564371   1.000000
   15       -0.186481   1.000000
   16       -0.185706   1.000000
   17        2.441384   1.000000
   18        2.441801   1.000000
   19        6.160443   0.000000
   20        6.160697   0.000000