   1   1   0   0
  0.1860393E+02  0.2974221E-09  0.2974221E-09  0.2974221E-09  0.1000000E-15
  1.000000000000000E-004
  CAR 
 Og_FCC                                  
     31.42021189    -38.27434060  301    -10.28036201      1.00000000
    -38.274  0.0000E+00  0.0000E+00
    -38.042  0.0000E+00  0.0000E+00
    -37.810  0.0000E+00  0.0000E+00
    -37.577  0.0000E+00  0.0000E+00
    -37.345  0.0000E+00  0.0000E+00
    -37.113  0.0000E+00  0.0000E+00
    -36.880  0.0000E+00  0.0000E+00
    -36.648  0.0000E+00  0.0000E+00
    -36.416  0.0000E+00  0.0000E+00
    -36.184  0.0000E+00  0.0000E+00
    -35.951  0.0000E+00  0.0000E+00
    -35.719  0.0000E+00  0.0000E+00
    -35.487  0.0000E+00  0.0000E+00
    -35.254  0.0000E+00  0.0000E+00
    -35.022  0.4783E+00  0.2500E+00
    -34.790  0.0000E+00  0.2000E+01
    -34.557  0.0000E+00  0.2000E+01
    -34.325  0.0000E+00  0.2000E+01
    -34.093  0.0000E+00  0.2000E+01
    -33.860  0.0000E+00  0.2000E+01
    -33.628  0.0000E+00  0.2000E+01
    -33.396  0.0000E+00  0.2000E+01
    -33.163  0.0000E+00  0.2000E+01
    -32.931  0.0000E+00  0.2000E+01
    -32.699  0.0000E+00  0.2000E+01
    -32.466  0.0000E+00  0.2000E+01
    -32.234  0.0000E+00  0.2000E+01
    -32.002  0.0000E+00  0.2000E+01
    -31.770  0.0000E+00  0.2000E+01
    -31.537  0.0000E+00  0.2000E+01
    -31.305  0.0000E+00  0.2000E+01
    -31.073  0.0000E+00  0.2000E+01
    -30.840  0.0000E+00  0.2000E+01
    -30.608  0.0000E+00  0.2000E+01
    -30.376  0.0000E+00  0.2000E+01
    -30.143  0.0000E+00  0.2000E+01
    -29.911  0.0000E+00  0.2000E+01
    -29.679  0.0000E+00  0.2000E+01
    -29.446  0.0000E+00  0.2000E+01
    -29.214  0.0000E+00  0.2000E+01
    -28.982  0.0000E+00  0.2000E+01
    -28.749  0.0000E+00  0.2000E+01
    -28.517  0.0000E+00  0.2000E+01
    -28.285  0.0000E+00  0.2000E+01
    -28.052  0.0000E+00  0.2000E+01
    -27.820  0.0000E+00  0.2000E+01
    -27.588  0.0000E+00  0.2000E+01
    -27.356  0.0000E+00  0.2000E+01
    -27.123  0.0000E+00  0.2000E+01
    -26.891  0.0000E+00  0.2000E+01
    -26.659  0.0000E+00  0.2000E+01
    -26.426  0.0000E+00  0.2000E+01
    -26.194  0.0000E+00  0.2000E+01
    -25.962  0.0000E+00  0.2000E+01
    -25.729  0.0000E+00  0.2000E+01
    -25.497  0.0000E+00  0.2000E+01
    -25.265  0.0000E+00  0.2000E+01
    -25.032  0.0000E+00  0.2000E+01
    -24.800  0.0000E+00  0.2000E+01
    -24.568  0.0000E+00  0.2000E+01
    -24.335  0.0000E+00  0.2000E+01
    -24.103  0.0000E+00  0.2000E+01
    -23.871  0.0000E+00  0.2000E+01
    -23.638  0.0000E+00  0.2000E+01
    -23.406  0.0000E+00  0.2000E+01
    -23.174  0.0000E+00  0.2000E+01
    -22.942  0.0000E+00  0.2000E+01
    -22.709  0.0000E+00  0.2000E+01
    -22.477  0.0000E+00  0.2000E+01
    -22.245  0.0000E+00  0.2000E+01
    -22.012  0.0000E+00  0.2000E+01
    -21.780  0.0000E+00  0.2000E+01
    -21.548  0.0000E+00  0.2000E+01
    -21.315  0.0000E+00  0.2000E+01
    -21.083  0.0000E+00  0.2000E+01
    -20.851  0.0000E+00  0.2000E+01
    -20.618  0.0000E+00  0.2000E+01
    -20.386  0.0000E+00  0.2000E+01
    -20.154  0.0000E+00  0.2000E+01
    -19.921  0.0000E+00  0.2000E+01
    -19.689  0.0000E+00  0.2000E+01
    -19.457  0.0000E+00  0.2000E+01
    -19.224  0.0000E+00  0.2000E+01
    -18.992  0.0000E+00  0.2000E+01
    -18.760  0.0000E+00  0.2000E+01
    -18.528  0.0000E+00  0.2000E+01
    -18.295  0.0000E+00  0.2000E+01
    -18.063  0.0000E+00  0.2000E+01
    -17.831  0.0000E+00  0.2000E+01
    -17.598  0.0000E+00  0.2000E+01
    -17.366  0.0000E+00  0.2000E+01
    -17.134  0.0000E+00  0.2000E+01
    -16.901  0.0000E+00  0.2000E+01
    -16.669  0.0000E+00  0.2000E+01
    -16.437  0.0000E+00  0.2000E+01
    -16.204  0.0000E+00  0.2000E+01
    -15.972  0.0000E+00  0.2000E+01
    -15.740  0.0000E+00  0.2000E+01
    -15.507  0.0000E+00  0.2000E+01
    -15.275  0.0000E+00  0.2000E+01
    -15.043  0.0000E+00  0.2000E+01
    -14.811  0.0000E+00  0.2000E+01
    -14.578  0.0000E+00  0.2000E+01
    -14.346  0.0000E+00  0.2000E+01
    -14.114  0.0000E+00  0.2000E+01
    -13.881  0.0000E+00  0.2000E+01
    -13.649  0.0000E+00  0.2000E+01
    -13.417  0.0000E+00  0.2000E+01
    -13.184  0.0000E+00  0.2000E+01
    -12.952  0.0000E+00  0.2000E+01
    -12.720  0.0000E+00  0.2000E+01
    -12.487  0.0000E+00  0.2000E+01
    -12.255  0.0000E+00  0.2000E+01
    -12.023  0.0000E+00  0.2000E+01
    -11.790  0.0000E+00  0.2037E+01
    -11.558  0.0000E+00  0.2731E+01
    -11.326  0.0000E+00  0.3750E+01
    -11.093  0.0000E+00  0.4194E+01
    -10.861  0.8199E+00  0.5829E+01
    -10.629  0.0000E+00  0.7685E+01
    -10.397  0.0000E+00  0.7926E+01
    -10.164  0.0000E+00  0.8000E+01
     -9.932  0.0000E+00  0.8000E+01
     -9.700  0.0000E+00  0.8000E+01
     -9.467  0.0000E+00  0.8000E+01
     -9.235  0.0000E+00  0.8000E+01
     -9.003  0.0000E+00  0.8000E+01
     -8.770  0.0000E+00  0.8000E+01
     -8.538  0.0000E+00  0.8000E+01
     -8.306  0.0000E+00  0.8000E+01
     -8.073  0.0000E+00  0.8000E+01
     -7.841  0.0000E+00  0.8000E+01
     -7.609  0.0000E+00  0.8000E+01
     -7.376  0.0000E+00  0.8000E+01
     -7.144  0.0000E+00  0.8000E+01
     -6.912  0.0000E+00  0.8000E+01
     -6.679  0.0000E+00  0.8000E+01
     -6.447  0.0000E+00  0.8000E+01
     -6.215  0.0000E+00  0.8000E+01
     -5.983  0.0000E+00  0.8000E+01
     -5.750  0.0000E+00  0.8000E+01
     -5.518  0.0000E+00  0.8000E+01
     -5.286  0.0000E+00  0.8000E+01
     -5.053  0.0000E+00  0.8000E+01
     -4.821  0.0000E+00  0.8000E+01
     -4.589  0.0000E+00  0.8000E+01
     -4.356  0.0000E+00  0.8000E+01
     -4.124  0.0000E+00  0.8000E+01
     -3.892  0.0000E+00  0.8000E+01
     -3.659  0.0000E+00  0.8000E+01
     -3.427  0.0000E+00  0.8000E+01
     -3.195  0.0000E+00  0.8000E+01
     -2.962  0.0000E+00  0.8000E+01
     -2.730  0.0000E+00  0.8000E+01
     -2.498  0.0000E+00  0.8000E+01
     -2.265  0.0000E+00  0.8000E+01
     -2.033  0.0000E+00  0.8000E+01
     -1.801  0.0000E+00  0.8000E+01
     -1.569  0.0000E+00  0.8000E+01
     -1.336  0.0000E+00  0.8000E+01
     -1.104  0.0000E+00  0.8000E+01
     -0.872  0.0000E+00  0.8000E+01
     -0.639  0.0000E+00  0.8000E+01
     -0.407  0.0000E+00  0.8000E+01
     -0.175  0.0000E+00  0.8000E+01
      0.058  0.0000E+00  0.8000E+01
      0.290  0.0000E+00  0.8000E+01
      0.522  0.0000E+00  0.8000E+01
      0.755  0.0000E+00  0.8000E+01
      0.987  0.0000E+00  0.8000E+01
      1.219  0.0000E+00  0.8009E+01
      1.452  0.0000E+00  0.8009E+01
      1.684  0.0000E+00  0.8009E+01
      1.916  0.0000E+00  0.8009E+01
      2.148  0.3189E+00  0.8083E+01
      2.381  0.0000E+00  0.8083E+01
      2.613  0.0000E+00  0.8139E+01
      2.845  0.0000E+00  0.8139E+01
      3.078  0.0000E+00  0.8139E+01
      3.310  0.0000E+00  0.8139E+01
      3.542  0.0000E+00  0.8250E+01
      3.775  0.0000E+00  0.8250E+01
      4.007  0.0000E+00  0.8250E+01
      4.239  0.1272E-12  0.8250E+01
      4.472  0.0000E+00  0.8472E+01
      4.704  0.0000E+00  0.8546E+01
      4.936  0.0000E+00  0.8546E+01
      5.169  0.0000E+00  0.8546E+01
      5.401  0.0000E+00  0.8602E+01
      5.633  0.0000E+00  0.8602E+01
      5.866  0.0000E+00  0.8602E+01
      6.098  0.0000E+00  0.8824E+01
      6.330  0.0000E+00  0.9046E+01
      6.562  0.0000E+00  0.9046E+01
      6.795  0.0000E+00  0.9046E+01
      7.027  0.0000E+00  0.9046E+01
      7.259  0.0000E+00  0.9269E+01
      7.492  0.0000E+00  0.9269E+01
      7.724  0.0000E+00  0.9528E+01
      7.956  0.0000E+00  0.9565E+01
      8.189  0.0000E+00  0.9565E+01
      8.421  0.0000E+00  0.9565E+01
      8.653  0.0000E+00  0.9704E+01
      8.886  0.0000E+00  0.9926E+01
      9.118  0.0000E+00  0.9926E+01
      9.350  0.4783E+00  0.1004E+02
      9.583  0.0000E+00  0.1026E+02
      9.815  0.0000E+00  0.1026E+02
     10.047  0.0000E+00  0.1051E+02
     10.280  0.0000E+00  0.1051E+02
     10.512  0.0000E+00  0.1062E+02
     10.744  0.0000E+00  0.1062E+02
     10.976  0.4783E+00  0.1095E+02
     11.209  0.0000E+00  0.1095E+02
     11.441  0.0000E+00  0.1106E+02
     11.673  0.0000E+00  0.1129E+02
     11.906  0.0000E+00  0.1136E+02
     12.138  0.0000E+00  0.1147E+02
     12.370  0.0000E+00  0.1147E+02
     12.603  0.0000E+00  0.1169E+02
     12.835  0.0000E+00  0.1192E+02
     13.067  0.0000E+00  0.1214E+02
     13.300  0.0000E+00  0.1236E+02
     13.532  0.0000E+00  0.1239E+02
     13.764  0.0000E+00  0.1261E+02
     13.997  0.0000E+00  0.1267E+02
     14.229  0.0000E+00  0.1267E+02
     14.461  0.0000E+00  0.1272E+02
     14.694  0.0000E+00  0.1283E+02
     14.926  0.0000E+00  0.1283E+02
     15.158  0.0000E+00  0.1283E+02
     15.390  0.0000E+00  0.1306E+02
     15.623  0.0000E+00  0.1306E+02
     15.855  0.0000E+00  0.1339E+02
     16.087  0.0000E+00  0.1339E+02
     16.320  0.0000E+00  0.1339E+02
     16.552  0.0000E+00  0.1357E+02
     16.784  0.0000E+00  0.1380E+02
     17.017  0.0000E+00  0.1402E+02
     17.249  0.0000E+00  0.1407E+02
     17.481  0.0000E+00  0.1407E+02
     17.714  0.0000E+00  0.1430E+02
     17.946  0.0000E+00  0.1430E+02
     18.178  0.5624E-08  0.1432E+02
     18.411  0.0000E+00  0.1457E+02
     18.643  0.0000E+00  0.1469E+02
     18.875  0.9191E+00  0.1501E+02
     19.108  0.0000E+00  0.1546E+02
     19.340  0.0000E+00  0.1546E+02
     19.572  0.0000E+00  0.1554E+02
     19.804  0.0000E+00  0.1587E+02
     20.037  0.0000E+00  0.1607E+02
     20.269  0.0000E+00  0.1607E+02
     20.501  0.0000E+00  0.1619E+02
     20.734  0.0000E+00  0.1633E+02
     20.966  0.0000E+00  0.1658E+02
     21.198  0.0000E+00  0.1658E+02
     21.431  0.0000E+00  0.1658E+02
     21.663  0.0000E+00  0.1673E+02
     21.895  0.0000E+00  0.1706E+02
     22.128  0.0000E+00  0.1714E+02
     22.360  0.0000E+00  0.1736E+02
     22.592  0.0000E+00  0.1736E+02
     22.825  0.0000E+00  0.1747E+02
     23.057  0.0000E+00  0.1747E+02
     23.289  0.0000E+00  0.1770E+02
     23.521  0.0000E+00  0.1778E+02
     23.754  0.0000E+00  0.1781E+02
     23.986  0.0000E+00  0.1803E+02
     24.218  0.0000E+00  0.1803E+02
     24.451  0.0000E+00  0.1803E+02
     24.683  0.0000E+00  0.1814E+02
     24.915  0.0000E+00  0.1844E+02
     25.148  0.4262E-02  0.1857E+02
     25.380  0.0000E+00  0.1882E+02
     25.612  0.0000E+00  0.1882E+02
     25.845  0.0000E+00  0.1882E+02
     26.077  0.9566E+00  0.1905E+02
     26.309  0.0000E+00  0.1906E+02
     26.542  0.0000E+00  0.1928E+02
     26.774  0.0000E+00  0.1928E+02
     27.006  0.0000E+00  0.1949E+02
     27.239  0.0000E+00  0.1983E+02
     27.471  0.0000E+00  0.1983E+02
     27.703  0.4311E-10  0.1983E+02
     27.935  0.0000E+00  0.1989E+02
     28.168  0.0000E+00  0.1989E+02
     28.400  0.0000E+00  0.2000E+02
     28.632  0.0000E+00  0.2000E+02
     28.865  0.0000E+00  0.2000E+02
     29.097  0.0000E+00  0.2000E+02
     29.329  0.0000E+00  0.2000E+02
     29.562  0.0000E+00  0.2000E+02
     29.794  0.0000E+00  0.2000E+02
     30.026  0.0000E+00  0.2000E+02
     30.259  0.0000E+00  0.2000E+02
     30.491  0.0000E+00  0.2000E+02
     30.723  0.0000E+00  0.2000E+02
     30.956  0.0000E+00  0.2000E+02
     31.188  0.0000E+00  0.2000E+02
     31.420  0.0000E+00  0.2000E+02
