   1   1   0   0
  0.6194686E+02  0.4441314E-09  0.4441314E-09  0.4441314E-09  0.1000000E-15
  1.000000000000000E-004
  CAR 
 Og_FCC                                  
     16.82598849    -33.40358959  301      3.11413728      1.00000000
    -33.404  0.0000E+00  0.0000E+00
    -33.236  0.0000E+00  0.0000E+00
    -33.069  0.0000E+00  0.0000E+00
    -32.901  0.0000E+00  0.0000E+00
    -32.734  0.0000E+00  0.0000E+00
    -32.566  0.0000E+00  0.0000E+00
    -32.399  0.0000E+00  0.0000E+00
    -32.232  0.0000E+00  0.0000E+00
    -32.064 -0.1031E-36 -0.1727E-37
    -31.897 -0.2852E-24 -0.4775E-25
    -31.729 -0.2764E-14 -0.4628E-15
    -31.562 -0.8648E-07 -0.1448E-07
    -31.394 -0.8265E-02 -0.1384E-02
    -31.227 -0.7450E+00 -0.1261E+00
    -31.060  0.2267E+02  0.3670E+01
    -30.892  0.2042E+01  0.4012E+01
    -30.725 -0.7292E-01  0.4000E+01
    -30.557 -0.4404E-05  0.4000E+01
    -30.390 -0.7249E-12  0.4000E+01
    -30.222  0.0000E+00  0.4000E+01
    -30.055  0.0000E+00  0.4000E+01
    -29.888  0.0000E+00  0.4000E+01
    -29.720  0.0000E+00  0.4000E+01
    -29.553  0.0000E+00  0.4000E+01
    -29.385  0.0000E+00  0.4000E+01
    -29.218  0.0000E+00  0.4000E+01
    -29.050  0.0000E+00  0.4000E+01
    -28.883  0.0000E+00  0.4000E+01
    -28.715  0.0000E+00  0.4000E+01
    -28.548  0.0000E+00  0.4000E+01
    -28.381  0.0000E+00  0.4000E+01
    -28.213  0.0000E+00  0.4000E+01
    -28.046  0.0000E+00  0.4000E+01
    -27.878  0.0000E+00  0.4000E+01
    -27.711  0.0000E+00  0.4000E+01
    -27.543  0.0000E+00  0.4000E+01
    -27.376  0.0000E+00  0.4000E+01
    -27.209  0.0000E+00  0.4000E+01
    -27.041  0.0000E+00  0.4000E+01
    -26.874  0.0000E+00  0.4000E+01
    -26.706  0.0000E+00  0.4000E+01
    -26.539  0.0000E+00  0.4000E+01
    -26.371  0.0000E+00  0.4000E+01
    -26.204  0.0000E+00  0.4000E+01
    -26.037  0.0000E+00  0.4000E+01
    -25.869  0.0000E+00  0.4000E+01
    -25.702  0.0000E+00  0.4000E+01
    -25.534  0.0000E+00  0.4000E+01
    -25.367 -0.3520E-36  0.4000E+01
    -25.199 -0.8271E-24  0.4000E+01
    -25.032 -0.6848E-14  0.4000E+01
    -24.865 -0.1839E-06  0.4000E+01
    -24.697 -0.1511E-01  0.3997E+01
    -24.530 -0.1014E+01  0.3828E+01
    -24.362  0.3449E+02  0.9603E+01
    -24.195  0.2466E+01  0.1002E+02
    -24.027 -0.9448E-01  0.1000E+02
    -23.860 -0.5032E-05  0.1000E+02
    -23.693 -0.7422E-12  0.1000E+02
    -23.525  0.0000E+00  0.1000E+02
    -23.358  0.0000E+00  0.1000E+02
    -23.190  0.0000E+00  0.1000E+02
    -23.023  0.0000E+00  0.1000E+02
    -22.855  0.0000E+00  0.1000E+02
    -22.688  0.0000E+00  0.1000E+02
    -22.521  0.0000E+00  0.1000E+02
    -22.353  0.0000E+00  0.1000E+02
    -22.186  0.0000E+00  0.1000E+02
    -22.018  0.0000E+00  0.1000E+02
    -21.851  0.0000E+00  0.1000E+02
    -21.683 -0.2919E-32  0.1000E+02
    -21.516 -0.5271E-21  0.1000E+02
    -21.348 -0.3548E-12  0.1000E+02
    -21.181 -0.9721E-06  0.1000E+02
    -21.014 -0.1182E-01  0.9998E+01
    -20.846 -0.4859E-01  0.9990E+01
    -20.679  0.1106E+02  0.1184E+02
    -20.511  0.9857E+00  0.1201E+02
    -20.344 -0.3723E-01  0.1200E+02
    -20.176 -0.3218E-05  0.1200E+02
    -20.009 -0.8270E-12  0.1200E+02
    -19.842  0.0000E+00  0.1200E+02
    -19.674  0.0000E+00  0.1200E+02
    -19.507  0.0000E+00  0.1200E+02
    -19.339  0.0000E+00  0.1200E+02
    -19.172  0.0000E+00  0.1200E+02
    -19.004  0.0000E+00  0.1200E+02
    -18.837  0.0000E+00  0.1200E+02
    -18.670  0.0000E+00  0.1200E+02
    -18.502  0.0000E+00  0.1200E+02
    -18.335  0.0000E+00  0.1200E+02
    -18.167  0.0000E+00  0.1200E+02
    -18.000  0.0000E+00  0.1200E+02
    -17.832  0.0000E+00  0.1200E+02
    -17.665  0.0000E+00  0.1200E+02
    -17.498  0.0000E+00  0.1200E+02
    -17.330  0.0000E+00  0.1200E+02
    -17.163  0.0000E+00  0.1200E+02
    -16.995  0.0000E+00  0.1200E+02
    -16.828  0.0000E+00  0.1200E+02
    -16.660  0.0000E+00  0.1200E+02
    -16.493  0.0000E+00  0.1200E+02
    -16.326  0.0000E+00  0.1200E+02
    -16.158  0.0000E+00  0.1200E+02
    -15.991  0.0000E+00  0.1200E+02
    -15.823  0.0000E+00  0.1200E+02
    -15.656  0.0000E+00  0.1200E+02
    -15.488  0.0000E+00  0.1200E+02
    -15.321  0.0000E+00  0.1200E+02
    -15.154  0.0000E+00  0.1200E+02
    -14.986  0.0000E+00  0.1200E+02
    -14.819  0.0000E+00  0.1200E+02
    -14.651  0.0000E+00  0.1200E+02
    -14.484  0.0000E+00  0.1200E+02
    -14.316  0.0000E+00  0.1200E+02
    -14.149  0.0000E+00  0.1200E+02
    -13.981  0.0000E+00  0.1200E+02
    -13.814  0.0000E+00  0.1200E+02
    -13.647  0.0000E+00  0.1200E+02
    -13.479  0.0000E+00  0.1200E+02
    -13.312  0.0000E+00  0.1200E+02
    -13.144  0.0000E+00  0.1200E+02
    -12.977  0.0000E+00  0.1200E+02
    -12.809  0.0000E+00  0.1200E+02
    -12.642  0.0000E+00  0.1200E+02
    -12.475  0.0000E+00  0.1200E+02
    -12.307  0.0000E+00  0.1200E+02
    -12.140  0.0000E+00  0.1200E+02
    -11.972  0.0000E+00  0.1200E+02
    -11.805  0.0000E+00  0.1200E+02
    -11.637  0.0000E+00  0.1200E+02
    -11.470  0.0000E+00  0.1200E+02
    -11.303  0.0000E+00  0.1200E+02
    -11.135  0.0000E+00  0.1200E+02
    -10.968  0.0000E+00  0.1200E+02
    -10.800  0.0000E+00  0.1200E+02
    -10.633  0.0000E+00  0.1200E+02
    -10.465  0.0000E+00  0.1200E+02
    -10.298  0.0000E+00  0.1200E+02
    -10.131  0.0000E+00  0.1200E+02
     -9.963  0.0000E+00  0.1200E+02
     -9.796  0.0000E+00  0.1200E+02
     -9.628  0.0000E+00  0.1200E+02
     -9.461  0.0000E+00  0.1200E+02
     -9.293  0.0000E+00  0.1200E+02
     -9.126  0.0000E+00  0.1200E+02
     -8.959 -0.9761E-38  0.1200E+02
     -8.791 -0.2620E-25  0.1200E+02
     -8.624 -0.2551E-15  0.1200E+02
     -8.456 -0.8553E-08  0.1200E+02
     -8.289 -0.9974E-03  0.1200E+02
     -8.121 -0.2252E+00  0.1196E+02
     -7.954  0.5935E+01  0.1296E+02
     -7.787  0.5450E+01  0.1387E+02
     -7.619  0.8021E+00  0.1400E+02
     -7.452 -0.1506E-01  0.1400E+02
     -7.284 -0.6369E-03  0.1400E+02
     -7.117 -0.4119E-07  0.1400E+02
     -6.949 -0.1170E-13  0.1400E+02
     -6.782  0.0000E+00  0.1400E+02
     -6.614  0.0000E+00  0.1400E+02
     -6.447  0.0000E+00  0.1400E+02
     -6.280  0.0000E+00  0.1400E+02
     -6.112  0.0000E+00  0.1400E+02
     -5.945  0.0000E+00  0.1400E+02
     -5.777  0.0000E+00  0.1400E+02
     -5.610  0.0000E+00  0.1400E+02
     -5.442  0.0000E+00  0.1400E+02
     -5.275  0.0000E+00  0.1400E+02
     -5.108  0.0000E+00  0.1400E+02
     -4.940  0.0000E+00  0.1400E+02
     -4.773  0.0000E+00  0.1400E+02
     -4.605  0.0000E+00  0.1400E+02
     -4.438  0.0000E+00  0.1400E+02
     -4.270  0.0000E+00  0.1400E+02
     -4.103  0.0000E+00  0.1400E+02
     -3.936  0.0000E+00  0.1400E+02
     -3.768  0.0000E+00  0.1400E+02
     -3.601  0.0000E+00  0.1400E+02
     -3.433  0.0000E+00  0.1400E+02
     -3.266  0.0000E+00  0.1400E+02
     -3.098  0.0000E+00  0.1400E+02
     -2.931  0.0000E+00  0.1400E+02
     -2.764  0.0000E+00  0.1400E+02
     -2.596  0.0000E+00  0.1400E+02
     -2.429  0.0000E+00  0.1400E+02
     -2.261  0.0000E+00  0.1400E+02
     -2.094  0.0000E+00  0.1400E+02
     -1.926  0.0000E+00  0.1400E+02
     -1.759  0.0000E+00  0.1400E+02
     -1.592  0.0000E+00  0.1400E+02
     -1.424  0.0000E+00  0.1400E+02
     -1.257  0.0000E+00  0.1400E+02
     -1.089  0.0000E+00  0.1400E+02
     -0.922  0.0000E+00  0.1400E+02
     -0.754 -0.4695E-39  0.1400E+02
     -0.587 -0.1673E-26  0.1400E+02
     -0.419 -0.2084E-16  0.1400E+02
     -0.252 -0.8632E-09  0.1400E+02
     -0.085 -0.1232E-03  0.1400E+02
      0.083 -0.5674E-01  0.1399E+02
      0.250  0.1446E+01  0.1423E+02
      0.418  0.6258E+01  0.1528E+02
      0.585  0.1692E+01  0.1556E+02
      0.753  0.7531E+00  0.1569E+02
      0.920  0.7709E+00  0.1582E+02
      1.087  0.1878E+00  0.1585E+02
      1.255  0.9044E+00  0.1600E+02
      1.422  0.1610E+01  0.1627E+02
      1.590  0.1878E+01  0.1659E+02
      1.757  0.1174E+01  0.1678E+02
      1.925  0.1925E+01  0.1710E+02
      2.092  0.1099E+01  0.1729E+02
      2.259  0.7535E+00  0.1741E+02
      2.427  0.1437E+01  0.1766E+02
      2.594  0.7457E+00  0.1778E+02
      2.762  0.6897E+00  0.1790E+02
      2.929  0.4223E+00  0.1797E+02
      3.097  0.1864E+00  0.1800E+02
      3.264  0.3144E-01  0.1800E+02
      3.431 -0.1245E-02  0.1800E+02
      3.599 -0.6989E-06  0.1800E+02
      3.766 -0.5792E-08  0.1800E+02
      3.934 -0.1874E-03  0.1800E+02
      4.101  0.2262E-02  0.1800E+02
      4.269  0.1290E+00  0.1802E+02
      4.436  0.3876E-01  0.1803E+02
      4.603  0.6206E-01  0.1804E+02
      4.771 -0.8538E-02  0.1804E+02
      4.938  0.1393E+00  0.1806E+02
      5.106  0.1570E+00  0.1809E+02
      5.273  0.3062E+00  0.1814E+02
      5.441  0.2154E+00  0.1818E+02
      5.608  0.1946E+00  0.1821E+02
      5.775  0.6264E+00  0.1831E+02
      5.943  0.1161E+01  0.1851E+02
      6.110  0.1317E+01  0.1873E+02
      6.278  0.8891E+00  0.1888E+02
      6.445  0.1073E+01  0.1906E+02
      6.613  0.2161E+01  0.1942E+02
      6.780  0.1532E+01  0.1968E+02
      6.948  0.1262E+01  0.1989E+02
      7.115  0.7270E+00  0.2001E+02
      7.282  0.1308E+00  0.2003E+02
      7.450  0.4503E+00  0.2011E+02
      7.617  0.5415E+00  0.2020E+02
      7.785  0.9207E-01  0.2021E+02
      7.952  0.2742E+01  0.2067E+02
      8.120  0.3052E+01  0.2118E+02
      8.287  0.3881E+00  0.2125E+02
      8.454  0.9879E+00  0.2141E+02
      8.622  0.1124E+01  0.2160E+02
      8.789  0.1414E+01  0.2184E+02
      8.957  0.1880E+01  0.2215E+02
      9.124  0.2786E+01  0.2262E+02
      9.292  0.9050E+00  0.2277E+02
      9.459  0.5203E+00  0.2286E+02
      9.626  0.1335E+01  0.2308E+02
      9.794  0.3585E+01  0.2368E+02
      9.961  0.1058E+01  0.2386E+02
     10.129  0.8665E+00  0.2400E+02
     10.296  0.8200E+00  0.2414E+02
     10.464  0.1429E+01  0.2438E+02
     10.631  0.1615E+01  0.2465E+02
     10.798  0.3776E+01  0.2528E+02
     10.966  0.1084E+01  0.2546E+02
     11.133  0.1344E+01  0.2569E+02
     11.301  0.1438E+01  0.2593E+02
     11.468  0.1349E+01  0.2616E+02
     11.636  0.8453E+00  0.2630E+02
     11.803  0.1003E+01  0.2647E+02
     11.970  0.2592E+01  0.2690E+02
     12.138  0.9120E+00  0.2705E+02
     12.305  0.1158E+01  0.2725E+02
     12.473  0.4390E+00  0.2732E+02
     12.640  0.1879E+01  0.2763E+02
     12.808  0.9212E+00  0.2779E+02
     12.975  0.6708E-01  0.2780E+02
     13.142  0.8917E-01  0.2781E+02
     13.310  0.4177E+00  0.2788E+02
     13.477  0.1728E+00  0.2791E+02
     13.645  0.2956E+00  0.2796E+02
     13.812  0.6730E-01  0.2797E+02
     13.980  0.1083E+00  0.2799E+02
     14.147  0.2911E-01  0.2800E+02
     14.315 -0.9895E-03  0.2800E+02
     14.482  0.1285E-02  0.2800E+02
     14.649  0.1564E-01  0.2800E+02
     14.817 -0.4962E-03  0.2800E+02
     14.984 -0.6084E-05  0.2800E+02
     15.152 -0.6690E-10  0.2800E+02
     15.319 -0.3638E-17  0.2800E+02
     15.487  0.0000E+00  0.2800E+02
     15.654  0.0000E+00  0.2800E+02
     15.821  0.0000E+00  0.2800E+02
     15.989  0.0000E+00  0.2800E+02
     16.156  0.0000E+00  0.2800E+02
     16.324  0.0000E+00  0.2800E+02
     16.491  0.0000E+00  0.2800E+02
     16.659  0.0000E+00  0.2800E+02
     16.826  0.0000E+00  0.2800E+02
