   1   1   0   0
  0.6112264E+02  0.4421528E-09  0.4421528E-09  0.4421528E-09  0.1000000E-15
  1.000000000000000E-004
  CAR 
 Og_FCC                                  
     17.69455280    -33.47331092  301      3.03746160      1.00000000
    -33.473  0.0000E+00  0.0000E+00
    -33.303  0.0000E+00  0.0000E+00
    -33.132  0.0000E+00  0.0000E+00
    -32.962  0.0000E+00  0.0000E+00
    -32.791  0.0000E+00  0.0000E+00
    -32.621  0.0000E+00  0.0000E+00
    -32.450  0.0000E+00  0.0000E+00
    -32.279  0.0000E+00  0.0000E+00
    -32.109 -0.3317E-38 -0.5658E-39
    -31.938 -0.2754E-25 -0.4698E-26
    -31.768 -0.6489E-15 -0.1107E-15
    -31.597 -0.4005E-07 -0.6830E-08
    -31.427 -0.6121E-02 -0.1044E-02
    -31.256 -0.7629E+00 -0.1312E+00
    -31.085  0.2237E+02  0.3684E+01
    -30.915  0.1917E+01  0.4010E+01
    -30.744 -0.6143E-01  0.4000E+01
    -30.574 -0.2530E-05  0.4000E+01
    -30.403 -0.2314E-12  0.4000E+01
    -30.233  0.0000E+00  0.4000E+01
    -30.062  0.0000E+00  0.4000E+01
    -29.892  0.0000E+00  0.4000E+01
    -29.721  0.0000E+00  0.4000E+01
    -29.550  0.0000E+00  0.4000E+01
    -29.380  0.0000E+00  0.4000E+01
    -29.209  0.0000E+00  0.4000E+01
    -29.039  0.0000E+00  0.4000E+01
    -28.868  0.0000E+00  0.4000E+01
    -28.698  0.0000E+00  0.4000E+01
    -28.527  0.0000E+00  0.4000E+01
    -28.357  0.0000E+00  0.4000E+01
    -28.186  0.0000E+00  0.4000E+01
    -28.015  0.0000E+00  0.4000E+01
    -27.845  0.0000E+00  0.4000E+01
    -27.674  0.0000E+00  0.4000E+01
    -27.504  0.0000E+00  0.4000E+01
    -27.333  0.0000E+00  0.4000E+01
    -27.163  0.0000E+00  0.4000E+01
    -26.992  0.0000E+00  0.4000E+01
    -26.821  0.0000E+00  0.4000E+01
    -26.651  0.0000E+00  0.4000E+01
    -26.480  0.0000E+00  0.4000E+01
    -26.310  0.0000E+00  0.4000E+01
    -26.139  0.0000E+00  0.4000E+01
    -25.969  0.0000E+00  0.4000E+01
    -25.798  0.0000E+00  0.4000E+01
    -25.628  0.0000E+00  0.4000E+01
    -25.457  0.0000E+00  0.4000E+01
    -25.286 -0.5270E-28  0.4000E+01
    -25.116 -0.5054E-17  0.4000E+01
    -24.945 -0.1304E-08  0.4000E+01
    -24.775 -0.8766E-03  0.4000E+01
    -24.604 -0.9342E+00  0.3841E+01
    -24.434  0.2384E+02  0.7907E+01
    -24.263  0.1267E+02  0.1007E+02
    -24.093 -0.3983E+00  0.1000E+02
    -23.922 -0.8321E-04  0.1000E+02
    -23.751 -0.3414E-10  0.1000E+02
    -23.581  0.0000E+00  0.1000E+02
    -23.410  0.0000E+00  0.1000E+02
    -23.240  0.0000E+00  0.1000E+02
    -23.069  0.0000E+00  0.1000E+02
    -22.899  0.0000E+00  0.1000E+02
    -22.728  0.0000E+00  0.1000E+02
    -22.557  0.0000E+00  0.1000E+02
    -22.387  0.0000E+00  0.1000E+02
    -22.216  0.0000E+00  0.1000E+02
    -22.046  0.0000E+00  0.1000E+02
    -21.875  0.0000E+00  0.1000E+02
    -21.705 -0.5933E-35  0.1000E+02
    -21.534 -0.5152E-23  0.1000E+02
    -21.364 -0.1352E-13  0.1000E+02
    -21.193 -0.1143E-06  0.1000E+02
    -21.022 -0.3331E-02  0.9999E+01
    -20.852 -0.2341E+00  0.9960E+01
    -20.681  0.9023E+01  0.1150E+02
    -20.511  0.3038E+01  0.1202E+02
    -20.340 -0.9804E-01  0.1200E+02
    -20.170 -0.2194E-04  0.1200E+02
    -19.999 -0.1096E-10  0.1200E+02
    -19.829  0.0000E+00  0.1200E+02
    -19.658  0.0000E+00  0.1200E+02
    -19.487  0.0000E+00  0.1200E+02
    -19.317  0.0000E+00  0.1200E+02
    -19.146  0.0000E+00  0.1200E+02
    -18.976  0.0000E+00  0.1200E+02
    -18.805  0.0000E+00  0.1200E+02
    -18.635  0.0000E+00  0.1200E+02
    -18.464  0.0000E+00  0.1200E+02
    -18.294  0.0000E+00  0.1200E+02
    -18.123  0.0000E+00  0.1200E+02
    -17.952  0.0000E+00  0.1200E+02
    -17.782  0.0000E+00  0.1200E+02
    -17.611  0.0000E+00  0.1200E+02
    -17.441  0.0000E+00  0.1200E+02
    -17.270  0.0000E+00  0.1200E+02
    -17.100  0.0000E+00  0.1200E+02
    -16.929  0.0000E+00  0.1200E+02
    -16.758  0.0000E+00  0.1200E+02
    -16.588  0.0000E+00  0.1200E+02
    -16.417  0.0000E+00  0.1200E+02
    -16.247  0.0000E+00  0.1200E+02
    -16.076  0.0000E+00  0.1200E+02
    -15.906  0.0000E+00  0.1200E+02
    -15.735  0.0000E+00  0.1200E+02
    -15.565  0.0000E+00  0.1200E+02
    -15.394  0.0000E+00  0.1200E+02
    -15.223  0.0000E+00  0.1200E+02
    -15.053  0.0000E+00  0.1200E+02
    -14.882  0.0000E+00  0.1200E+02
    -14.712  0.0000E+00  0.1200E+02
    -14.541  0.0000E+00  0.1200E+02
    -14.371  0.0000E+00  0.1200E+02
    -14.200  0.0000E+00  0.1200E+02
    -14.030  0.0000E+00  0.1200E+02
    -13.859  0.0000E+00  0.1200E+02
    -13.688  0.0000E+00  0.1200E+02
    -13.518  0.0000E+00  0.1200E+02
    -13.347  0.0000E+00  0.1200E+02
    -13.177  0.0000E+00  0.1200E+02
    -13.006  0.0000E+00  0.1200E+02
    -12.836  0.0000E+00  0.1200E+02
    -12.665  0.0000E+00  0.1200E+02
    -12.494  0.0000E+00  0.1200E+02
    -12.324  0.0000E+00  0.1200E+02
    -12.153  0.0000E+00  0.1200E+02
    -11.983  0.0000E+00  0.1200E+02
    -11.812  0.0000E+00  0.1200E+02
    -11.642  0.0000E+00  0.1200E+02
    -11.471  0.0000E+00  0.1200E+02
    -11.301  0.0000E+00  0.1200E+02
    -11.130  0.0000E+00  0.1200E+02
    -10.959  0.0000E+00  0.1200E+02
    -10.789  0.0000E+00  0.1200E+02
    -10.618  0.0000E+00  0.1200E+02
    -10.448  0.0000E+00  0.1200E+02
    -10.277  0.0000E+00  0.1200E+02
    -10.107  0.0000E+00  0.1200E+02
     -9.936  0.0000E+00  0.1200E+02
     -9.766  0.0000E+00  0.1200E+02
     -9.595  0.0000E+00  0.1200E+02
     -9.424  0.0000E+00  0.1200E+02
     -9.254  0.0000E+00  0.1200E+02
     -9.083  0.0000E+00  0.1200E+02
     -8.913  0.0000E+00  0.1200E+02
     -8.742  0.0000E+00  0.1200E+02
     -8.572  0.0000E+00  0.1200E+02
     -8.401 -0.6995E-33  0.1200E+02
     -8.230 -0.3572E-21  0.1200E+02
     -8.060 -0.5203E-12  0.1200E+02
     -7.889 -0.2209E-05  0.1200E+02
     -7.719 -0.2370E-01  0.1200E+02
     -7.548  0.6258E+00  0.1210E+02
     -7.378  0.8213E+01  0.1350E+02
     -7.207  0.2409E+01  0.1391E+02
     -7.037  0.5149E+00  0.1400E+02
     -6.866 -0.1290E-01  0.1400E+02
     -6.695 -0.2270E-03  0.1400E+02
     -6.525 -0.7277E-08  0.1400E+02
     -6.354 -0.8643E-15  0.1400E+02
     -6.184  0.0000E+00  0.1400E+02
     -6.013  0.0000E+00  0.1400E+02
     -5.843  0.0000E+00  0.1400E+02
     -5.672  0.0000E+00  0.1400E+02
     -5.502  0.0000E+00  0.1400E+02
     -5.331  0.0000E+00  0.1400E+02
     -5.160  0.0000E+00  0.1400E+02
     -4.990  0.0000E+00  0.1400E+02
     -4.819  0.0000E+00  0.1400E+02
     -4.649  0.0000E+00  0.1400E+02
     -4.478  0.0000E+00  0.1400E+02
     -4.308  0.0000E+00  0.1400E+02
     -4.137  0.0000E+00  0.1400E+02
     -3.967  0.0000E+00  0.1400E+02
     -3.796  0.0000E+00  0.1400E+02
     -3.625  0.0000E+00  0.1400E+02
     -3.455  0.0000E+00  0.1400E+02
     -3.284  0.0000E+00  0.1400E+02
     -3.114  0.0000E+00  0.1400E+02
     -2.943  0.0000E+00  0.1400E+02
     -2.773  0.0000E+00  0.1400E+02
     -2.602  0.0000E+00  0.1400E+02
     -2.431  0.0000E+00  0.1400E+02
     -2.261  0.0000E+00  0.1400E+02
     -2.090  0.0000E+00  0.1400E+02
     -1.920  0.0000E+00  0.1400E+02
     -1.749  0.0000E+00  0.1400E+02
     -1.579  0.0000E+00  0.1400E+02
     -1.408  0.0000E+00  0.1400E+02
     -1.238  0.0000E+00  0.1400E+02
     -1.067  0.0000E+00  0.1400E+02
     -0.896  0.0000E+00  0.1400E+02
     -0.726 -0.2641E-28  0.1400E+02
     -0.555 -0.1182E-17  0.1400E+02
     -0.385 -0.1461E-09  0.1400E+02
     -0.214 -0.5327E-04  0.1400E+02
     -0.044 -0.5463E-01  0.1399E+02
      0.127  0.1476E+01  0.1424E+02
      0.297  0.6012E+01  0.1527E+02
      0.468  0.1660E+01  0.1555E+02
      0.639  0.7259E+00  0.1567E+02
      0.809  0.7360E+00  0.1580E+02
      0.980  0.2916E+00  0.1585E+02
      1.150  0.7756E+00  0.1598E+02
      1.321  0.1983E+01  0.1632E+02
      1.491  0.1649E+01  0.1660E+02
      1.662  0.1293E+01  0.1682E+02
      1.833  0.1680E+01  0.1711E+02
      2.003  0.1222E+01  0.1732E+02
      2.174  0.7766E+00  0.1745E+02
      2.344  0.1377E+01  0.1768E+02
      2.515  0.7290E+00  0.1781E+02
      2.685  0.6018E+00  0.1791E+02
      2.856  0.3723E+00  0.1798E+02
      3.026  0.1428E+00  0.1800E+02
      3.197  0.3486E-02  0.1800E+02
      3.368  0.1577E-01  0.1800E+02
      3.538 -0.3129E-03  0.1800E+02
      3.709 -0.8762E-05  0.1800E+02
      3.879 -0.2506E-09  0.1800E+02
      4.050 -0.2713E-04  0.1800E+02
      4.220 -0.4393E-02  0.1800E+02
      4.391  0.1200E+00  0.1802E+02
      4.561  0.2785E-01  0.1803E+02
      4.732  0.8513E-01  0.1804E+02
      4.903 -0.4551E-02  0.1804E+02
      5.073  0.3934E-01  0.1805E+02
      5.244  0.1745E+00  0.1808E+02
      5.414  0.1572E+00  0.1810E+02
      5.585  0.3455E+00  0.1816E+02
      5.755  0.1360E+00  0.1819E+02
      5.926  0.3058E+00  0.1824E+02
      6.097  0.6547E+00  0.1835E+02
      6.267  0.1417E+01  0.1859E+02
      6.438  0.1117E+01  0.1878E+02
      6.608  0.6192E+00  0.1889E+02
      6.779  0.1439E+01  0.1913E+02
      6.949  0.1846E+01  0.1945E+02
      7.120  0.1452E+01  0.1970E+02
      7.290  0.9923E+00  0.1987E+02
      7.461  0.8280E+00  0.2001E+02
      7.632  0.1649E+00  0.2003E+02
      7.802  0.4697E+00  0.2011E+02
      7.973  0.4900E+00  0.2020E+02
      8.143  0.6936E-01  0.2021E+02
      8.314  0.2675E+01  0.2067E+02
      8.484  0.2996E+01  0.2118E+02
      8.655  0.5056E+00  0.2126E+02
      8.825  0.9478E+00  0.2143E+02
      8.996  0.1110E+01  0.2161E+02
      9.167  0.1324E+01  0.2184E+02
      9.337  0.2036E+01  0.2219E+02
      9.508  0.2653E+01  0.2264E+02
      9.678  0.5820E+00  0.2274E+02
      9.849  0.6858E+00  0.2286E+02
     10.019  0.1150E+01  0.2305E+02
     10.190  0.3454E+01  0.2364E+02
     10.360  0.1244E+01  0.2385E+02
     10.531  0.1187E+01  0.2406E+02
     10.702  0.7181E+00  0.2418E+02
     10.872  0.1439E+01  0.2442E+02
     11.043  0.1505E+01  0.2468E+02
     11.213  0.3717E+01  0.2532E+02
     11.384  0.7811E+00  0.2545E+02
     11.554  0.1288E+01  0.2567E+02
     11.725  0.1632E+01  0.2595E+02
     11.896  0.1108E+01  0.2614E+02
     12.066  0.7874E+00  0.2627E+02
     12.237  0.9578E+00  0.2643E+02
     12.407  0.2448E+01  0.2685E+02
     12.578  0.9957E+00  0.2702E+02
     12.748  0.1473E+01  0.2727E+02
     12.919  0.2111E+00  0.2731E+02
     13.089  0.1617E+01  0.2758E+02
     13.260  0.1091E+01  0.2777E+02
     13.431  0.1851E+00  0.2780E+02
     13.601 -0.1166E-01  0.2780E+02
     13.772  0.4778E+00  0.2788E+02
     13.942  0.3111E-01  0.2789E+02
     14.113  0.4632E+00  0.2796E+02
     14.283  0.7815E-01  0.2798E+02
     14.454  0.8330E-01  0.2799E+02
     14.624  0.1319E-01  0.2799E+02
     14.795  0.1054E-01  0.2800E+02
     14.966  0.5664E-02  0.2800E+02
     15.136 -0.2158E-03  0.2800E+02
     15.307  0.1183E-02  0.2800E+02
     15.477  0.1545E-01  0.2800E+02
     15.648 -0.5080E-03  0.2800E+02
     15.818 -0.4607E-05  0.2800E+02
     15.989 -0.3215E-10  0.2800E+02
     16.160  0.0000E+00  0.2800E+02
     16.330  0.0000E+00  0.2800E+02
     16.501  0.0000E+00  0.2800E+02
     16.671  0.0000E+00  0.2800E+02
     16.842  0.0000E+00  0.2800E+02
     17.012  0.0000E+00  0.2800E+02
     17.183  0.0000E+00  0.2800E+02
     17.353  0.0000E+00  0.2800E+02
     17.524  0.0000E+00  0.2800E+02
     17.695  0.0000E+00  0.2800E+02
