   1   1   0   0
  0.5899102E+02  0.4369519E-09  0.4369519E-09  0.4369519E-09  0.1000000E-15
  1.000000000000000E-004
  CAR 
 Og_FCC                                  
     17.40917917    -32.92180537  301      3.75297648      1.00000000
    -32.922  0.0000E+00  0.0000E+00
    -32.754  0.0000E+00  0.0000E+00
    -32.586  0.0000E+00  0.0000E+00
    -32.418  0.0000E+00  0.0000E+00
    -32.251  0.0000E+00  0.0000E+00
    -32.083  0.0000E+00  0.0000E+00
    -31.915  0.0000E+00  0.0000E+00
    -31.747  0.0000E+00  0.0000E+00
    -31.580 -0.6822E-37 -0.1144E-37
    -31.412 -0.2138E-24 -0.3587E-25
    -31.244 -0.2297E-14 -0.3854E-15
    -31.076 -0.7793E-07 -0.1308E-07
    -30.909 -0.7901E-02 -0.1326E-02
    -30.741 -0.7508E+00 -0.1273E+00
    -30.573  0.2262E+02  0.3667E+01
    -30.405  0.2057E+01  0.4012E+01
    -30.237 -0.7234E-01  0.4000E+01
    -30.070 -0.4235E-05  0.4000E+01
    -29.902 -0.6601E-12  0.4000E+01
    -29.734  0.0000E+00  0.4000E+01
    -29.566  0.0000E+00  0.4000E+01
    -29.399  0.0000E+00  0.4000E+01
    -29.231  0.0000E+00  0.4000E+01
    -29.063  0.0000E+00  0.4000E+01
    -28.895  0.0000E+00  0.4000E+01
    -28.728  0.0000E+00  0.4000E+01
    -28.560  0.0000E+00  0.4000E+01
    -28.392  0.0000E+00  0.4000E+01
    -28.224  0.0000E+00  0.4000E+01
    -28.056  0.0000E+00  0.4000E+01
    -27.889  0.0000E+00  0.4000E+01
    -27.721  0.0000E+00  0.4000E+01
    -27.553  0.0000E+00  0.4000E+01
    -27.385  0.0000E+00  0.4000E+01
    -27.218  0.0000E+00  0.4000E+01
    -27.050  0.0000E+00  0.4000E+01
    -26.882  0.0000E+00  0.4000E+01
    -26.714  0.0000E+00  0.4000E+01
    -26.547  0.0000E+00  0.4000E+01
    -26.379  0.0000E+00  0.4000E+01
    -26.211  0.0000E+00  0.4000E+01
    -26.043  0.0000E+00  0.4000E+01
    -25.875  0.0000E+00  0.4000E+01
    -25.708  0.0000E+00  0.4000E+01
    -25.540  0.0000E+00  0.4000E+01
    -25.372  0.0000E+00  0.4000E+01
    -25.204  0.0000E+00  0.4000E+01
    -25.037  0.0000E+00  0.4000E+01
    -24.869 -0.3120E-35  0.4000E+01
    -24.701 -0.5153E-23  0.4000E+01
    -24.533 -0.2866E-13  0.4000E+01
    -24.366 -0.5284E-06  0.4000E+01
    -24.198 -0.2801E-01  0.3995E+01
    -24.030 -0.4268E+00  0.3924E+01
    -23.862  0.3553E+02  0.9885E+01
    -23.694  0.7403E+00  0.1001E+02
    -23.527 -0.5317E-01  0.1000E+02
    -23.359 -0.1680E-05  0.1000E+02
    -23.191 -0.1485E-12  0.1000E+02
    -23.023  0.0000E+00  0.1000E+02
    -22.856  0.0000E+00  0.1000E+02
    -22.688  0.0000E+00  0.1000E+02
    -22.520  0.0000E+00  0.1000E+02
    -22.352  0.0000E+00  0.1000E+02
    -22.185  0.0000E+00  0.1000E+02
    -22.017  0.0000E+00  0.1000E+02
    -21.849  0.0000E+00  0.1000E+02
    -21.681  0.0000E+00  0.1000E+02
    -21.513  0.0000E+00  0.1000E+02
    -21.346  0.0000E+00  0.1000E+02
    -21.178 -0.7546E-30  0.1000E+02
    -21.010 -0.4423E-19  0.1000E+02
    -20.842 -0.9443E-11  0.1000E+02
    -20.675 -0.8001E-05  0.1000E+02
    -20.507 -0.2931E-01  0.9995E+01
    -20.339  0.5295E+00  0.1008E+02
    -20.171  0.1111E+02  0.1195E+02
    -20.004  0.3329E+00  0.1200E+02
    -19.836 -0.1963E-01  0.1200E+02
    -19.668 -0.9992E-06  0.1200E+02
    -19.500 -0.1536E-12  0.1200E+02
    -19.332  0.0000E+00  0.1200E+02
    -19.165  0.0000E+00  0.1200E+02
    -18.997  0.0000E+00  0.1200E+02
    -18.829  0.0000E+00  0.1200E+02
    -18.661  0.0000E+00  0.1200E+02
    -18.494  0.0000E+00  0.1200E+02
    -18.326  0.0000E+00  0.1200E+02
    -18.158  0.0000E+00  0.1200E+02
    -17.990  0.0000E+00  0.1200E+02
    -17.823  0.0000E+00  0.1200E+02
    -17.655  0.0000E+00  0.1200E+02
    -17.487  0.0000E+00  0.1200E+02
    -17.319  0.0000E+00  0.1200E+02
    -17.151  0.0000E+00  0.1200E+02
    -16.984  0.0000E+00  0.1200E+02
    -16.816  0.0000E+00  0.1200E+02
    -16.648  0.0000E+00  0.1200E+02
    -16.480  0.0000E+00  0.1200E+02
    -16.313  0.0000E+00  0.1200E+02
    -16.145  0.0000E+00  0.1200E+02
    -15.977  0.0000E+00  0.1200E+02
    -15.809  0.0000E+00  0.1200E+02
    -15.642  0.0000E+00  0.1200E+02
    -15.474  0.0000E+00  0.1200E+02
    -15.306  0.0000E+00  0.1200E+02
    -15.138  0.0000E+00  0.1200E+02
    -14.970  0.0000E+00  0.1200E+02
    -14.803  0.0000E+00  0.1200E+02
    -14.635  0.0000E+00  0.1200E+02
    -14.467  0.0000E+00  0.1200E+02
    -14.299  0.0000E+00  0.1200E+02
    -14.132  0.0000E+00  0.1200E+02
    -13.964  0.0000E+00  0.1200E+02
    -13.796  0.0000E+00  0.1200E+02
    -13.628  0.0000E+00  0.1200E+02
    -13.460  0.0000E+00  0.1200E+02
    -13.293  0.0000E+00  0.1200E+02
    -13.125  0.0000E+00  0.1200E+02
    -12.957  0.0000E+00  0.1200E+02
    -12.789  0.0000E+00  0.1200E+02
    -12.622  0.0000E+00  0.1200E+02
    -12.454  0.0000E+00  0.1200E+02
    -12.286  0.0000E+00  0.1200E+02
    -12.118  0.0000E+00  0.1200E+02
    -11.951  0.0000E+00  0.1200E+02
    -11.783  0.0000E+00  0.1200E+02
    -11.615  0.0000E+00  0.1200E+02
    -11.447  0.0000E+00  0.1200E+02
    -11.279  0.0000E+00  0.1200E+02
    -11.112  0.0000E+00  0.1200E+02
    -10.944  0.0000E+00  0.1200E+02
    -10.776  0.0000E+00  0.1200E+02
    -10.608  0.0000E+00  0.1200E+02
    -10.441  0.0000E+00  0.1200E+02
    -10.273  0.0000E+00  0.1200E+02
    -10.105  0.0000E+00  0.1200E+02
     -9.937  0.0000E+00  0.1200E+02
     -9.770  0.0000E+00  0.1200E+02
     -9.602  0.0000E+00  0.1200E+02
     -9.434  0.0000E+00  0.1200E+02
     -9.266  0.0000E+00  0.1200E+02
     -9.098  0.0000E+00  0.1200E+02
     -8.931  0.0000E+00  0.1200E+02
     -8.763  0.0000E+00  0.1200E+02
     -8.595  0.0000E+00  0.1200E+02
     -8.427 -0.1325E-37  0.1200E+02
     -8.260 -0.3461E-25  0.1200E+02
     -8.092 -0.3219E-15  0.1200E+02
     -7.924 -0.1009E-07  0.1200E+02
     -7.756 -0.1074E-02  0.1200E+02
     -7.589 -0.2100E+00  0.1196E+02
     -7.421  0.5701E+01  0.1292E+02
     -7.253  0.5293E+01  0.1381E+02
     -7.085  0.1086E+01  0.1399E+02
     -6.917  0.5507E-01  0.1400E+02
     -6.750 -0.3268E-02  0.1400E+02
     -6.582 -0.1260E-05  0.1400E+02
     -6.414 -0.2111E-11  0.1400E+02
     -6.246  0.0000E+00  0.1400E+02
     -6.079  0.0000E+00  0.1400E+02
     -5.911  0.0000E+00  0.1400E+02
     -5.743  0.0000E+00  0.1400E+02
     -5.575  0.0000E+00  0.1400E+02
     -5.408  0.0000E+00  0.1400E+02
     -5.240  0.0000E+00  0.1400E+02
     -5.072  0.0000E+00  0.1400E+02
     -4.904  0.0000E+00  0.1400E+02
     -4.736  0.0000E+00  0.1400E+02
     -4.569  0.0000E+00  0.1400E+02
     -4.401  0.0000E+00  0.1400E+02
     -4.233  0.0000E+00  0.1400E+02
     -4.065  0.0000E+00  0.1400E+02
     -3.898  0.0000E+00  0.1400E+02
     -3.730  0.0000E+00  0.1400E+02
     -3.562  0.0000E+00  0.1400E+02
     -3.394  0.0000E+00  0.1400E+02
     -3.227  0.0000E+00  0.1400E+02
     -3.059  0.0000E+00  0.1400E+02
     -2.891  0.0000E+00  0.1400E+02
     -2.723  0.0000E+00  0.1400E+02
     -2.555  0.0000E+00  0.1400E+02
     -2.388  0.0000E+00  0.1400E+02
     -2.220  0.0000E+00  0.1400E+02
     -2.052  0.0000E+00  0.1400E+02
     -1.884  0.0000E+00  0.1400E+02
     -1.717  0.0000E+00  0.1400E+02
     -1.549  0.0000E+00  0.1400E+02
     -1.381  0.0000E+00  0.1400E+02
     -1.213  0.0000E+00  0.1400E+02
     -1.046  0.0000E+00  0.1400E+02
     -0.878  0.0000E+00  0.1400E+02
     -0.710  0.0000E+00  0.1400E+02
     -0.542  0.0000E+00  0.1400E+02
     -0.374  0.0000E+00  0.1400E+02
     -0.207 -0.7375E-30  0.1400E+02
     -0.039 -0.4836E-19  0.1400E+02
      0.129 -0.1046E-10  0.1400E+02
      0.297 -0.7762E-05  0.1400E+02
      0.464 -0.1948E-01  0.1400E+02
      0.632  0.3756E+00  0.1406E+02
      0.800  0.6022E+01  0.1507E+02
      0.968  0.2634E+01  0.1551E+02
      1.135  0.7315E+00  0.1563E+02
      1.303  0.6953E+00  0.1575E+02
      1.471  0.4263E+00  0.1582E+02
      1.639  0.5118E+00  0.1591E+02
      1.807  0.8671E+00  0.1605E+02
      1.974  0.2142E+01  0.1641E+02
      2.142  0.1199E+01  0.1661E+02
      2.310  0.1275E+01  0.1683E+02
      2.478  0.1732E+01  0.1712E+02
      2.645  0.1055E+01  0.1730E+02
      2.813  0.6462E+00  0.1740E+02
      2.981  0.1371E+01  0.1763E+02
      3.149  0.7134E+00  0.1775E+02
      3.317  0.6876E+00  0.1787E+02
      3.484  0.4201E+00  0.1794E+02
      3.652  0.2567E+00  0.1798E+02
      3.820  0.1192E+00  0.1800E+02
      3.988 -0.2863E-02  0.1800E+02
      4.155 -0.6400E-04  0.1800E+02
      4.323 -0.2107E-08  0.1800E+02
      4.491 -0.1041E-05  0.1800E+02
      4.659 -0.2254E-02  0.1800E+02
      4.826  0.6182E-01  0.1801E+02
      4.994  0.7068E-01  0.1802E+02
      5.162  0.8021E-01  0.1804E+02
      5.330  0.1896E-01  0.1804E+02
      5.498 -0.5028E-02  0.1804E+02
      5.665  0.2045E+00  0.1807E+02
      5.833  0.1184E+00  0.1809E+02
      6.001  0.3884E+00  0.1816E+02
      6.169  0.2739E+00  0.1821E+02
      6.336  0.2253E+00  0.1824E+02
      6.504  0.8786E+00  0.1839E+02
      6.672  0.1723E+01  0.1868E+02
      6.840  0.9099E+00  0.1883E+02
      7.007  0.6594E+00  0.1894E+02
      7.175  0.1843E+01  0.1925E+02
      7.343  0.2269E+01  0.1963E+02
      7.511  0.1001E+01  0.1980E+02
      7.679  0.1008E+01  0.1997E+02
      7.846  0.3504E+00  0.2003E+02
      8.014  0.3868E+00  0.2009E+02
      8.182  0.5695E+00  0.2019E+02
      8.350  0.4300E-01  0.2020E+02
      8.517  0.9764E+00  0.2036E+02
      8.685  0.4092E+01  0.2105E+02
      8.853  0.8306E+00  0.2119E+02
      9.021  0.1177E+01  0.2138E+02
      9.188  0.7804E+00  0.2151E+02
      9.356  0.9899E+00  0.2168E+02
      9.524  0.1908E+01  0.2200E+02
      9.692  0.2022E+01  0.2234E+02
      9.860  0.2233E+01  0.2271E+02
     10.027  0.3164E+00  0.2277E+02
     10.195  0.8422E+00  0.2291E+02
     10.363  0.1463E+01  0.2315E+02
     10.531  0.3335E+01  0.2371E+02
     10.698  0.9988E+00  0.2388E+02
     10.866  0.1053E+01  0.2406E+02
     11.034  0.8448E+00  0.2420E+02
     11.202  0.1592E+01  0.2447E+02
     11.369  0.1440E+01  0.2471E+02
     11.537  0.3637E+01  0.2532E+02
     11.705  0.1039E+01  0.2549E+02
     11.873  0.1229E+01  0.2570E+02
     12.041  0.1552E+01  0.2596E+02
     12.208  0.1369E+01  0.2619E+02
     12.376  0.9100E+00  0.2634E+02
     12.544  0.8993E+00  0.2649E+02
     12.712  0.2178E+01  0.2686E+02
     12.879  0.1304E+01  0.2708E+02
     13.047  0.1094E+01  0.2726E+02
     13.215  0.1015E+00  0.2728E+02
     13.383  0.1859E+01  0.2759E+02
     13.550  0.1044E+01  0.2777E+02
     13.718  0.1788E+00  0.2780E+02
     13.886 -0.3398E-02  0.2779E+02
     14.054  0.4202E+00  0.2787E+02
     14.222  0.1220E+00  0.2789E+02
     14.389  0.4676E+00  0.2796E+02
     14.557  0.8180E-01  0.2798E+02
     14.725  0.6857E-01  0.2799E+02
     14.893  0.3846E-01  0.2800E+02
     15.060  0.1108E-01  0.2800E+02
     15.228  0.1518E-01  0.2800E+02
     15.396 -0.4981E-03  0.2800E+02
     15.564 -0.5906E-05  0.2800E+02
     15.731 -0.6184E-10  0.2800E+02
     15.899 -0.3631E-17  0.2800E+02
     16.067  0.0000E+00  0.2800E+02
     16.235  0.0000E+00  0.2800E+02
     16.403  0.0000E+00  0.2800E+02
     16.570  0.0000E+00  0.2800E+02
     16.738  0.0000E+00  0.2800E+02
     16.906  0.0000E+00  0.2800E+02
     17.074  0.0000E+00  0.2800E+02
     17.241  0.0000E+00  0.2800E+02
     17.409  0.0000E+00  0.2800E+02
