    1    1    1    1
  0.6112264E+02  0.4421528E-09  0.4421528E-09  0.4421528E-09  0.1000000E-15
  1.000000000000000E-004
  CAR 
 Og_FCC                                  
     18    365     28
 
  0.0000000E+00  0.0000000E+00  0.0000000E+00  0.1371742E-02
    1      -31.147499   1.000000
    2      -31.147478   1.000000
    3      -31.147458   1.000000
    4      -31.147440   1.000000
    5      -24.458181   1.000000
    6      -24.458160   1.000000
    7      -24.454789   1.000000
    8      -24.454774   1.000000
    9      -24.454755   1.000000
   10      -24.454741   1.000000
   11      -20.816931   1.000000
   12      -20.816788   1.000000
   13       -7.082090   1.000000
   14       -7.082040   1.000000
   15        2.989180   0.860516
   16        2.989241   0.860171
   17        2.989259   0.860064
   18        2.989318   0.859734
   19        3.271861  -0.002259
   20        3.271953  -0.002251
   21       10.358830   0.000000
   22       10.358847   0.000000
   23       10.358873   0.000000
   24       10.358890   0.000000
   25       10.780822   0.000000
   26       10.780860   0.000000
   27       10.965006   0.000000
   28       10.965016   0.000000
 
  0.1111111E+00 -0.5907854E-17  0.6938894E-17  0.2743484E-02
    1      -31.147320   1.000000
    2      -31.147293   1.000000
    3      -31.147029   1.000000
    4      -31.146995   1.000000
    5      -24.457439   1.000000
    6      -24.457420   1.000000
    7      -24.454827   1.000000
    8      -24.454805   1.000000
    9      -24.453924   1.000000
   10      -24.453908   1.000000
   11      -20.805426   1.000000
   12      -20.805282   1.000000
   13       -7.123803   1.000000
   14       -7.123754   1.000000
   15        1.993064   1.000000
   16        1.993087   1.000000
   17        2.922452   1.034509
   18        2.922527   1.034489
   19        4.334768  -0.000000
   20        4.334797  -0.000000
   21        9.663081   0.000000
   22        9.663121   0.000000
   23       10.476671   0.000000
   24       10.476696   0.000000
   25       10.789385   0.000000
   26       10.789419   0.000000
   27       12.008626   0.000000
   28       12.202628   0.000000
 
  0.2222222E+00 -0.1181571E-16  0.2775558E-16  0.2743484E-02
    1      -31.147063   1.000000
    2      -31.147036   1.000000
    3      -31.146221   1.000000
    4      -31.146186   1.000000
    5      -24.456415   1.000000
    6      -24.456387   1.000000
    7      -24.454319   1.000000
    8      -24.454283   1.000000
    9      -24.451880   1.000000
   10      -24.451864   1.000000
   11      -20.776105   1.000000
   12      -20.775961   1.000000
   13       -7.230042   1.000000
   14       -7.229994   1.000000
   15        1.076441   1.000000
   16        1.076470   1.000000
   17        2.763117   1.000365
   18        2.763189   1.000366
   19        5.297037  -0.000000
   20        5.297079  -0.000000
   21        9.370988   0.000000
   22        9.371011   0.000000
   23       10.460295   0.000000
   24       10.460318   0.000000
   25       10.853022   0.000000
   26       10.853050   0.000000
   27       11.510210   0.000000
   28       11.511494   0.000000
 
  0.3333333E+00  0.3093120E-17  0.1387779E-16  0.2743484E-02
    1      -31.146858   1.000000
    2      -31.146830   1.000000
    3      -31.145318   1.000000
    4      -31.145283   1.000000
    5      -24.456636   1.000000
    6      -24.456608   1.000000
    7      -24.452392   1.000000
    8      -24.452357   1.000000
    9      -24.449573   1.000000
   10      -24.449556   1.000000
   11      -20.742336   1.000000
   12      -20.742191   1.000000
   13       -7.351420   1.000000
   14       -7.351374   1.000000
   15        0.436177   1.000000
   16        0.436210   1.000000
   17        2.596158   1.000000
   18        2.596228   1.000000
   19        5.713746  -0.000000
   20        5.713813  -0.000000
   21        9.859318   0.000000
   22        9.859355   0.000000
   23       10.105977   0.000000
   24       10.106001   0.000000
   25       10.535083   0.000000
   26       10.535111   0.000000
   27       11.028705   0.000000
   28       11.028714   0.000000
 
  0.4444444E+00 -0.2363142E-16  0.5551115E-16  0.2743484E-02
    1      -31.146756   1.000000
    2      -31.146729   1.000000
    3      -31.144755   1.000000
    4      -31.144720   1.000000
    5      -24.456981   1.000000
    6      -24.456954   1.000000
    7      -24.450966   1.000000
    8      -24.450932   1.000000
    9      -24.448082   1.000000
   10      -24.448065   1.000000
   11      -20.720058   1.000000
   12      -20.719913   1.000000
   13       -7.430993   1.000000
   14       -7.430948   1.000000
   15        0.109103   1.000000
   16        0.109139   1.000000
   17        2.494006   1.000000
   18        2.494074   1.000000
   19        5.773069   0.000000
   20        5.773149   0.000000
   21        9.854395   0.000000
   22        9.854420   0.000000
   23       10.128384   0.000000
   24       10.128421   0.000000
   25       10.268008   0.000000
   26       10.268036   0.000000
   27       11.497165   0.000000
   28       11.497195   0.000000
 
  0.0000000E+00  0.1111111E+00  0.6938894E-17  0.2743484E-02
    1      -31.147316   1.000000
    2      -31.147297   1.000000
    3      -31.147031   1.000000
    4      -31.146993   1.000000
    5      -24.457439   1.000000
    6      -24.457420   1.000000
    7      -24.454827   1.000000
    8      -24.454805   1.000000
    9      -24.453923   1.000000
   10      -24.453909   1.000000
   11      -20.805426   1.000000
   12      -20.805282   1.000000
   13       -7.123804   1.000000
   14       -7.123753   1.000000
   15        1.993067   1.000000
   16        1.993084   1.000000
   17        2.922469   1.034505
   18        2.922510   1.034494
   19        4.334770  -0.000000
   20        4.334795  -0.000000
   21        9.663086   0.000000
   22        9.663116   0.000000
   23       10.476664   0.000000
   24       10.476704   0.000000
   25       10.789385   0.000000
   26       10.789419   0.000000
   27       12.002811   0.000000
   28       12.018464   0.000000
 
  0.1111111E+00  0.1111111E+00  0.1387779E-16  0.2743484E-02
    1      -31.147162   1.000000
    2      -31.147155   1.000000
    3      -31.146983   1.000000
    4      -31.146945   1.000000
    5      -24.457301   1.000000
    6      -24.457274   1.000000
    7      -24.454353   1.000000
    8      -24.454312   1.000000
    9      -24.454047   1.000000
   10      -24.454017   1.000000
   11      -20.801595   1.000000
   12      -20.801451   1.000000
   13       -7.137166   1.000000
   14       -7.137116   1.000000
   15        1.893128   1.000000
   16        1.893153   1.000000
   17        2.767091   1.000444
   18        2.767131   1.000445
   19        4.608042  -0.000000
   20        4.608057  -0.000000
   21        9.380759   0.000000
   22        9.380804   0.000000
   23       10.504942   0.000000
   24       10.504958   0.000000
   25       11.062656   0.000000
   26       11.062679   0.000000
   27       11.267654   0.000000
   28       11.267681   0.000000
 
  0.2222222E+00  0.1111111E+00  0.1387779E-16  0.2743484E-02
    1      -31.147004   1.000000
    2      -31.146982   1.000000
    3      -31.146416   1.000000
    4      -31.146381   1.000000
    5      -24.456388   1.000000
    6      -24.456363   1.000000
    7      -24.454295   1.000000
    8      -24.454258   1.000000
    9      -24.452223   1.000000
   10      -24.452198   1.000000
   11      -20.778250   1.000000
   12      -20.778106   1.000000
   13       -7.220556   1.000000
   14       -7.220507   1.000000
   15        1.209247   1.000000
   16        1.209268   1.000000
   17        2.573212   1.000000
   18        2.573267   1.000000
   19        5.467407  -0.000000
   20        5.467430  -0.000000
   21        8.981950   0.000000
   22        8.981992   0.000000
   23       10.078091   0.000000
   24       10.078122   0.000000
   25       10.948025   0.000000
   26       10.948038   0.000000
   27       11.589534   0.000000
   28       11.589546   0.000000
 
  0.3333333E+00  0.1111111E+00  0.5551115E-16  0.2743484E-02
    1      -31.146756   1.000000
    2      -31.146730   1.000000
    3      -31.145550   1.000000
    4      -31.145515   1.000000
    5      -24.456025   1.000000
    6      -24.455999   1.000000
    7      -24.453064   1.000000
    8      -24.453017   1.000000
    9      -24.449941   1.000000
   10      -24.449916   1.000000
   11      -20.745958   1.000000
   12      -20.745813   1.000000
   13       -7.334767   1.000000
   14       -7.334720   1.000000
   15        0.577426   1.000000
   16        0.577451   1.000000
   17        2.361488   1.000000
   18        2.361545   1.000000
   19        6.066860   0.000000
   20        6.066906   0.000000
   21        9.202709   0.000000
   22        9.202731   0.000000
   23        9.499554   0.000000
   24        9.499583   0.000000
   25       10.817596   0.000000
   26       10.817618   0.000000
   27       12.231519   0.000000
   28       12.426681   0.000000
 
  0.4444444E+00  0.1111111E+00  0.0000000E+00  0.2743484E-02
    1      -31.146577   1.000000
    2      -31.146550   1.000000
    3      -31.144907   1.000000
    4      -31.144872   1.000000
    5      -24.456261   1.000000
    6      -24.456235   1.000000
    7      -24.451271   1.000000
    8      -24.451227   1.000000
    9      -24.448439   1.000000
   10      -24.448416   1.000000
   11      -20.719806   1.000000
   12      -20.719660   1.000000
   13       -7.426333   1.000000
   14       -7.426287   1.000000
   15        0.185992   1.000000
   16        0.186022   1.000000
   17        2.197641   1.000000
   18        2.197697   1.000000
   19        6.234181   0.000000
   20        6.234244   0.000000
   21        8.969295   0.000000
   22        8.969321   0.000000
   23       10.186016   0.000000
   24       10.186049   0.000000
   25       10.669503   0.000000
   26       10.669521   0.000000
   27       11.984293   0.000000
   28       11.984301   0.000000
 
 -0.4444444E+00  0.1111111E+00 -0.6938894E-16  0.2743484E-02
    1      -31.146525   1.000000
    2      -31.146497   1.000000
    3      -31.144677   1.000000
    4      -31.144641   1.000000
    5      -24.456322   1.000000
    6      -24.456296   1.000000
    7      -24.450588   1.000000
    8      -24.450556   1.000000
    9      -24.448155   1.000000
   10      -24.448137   1.000000
   11      -20.712337   1.000000
   12      -20.712191   1.000000
   13       -7.452302   1.000000
   14       -7.452257   1.000000
   15        0.084610   1.000000
   16        0.084644   1.000000
   17        2.150617   1.000000
   18        2.150675   1.000000
   19        6.263788   0.000000
   20        6.263855   0.000000
   21        8.900945   0.000000
   22        8.900969   0.000000
   23       10.211944   0.000000
   24       10.211983   0.000000
   25       11.003689   0.000000
   26       11.003731   0.000000
   27       12.144729   0.000000
   28       12.144737   0.000000
 
 -0.3333333E+00  0.1111111E+00 -0.4163336E-16  0.2743484E-02
    1      -31.146645   1.000000
    2      -31.146616   1.000000
    3      -31.145110   1.000000
    4      -31.145072   1.000000
    5      -24.456087   1.000000
    6      -24.456060   1.000000
    7      -24.451782   1.000000
    8      -24.451761   1.000000
    9      -24.448973   1.000000
   10      -24.448955   1.000000
   11      -20.727220   1.000000
   12      -20.727074   1.000000
   13       -7.400756   1.000000
   14       -7.400710   1.000000
   15        0.282303   1.000000
   16        0.282339   1.000000
   17        2.243005   1.000000
   18        2.243068   1.000000
   19        6.239502   0.000000
   20        6.239562   0.000000
   21        9.123870   0.000000
   22        9.123891   0.000000
   23       10.102787   0.000000
   24       10.102816   0.000000
   25       10.444557   0.000000
   26       10.444584   0.000000
   27       12.217499   0.000000
   28       12.424189   0.000000
 
 -0.2222222E+00  0.1111111E+00 -0.2081668E-16  0.2743484E-02
    1      -31.146877   1.000000
    2      -31.146847   1.000000
    3      -31.145849   1.000000
    4      -31.145809   1.000000
    5      -24.455738   1.000000
    6      -24.455709   1.000000
    7      -24.453929   1.000000
    8      -24.453907   1.000000
    9      -24.450716   1.000000
   10      -24.450695   1.000000
   11      -20.757188   1.000000
   12      -20.757044   1.000000
   13       -7.295785   1.000000
   14       -7.295737   1.000000
   15        0.755295   1.000000
   16        0.755333   1.000000
   17        2.452534   1.000000
   18        2.452603   1.000000
   19        5.925650   0.000000
   20        5.925691   0.000000
   21        9.195507   0.000000
   22        9.195526   0.000000
   23        9.850982   0.000000
   24        9.851002   0.000000
   25       10.688435   0.000000
   26       10.688470   0.000000
   27       11.633018   0.000000
   28       11.633042   0.000000
 
 -0.1111111E+00  0.1111111E+00 -0.7204790E-17  0.2743484E-02
    1      -31.147087   1.000000
    2      -31.147057   1.000000
    3      -31.146578   1.000000
    4      -31.146537   1.000000
    5      -24.456466   1.000000
    6      -24.456452   1.000000
    7      -24.454804   1.000000
    8      -24.454785   1.000000
    9      -24.452741   1.000000
   10      -24.452725   1.000000
   11      -20.787990   1.000000
   12      -20.787846   1.000000
   13       -7.186410   1.000000
   14       -7.186361   1.000000
   15        1.417049   1.000000
   16        1.417082   1.000000
   17        2.720762   1.000036
   18        2.720832   1.000036
   19        5.111508  -0.000000
   20        5.111537  -0.000000
   21        9.251258   0.000000
   22        9.251289   0.000000
   23       10.403650   0.000000
   24       10.403681   0.000000
   25       10.896118   0.000000
   26       10.896160   0.000000
   27       11.479576   0.000000
   28       11.479769   0.000000
 
  0.0000000E+00  0.2222222E+00  0.0000000E+00  0.2743484E-02
    1      -31.147059   1.000000
    2      -31.147040   1.000000
    3      -31.146223   1.000000
    4      -31.146185   1.000000
    5      -24.456412   1.000000
    6      -24.456390   1.000000
    7      -24.454320   1.000000
    8      -24.454282   1.000000
    9      -24.451879   1.000000
   10      -24.451865   1.000000
   11      -20.776105   1.000000
   12      -20.775961   1.000000
   13       -7.230043   1.000000
   14       -7.229993   1.000000
   15        1.076447   1.000000
   16        1.076464   1.000000
   17        2.763133   1.000365
   18        2.763172   1.000366
   19        5.297035  -0.000000
   20        5.297081  -0.000000
   21        9.370994   0.000000
   22        9.371005   0.000000
   23       10.460288   0.000000
   24       10.460325   0.000000
   25       10.853028   0.000000
   26       10.853055   0.000000
   27       11.510168   0.000000
   28       11.871488   0.000000
 
  0.1111111E+00  0.2222222E+00  0.0000000E+00  0.2743484E-02
    1      -31.146998   1.000000
    2      -31.146988   1.000000
    3      -31.146418   1.000000
    4      -31.146380   1.000000
    5      -24.456386   1.000000
    6      -24.456364   1.000000
    7      -24.454295   1.000000
    8      -24.454258   1.000000
    9      -24.452223   1.000000
   10      -24.452198   1.000000
   11      -20.778250   1.000000
   12      -20.778106   1.000000
   13       -7.220556   1.000000
   14       -7.220507   1.000000
   15        1.209246   1.000000
   16        1.209269   1.000000
   17        2.573227   1.000000
   18        2.573252   1.000000
   19        5.467409  -0.000000
   20        5.467428  -0.000000
   21        8.981955   0.000000
   22        8.981987   0.000000
   23       10.078090   0.000000
   24       10.078123   0.000000
   25       10.948028   0.000000
   26       10.948036   0.000000
   27       11.589535   0.000000
   28       11.589545   0.000000
 
  0.2222222E+00  0.2222222E+00  0.2775558E-16  0.2743484E-02
    1      -31.146717   1.000000
    2      -31.146710   1.000000
    3      -31.146132   1.000000
    4      -31.146094   1.000000
    5      -24.456378   1.000000
    6      -24.456352   1.000000
    7      -24.453432   1.000000
    8      -24.453391   1.000000
    9      -24.451179   1.000000
   10      -24.451151   1.000000
   11      -20.762625   1.000000
   12      -20.762481   1.000000
   13       -7.272905   1.000000
   14       -7.272857   1.000000
   15        0.984448   1.000000
   16        0.984477   1.000000
   17        2.277734   1.000000
   18        2.277771   1.000000
   19        6.003414   0.000000
   20        6.003427   0.000000
   21        8.403010   0.000000
   22        8.403061   0.000000
   23        9.542206   0.000000
   24        9.542244   0.000000
   25       11.190030   0.000000
   26       11.190052   0.000000
   27       12.077659   0.000000
   28       12.077677   0.000000
 
  0.3333333E+00  0.2222222E+00  0.0000000E+00  0.2743484E-02
    1      -31.146472   1.000000
    2      -31.146454   1.000000
    3      -31.145544   1.000000
    4      -31.145507   1.000000
    5      -24.455842   1.000000
    6      -24.455822   1.000000
    7      -24.452941   1.000000
    8      -24.452897   1.000000
    9      -24.449085   1.000000
   10      -24.449060   1.000000
   11      -20.736356   1.000000
   12      -20.736211   1.000000
   13       -7.361899   1.000000
   14       -7.361852   1.000000
   15        0.581304   1.000000
   16        0.581329   1.000000
   17        2.007216   1.000000
   18        2.007259   1.000000
   19        6.479100   0.000000
   20        6.479128   0.000000
   21        8.260217   0.000000
   22        8.260263   0.000000
   23        9.155603   0.000000
   24        9.155638   0.000000
   25       11.491592   0.000000
   26       11.491604   0.000000
   27       12.630057   0.000000
   28       12.630079   0.000000
 
  0.4444444E+00  0.2222222E+00  0.5551115E-16  0.2743484E-02
    1      -31.146193   1.000000
    2      -31.146170   1.000000
    3      -31.144968   1.000000
    4      -31.144929   1.000000
    5      -24.455292   1.000000
    6      -24.455271   1.000000
    7      -24.451826   1.000000
    8      -24.451778   1.000000
    9      -24.447814   1.000000
   10      -24.447788   1.000000
   11      -20.711625   1.000000
   12      -20.711479   1.000000
   13       -7.444400   1.000000
   14       -7.444354   1.000000
   15        0.262966   1.000000
   16        0.262988   1.000000
   17        1.732644   1.000000
   18        1.732687   1.000000
   19        6.751973   0.000000
   20        6.752020   0.000000
   21        8.385608   0.000000
   22        8.385634   0.000000
   23        9.392648   0.000000
   24        9.392670   0.000000
   25       11.308945   0.000000
   26       11.308959   0.000000
   27       12.996375   0.000000
   28       12.996417   0.000000
 
 -0.4444444E+00  0.2222222E+00 -0.4163336E-16  0.2743484E-02
    1      -31.146077   1.000000
    2      -31.146051   1.000000
    3      -31.144717   1.000000
    4      -31.144675   1.000000
    5      -24.455025   1.000000
    6      -24.455002   1.000000
    7      -24.450414   1.000000
    8      -24.450366   1.000000
    9      -24.448157   1.000000
   10      -24.448130   1.000000
   11      -20.700193   1.000000
   12      -20.700047   1.000000
   13       -7.482125   1.000000
   14       -7.482080   1.000000
   15        0.124032   1.000000
   16        0.124062   1.000000
   17        1.586486   1.000000
   18        1.586536   1.000000
   19        6.956762   0.000000
   20        6.956821   0.000000
   21        8.288031   0.000000
   22        8.288058   0.000000
   23       10.372394   0.000000
   24       10.372417   0.000000
   25       11.126731   0.000000
   26       11.126744   0.000000
   27       12.370448   0.000000
   28       12.370469   0.000000
 
 -0.3333333E+00  0.2222222E+00 -0.6938894E-16  0.2743484E-02
    1      -31.146163   1.000000
    2      -31.146133   1.000000
    3      -31.144895   1.000000
    4      -31.144850   1.000000
    5      -24.454791   1.000000
    6      -24.454767   1.000000
    7      -24.450659   1.000000
    8      -24.450648   1.000000
    9      -24.449005   1.000000
   10      -24.448986   1.000000
   11      -20.707554   1.000000
   12      -20.707408   1.000000
   13       -7.458835   1.000000
   14       -7.458789   1.000000
   15        0.183531   1.000000
   16        0.183570   1.000000
   17        1.667142   1.000000
   18        1.667205   1.000000
   19        7.129134   0.000000
   20        7.129195   0.000000
   21        8.307668   0.000000
   22        8.307691   0.000000
   23       10.146517   0.000000
   24       10.146547   0.000000
   25       11.090690   0.000000
   26       11.090709   0.000000
   27       12.605776   0.000000
   28       12.617850   0.000000
 
 -0.2222222E+00  0.2222222E+00 -0.1679862E-16  0.2743484E-02
    1      -31.146454   1.000000
    2      -31.146424   1.000000
    3      -31.145341   1.000000
    4      -31.145296   1.000000
    5      -24.454706   1.000000
    6      -24.454684   1.000000
    7      -24.452937   1.000000
    8      -24.452927   1.000000
    9      -24.449481   1.000000
   10      -24.449454   1.000000
   11      -20.730138   1.000000
   12      -20.729993   1.000000
   13       -7.385762   1.000000
   14       -7.385715   1.000000
   15        0.418215   1.000000
   16        0.418256   1.000000
   17        1.985032   1.000000
   18        1.985098   1.000000
   19        6.808282   0.000000
   20        6.808326   0.000000
   21        8.688693   0.000000
   22        8.688705   0.000000
   23        9.541625   0.000000
   24        9.541643   0.000000
   25       10.901854   0.000000
   26       10.901880   0.000000
   27       11.704315   0.000000
   28       11.704357   0.000000
 
 -0.1111111E+00  0.2222222E+00  0.0000000E+00  0.2743484E-02
    1      -31.146874   1.000000
    2      -31.146849   1.000000
    3      -31.145849   1.000000
    4      -31.145808   1.000000
    5      -24.455735   1.000000
    6      -24.455712   1.000000
    7      -24.453931   1.000000
    8      -24.453904   1.000000
    9      -24.450715   1.000000
   10      -24.450695   1.000000
   11      -20.757188   1.000000
   12      -20.757044   1.000000
   13       -7.295785   1.000000
   14       -7.295736   1.000000
   15        0.755298   1.000000
   16        0.755330   1.000000
   17        2.452540   1.000000
   18        2.452597   1.000000
   19        5.925647   0.000000
   20        5.925694   0.000000
   21        9.195508   0.000000
   22        9.195524   0.000000
   23        9.850979   0.000000
   24        9.851005   0.000000
   25       10.688431   0.000000
   26       10.688474   0.000000
   27       11.633020   0.000000
   28       11.633045   0.000000
 
  0.3851860E-33  0.3333333E+00  0.0000000E+00  0.2743484E-02
    1      -31.146854   1.000000
    2      -31.146835   1.000000
    3      -31.145319   1.000000
    4      -31.145282   1.000000
    5      -24.456633   1.000000
    6      -24.456611   1.000000
    7      -24.452393   1.000000
    8      -24.452356   1.000000
    9      -24.449572   1.000000
   10      -24.449557   1.000000
   11      -20.742336   1.000000
   12      -20.742191   1.000000
   13       -7.351422   1.000000
   14       -7.351373   1.000000
   15        0.436185   1.000000
   16        0.436203   1.000000
   17        2.596174   1.000000
   18        2.596212   1.000000
   19        5.713743  -0.000000
   20        5.713816  -0.000000
   21        9.859319   0.000000
   22        9.859354   0.000000
   23       10.105972   0.000000
   24       10.106005   0.000000
   25       10.535083   0.000000
   26       10.535111   0.000000
   27       11.028705   0.000000
   28       11.028714   0.000000
 
  0.1111111E+00  0.3333333E+00  0.2775558E-16  0.2743484E-02
    1      -31.146750   1.000000
    2      -31.146736   1.000000
    3      -31.145552   1.000000
    4      -31.145514   1.000000
    5      -24.456021   1.000000
    6      -24.456002   1.000000
    7      -24.453064   1.000000
    8      -24.453017   1.000000
    9      -24.449941   1.000000
   10      -24.449915   1.000000
   11      -20.745958   1.000000
   12      -20.745813   1.000000
   13       -7.334768   1.000000
   14       -7.334719   1.000000
   15        0.577429   1.000000
   16        0.577449   1.000000
   17        2.361504   1.000000
   18        2.361529   1.000000
   19        6.066860   0.000000
   20        6.066906   0.000000
   21        9.202713   0.000000
   22        9.202727   0.000000
   23        9.499549   0.000000
   24        9.499588   0.000000
   25       10.817595   0.000000
   26       10.817619   0.000000
   27       12.227478   0.000000
   28       12.428205   0.000000
 
  0.2222222E+00  0.3333333E+00  0.0000000E+00  0.2743484E-02
    1      -31.146466   1.000000
    2      -31.146461   1.000000
    3      -31.145545   1.000000
    4      -31.145506   1.000000
    5      -24.455841   1.000000
    6      -24.455823   1.000000
    7      -24.452941   1.000000
    8      -24.452897   1.000000
    9      -24.449086   1.000000
   10      -24.449059   1.000000
   11      -20.736356   1.000000
   12      -20.736211   1.000000
   13       -7.361900   1.000000
   14       -7.361852   1.000000
   15        0.581302   1.000000
   16        0.581332   1.000000
   17        2.007225   1.000000
   18        2.007251   1.000000
   19        6.479102   0.000000
   20        6.479125   0.000000
   21        8.260222   0.000000
   22        8.260259   0.000000
   23        9.155604   0.000000
   24        9.155638   0.000000
   25       11.491593   0.000000
   26       11.491603   0.000000
   27       12.630059   0.000000
   28       12.630078   0.000000
 
  0.3333333E+00  0.3333333E+00  0.2775558E-16  0.2743484E-02
    1      -31.146227   1.000000
    2      -31.146220   1.000000
    3      -31.145207   1.000000
    4      -31.145169   1.000000
    5      -24.456041   1.000000
    6      -24.456020   1.000000
    7      -24.452437   1.000000
    8      -24.452397   1.000000
    9      -24.447204   1.000000
   10      -24.447181   1.000000
   11      -20.717917   1.000000
   12      -20.717771   1.000000
   13       -7.420417   1.000000
   14       -7.420370   1.000000
   15        0.400456   1.000000
   16        0.400489   1.000000
   17        1.808977   1.000000
   18        1.809012   1.000000
   19        6.362470   0.000000
   20        6.362504   0.000000
   21        7.743716   0.000000
   22        7.743771   0.000000
   23        9.483327   0.000000
   24        9.483346   0.000000
   25       12.198312   0.000000
   26       12.198331   0.000000
   27       13.305315   0.000000
   28       13.305330   0.000000
 
  0.4444444E+00  0.3333333E+00  0.5551115E-16  0.2743484E-02
    1      -31.145983   1.000000
    2      -31.145970   1.000000
    3      -31.144820   1.000000
    4      -31.144780   1.000000
    5      -24.455554   1.000000
    6      -24.455536   1.000000
    7      -24.451955   1.000000
    8      -24.451913   1.000000
    9      -24.445953   1.000000
   10      -24.445931   1.000000
   11      -20.699250   1.000000
   12      -20.699104   1.000000
   13       -7.479770   1.000000
   14       -7.479724   1.000000
   15        0.223729   1.000000
   16        0.223758   1.000000
   17        1.554488   1.000000
   18        1.554522   1.000000
   19        6.376095   0.000000
   20        6.376137   0.000000
   21        7.771899   0.000000
   22        7.771947   0.000000
   23        9.749327   0.000000
   24        9.749343   0.000000
   25       12.422630   0.000000
   26       12.422642   0.000000
   27       13.697849   0.000000
   28       13.697884   0.000000
 
 -0.4444444E+00  0.3333333E+00 -0.4163336E-16  0.2743484E-02
    1      -31.145795   1.000000
    2      -31.145775   1.000000
    3      -31.144714   1.000000
    4      -31.144669   1.000000
    5      -24.454697   1.000000
    6      -24.454679   1.000000
    7      -24.451199   1.000000
    8      -24.451153   1.000000
    9      -24.446415   1.000000
   10      -24.446392   1.000000
   11      -20.689200   1.000000
   12      -20.689053   1.000000
   13       -7.510899   1.000000
   14       -7.510853   1.000000
   15        0.159674   1.000000
   16        0.159705   1.000000
   17        1.287600   1.000000
   18        1.287639   1.000000
   19        6.651835   0.000000
   20        6.651884   0.000000
   21        8.230459   0.000000
   22        8.230475   0.000000
   23       10.041275   0.000000
   24       10.041300   0.000000
   25       11.858808   0.000000
   26       11.858823   0.000000
   27       12.942407   0.000000
   28       12.942430   0.000000
 
 -0.3333333E+00  0.3333333E+00 -0.1928275E-16  0.2743484E-02
    1      -31.145844   1.000000
    2      -31.145817   1.000000
    3      -31.144826   1.000000
    4      -31.144775   1.000000
    5      -24.454293   1.000000
    6      -24.454274   1.000000
    7      -24.450096   1.000000
    8      -24.450045   1.000000
    9      -24.448360   1.000000
   10      -24.448332   1.000000
   11      -20.692525   1.000000
   12      -20.692379   1.000000
   13       -7.501747   1.000000
   14       -7.501701   1.000000
   15        0.156902   1.000000
   16        0.156944   1.000000
   17        1.289850   1.000000
   18        1.289909   1.000000
   19        7.069137   0.000000
   20        7.069195   0.000000
   21        8.387274   0.000000
   22        8.387290   0.000000
   23       10.779013   0.000000
   24       10.779034   0.000000
   25       11.079811   0.000000
   26       11.079853   0.000000
   27       11.974533   0.000000
   28       11.974538   0.000000
 
 -0.2222222E+00  0.3333333E+00 -0.6938894E-17  0.2743484E-02
    1      -31.146161   1.000000
    2      -31.146135   1.000000
    3      -31.144895   1.000000
    4      -31.144849   1.000000