    1    1    1    1
  0.5899102E+02  0.4369519E-09  0.4369519E-09  0.4369519E-09  0.1000000E-15
  1.000000000000000E-004
  CAR 
 Og_FCC                                  
     18    365     28
 
  0.0000000E+00  0.0000000E+00  0.0000000E+00  0.1371742E-02
    1      -30.634033   1.000000
    2      -30.634033   1.000000
    3      -30.634032   1.000000
    4      -30.634032   1.000000
    5      -23.945567   1.000000
    6      -23.945566   1.000000
    7      -23.941932   1.000000
    8      -23.941932   1.000000
    9      -23.941932   1.000000
   10      -23.941932   1.000000
   11      -20.358831   1.000000
   12      -20.358831   1.000000
   13       -7.063627   1.000000
   14       -7.063626   1.000000
   15        3.579550   1.017080
   16        3.579553   1.017081
   17        3.747349   0.547539
   18        3.747349   0.547537
   19        3.747350   0.547536
   20        3.747350   0.547535
   21       10.697064   0.000000
   22       10.697066   0.000000
   23       10.697067   0.000000
   24       10.697069   0.000000
   25       10.976327   0.000000
   26       10.976330   0.000000
   27       11.114264   0.000000
   28       11.114266   0.000000
 
  0.1111111E+00  0.1043312E-17  0.6938894E-17  0.2743484E-02
    1      -30.633947   1.000000
    2      -30.633947   1.000000
    3      -30.633716   1.000000
    4      -30.633715   1.000000
    5      -23.944843   1.000000
    6      -23.944843   1.000000
    7      -23.942037   1.000000
    8      -23.942036   1.000000
    9      -23.941094   1.000000
   10      -23.941094   1.000000
   11      -20.347006   1.000000
   12      -20.347006   1.000000
   13       -7.103814   1.000000
   14       -7.103814   1.000000
   15        2.541868   1.000000
   16        2.541870   1.000000
   17        3.675355   0.983710
   18        3.675355   0.983709
   19        4.831709  -0.000000
   20        4.831710  -0.000000
   21        9.884667   0.000000
   22        9.884668   0.000000
   23       10.816414   0.000000
   24       10.816416   0.000000
   25       11.103696   0.000000
   26       11.103698   0.000000
   27       12.143197   0.000000
   28       12.506486   0.000000
 
  0.2222222E+00  0.2086624E-17  0.0000000E+00  0.2743484E-02
    1      -30.633766   1.000000
    2      -30.633766   1.000000
    3      -30.632880   1.000000
    4      -30.632879   1.000000
    5      -23.943760   1.000000
    6      -23.943760   1.000000
    7      -23.941548   1.000000
    8      -23.941547   1.000000
    9      -23.938964   1.000000
   10      -23.938964   1.000000
   11      -20.316874   1.000000
   12      -20.316874   1.000000
   13       -7.205894   1.000000
   14       -7.205894   1.000000
   15        1.623274   1.000000
   16        1.623275   1.000000
   17        3.504431   1.001235
   18        3.504431   1.001235
   19        5.724583  -0.000000
   20        5.724586  -0.000000
   21        9.642869   0.000000
   22        9.642869   0.000000
   23       10.792624   0.000000
   24       10.792625   0.000000
   25       11.156922   0.000000
   26       11.156937   0.000000
   27       11.622375   0.000000
   28       11.622508   0.000000
 
  0.3333333E+00  0.3088551E-16 -0.1387779E-16  0.2743484E-02
    1      -30.633529   1.000000
    2      -30.633529   1.000000
    3      -30.631931   1.000000
    4      -30.631930   1.000000
    5      -23.943981   1.000000
    6      -23.943981   1.000000
    7      -23.939547   1.000000
    8      -23.939546   1.000000
    9      -23.936536   1.000000
   10      -23.936536   1.000000
   11      -20.282167   1.000000
   12      -20.282167   1.000000
   13       -7.322428   1.000000
   14       -7.322428   1.000000
   15        0.978641   1.000000
   16        0.978642   1.000000
   17        3.326560   1.000000
   18        3.326561   1.000000
   19        6.053290  -0.000000
   20        6.053294  -0.000000
   21       10.197034   0.000000
   22       10.197034   0.000000
   23       10.431295   0.000000
   24       10.431296   0.000000
   25       10.855659   0.000000
   26       10.855659   0.000000
   27       11.123085   0.000000
   28       11.123086   0.000000
 
  0.4444444E+00  0.4173249E-17  0.0000000E+00  0.2743484E-02
    1      -30.633385   1.000000
    2      -30.633385   1.000000
    3      -30.631321   1.000000
    4      -30.631321   1.000000
    5      -23.944338   1.000000
    6      -23.944338   1.000000
    7      -23.938042   1.000000
    8      -23.938041   1.000000
    9      -23.934953   1.000000
   10      -23.934953   1.000000
   11      -20.259248   1.000000
   12      -20.259248   1.000000
   13       -7.398765   1.000000
   14       -7.398764   1.000000
   15        0.648125   1.000000
   16        0.648126   1.000000
   17        3.218268   1.000000
   18        3.218268   1.000000
   19        6.071671  -0.000000
   20        6.071674  -0.000000
   21       10.179196   0.000000
   22       10.179197   0.000000
   23       10.373870   0.000000
   24       10.373872   0.000000
   25       10.579246   0.000000
   26       10.579246   0.000000
   27       11.692237   0.000000
   28       11.692237   0.000000
 
  0.0000000E+00  0.1111111E+00  0.0000000E+00  0.2743484E-02
    1      -30.633947   1.000000
    2      -30.633947   1.000000
    3      -30.633716   1.000000
    4      -30.633715   1.000000
    5      -23.944843   1.000000
    6      -23.944843   1.000000
    7      -23.942037   1.000000
    8      -23.942036   1.000000
    9      -23.941094   1.000000
   10      -23.941094   1.000000
   11      -20.347006   1.000000
   12      -20.347006   1.000000
   13       -7.103814   1.000000
   14       -7.103814   1.000000
   15        2.541868   1.000000
   16        2.541870   1.000000
   17        3.675355   0.983710
   18        3.675355   0.983709
   19        4.831708  -0.000000
   20        4.831710  -0.000000
   21        9.884667   0.000000
   22        9.884668   0.000000
   23       10.816412   0.000000
   24       10.816415   0.000000
   25       11.103695   0.000000
   26       11.103704   0.000000
   27       12.141099   0.000000
   28       12.369192   0.000000
 
  0.1111111E+00  0.1111111E+00  0.0000000E+00  0.2743484E-02
    1      -30.633840   1.000000
    2      -30.633840   1.000000
    3      -30.633685   1.000000
    4      -30.633684   1.000000
    5      -23.944714   1.000000
    6      -23.944713   1.000000
    7      -23.941553   1.000000
    8      -23.941553   1.000000
    9      -23.941223   1.000000
   10      -23.941222   1.000000
   11      -20.343080   1.000000
   12      -20.343079   1.000000
   13       -7.116727   1.000000
   14       -7.116727   1.000000
   15        2.436344   1.000000
   16        2.436345   1.000000
   17        3.504040   1.001214
   18        3.504040   1.001214
   19        5.121773  -0.000000
   20        5.121774  -0.000000
   21        9.595445   0.000000
   22        9.595446   0.000000
   23       10.836391   0.000000
   24       10.836393   0.000000
   25       11.406733   0.000000
   26       11.406774   0.000000
   27       11.489361   0.000000
   28       11.489694   0.000000
 
  0.2222222E+00  0.1111111E+00  0.0000000E+00  0.2743484E-02
    1      -30.633667   1.000000
    2      -30.633667   1.000000
    3      -30.633062   1.000000
    4      -30.633062   1.000000
    5      -23.943730   1.000000
    6      -23.943730   1.000000
    7      -23.941498   1.000000
    8      -23.941498   1.000000
    9      -23.939302   1.000000
   10      -23.939302   1.000000
   11      -20.319097   1.000000
   12      -20.319097   1.000000
   13       -7.196885   1.000000
   14       -7.196885   1.000000
   15        1.755209   1.000000
   16        1.755210   1.000000
   17        3.291061   1.000000
   18        3.291061   1.000000
   19        5.941676  -0.000000
   20        5.941677  -0.000000
   21        9.216906   0.000000
   22        9.216907   0.000000
   23       10.341046   0.000000
   24       10.341048   0.000000
   25       11.256067   0.000000
   26       11.256071   0.000000
   27       11.913397   0.000000
   28       11.913672   0.000000
 
  0.3333333E+00  0.1111111E+00  0.0000000E+00  0.2743484E-02
    1      -30.633433   1.000000
    2      -30.633433   1.000000
    3      -30.632180   1.000000
    4      -30.632179   1.000000
    5      -23.943344   1.000000
    6      -23.943344   1.000000
    7      -23.940231   1.000000
    8      -23.940230   1.000000
    9      -23.936921   1.000000
   10      -23.936921   1.000000
   11      -20.285915   1.000000
   12      -20.285915   1.000000
   13       -7.306694   1.000000
   14       -7.306693   1.000000
   15        1.122337   1.000000
   16        1.122338   1.000000
   17        3.059955   1.000000
   18        3.059955   1.000000
   19        6.457113  -0.000000
   20        6.457116  -0.000000
   21        9.493685   0.000000
   22        9.493685   0.000000
   23        9.765450   0.000000
   24        9.765453   0.000000
   25       11.138608   0.000000
   26       11.138615   0.000000
   27       12.433161   0.000000
   28       12.507559   0.000000
 
  0.4444444E+00  0.1111111E+00  0.2775558E-16  0.2743484E-02
    1      -30.633247   1.000000
    2      -30.633246   1.000000
    3      -30.631466   1.000000
    4      -30.631466   1.000000
    5      -23.943593   1.000000
    6      -23.943593   1.000000
    7      -23.938347   1.000000
    8      -23.938347   1.000000
    9      -23.935331   1.000000
   10      -23.935331   1.000000
   11      -20.259023   1.000000
   12      -20.259023   1.000000
   13       -7.394702   1.000000
   14       -7.394701   1.000000
   15        0.728218   1.000000
   16        0.728219   1.000000
   17        2.882043   1.000000
   18        2.882044   1.000000
   19        6.567843   0.000000
   20        6.567846   0.000000
   21        9.234041   0.000000
   22        9.234043   0.000000
   23       10.503211   0.000000
   24       10.503213   0.000000
   25       11.012411   0.000000
   26       11.012413   0.000000
   27       12.157510   0.000000
   28       12.157766   0.000000
 
 -0.4444444E+00  0.1111111E+00 -0.4163336E-16  0.2743484E-02
    1      -30.633199   1.000000
    2      -30.633199   1.000000
    3      -30.631287   1.000000
    4      -30.631286   1.000000
    5      -23.943667   1.000000
    6      -23.943666   1.000000
    7      -23.937664   1.000000
    8      -23.937664   1.000000
    9      -23.935040   1.000000
   10      -23.935040   1.000000
   11      -20.251373   1.000000
   12      -20.251373   1.000000
   13       -7.419723   1.000000
   14       -7.419723   1.000000
   15        0.625855   1.000000
   16        0.625856   1.000000
   17        2.830568   1.000000
   18        2.830569   1.000000
   19        6.587184   0.000000
   20        6.587187   0.000000
   21        9.163958   0.000000
   22        9.163960   0.000000
   23       10.525400   0.000000
   24       10.525404   0.000000
   25       11.354453   0.000000
   26       11.354454   0.000000
   27       12.301670   0.000000
   28       12.301682   0.000000
 
 -0.3333333E+00  0.1111111E+00  0.2775558E-16  0.2743484E-02
    1      -30.633299   1.000000
    2      -30.633299   1.000000
    3      -30.631665   1.000000
    4      -30.631664   1.000000
    5      -23.943401   1.000000
    6      -23.943401   1.000000
    7      -23.938894   1.000000
    8      -23.938894   1.000000
    9      -23.935889   1.000000
   10      -23.935889   1.000000
   11      -20.266640   1.000000
   12      -20.266639   1.000000
   13       -7.370087   1.000000
   14       -7.370086   1.000000
   15        0.825185   1.000000
   16        0.825186   1.000000
   17        2.929558   1.000000
   18        2.929558   1.000000
   19        6.589675   0.000000
   20        6.589678   0.000000
   21        9.389414   0.000000
   22        9.389416   0.000000
   23       10.426462   0.000000
   24       10.426463   0.000000
   25       10.764898   0.000000
   26       10.764901   0.000000
   27       12.392323   0.000000
   28       12.395637   0.000000
 
 -0.2222222E+00  0.1111111E+00 -0.6938894E-17  0.2743484E-02
    1      -30.633531   1.000000
    2      -30.633531   1.000000
    3      -30.632466   1.000000
    4      -30.632465   1.000000
    5      -23.943028   1.000000
    6      -23.943028   1.000000
    7      -23.941140   1.000000
    8      -23.941139   1.000000
    9      -23.937726   1.000000
   10      -23.937726   1.000000
   11      -20.297449   1.000000
   12      -20.297448   1.000000
   13       -7.269171   1.000000
   14       -7.269171   1.000000
   15        1.300763   1.000000
   16        1.300764   1.000000
   17        3.156634   1.000000
   18        3.156635   1.000000
   19        6.347650  -0.000000
   20        6.347653  -0.000000
   21        9.470529   0.000000
   22        9.470530   0.000000
   23       10.124827   0.000000
   24       10.124829   0.000000
   25       10.985710   0.000000
   26       10.985714   0.000000
   27       11.915438   0.000000
   28       11.921971   0.000000
 
 -0.1111111E+00  0.1111111E+00 -0.8346164E-17  0.2743484E-02
    1      -30.633778   1.000000
    2      -30.633778   1.000000
    3      -30.633265   1.000000
    4      -30.633265   1.000000
    5      -23.943844   1.000000
    6      -23.943844   1.000000
    7      -23.942045   1.000000
    8      -23.942045   1.000000
    9      -23.939867   1.000000
   10      -23.939867   1.000000
   11      -20.329083   1.000000
   12      -20.329083   1.000000
   13       -7.164043   1.000000
   14       -7.164043   1.000000
   15        1.963832   1.000000
   16        1.963833   1.000000
   17        3.450972   1.000083
   18        3.450972   1.000083
   19        5.594039  -0.000000
   20        5.594041  -0.000000
   21        9.481646   0.000000
   22        9.481647   0.000000
   23       10.708472   0.000000
   24       10.708475   0.000000
   25       11.202253   0.000000
   26       11.202282   0.000000
   27       11.743599   0.000000
   28       11.769202   0.000000
 
  0.0000000E+00  0.2222222E+00  0.0000000E+00  0.2743484E-02
    1      -30.633766   1.000000
    2      -30.633766   1.000000
    3      -30.632880   1.000000
    4      -30.632879   1.000000
    5      -23.943761   1.000000
    6      -23.943760   1.000000
    7      -23.941548   1.000000
    8      -23.941547   1.000000
    9      -23.938964   1.000000
   10      -23.938964   1.000000
   11      -20.316874   1.000000
   12      -20.316874   1.000000
   13       -7.205894   1.000000
   14       -7.205894   1.000000
   15        1.623274   1.000000
   16        1.623275   1.000000
   17        3.504431   1.001235
   18        3.504431   1.001235
   19        5.724583  -0.000000
   20        5.724586  -0.000000
   21        9.642869   0.000000
   22        9.642870   0.000000
   23       10.792623   0.000000
   24       10.792626   0.000000
   25       11.156917   0.000000
   26       11.156925   0.000000
   27       11.622161   0.000000
   28       11.623079   0.000000
 
  0.1111111E+00  0.2222222E+00 -0.1387779E-16  0.2743484E-02
    1      -30.633668   1.000000
    2      -30.633667   1.000000
    3      -30.633062   1.000000
    4      -30.633062   1.000000
    5      -23.943730   1.000000
    6      -23.943730   1.000000
    7      -23.941498   1.000000
    8      -23.941498   1.000000
    9      -23.939302   1.000000
   10      -23.939302   1.000000
   11      -20.319097   1.000000
   12      -20.319097   1.000000
   13       -7.196885   1.000000
   14       -7.196885   1.000000
   15        1.755209   1.000000
   16        1.755210   1.000000
   17        3.291061   1.000000
   18        3.291061   1.000000
   19        5.941675  -0.000000
   20        5.941678  -0.000000
   21        9.216906   0.000000
   22        9.216907   0.000000
   23       10.341045   0.000000
   24       10.341048   0.000000
   25       11.256068   0.000000
   26       11.256069   0.000000
   27       11.913390   0.000000
   28       11.913463   0.000000
 
  0.2222222E+00  0.2222222E+00 -0.2775558E-16  0.2743484E-02
    1      -30.633397   1.000000
    2      -30.633396   1.000000
    3      -30.632802   1.000000
    4      -30.632802   1.000000
    5      -23.943730   1.000000
    6      -23.943730   1.000000
    7      -23.940597   1.000000
    8      -23.940597   1.000000
    9      -23.938221   1.000000
   10      -23.938221   1.000000
   11      -20.303079   1.000000
   12      -20.303078   1.000000
   13       -7.247452   1.000000
   14       -7.247452   1.000000
   15        1.530032   1.000000
   16        1.530033   1.000000
   17        2.976194   1.000000
   18        2.976194   1.000000
   19        6.468635  -0.000000
   20        6.468637  -0.000000
   21        8.624430   0.000000
   22        8.624431   0.000000
   23        9.794787   0.000000
   24        9.794789   0.000000
   25       11.508152   0.000000
   26       11.508154   0.000000
   27       12.432487   0.000000
   28       12.432488   0.000000
 
  0.3333333E+00  0.2222222E+00  0.2775558E-16  0.2743484E-02
    1      -30.633121   1.000000
    2      -30.633120   1.000000
    3      -30.632156   1.000000
    4      -30.632155   1.000000
    5      -23.943163   1.000000
    6      -23.943163   1.000000
    7      -23.940086   1.000000
    8      -23.940086   1.000000
    9      -23.936012   1.000000
   10      -23.936012   1.000000
   11      -20.276075   1.000000
   12      -20.276075   1.000000
   13       -7.333176   1.000000
   14       -7.333175   1.000000
   15        1.129035   1.000000
   16        1.129036   1.000000
   17        2.682906   1.000000
   18        2.682906   1.000000
   19        6.874800   0.000000
   20        6.874802   0.000000
   21        8.502162   0.000000
   22        8.502163   0.000000
   23        9.437757   0.000000
   24        9.437759   0.000000
   25       11.806759   0.000000
   26       11.806761   0.000000
   27       12.964236   0.000000
   28       12.964269   0.000000
 
  0.4444444E+00  0.2222222E+00  0.0000000E+00  0.2743484E-02
    1      -30.632859   1.000000
    2      -30.632859   1.000000
    3      -30.631551   1.000000
    4      -30.631550   1.000000
    5      -23.942593   1.000000
    6      -23.942593   1.000000
    7      -23.938922   1.000000
    8      -23.938922   1.000000
    9      -23.934686   1.000000
   10      -23.934686   1.000000
   11      -20.250637   1.000000
   12      -20.250637   1.000000
   13       -7.412750   1.000000
   14       -7.412749   1.000000
   15        0.811552   1.000000
   16        0.811553   1.000000
   17        2.382389   1.000000
   18        2.382389   1.000000
   19        7.080539   0.000000
   20        7.080542   0.000000
   21        8.651019   0.000000
   22        8.651020   0.000000
   23        9.709512   0.000000
   24        9.709514   0.000000
   25       11.625927   0.000000
   26       11.625930   0.000000
   27       13.278713   0.000000
   28       13.279684   0.000000
 
 -0.4444444E+00  0.2222222E+00  0.0000000E+00  0.2743484E-02
    1      -30.632730   1.000000
    2      -30.632730   1.000000
    3      -30.631305   1.000000
    4      -30.631305   1.000000
    5      -23.942306   1.000000
    6      -23.942306   1.000000
    7      -23.937447   1.000000
    8      -23.937447   1.000000
    9      -23.935057   1.000000
   10      -23.935057   1.000000
   11      -20.238891   1.000000
   12      -20.238891   1.000000
   13       -7.449189   1.000000
   14       -7.449189   1.000000
   15        0.672608   1.000000
   16        0.672609   1.000000
   17        2.221544   1.000000
   18        2.221544   1.000000
   19        7.262160   0.000000
   20        7.262164   0.000000
   21        8.571145   0.000000
   22        8.571146   0.000000
   23       10.694349   0.000000
   24       10.694349   0.000000
   25       11.448014   0.000000
   26       11.448017   0.000000
   27       12.668537   0.000000
   28       12.668558   0.000000
 
 -0.3333333E+00  0.2222222E+00  0.2775558E-16  0.2743484E-02
    1      -30.632818   1.000000
    2      -30.632818   1.000000
    3      -30.631473   1.000000
    4      -30.631473   1.000000
    5      -23.942052   1.000000
    6      -23.942052   1.000000
    7      -23.937727   1.000000
    8      -23.937726   1.000000
    9      -23.935940   1.000000
   10      -23.935940   1.000000
   11      -20.246458   1.000000
   12      -20.246457   1.000000
   13       -7.426672   1.000000
   14       -7.426672   1.000000
   15        0.731182   1.000000
   16        0.731183   1.000000
   17        2.305586   1.000000
   18        2.305587   1.000000
   19        7.456324   0.000000
   20        7.456328   0.000000
   21        8.589347   0.000000
   22        8.589348   0.000000
   23       10.480577   0.000000
   24       10.480578   0.000000
   25       11.424405   0.000000
   26       11.424409   0.000000
   27       12.851194   0.000000
   28       12.966777   0.000000
 
 -0.2222222E+00  0.2222222E+00  0.1851624E-18  0.2743484E-02
    1      -30.633129   1.000000
    2      -30.633128   1.000000
    3      -30.631931   1.000000
    4      -30.631930   1.000000
    5      -23.941956   1.000000
    6      -23.941956   1.000000
    7      -23.940130   1.000000
    8      -23.940130   1.000000
    9      -23.936430   1.000000
   10      -23.936430   1.000000
   11      -20.269654   1.000000
   12      -20.269653   1.000000
   13       -7.356034   1.000000
   14       -7.356033   1.000000
   15        0.964242   1.000000
   16        0.964243   1.000000
   17        2.646582   1.000000
   18        2.646582   1.000000
   19        7.204054   0.000000
   20        7.204057   0.000000
   21        8.949019   0.000000
   22        8.949021   0.000000
   23        9.851820   0.000000
   24        9.851821   0.000000
   25       11.206688   0.000000
   26       11.206691   0.000000
   27       11.983284   0.000000
   28       11.983289   0.000000
 
 -0.1111111E+00  0.2222222E+00 -0.1387779E-16  0.2743484E-02
    1      -30.633531   1.000000
    2      -30.633531   1.000000
    3      -30.632466   1.000000
    4      -30.632465   1.000000
    5      -23.943028   1.000000
    6      -23.943028   1.000000
    7      -23.941139   1.000000
    8      -23.941139   1.000000
    9      -23.937726   1.000000
   10      -23.937726   1.000000
   11      -20.297449   1.000000
   12      -20.297448   1.000000
   13       -7.269171   1.000000
   14       -7.269171   1.000000
   15        1.300763   1.000000
   16        1.300764   1.000000
   17        3.156634   1.000000
   18        3.156635   1.000000
   19        6.347650  -0.000000
   20        6.347653  -0.000000
   21        9.470529   0.000000
   22        9.470530   0.000000
   23       10.124827   0.000000
   24       10.124829   0.000000
   25       10.985710   0.000000
   26       10.985715   0.000000
   27       11.915432   0.000000
   28       11.917153   0.000000
 
  0.3851860E-33  0.3333333E+00 -0.1387779E-16  0.2743484E-02
    1      -30.633529   1.000000
    2      -30.633529   1.000000
    3      -30.631930   1.000000
    4      -30.631930   1.000000
    5      -23.943981   1.000000
    6      -23.943981   1.000000
    7      -23.939547   1.000000
    8      -23.939546   1.000000
    9      -23.936536   1.000000
   10      -23.936536   1.000000
   11      -20.282167   1.000000
   12      -20.282167   1.000000
   13       -7.322428   1.000000
   14       -7.322428   1.000000
   15        0.978641   1.000000
   16        0.978642   1.000000
   17        3.326560   1.000000
   18        3.326560   1.000000
   19        6.053290  -0.000000
   20        6.053294  -0.000000
   21       10.197034   0.000000
   22       10.197034   0.000000
   23       10.431294   0.000000
   24       10.431297   0.000000
   25       10.855658   0.000000
   26       10.855660   0.000000
   27       11.123085   0.000000
   28       11.123086   0.000000
 
  0.1111111E+00  0.3333333E+00  0.0000000E+00  0.2743484E-02
    1      -30.633433   1.000000
    2      -30.633433   1.000000
    3      -30.632180   1.000000
    4      -30.632179   1.000000
    5      -23.943344   1.000000
    6      -23.943344   1.000000
    7      -23.940231   1.000000
    8      -23.940230   1.000000
    9      -23.936921   1.000000
   10      -23.936920   1.000000
   11      -20.285915   1.000000
   12      -20.285915   1.000000
   13       -7.306694   1.000000
   14       -7.306693   1.000000
   15        1.122337   1.000000
   16        1.122338   1.000000
   17        3.059955   1.000000
   18        3.059955   1.000000
   19        6.457113  -0.000000
   20        6.457116  -0.000000
   21        9.493685   0.000000
   22        9.493685   0.000000
   23        9.765451   0.000000
   24        9.765453   0.000000
   25       11.138607   0.000000
   26       11.138622   0.000000
   27       12.431590   0.000000
   28       12.466024   0.000000
 
  0.2222222E+00  0.3333333E+00  0.0000000E+00  0.2743484E-02
    1      -30.633121   1.000000
    2      -30.633121   1.000000
    3      -30.632156   1.000000
    4      -30.632155   1.000000
    5      -23.943163   1.000000
    6      -23.943163   1.000000
    7      -23.940086   1.000000
    8      -23.940086   1.000000
    9      -23.936012   1.000000
   10      -23.936012   1.000000
   11      -20.276075   1.000000
   12      -20.276075   1.000000
   13       -7.333176   1.000000
   14       -7.333175   1.000000
   15        1.129035   1.000000
   16        1.129036   1.000000
   17        2.682906   1.000000
   18        2.682906   1.000000
   19        6.874800   0.000000
   20        6.874802   0.000000
   21        8.502162   0.000000
   22        8.502163   0.000000
   23        9.437757   0.000000
   24        9.437759   0.000000
   25       11.806759   0.000000
   26       11.806760   0.000000
   27       12.964236   0.000000
   28       12.964248   0.000000
 
  0.3333333E+00  0.3333333E+00  0.0000000E+00  0.2743484E-02
    1      -30.632877   1.000000
    2      -30.632877   1.000000
    3      -30.631783   1.000000
    4      -30.631783   1.000000
    5      -23.943384   1.000000
    6      -23.943383   1.000000
    7      -23.939544   1.000000
    8      -23.939544   1.000000
    9      -23.934029   1.000000
   10      -23.934029   1.000000
   11      -20.257152   1.000000
   12      -20.257152   1.000000
   13       -7.389763   1.000000
   14       -7.389762   1.000000
   15        0.951343   1.000000
   16        0.951344   1.000000
   17        2.477961   1.000000
   18        2.477962   1.000000
   19        6.700674   0.000000
   20        6.700677   0.000000
   21        7.973713   0.000000
   22        7.973714   0.000000
   23        9.778251   0.000000
   24        9.778252   0.000000
   25       12.537560   0.000000
   26       12.537562   0.000000
   27       13.621079   0.000000
   28       13.621781   0.000000
 
  0.4444444E+00  0.3333333E+00  0.0000000E+00  0.2743484E-02
    1      -30.632617   1.000000
    2      -30.632617   1.000000
    3      -30.631387   1.000000
    4      -30.631387   1.000000
    5      -23.942873   1.000000
    6      -23.942872   1.000000
    7      -23.939051   1.000000
    8      -23.939051   1.000000
    9      -23.932720   1.000000
   10      -23.932719   1.000000
   11      -20.237972   1.000000
   12      -20.237971   1.000000
   13       -7.447155   1.000000
   14       -7.447154   1.000000
   15        0.777432   1.000000
   16        0.777433   1.000000
   17        2.202091   1.000000
   18        2.202092   1.000000
   19        6.678977   0.000000
   20        6.678979   0.000000
   21        8.014526   0.000000
   22        8.014528   0.000000
   23       10.039885   0.000000
   24       10.039887   0.000000
   25       12.754071   0.000000
   26       12.754073   0.000000
   27       13.993818   0.000000
   28       13.993856   0.000000
 
 -0.4444444E+00  0.3333333E+00 -0.2081668E-16  0.2743484E-02
    1      -30.632387   1.000000
    2      -30.632387   1.000000
    3      -30.631247   1.000000
    4      -30.631246   1.000000
    5      -23.941958   1.000000
    6      -23.941958   1.000000
    7      -23.938244   1.000000
    8      -23.938244   1.000000
    9      -23.933203   1.000000
   10      -23.933203   1.000000
   11      -20.227605   1.000000
   12      -20.227605   1.000000
   13       -7.477327   1.000000
   14       -7.477327   1.000000
   15        0.715942   1.000000
   16        0.715944   1.000000
   17        1.909089   1.000000
   18        1.909090   1.000000
   19        6.933853   0.000000
   20        6.933856   0.000000
   21        8.498012   0.000000
   22        8.498012   0.000000
   23       10.333331   0.000000
   24       10.333332   0.000000
   25       12.199976   0.000000
   26       12.199976   0.000000
   27       13.273797   0.000000
   28       13.273870   0.000000
 
 -0.3333333E+00  0.3333333E+00 -0.1580770E-16  0.2743484E-02
    1      -30.632420   1.000000
    2      -30.632419   1.000000
    3      -30.631336   1.000000
    4      -30.631335   1.000000
    5      -23.941511   1.000000
    6      -23.941510   1.000000
    7      -23.937074   1.000000
    8      -23.937074   1.000000
    9      -23.935245   1.000000
   10      -23.935245   1.000000
   11      -20.231002   1.000000
   12      -20.231002   1.000000
   13       -7.468428   1.000000
   14       -7.468428   1.000000
   15        0.711242   1.000000
   16        0.711243   1.000000
   17        1.906057   1.000000
   18        1.906057   1.000000
   19        7.342241   0.000000
   20        7.342245   0.000000
   21        8.684877   0.000000
   22        8.684878   0.000000
   23       11.156280   0.000000
   24       11.156281   0.000000
   25       11.343007   0.000000
   26       11.343010   0.000000
   27       12.316887   0.000000
   28       12.316976   0.000000
 
 -0.2222222E+00  0.3333333E+00 -0.1387779E-16  0.2743484E-02
    1      -30.632819   1.000000
    2      -30.632818   1.000000
    3      -30.631473   1.000000
    4      -30.631473   1.000000