Og_FCC                                  
           1
     4.369519    0.000000    0.000000
     2.184760    3.784114   -0.000000
     2.184760    1.261371    3.567697
   Og
   1
Direct configuration=     1
   0.00000000  0.00000000  0.00000000
