Og_FCC                                  
           1
     4.421528    0.000000    0.000000
     2.210764    3.829155   -0.000000
     2.210764    1.276385    3.610162
   Og
   1
Direct configuration=     1
   0.00000000  0.00000000  0.00000000
