   1   1   0   0
  0.5494106E+02  0.4267144E-09  0.4267144E-09  0.4267144E-09  0.1000000E-15
  1.000000000000000E-004
  CAR 
 Og_FCC                                  
     18.29325114    -32.50684632  301      4.43137120      1.00000000
    -32.507  0.0000E+00  0.0000E+00
    -32.338  0.0000E+00  0.0000E+00
    -32.168  0.0000E+00  0.0000E+00
    -31.999  0.0000E+00  0.0000E+00
    -31.830  0.0000E+00  0.0000E+00
    -31.660  0.0000E+00  0.0000E+00
    -31.491  0.0000E+00  0.0000E+00
    -31.322  0.0000E+00  0.0000E+00
    -31.152 -0.1139E-37 -0.1929E-38
    -30.983 -0.6256E-25 -0.1059E-25
    -30.814 -0.1060E-14 -0.1795E-15
    -30.644 -0.5116E-07 -0.8664E-08
    -30.475 -0.6653E-02 -0.1127E-02
    -30.306 -0.7649E+00 -0.1307E+00
    -30.136  0.2242E+02  0.3666E+01
    -29.967  0.2043E+01  0.4011E+01
    -29.798 -0.6761E-01  0.4000E+01
    -29.628 -0.3328E-05  0.4000E+01
    -29.459 -0.3933E-12  0.4000E+01
    -29.290  0.0000E+00  0.4000E+01
    -29.120  0.0000E+00  0.4000E+01
    -28.951  0.0000E+00  0.4000E+01
    -28.782  0.0000E+00  0.4000E+01
    -28.612  0.0000E+00  0.4000E+01
    -28.443  0.0000E+00  0.4000E+01
    -28.274  0.0000E+00  0.4000E+01
    -28.104  0.0000E+00  0.4000E+01
    -27.935  0.0000E+00  0.4000E+01
    -27.766  0.0000E+00  0.4000E+01
    -27.596  0.0000E+00  0.4000E+01
    -27.427  0.0000E+00  0.4000E+01
    -27.258  0.0000E+00  0.4000E+01
    -27.088  0.0000E+00  0.4000E+01
    -26.919  0.0000E+00  0.4000E+01
    -26.750  0.0000E+00  0.4000E+01
    -26.580  0.0000E+00  0.4000E+01
    -26.411  0.0000E+00  0.4000E+01
    -26.242  0.0000E+00  0.4000E+01
    -26.072  0.0000E+00  0.4000E+01
    -25.903  0.0000E+00  0.4000E+01
    -25.733  0.0000E+00  0.4000E+01
    -25.564  0.0000E+00  0.4000E+01
    -25.395  0.0000E+00  0.4000E+01
    -25.225  0.0000E+00  0.4000E+01
    -25.056  0.0000E+00  0.4000E+01
    -24.887  0.0000E+00  0.4000E+01
    -24.717  0.0000E+00  0.4000E+01
    -24.548  0.0000E+00  0.4000E+01
    -24.379 -0.6349E-31  0.4000E+01
    -24.209 -0.1972E-19  0.4000E+01
    -24.040 -0.1831E-10  0.4000E+01
    -23.871 -0.5014E-04  0.4000E+01
    -23.701 -0.3066E+00  0.3948E+01
    -23.532  0.9898E+01  0.5624E+01
    -23.363  0.2695E+02  0.1019E+02
    -23.193 -0.1108E+01  0.1000E+02
    -23.024 -0.1904E-02  0.1000E+02
    -22.855 -0.5138E-08  0.1000E+02
    -22.685  0.0000E+00  0.1000E+02
    -22.516  0.0000E+00  0.1000E+02
    -22.347  0.0000E+00  0.1000E+02
    -22.177  0.0000E+00  0.1000E+02
    -22.008  0.0000E+00  0.1000E+02
    -21.839  0.0000E+00  0.1000E+02
    -21.669  0.0000E+00  0.1000E+02
    -21.500  0.0000E+00  0.1000E+02
    -21.331  0.0000E+00  0.1000E+02
    -21.161  0.0000E+00  0.1000E+02
    -20.992  0.0000E+00  0.1000E+02
    -20.823 -0.2258E-32  0.1000E+02
    -20.653 -0.4720E-21  0.1000E+02
    -20.484 -0.3231E-12  0.1000E+02
    -20.315 -0.7701E-06  0.1000E+02
    -20.145 -0.6512E-02  0.9999E+01
    -19.976 -0.7961E-01  0.9985E+01
    -19.807  0.8045E+01  0.1135E+02
    -19.637  0.3996E+01  0.1202E+02
    -19.468 -0.1446E+00  0.1200E+02
    -19.299 -0.7531E-04  0.1200E+02
    -19.129 -0.9108E-10  0.1200E+02
    -18.960  0.0000E+00  0.1200E+02
    -18.791  0.0000E+00  0.1200E+02
    -18.621  0.0000E+00  0.1200E+02
    -18.452  0.0000E+00  0.1200E+02
    -18.283  0.0000E+00  0.1200E+02
    -18.113  0.0000E+00  0.1200E+02
    -17.944  0.0000E+00  0.1200E+02
    -17.775  0.0000E+00  0.1200E+02
    -17.605  0.0000E+00  0.1200E+02
    -17.436  0.0000E+00  0.1200E+02
    -17.267  0.0000E+00  0.1200E+02
    -17.097  0.0000E+00  0.1200E+02
    -16.928  0.0000E+00  0.1200E+02
    -16.759  0.0000E+00  0.1200E+02
    -16.589  0.0000E+00  0.1200E+02
    -16.420  0.0000E+00  0.1200E+02
    -16.251  0.0000E+00  0.1200E+02
    -16.081  0.0000E+00  0.1200E+02
    -15.912  0.0000E+00  0.1200E+02
    -15.743  0.0000E+00  0.1200E+02
    -15.573  0.0000E+00  0.1200E+02
    -15.404  0.0000E+00  0.1200E+02
    -15.235  0.0000E+00  0.1200E+02
    -15.065  0.0000E+00  0.1200E+02
    -14.896  0.0000E+00  0.1200E+02
    -14.727  0.0000E+00  0.1200E+02
    -14.557  0.0000E+00  0.1200E+02
    -14.388  0.0000E+00  0.1200E+02
    -14.219  0.0000E+00  0.1200E+02
    -14.049  0.0000E+00  0.1200E+02
    -13.880  0.0000E+00  0.1200E+02
    -13.711  0.0000E+00  0.1200E+02
    -13.541  0.0000E+00  0.1200E+02
    -13.372  0.0000E+00  0.1200E+02
    -13.203  0.0000E+00  0.1200E+02
    -13.033  0.0000E+00  0.1200E+02
    -12.864  0.0000E+00  0.1200E+02
    -12.695  0.0000E+00  0.1200E+02
    -12.525  0.0000E+00  0.1200E+02
    -12.356  0.0000E+00  0.1200E+02
    -12.187  0.0000E+00  0.1200E+02
    -12.017  0.0000E+00  0.1200E+02
    -11.848  0.0000E+00  0.1200E+02
    -11.679  0.0000E+00  0.1200E+02
    -11.509  0.0000E+00  0.1200E+02
    -11.340  0.0000E+00  0.1200E+02
    -11.171  0.0000E+00  0.1200E+02
    -11.001  0.0000E+00  0.1200E+02
    -10.832  0.0000E+00  0.1200E+02
    -10.663  0.0000E+00  0.1200E+02
    -10.493  0.0000E+00  0.1200E+02
    -10.324  0.0000E+00  0.1200E+02
    -10.155  0.0000E+00  0.1200E+02
     -9.985  0.0000E+00  0.1200E+02
     -9.816  0.0000E+00  0.1200E+02
     -9.647  0.0000E+00  0.1200E+02
     -9.477  0.0000E+00  0.1200E+02
     -9.308  0.0000E+00  0.1200E+02
     -9.139  0.0000E+00  0.1200E+02
     -8.969  0.0000E+00  0.1200E+02
     -8.800  0.0000E+00  0.1200E+02
     -8.631  0.0000E+00  0.1200E+02
     -8.461  0.0000E+00  0.1200E+02
     -8.292  0.0000E+00  0.1200E+02
     -8.123 -0.1203E-39  0.1200E+02
     -7.953 -0.1189E-26  0.1200E+02
     -7.784 -0.2671E-16  0.1200E+02
     -7.615 -0.1835E-08  0.1200E+02
     -7.445 -0.3903E-03  0.1200E+02
     -7.276 -0.1645E+00  0.1197E+02
     -7.107  0.4264E+01  0.1269E+02
     -6.937  0.5833E+01  0.1368E+02
     -6.768  0.1477E+01  0.1393E+02
     -6.599  0.4097E+00  0.1400E+02
     -6.429 -0.8572E-02  0.1400E+02
     -6.260 -0.2262E-03  0.1400E+02
     -6.091 -0.9622E-08  0.1400E+02
     -5.921 -0.1647E-14  0.1400E+02
     -5.752  0.0000E+00  0.1400E+02
     -5.583  0.0000E+00  0.1400E+02
     -5.413  0.0000E+00  0.1400E+02
     -5.244  0.0000E+00  0.1400E+02
     -5.075  0.0000E+00  0.1400E+02
     -4.905  0.0000E+00  0.1400E+02
     -4.736  0.0000E+00  0.1400E+02
     -4.567  0.0000E+00  0.1400E+02
     -4.397  0.0000E+00  0.1400E+02
     -4.228  0.0000E+00  0.1400E+02
     -4.059  0.0000E+00  0.1400E+02
     -3.889  0.0000E+00  0.1400E+02
     -3.720  0.0000E+00  0.1400E+02
     -3.551  0.0000E+00  0.1400E+02
     -3.381  0.0000E+00  0.1400E+02
     -3.212  0.0000E+00  0.1400E+02
     -3.043  0.0000E+00  0.1400E+02
     -2.873  0.0000E+00  0.1400E+02
     -2.704  0.0000E+00  0.1400E+02
     -2.535  0.0000E+00  0.1400E+02
     -2.365  0.0000E+00  0.1400E+02
     -2.196  0.0000E+00  0.1400E+02
     -2.027  0.0000E+00  0.1400E+02
     -1.857  0.0000E+00  0.1400E+02
     -1.688  0.0000E+00  0.1400E+02
     -1.519  0.0000E+00  0.1400E+02
     -1.349  0.0000E+00  0.1400E+02
     -1.180  0.0000E+00  0.1400E+02
     -1.011  0.0000E+00  0.1400E+02
     -0.841  0.0000E+00  0.1400E+02
     -0.672  0.0000E+00  0.1400E+02
     -0.503  0.0000E+00  0.1400E+02
     -0.333  0.0000E+00  0.1400E+02
     -0.164  0.0000E+00  0.1400E+02
      0.005 -0.5006E-32  0.1400E+02
      0.175 -0.8542E-21  0.1400E+02
      0.344 -0.5013E-12  0.1400E+02
      0.513 -0.1101E-05  0.1400E+02
      0.683 -0.8415E-02  0.1400E+02
      0.852  0.9599E-01  0.1401E+02
      1.021  0.5298E+01  0.1491E+02
      1.191  0.3021E+01  0.1542E+02
      1.360  0.1159E+01  0.1562E+02
      1.529  0.4232E+00  0.1569E+02
      1.699  0.5041E+00  0.1578E+02
      1.868  0.5988E+00  0.1588E+02
      2.037  0.3900E+00  0.1594E+02
      2.207  0.1141E+01  0.1614E+02
      2.376  0.1161E+01  0.1633E+02
      2.545  0.2056E+01  0.1668E+02
      2.715  0.7275E+00  0.1681E+02
      2.884  0.1159E+01  0.1700E+02
      3.053  0.1573E+01  0.1727E+02
      3.223  0.3952E+00  0.1733E+02
      3.392  0.9807E+00  0.1750E+02
      3.561  0.8218E+00  0.1764E+02
      3.731  0.7466E+00  0.1777E+02
      3.900  0.5566E+00  0.1786E+02
      4.069  0.4158E+00  0.1793E+02
      4.239  0.2830E+00  0.1798E+02
      4.408  0.1106E+00  0.1800E+02
      4.577  0.2585E-01  0.1800E+02
      4.747 -0.9552E-03  0.1800E+02
      4.916 -0.6765E-06  0.1800E+02
      5.085 -0.6267E-03  0.1800E+02
      5.255  0.2085E-01  0.1801E+02
      5.424  0.7549E-01  0.1802E+02
      5.593  0.4606E-01  0.1803E+02
      5.763  0.2408E-01  0.1803E+02
      5.932  0.5537E-02  0.1803E+02
      6.101  0.1675E+00  0.1806E+02
      6.271  0.7772E-01  0.1807E+02
      6.440  0.3806E+00  0.1814E+02
      6.609  0.1461E+00  0.1816E+02
      6.779  0.5782E+00  0.1826E+02
      6.948  0.1212E+01  0.1846E+02
      7.117  0.1061E+01  0.1864E+02
      7.287  0.7677E+00  0.1877E+02
      7.456  0.1188E+01  0.1898E+02
      7.625  0.2316E+01  0.1937E+02
      7.795  0.1490E+01  0.1962E+02
      7.964  0.1286E+01  0.1984E+02
      8.133  0.1051E+01  0.2002E+02
      8.303  0.2957E+00  0.2007E+02
      8.472  0.4078E+00  0.2014E+02
      8.641  0.3838E+00  0.2020E+02
      8.811  0.4566E-01  0.2021E+02
      8.980  0.1106E+01  0.2040E+02
      9.149  0.3564E+01  0.2100E+02
      9.319  0.1427E+01  0.2124E+02
      9.488  0.7565E+00  0.2137E+02
      9.657  0.1317E+01  0.2159E+02
      9.827  0.8009E+00  0.2173E+02
      9.996  0.1701E+01  0.2202E+02
     10.165  0.2124E+01  0.2237E+02
     10.335  0.5916E+00  0.2247E+02
     10.504  0.7446E+00  0.2260E+02
     10.673  0.1050E+01  0.2278E+02
     10.843  0.2000E+01  0.2312E+02
     11.012  0.2367E+01  0.2352E+02
     11.181  0.1449E+01  0.2376E+02
     11.351  0.1420E+01  0.2400E+02
     11.520  0.8918E+00  0.2415E+02
     11.689  0.8881E+00  0.2431E+02
     11.859  0.2323E+01  0.2470E+02
     12.028  0.1566E+01  0.2496E+02
     12.197  0.7069E+00  0.2508E+02
     12.367  0.2414E+01  0.2549E+02
     12.536  0.1761E+01  0.2579E+02
     12.705  0.1669E+01  0.2607E+02
     12.875  0.9048E+00  0.2623E+02
     13.044  0.1090E+01  0.2641E+02
     13.213  0.1285E+01  0.2663E+02
     13.383  0.1862E+01  0.2694E+02
     13.552  0.9900E+00  0.2711E+02
     13.721  0.7484E+00  0.2724E+02
     13.891  0.8858E+00  0.2739E+02
     14.060  0.3952E+00  0.2746E+02
     14.229  0.1005E+01  0.2763E+02
     14.399  0.1104E+01  0.2781E+02
     14.568  0.2209E+00  0.2785E+02
     14.737  0.1709E-01  0.2785E+02
     14.907  0.6370E-02  0.2785E+02
     15.076  0.3616E+00  0.2791E+02
     15.245  0.3565E+00  0.2798E+02
     15.415  0.4139E-01  0.2798E+02
     15.584  0.3669E-01  0.2799E+02
     15.753  0.4149E-01  0.2800E+02
     15.923  0.1699E-01  0.2800E+02
     16.092  0.1082E-01  0.2800E+02
     16.261 -0.4083E-03  0.2800E+02
     16.431 -0.2465E-05  0.2800E+02
     16.600 -0.1790E-10  0.2800E+02
     16.769  0.0000E+00  0.2800E+02
     16.939  0.0000E+00  0.2800E+02
     17.108  0.0000E+00  0.2800E+02
     17.277  0.0000E+00  0.2800E+02
     17.447  0.0000E+00  0.2800E+02
     17.616  0.0000E+00  0.2800E+02
     17.785  0.0000E+00  0.2800E+02
     17.955  0.0000E+00  0.2800E+02
     18.124  0.0000E+00  0.2800E+02
     18.293  0.0000E+00  0.2800E+02
