Xe_FCC                                  
  0.978294223826715     
     4.432200    0.000000    0.000000
     2.216100    3.838398   -0.000000
     2.216100    1.279466    3.618876
   Xe
     1
Direct
  0.000000  0.000000  0.000000
 
   48   48   48
 -74.414     -68.699     -52.737     -29.726     -3.9949      20.118      39.212      51.401      56.367      55.089    
  49.326      41.133      32.411      24.646      18.406      13.578      9.9418      7.2456      5.2773      3.8591    
  2.8610      2.1798      1.7447      1.5026      1.4260      1.5026      1.7447      2.1798      2.8610      3.8591    
  5.2773      7.2456      9.9418      13.578      18.406      24.646      32.411      41.133      49.326      55.089    
  56.367      51.401      39.212      20.118     -3.9949     -29.726     -52.737     -68.699     -68.699     -57.867    
 -38.424     -14.178      10.500      31.736      46.918      54.991      56.351      52.411      45.114      36.446    
  28.116      21.164      15.704      11.540      8.4293      6.1401      4.4789      3.2941      2.4712      1.9246    
  1.5934      1.4376      1.4376      1.5933      1.9246      2.4711      3.2941      4.4786      6.1398      8.4286    
  11.539      15.703      21.162      28.113      36.442      45.109      52.404      56.343      54.985      46.911    
  31.732      10.496     -14.181     -38.425     -57.868     -68.699     -52.737     -38.424     -17.844      5.0537    
  26.323      42.883      53.043      56.566      54.399      48.216      39.946      31.373      23.851      17.827    
  13.166      9.6524      7.0439      5.1369      3.7615      2.7924      2.1307      1.7076      1.4724      1.3977    
  1.4724      1.7076      2.1306      2.7922      3.7612      5.1363      7.0430      9.6509      13.163      17.823    
  23.847      31.366      39.937      48.204      54.386      56.551      53.030      42.871      26.314      5.0478    
 -17.848     -38.426     -52.737     -57.868     -29.726     -14.178      5.0537      24.348      40.509      51.414    
  56.268      55.503      50.412      42.732      34.207      26.322      19.838      14.748      10.865      7.9566    
  5.8114      4.2496      3.1343      2.3577      1.8419      1.5286      1.3813      1.3813      1.5285      1.8417    
  2.3575      3.1339      4.2490      5.8104      7.9550      10.863      14.744      19.833      26.314      34.196    
  42.717      50.394      55.483      56.248      51.395      40.493      24.337      5.0467     -14.182     -29.729    
 -38.426     -38.425     -3.9949      10.500      26.323      40.509      50.785      55.966      56.003      51.777    
  44.722      36.448      28.426      21.627      16.204      12.011      8.8385      6.4763      4.7399      3.4857    
  2.5974      1.9917      1.6019      1.3867      1.3168      1.3866      1.6018      1.9915      2.5970      3.4851    
  4.7390      6.4748      8.8361      12.008      16.199      21.619      28.415      36.433      44.703      51.754    
  55.978      55.941      50.763      40.491      26.310      10.492     -3.9986     -14.182     -17.848     -14.181    
  20.118      31.736      42.883      51.414      55.966      56.141      52.421      45.907      37.987      30.030    
  23.082      17.449      13.028      9.6461      7.1001      5.2120      3.8311      2.8408      2.1496      1.6890    
  1.4090      1.2770      1.2771      1.4089      1.6890      2.1493      2.8405      3.8303      5.2108      7.0980    
  9.6430      13.023      17.442      23.072      30.015      37.968      45.883      52.394      56.112      55.938    
  51.390      42.865      31.724      20.110      10.492      5.0467      5.0478      10.496      39.212      46.918    
  53.043      56.268      56.003      52.421      46.298      38.767      31.031      24.111      18.402      13.856    
  10.333      7.6516      5.6417      4.1555      3.0758      2.3087      1.7832      1.4450      1.2570      1.1966    
  1.2570      1.4449      1.7832      2.3085      3.0753      4.1545      5.6402      7.6491      10.329      13.850    
  18.394      24.099      31.015      38.745      46.271      52.392      55.973      56.240      53.018      46.899    
  39.200      31.724      26.310      24.337      26.314      31.732      51.401      54.991      56.566      55.503    
  51.777      45.907      38.767      31.372      24.644      19.002      14.441      10.859      8.0986      6.0064    
  4.4414      3.2905      2.4601      1.8787      1.4894      1.2523      1.1403      1.1403      1.2524      1.4895    
  1.8786      2.4600      3.2901      4.4404      6.0047      8.0958      10.855      14.435      18.993      24.631    
  31.354      38.744      45.879      51.747      55.471      56.539      54.969      51.383      46.899      42.865    
  40.491      40.493      42.871      46.911      56.367      56.351      54.399      50.412      44.722      37.987    
  31.031      24.644      19.207      14.744      11.189      8.4139      6.2843      4.6729      3.4729      2.5950    
  1.9687      1.5372      1.2587      1.1030      1.0533      1.1031      1.2588      1.5373      1.9688      2.5949    
  3.4726      4.6720      6.2828      8.4111      11.185      14.738      19.197      24.631      31.013      37.964    
  44.695      50.384      54.370      56.324      56.346      54.969      53.018      51.390      50.763      51.395    
  53.030      54.985      55.089      52.411      48.216      42.732      36.448      30.030      24.111      19.002    
  14.744      11.302      8.5769      6.4587      4.8357      3.6122      2.7047      2.0469      1.5830      1.2715    
  1.0803     0.99005     0.98997      1.0807      1.2716      1.5835      2.0471      2.7051      3.6121      4.8354    
  6.4573      8.5745      11.298      14.738      18.992      24.099      30.012      36.428      42.705      48.190    
  52.385      55.066      56.324      56.539      56.240      55.938      55.941      56.248      56.551      56.343    
  49.326      45.114      39.946      34.207      28.426      23.082      18.402      14.441      11.189      8.5769    
  6.5180      4.9200      3.6994      2.7824      2.1073      1.6223      1.2863      1.0680     0.94554     0.90621    
 0.94575      1.0685      1.2869      1.6230      2.1080      2.7832      3.6999      4.9202      6.5172      8.5753    
  11.186      14.436      18.393      23.072      28.410      34.190      39.924      45.091      49.305      52.385    
  54.370      55.471      55.973      56.112      55.978      55.483      54.386      52.404      41.133      36.446    
  31.373      26.322      21.627      17.449      13.856      10.859      8.4139      6.4587      4.9200      3.7292    
  2.8225      2.1456      1.6508      1.3000      1.0622     0.91569     0.84584     0.84609     0.91602      1.0630    
  1.3008      1.6521      2.1468      2.8241      3.7303      4.9210      6.4586      8.4133      10.856      13.853    
  17.441      21.618      26.309      31.358      36.431      41.113      45.091      48.190      50.384      51.747    
  52.392      52.394      51.754      50.394      48.204      45.109      32.411      28.116      23.851      19.838    
  16.204      13.028      10.333      8.0986      6.2843      4.8357      3.6994      2.8225      2.1587      1.6659    
  1.3093      1.0600     0.89681     0.80452     0.77490     0.80490     0.89755      1.0611      1.3107      1.6677    
  2.1607      2.8247      3.7014      4.8377      6.2854      8.0993      10.332      13.026      16.200      19.832    
  23.845      28.104      32.400      36.431      39.924      42.705      44.695      45.879      46.271      45.883    
  44.703      42.717      39.937      36.442      24.646      21.164      17.827      14.748      12.011      9.6461    
  7.6516      6.0064      4.6729      3.6122      2.7824      2.1456      1.6659      1.3126      1.0595     0.88649    
 0.77881     0.72736     0.72756     0.77953     0.88760      1.0611      1.3146      1.6684      2.1483      2.7854    
  3.6151      4.6759      6.0087      7.6537      9.6467      12.011      14.747      17.822      21.161      24.641    
  28.104      31.358      34.190      36.428      37.964      38.744      38.745      37.968      36.433      34.196    
  31.366      28.113      18.406      15.704      13.166      10.865      8.8385      7.1001      5.6417      4.4414    
  3.4729      2.7047      2.1073      1.6508      1.3093      1.0595     0.88322     0.76649     0.70012     0.67871    
 0.70066     0.76759     0.88485      1.0617      1.3120      1.6541      2.1109      2.7088      3.4769      4.4457    
  5.6455      7.1039      8.8416      10.867      13.167      15.704      18.403      21.161      23.845      26.309    
  28.410      30.012      31.013      31.354      31.015      30.015      28.415      26.314      23.847      21.162    
  13.578      11.540      9.6524      7.9566      6.4763      5.2120      4.1555      3.2905      2.5950      2.0469    
  1.6223      1.3000      1.0600     0.88649     0.76649     0.69125     0.65507     0.65541     0.69218     0.76810    
 0.88870      1.0629      1.3034      1.6264      2.0514      2.6001      3.2957      4.1611      5.2173      6.4812    
  7.9617      9.6558      11.543      13.581      15.704      17.822      19.832      21.618      23.072      24.099    
  24.631      24.631      24.099      23.072      21.619      19.833      17.823      15.703      9.9418      8.4293    
  7.0439      5.8114      4.7399      3.8311      3.0758      2.4601      1.9687      1.5830      1.2863      1.0622    
 0.89681     0.77881     0.70012     0.65507     0.64065     0.65580     0.70156     0.78102     0.89971      1.0659    
  1.2907      1.5881      1.9742      2.4664      3.0822      3.8380      4.7471      5.8179      7.0507      8.4351    
  9.9462      11.543      13.167      14.747      16.200      17.441      18.393      18.992      19.197      18.993    
  18.394      17.442      16.199      14.744      13.163      11.539      7.2456      6.1401      5.1369      4.2496    
  3.4857      2.8408      2.3087      1.8787      1.5372      1.2715      1.0680     0.91569     0.80452     0.72736    
 0.67871     0.65541     0.65580     0.67995     0.72939     0.80744     0.91935      1.0726      1.2767      1.5433    
  1.8853      2.3161      2.8485      3.4933      4.2580      5.1446      6.1479      7.2533      8.4351      9.6558    
  10.867      12.011      13.026      13.853      14.436      14.738      14.738      14.435      13.850      13.023    
  12.008      10.863      9.6509      8.4286      5.2773      4.4789      3.7615      3.1343      2.5974      2.1496    
  1.7832      1.4894      1.2587      1.0803     0.94554     0.84584     0.77490     0.72756     0.70066     0.69218    
 0.70156     0.72939     0.77761     0.84955     0.95013      1.0859      1.2649      1.4966      1.7909      2.1580    
  2.6065      3.1432      3.7711      4.4880      5.2856      6.1479      7.0507      7.9617      8.8416      9.6467    
  10.332      10.856      11.186      11.298      11.185      10.855      10.329      9.6430      8.8361      7.9550    
  7.0430      6.1398      3.8591      3.2941      2.7924      2.3577      1.9917      1.6890      1.4450      1.2523    
  1.1030     0.99005     0.90621     0.84609     0.80490     0.77953     0.76759     0.76810     0.78102     0.80744    
 0.84955     0.91071     0.99545      1.1095      1.2595      1.4531      1.6977      2.0006      2.3676      2.8021    
  3.3042      3.8693      4.4880      5.1446      5.8179      6.4812      7.1039      7.6537      8.0993      8.4133    
  8.5753      8.5745      8.4111      8.0958      7.6491      7.0980      6.4748      5.8104      5.1363      4.4786    
  2.8610      2.4712      2.1307      1.8419      1.6019      1.4090      1.2570      1.1403      1.0533     0.98997    
 0.94575     0.91602     0.89755     0.88760     0.88485     0.88870     0.89971     0.91935     0.95013     0.99545    
  1.0596      1.1476      1.2651      1.4179      1.6118      1.8518      2.1414      2.4818      2.8712      3.3042    
  3.7711      4.2580      4.7471      5.2173      5.6455      6.0087      6.2854      6.4586      6.5172      6.4573    
  6.2828      6.0047      5.6402      5.2108      4.7390      4.2490      3.7612      3.2941      2.1798      1.9246    
  1.7076      1.5286      1.3867      1.2770      1.1966      1.1403      1.1031      1.0807      1.0685      1.0630    
  1.0611      1.0611      1.0617      1.0629      1.0659      1.0726      1.0859      1.1095      1.1476      1.2049    
  1.2861      1.3960      1.5389      1.7181      1.9355      2.1910      2.4818      2.8021      3.1432      3.4933    
  3.8380      4.1611      4.4457      4.6759      4.8377      4.9210      4.9202      4.8354      4.6720      4.4404    
  4.1545      3.8303      3.4851      3.1339      2.7922      2.4711      1.7447      1.5934      1.4724      1.3813    
  1.3168      1.2771      1.2570      1.2524      1.2588      1.2716      1.2869      1.3008      1.3107      1.3146    
  1.3120      1.3034      1.2907      1.2767      1.2649      1.2595      1.2651      1.2861      1.3270      1.3917    
  1.4834      1.6044      1.7555      1.9355      2.1414      2.3676      2.6065      2.8485      3.0822      3.2957    
  3.4769      3.6151      3.7014      3.7303      3.6999      3.6121      3.4726      3.2901      3.0753      2.8405    
  2.5970      2.3575      2.1306      1.9246      1.5026      1.4376      1.3977      1.3813      1.3866      1.4089    
  1.4449      1.4895      1.5373      1.5835      1.6230      1.6521      1.6677      1.6684      1.6541      1.6264    
  1.5881      1.5433      1.4966      1.4531      1.4179      1.3960      1.3917      1.4084      1.4487      1.5141    
  1.6044      1.7181      1.8518      2.0006      2.1580      2.3161      2.4664      2.6001      2.7088      2.7854    
  2.8247      2.8241      2.7832      2.7051      2.5949      2.4600      2.3085      2.1493      1.9915      1.8417    
  1.7076      1.5933      1.4260      1.4376      1.4724      1.5285      1.6018      1.6890      1.7832      1.8786    
  1.9688      2.0471      2.1080      2.1468      2.1607      2.1483      2.1109      2.0514      1.9742      1.8853    
  1.7909      1.6977      1.6118      1.5389      1.4834      1.4487      1.4369      1.4487      1.4834      1.5389    
  1.6118      1.6977      1.7909      1.8853      1.9742      2.0514      2.1109      2.1483      2.1607      2.1468    
  2.1080      2.0471      1.9688      1.8786      1.7832      1.6890      1.6018      1.5285      1.4724      1.4376    
  1.5026      1.5933      1.7076      1.8417      1.9915      2.1493      2.3085      2.4600      2.5949      2.7051    
  2.7832      2.8241      2.8247      2.7854      2.7088      2.6001      2.4664      2.3161      2.1580      2.0006    
  1.8518      1.7181      1.6044      1.5141      1.4487      1.4084      1.3917      1.3960      1.4179      1.4531    
  1.4966      1.5433      1.5881      1.6264      1.6541      1.6684      1.6677      1.6521      1.6230      1.5835    
  1.5373      1.4895      1.4449      1.4089      1.3866      1.3813      1.3977      1.4376      1.7447      1.9246    
  2.1306      2.3575      2.5970      2.8405      3.0753      3.2901      3.4726      3.6121      3.6999      3.7303    
  3.7014      3.6151      3.4769      3.2957      3.0822      2.8485      2.6065      2.3676      2.1414      1.9355    
  1.7555      1.6044      1.4834      1.3917      1.3270      1.2861      1.2651      1.2595      1.2649      1.2767    
  1.2907      1.3034      1.3120      1.3146      1.3107      1.3008      1.2869      1.2716      1.2588      1.2524    
  1.2570      1.2771      1.3168      1.3813      1.4724      1.5934      2.1798      2.4711      2.7922      3.1339    
  3.4851      3.8303      4.1545      4.4404      4.6720      4.8354      4.9202      4.9210      4.8377      4.6759    
  4.4457      4.1611      3.8380      3.4933      3.1432      2.8021      2.4818      2.1910      1.9355      1.7181    
  1.5389      1.3960      1.2861      1.2049      1.1476      1.1095      1.0859      1.0726      1.0659      1.0629    
  1.0617      1.0611      1.0611      1.0630      1.0685      1.0807      1.1031      1.1403      1.1966      1.2770    
  1.3867      1.5286      1.7076      1.9246      2.8610      3.2941      3.7612      4.2490      4.7390      5.2108    
  5.6402      6.0047      6.2828      6.4573      6.5172      6.4586      6.2854      6.0087      5.6455      5.2173    
  4.7471      4.2580      3.7711      3.3042      2.8712      2.4818      2.1414      1.8518      1.6118      1.4179    
  1.2651      1.1476      1.0596     0.99545     0.95013     0.91935     0.89971     0.88870     0.88485     0.88760    
 0.89755     0.91602     0.94575     0.98997      1.0533      1.1403      1.2570      1.4090      1.6019      1.8419    
  2.1307      2.4712      3.8591      4.4786      5.1363      5.8104      6.4748      7.0980      7.6491      8.0958    
  8.4111      8.5745      8.5753      8.4133      8.0993      7.6537      7.1039      6.4812      5.8179      5.1446    
  4.4880      3.8693      3.3042      2.8021      2.3676      2.0006      1.6977      1.4531      1.2595      1.1095    
 0.99545     0.91071     0.84955     0.80744     0.78102     0.76810     0.76759     0.77953     0.80490     0.84609    
 0.90621     0.99005      1.1030      1.2523      1.4450      1.6890      1.9917      2.3577      2.7924      3.2941    
  5.2773      6.1398      7.0430      7.9550      8.8361      9.6430      10.329      10.855      11.185      11.298    
  11.186      10.856      10.332      9.6467      8.8416      7.9617      7.0507      6.1479      5.2856      4.4880    
  3.7711      3.1432      2.6065      2.1580      1.7909      1.4966      1.2649      1.0859     0.95013     0.84955    
 0.77761     0.72939     0.70156     0.69218     0.70066     0.72756     0.77490     0.84584     0.94554      1.0803    
  1.2587      1.4894      1.7832      2.1496      2.5974      3.1343      3.7615      4.4789      7.2456      8.4286    
  9.6509      10.863      12.008      13.023      13.850      14.435      14.738      14.738      14.436      13.853    
  13.026      12.011      10.867      9.6558      8.4351      7.2533      6.1479      5.1446      4.2580      3.4933    
  2.8485      2.3161      1.8853      1.5433      1.2767      1.0726     0.91935     0.80744     0.72939     0.67995    
 0.65580     0.65541     0.67871     0.72736     0.80452     0.91569      1.0680      1.2715      1.5372      1.8787    
  2.3087      2.8408      3.4857      4.2496      5.1369      6.1401      9.9418      11.539      13.163      14.744    
  16.199      17.442      18.394      18.993      19.197      18.992      18.393      17.441      16.200      14.747    
  13.167      11.543      9.9462      8.4351      7.0507      5.8179      4.7471      3.8380      3.0822      2.4664    
  1.9742      1.5881      1.2907      1.0659     0.89971     0.78102     0.70156     0.65580     0.64065     0.65507    
 0.70012     0.77881     0.89681      1.0622      1.2863      1.5830      1.9687      2.4601      3.0758      3.8311    
  4.7399      5.8114      7.0439      8.4293      13.578      15.703      17.823      19.833      21.619      23.072    
  24.099      24.631      24.631      24.099      23.072      21.618      19.832      17.822      15.704      13.581    
  11.543      9.6558      7.9617      6.4812      5.2173      4.1611      3.2957      2.6001      2.0514      1.6264    
  1.3034      1.0629     0.88870     0.76810     0.69218     0.65541     0.65507     0.69125     0.76649     0.88649    
  1.0600      1.3000      1.6223      2.0469      2.5950      3.2905      4.1555      5.2120      6.4763      7.9566    
  9.6524      11.540      18.406      21.162      23.847      26.314      28.415      30.015      31.015      31.354    
  31.013      30.012      28.410      26.309      23.845      21.161      18.403      15.704      13.167      10.867    
  8.8416      7.1039      5.6455      4.4457      3.4769      2.7088      2.1109      1.6541      1.3120      1.0617    
 0.88485     0.76759     0.70066     0.67871     0.70012     0.76649     0.88322      1.0595      1.3093      1.6508    
  2.1073      2.7047      3.4729      4.4414      5.6417      7.1001      8.8385      10.865      13.166      15.704    
  24.646      28.113      31.366      34.196      36.433      37.968      38.745      38.744      37.964      36.428    
  34.190      31.358      28.104      24.641      21.161      17.822      14.747      12.011      9.6467      7.6537    
  6.0087      4.6759      3.6151      2.7854      2.1483      1.6684      1.3146      1.0611     0.88760     0.77953    
 0.72756     0.72736     0.77881     0.88649      1.0595      1.3126      1.6659      2.1456      2.7824      3.6122    
  4.6729      6.0064      7.6516      9.6461      12.011      14.748      17.827      21.164      32.411      36.442    
  39.937      42.717      44.703      45.883      46.271      45.879      44.695      42.705      39.924      36.431    
  32.400      28.104      23.845      19.832      16.200      13.026      10.332      8.0993      6.2854      4.8377    
  3.7014      2.8247      2.1607      1.6677      1.3107      1.0611     0.89755     0.80490     0.77490     0.80452    
 0.89681      1.0600      1.3093      1.6659      2.1587      2.8225      3.6994      4.8357      6.2843      8.0986    
  10.333      13.028      16.204      19.838      23.851      28.116      41.133      45.109      48.204      50.394    
  51.754      52.394      52.392      51.747      50.384      48.190      45.091      41.113      36.431      31.358    
  26.309      21.618      17.441      13.853      10.856      8.4133      6.4586      4.9210      3.7303      2.8241    
  2.1468      1.6521      1.3008      1.0630     0.91602     0.84609     0.84584     0.91569      1.0622      1.3000    
  1.6508      2.1456      2.8225      3.7292      4.9200      6.4587      8.4139      10.859      13.856      17.449    
  21.627      26.322      31.373      36.446      49.326      52.404      54.386      55.483      55.978      56.112    
  55.973      55.471      54.370      52.385      49.305      45.091      39.924      34.190      28.410      23.072    
  18.393      14.436      11.186      8.5753      6.5172      4.9202      3.6999      2.7832      2.1080      1.6230    
  1.2869      1.0685     0.94575     0.90621     0.94554      1.0680      1.2863      1.6223      2.1073      2.7824    
  3.6994      4.9200      6.5180      8.5769      11.189      14.441      18.402      23.082      28.426      34.207    
  39.946      45.114      55.089      56.343      56.551      56.248      55.941      55.938      56.240      56.539    
  56.324      55.066      52.385      48.190      42.705      36.428      30.012      24.099      18.992      14.738    
  11.298      8.5745      6.4573      4.8354      3.6121      2.7051      2.0471      1.5835      1.2716      1.0807    
 0.98997     0.99005      1.0803      1.2715      1.5830      2.0469      2.7047      3.6122      4.8357      6.4587    
  8.5769      11.302      14.744      19.002      24.111      30.030      36.448      42.732      48.216      52.411    
  56.367      54.985      53.030      51.395      50.763      51.390      53.018      54.969      56.346      56.324    
  54.370      50.384      44.695      37.964      31.013      24.631      19.197      14.738      11.185      8.4111    
  6.2828      4.6720      3.4726      2.5949      1.9688      1.5373      1.2588      1.1031      1.0533      1.1030    
  1.2587      1.5372      1.9687      2.5950      3.4729      4.6729      6.2843      8.4139      11.189      14.744    
  19.207      24.644      31.031      37.987      44.722      50.412      54.399      56.351      51.401      46.911    
  42.871      40.493      40.491      42.865      46.899      51.383      54.969      56.539      55.471      51.747    
  45.879      38.744      31.354      24.631      18.993      14.435      10.855      8.0958      6.0047      4.4404    
  3.2901      2.4600      1.8786      1.4895      1.2524      1.1403      1.1403      1.2523      1.4894      1.8787    
  2.4601      3.2905      4.4414      6.0064      8.0986      10.859      14.441      19.002      24.644      31.372    
  38.767      45.907      51.777      55.503      56.566      54.991      39.212      31.732      26.314      24.337    
  26.310      31.724      39.200      46.899      53.018      56.240      55.973      52.392      46.271      38.745    
  31.015      24.099      18.394      13.850      10.329      7.6491      5.6402      4.1545      3.0753      2.3085    
  1.7832      1.4449      1.2570      1.1966      1.2570      1.4450      1.7832      2.3087      3.0758      4.1555    
  5.6417      7.6516      10.333      13.856      18.402      24.111      31.031      38.767      46.298      52.421    
  56.003      56.268      53.043      46.918      20.118      10.496      5.0478      5.0467      10.492      20.110    
  31.724      42.865      51.390      55.938      56.112      52.394      45.883      37.968      30.015      23.072    
  17.442      13.023      9.6430      7.0980      5.2108      3.8303      2.8405      2.1493      1.6890      1.4089    
  1.2771      1.2770      1.4090      1.6890      2.1496      2.8408      3.8311      5.2120      7.1001      9.6461    
  13.028      17.449      23.082      30.030      37.987      45.907      52.421      56.141      55.966      51.414    
  42.883      31.736     -3.9949     -14.181     -17.848     -14.182     -3.9986      10.492      26.310      40.491    
  50.763      55.941      55.978      51.754      44.703      36.433      28.415      21.619      16.199      12.008    
  8.8361      6.4748      4.7390      3.4851      2.5970      1.9915      1.6018      1.3866      1.3168      1.3867    
  1.6019      1.9917      2.5974      3.4857      4.7399      6.4763      8.8385      12.011      16.204      21.627    
  28.426      36.448      44.722      51.777      56.003      55.966      50.785      40.509      26.323      10.500    
 -29.726     -38.425     -38.426     -29.729     -14.182      5.0467      24.337      40.493      51.395      56.248    
  55.483      50.394      42.717      34.196      26.314      19.833      14.744      10.863      7.9550      5.8104    
  4.2490      3.1339      2.3575      1.8417      1.5285      1.3813      1.3813      1.5286      1.8419      2.3577    
  3.1343      4.2496      5.8114      7.9566      10.865      14.748      19.838      26.322      34.207      42.732    
  50.412      55.503      56.268      51.414      40.509      24.348      5.0537     -14.178     -52.737     -57.868    
 -52.737     -38.426     -17.848      5.0478      26.314      42.871      53.030      56.551      54.386      48.204    
  39.937      31.366      23.847      17.823      13.163      9.6509      7.0430      5.1363      3.7612      2.7922    
  2.1306      1.7076      1.4724      1.3977      1.4724      1.7076      2.1307      2.7924      3.7615      5.1369    
  7.0439      9.6524      13.166      17.827      23.851      31.373      39.946      48.216      54.399      56.566    
  53.043      42.883      26.323      5.0537     -17.844     -38.424     -68.699     -68.699     -57.868     -38.425    
 -14.181      10.496      31.732      46.911      54.985      56.343      52.404      45.109      36.442      28.113    
  21.162      15.703      11.539      8.4286      6.1398      4.4786      3.2941      2.4711      1.9246      1.5933    
  1.4376      1.4376      1.5934      1.9246      2.4712      3.2941      4.4789      6.1401      8.4293      11.540    
  15.704      21.164      28.116      36.446      45.114      52.411      56.351      54.991      46.918      31.736    
  10.500     -14.178     -38.424     -57.867     -68.699     -57.866     -38.424     -14.179      10.500      31.736    
  46.918      54.992      56.351      52.411      45.114      36.446      28.116      21.164      15.704      11.540    
  8.4293      6.1401      4.4789      3.2941      2.4712      1.9246      1.5934      1.4376      1.4376      1.5933    
  1.9246      2.4711      3.2940      4.4786      6.1398      8.4286      11.539      15.703      21.162      28.113    
  36.442      45.109      52.404      56.343      54.985      46.911      31.731      10.496     -14.181     -38.424    
 -57.868     -68.699     -57.866     -43.022     -21.655      2.1590      24.346      41.725      52.539      56.526    
  54.643      48.592      40.342      31.717      24.114      18.018      13.302      9.7480      7.1105      5.1834    
  3.7939      2.8152      2.1471      1.7201      1.4825      1.4072      1.4825      1.7200      2.1469      2.8150    
  3.7935      5.1828      7.1096      9.7465      13.299      18.014      24.109      31.710      40.332      48.579    
  54.629      56.511      52.526      41.713      24.338      2.1522     -21.659     -43.023     -57.867     -63.185    
 -38.424     -21.655     -.85450      20.123      37.871      50.108      55.962      55.849      51.105      43.529    
  34.944      26.907      20.270      15.060      11.085      8.1109      5.9189      4.3247      3.1868      2.3951    
  1.8692      1.5501      1.4000      1.4000      1.5500      1.8691      2.3949      3.1864      4.3241      5.9178    
  8.1092      11.082      15.056      20.264      26.899      34.932      43.514      51.086      55.829      55.941    
  50.089      37.854      20.112     -.86148     -21.660     -38.425     -47.791     -47.791     -14.179      2.1590    