Xe_FCC                                  
  0.978294223826715     
     4.432200    0.000000    0.000000
     2.216100    3.838398   -0.000000
     2.216100    1.279466    3.618876
   Xe
     1
Direct
  0.000000  0.000000  0.000000
 
   48   48   48
 -.74413761665E+02 -.68698540873E+02 -.52736922407E+02 -.29726491119E+02 -.39949497410E+01
 0.20117587801E+02 0.39212009145E+02 0.51401242570E+02 0.56367188281E+02 0.55089093601E+02
 0.49325853473E+02 0.41132555998E+02 0.32411309604E+02 0.24645599703E+02 0.18405644438E+02
 0.13577790243E+02 0.99417701278E+01 0.72455522621E+01 0.52772839196E+01 0.38591464174E+01
 0.28610233609E+01 0.21798050183E+01 0.17446909933E+01 0.15026275806E+01 0.14259862945E+01
 0.15026275807E+01 0.17446909933E+01 0.21798050181E+01 0.28610233606E+01 0.38591464170E+01
 0.52772839192E+01 0.72455522618E+01 0.99417701278E+01 0.13577790243E+02 0.18405644438E+02
 0.24645599702E+02 0.32411309604E+02 0.41132555998E+02 0.49325853472E+02 0.55089093600E+02
 0.56367188281E+02 0.51401242571E+02 0.39212009146E+02 0.20117587801E+02 -.39949497410E+01
 -.29726491120E+02 -.52736922407E+02 -.68698540873E+02 -.68698540783E+02 -.57866626241E+02
 -.38424409872E+02 -.14178364383E+02 0.10500108172E+02 0.31736237293E+02 0.46917875546E+02
 0.54991495608E+02 0.56350791404E+02 0.52410610074E+02 0.45114323098E+02 0.36445983046E+02
 0.28116465418E+02 0.21164466141E+02 0.15704161188E+02 0.11539599849E+02 0.84293104204E+01
 0.61401236664E+01 0.44788903090E+01 0.32941180850E+01 0.24712052608E+01 0.19246287678E+01
 0.15934175207E+01 0.14375788294E+01 0.14376386493E+01 0.15933230644E+01 0.19246488050E+01
 0.24710517263E+01 0.32940503382E+01 0.44785840082E+01 0.61398171202E+01 0.84286132010E+01
 0.11538719820E+02 0.15702609366E+02 0.21162402932E+02 0.28113280683E+02 0.36441809180E+02
 0.45108560398E+02 0.52404185803E+02 0.56343334487E+02 0.54984690195E+02 0.46911027447E+02
 0.31731590671E+02 0.10496488721E+02 -.14180566593E+02 -.38424704340E+02 -.57867810215E+02
 -.68699182254E+02 -.52736922060E+02 -.38424409611E+02 -.17844393482E+02 0.50536947841E+01
 0.26322618802E+02 0.42882732887E+02 0.53043076125E+02 0.56565580574E+02 0.54399461286E+02
 0.48215863802E+02 0.39945887727E+02 0.31373343428E+02 0.23851427374E+02 0.17826755129E+02
 0.13165721434E+02 0.96523616984E+01 0.70438930003E+01 0.51369002284E+01 0.37615317094E+01
 0.27923899123E+01 0.21307310260E+01 0.17076488775E+01 0.14724102235E+01 0.13977085948E+01
 0.14723805871E+01 0.17075759751E+01 0.21306147119E+01 0.27921759865E+01 0.37611967203E+01
 0.51363142944E+01 0.70429743220E+01 0.96508622412E+01 0.13163464160E+02 0.17823333784E+02
 0.23846542774E+02 0.31366283561E+02 0.39936588463E+02 0.48204178080E+02 0.54386195916E+02
 0.56551190904E+02 0.53029913892E+02 0.42870863040E+02 0.26314136059E+02 0.50478262467E+01
 -.17848425576E+02 -.38425785913E+02 -.52737086432E+02 -.57867809962E+02 -.29726490392E+02
 -.14178363741E+02 0.50536951655E+01 0.24348044763E+02 0.40508592113E+02 0.51413583521E+02
 0.56268316255E+02 0.55502551457E+02 0.50412190836E+02 0.42731610958E+02 0.34207141170E+02
 0.26321939474E+02 0.19838394322E+02 0.14748317508E+02 0.10865380042E+02 0.79566419336E+01
 0.58114483393E+01 0.42496022208E+01 0.31343149941E+01 0.23577402915E+01 0.18418563545E+01
 0.15285598334E+01 0.13813027937E+01 0.13812625624E+01 0.15285146795E+01 0.18417111557E+01
 0.23575438985E+01 0.31339263321E+01 0.42490059241E+01 0.58104067537E+01 0.79550250518E+01
 0.10862800624E+02 0.14744472942E+02 0.19832697051E+02 0.26313865793E+02 0.34195821756E+02
 0.42716824237E+02 0.50393949544E+02 0.55482677958E+02 0.56247927805E+02 0.51395374873E+02
 0.40493136443E+02 0.24337398965E+02 0.50467280271E+01 -.14181860287E+02 -.29728527786E+02
 -.38425785546E+02 -.38424703714E+02 -.39949486055E+01 0.10500109216E+02 0.26322619580E+02
 0.40508592511E+02 0.50784696448E+02 0.55965534132E+02 0.56003435030E+02 0.51777252360E+02
 0.44722223028E+02 0.36448204311E+02 0.28425869157E+02 0.21626682837E+02 0.16204257737E+02
 0.12011432728E+02 0.88385141811E+01 0.64763141610E+01 0.47398839594E+01 0.34856640238E+01
 0.25973522740E+01 0.19917130241E+01 0.16018946309E+01 0.13866804142E+01 0.13167943380E+01
 0.13866355444E+01 0.16017966043E+01 0.19915258185E+01 0.25970326923E+01 0.34851022554E+01
 0.47389523302E+01 0.64747672554E+01 0.88360789368E+01 0.12007669226E+02 0.16198680451E+02
 0.21618558473E+02 0.28414558579E+02 0.36432781352E+02 0.44702644189E+02 0.51754018775E+02
 0.55978449964E+02 0.55940878294E+02 0.50762592089E+02 0.40491323262E+02 0.26309544227E+02
 0.10492309093E+02 -.39986324540E+01 -.14181859895E+02 -.17848424810E+02 -.14180565559E+02
 0.20117589230E+02 0.31736238616E+02 0.42882733944E+02 0.51413584213E+02 0.55965534446E+02
 0.56140698409E+02 0.52421248317E+02 0.45906682198E+02 0.37986991918E+02 0.30029684325E+02
 0.23082163821E+02 0.17448813991E+02 0.13028163492E+02 0.96461481017E+01 0.71001234228E+01
 0.52120282940E+01 0.38310657312E+01 0.28408435080E+01 0.21495703857E+01 0.16890191260E+01
 0.14089974575E+01 0.12770481296E+01 0.12770949482E+01 0.14088762997E+01 0.16889633099E+01
 0.21492742769E+01 0.28404904422E+01 0.38302527107E+01 0.52108382970E+01 0.70979822525E+01
 0.96429782365E+01 0.13023145726E+02 0.17441690370E+02 0.23071627702E+02 0.30015379220E+02
 0.37967554182E+02 0.45882923512E+02 0.52393603089E+02 0.56112098383E+02 0.55938438726E+02
 0.51389905546E+02 0.42865212071E+02 0.31724243664E+02 0.20109766969E+02 0.10492309394E+02
 0.50467287296E+01 0.50478273304E+01 0.10496490066E+02 0.39212010617E+02 0.46917876900E+02
 0.53043077235E+02 0.56268317051E+02 0.56003435506E+02 0.52421248519E+02 0.46297815009E+02
 0.38767411873E+02 0.31031054279E+02 0.24111407726E+02 0.18402217778E+02 0.13856149710E+02
 0.10333311217E+02 0.76516373546E+01 0.56417174028E+01 0.41554703801E+01 0.30757591398E+01
 0.23087478559E+01 0.17832429281E+01 0.14449890737E+01 0.12569634517E+01 0.11965993397E+01
 0.12569570348E+01 0.14449346633E+01 0.17831563079E+01 0.23084843581E+01 0.30753192111E+01
 0.41545470604E+01 0.56402418654E+01 0.76490650621E+01 0.10329446674E+02 0.13850101749E+02
 0.18393755050E+02 0.24099136590E+02 0.31014652751E+02 0.38745485032E+02 0.46271427011E+02
 0.52391722207E+02 0.55972943279E+02 0.56240438808E+02 0.53018412350E+02 0.46899151973E+02
 0.39199514739E+02 0.31724243762E+02 0.26309544641E+02 0.24337399789E+02 0.26314137252E+02
 0.31731592092E+02 0.51401243766E+02 0.54991496698E+02 0.56565581482E+02 0.55502552151E+02
 0.51777252842E+02 0.45906682496E+02 0.38767412014E+02 0.31371832108E+02 0.24644387558E+02
 0.19002198530E+02 0.14441327426E+02 0.10859102526E+02 0.80985925366E+01 0.60063599656E+01
 0.44413717654E+01 0.32905117385E+01 0.24601331598E+01 0.18786733056E+01 0.14894491855E+01
 0.12523324220E+01 0.11402655304E+01 0.11402789790E+01 0.12523645834E+01 0.14894720569E+01
 0.18786457738E+01 0.24599548633E+01 0.32900805179E+01 0.44404458262E+01 0.60047236784E+01
 0.80957875567E+01 0.10854775351E+02 0.14434609726E+02 0.18992628479E+02 0.24630842183E+02
 0.31353796345E+02 0.38744131965E+02 0.45878726922E+02 0.51747170520E+02 0.55471297328E+02
 0.56538534243E+02 0.54968714008E+02 0.51383290738E+02 0.46899151800E+02 0.42865212026E+02
 0.40491323557E+02 0.40493137136E+02 0.42870864052E+02 0.46911028628E+02 0.56367188930E+02
 0.56350791994E+02 0.54399461803E+02 0.50412191284E+02 0.44722223415E+02 0.37986992245E+02
 0.31031054531E+02 0.24644387702E+02 0.19206550729E+02 0.14744496074E+02 0.11189203283E+02
 0.84139434981E+01 0.62843217780E+01 0.46728588895E+01 0.34728714258E+01 0.25949766541E+01
 0.19686569764E+01 0.15371696095E+01 0.12586864253E+01 0.11030194442E+01 0.10532645591E+01
 0.11030880024E+01 0.12588383747E+01 0.15373103333E+01 0.19688191928E+01 0.25949362072E+01
 0.34726393605E+01 0.46720191075E+01 0.62828012622E+01 0.84110538975E+01 0.11184852180E+02
 0.14737639686E+02 0.19196866915E+02 0.24630697967E+02 0.31012901285E+02 0.37964402439E+02
 0.44694627670E+02 0.50384231652E+02 0.54370013536E+02 0.56324313351E+02 0.56346287914E+02
 0.54968713571E+02 0.53018411795E+02 0.51389905174E+02 0.50762592064E+02 0.51395375193E+02
 0.53029914449E+02 0.54984690849E+02 0.55089093577E+02 0.52410610075E+02 0.48215863871E+02
 0.42731611126E+02 0.36448204583E+02 0.30029684671E+02 0.24111408084E+02 0.19002198821E+02
 0.14744496232E+02 0.11302124136E+02 0.85768960706E+01 0.64587461985E+01 0.48356785165E+01
 0.36121888945E+01 0.27046920012E+01 0.20468617448E+01 0.15829660569E+01 0.12714688221E+01
 0.10803320002E+01 0.99004704482E+00 0.98997282022E+00 0.10806824965E+01 0.12716448057E+01
 0.15835057450E+01 0.20471227842E+01 0.27051414339E+01 0.36120865576E+01 0.48353764446E+01
 0.64573405330E+01 0.85745062160E+01 0.11297658558E+02 0.14738124064E+02 0.18992354686E+02
 0.24098776993E+02 0.30011548519E+02 0.36427857052E+02 0.42705478938E+02 0.48190231792E+02
 0.52385206836E+02 0.55065530761E+02 0.56324312733E+02 0.56538533273E+02 0.56240437822E+02
 0.55938437971E+02 0.55940877854E+02 0.56247927616E+02 0.56551190844E+02 0.56343334461E+02
 0.49325852834E+02 0.45114322586E+02 0.39945887428E+02 0.34207141129E+02 0.28425869362E+02
 0.23082164206E+02 0.18402218237E+02 0.14441327842E+02 0.11189203567E+02 0.85768961930E+01
 0.65179873532E+01 0.49199947614E+01 0.36993950348E+01 0.27824139524E+01 0.21072603565E+01
 0.16222835661E+01 0.12863361913E+01 0.10680291086E+01 0.94554301578E+00 0.90620698756E+00
 0.94574864813E+00 0.10684592923E+01 0.12869102235E+01 0.16230499468E+01 0.21080237716E+01
 0.27832304254E+01 0.36998655997E+01 0.49201679028E+01 0.65172351003E+01 0.85752794403E+01
 0.11185517733E+02 0.14436125081E+02 0.18393332887E+02 0.23071757128E+02 0.28409770930E+02
 0.34189895213E+02 0.39924289168E+02 0.45091128996E+02 0.49305362432E+02 0.52385206159E+02
 0.54370012354E+02 0.55471295949E+02 0.55972941994E+02 0.56112097344E+02 0.55978449157E+02
 0.55482677275E+02 0.54386195253E+02 0.52404185129E+02 0.41132554950E+02 0.36445982220E+02
 0.31373342931E+02 0.26321939349E+02 0.21626683046E+02 0.17448814430E+02 0.13856150236E+02
 0.10859102999E+02 0.84139438245E+01 0.64587463560E+01 0.49199947972E+01 0.37291889671E+01
 0.28225460883E+01 0.21455971488E+01 0.16508080033E+01 0.12999510418E+01 0.10621618494E+01
 0.91568541222E+00 0.84583998850E+00 0.84608520772E+00 0.91602056705E+00 0.10629806098E+01
 0.13008158804E+01 0.16521168176E+01 0.21468064803E+01 0.28240693514E+01 0.37302555481E+01
 0.49209933924E+01 0.64585819746E+01 0.84133376456E+01 0.10856213592E+02 0.13852515558E+02
 0.17441240643E+02 0.21618287782E+02 0.26309432128E+02 0.31357969689E+02 0.36431456192E+02
 0.41113249218E+02 0.45091128378E+02 0.48190230627E+02 0.50384230181E+02 0.51747169026E+02
 0.52391720882E+02 0.52393601968E+02 0.51754017765E+02 0.50393948522E+02 0.48204176984E+02
 0.45108559269E+02 0.32411308419E+02 0.28116464520E+02 0.23851426871E+02 0.19838394234E+02
 0.16204257995E+02 0.13028163960E+02 0.10333311735E+02 0.80985929639E+01 0.62843220364E+01
 0.48356786047E+01 0.36993950138E+01 0.28225460442E+01 0.21587116118E+01 0.16658562959E+01
 0.13092820180E+01 0.10600124555E+01 0.89681171419E+00 0.80452329671E+00 0.77490055133E+00
 0.80490271843E+00 0.89754623068E+00 0.10611396435E+01 0.13107126293E+01 0.16676569752E+01
 0.21606579262E+01 0.28247346192E+01 0.37014358839E+01 0.48376741050E+01 0.62854314474E+01
 0.80992739078E+01 0.10332148256E+02 0.13026288732E+02 0.16199993379E+02 0.19831612766E+02
 0.23844701489E+02 0.28103758597E+02 0.32399967995E+02 0.36431455712E+02 0.39924288202E+02
 0.42705477641E+02 0.44694626285E+02 0.45878725651E+02 0.46271425923E+02 0.45882922538E+02
 0.44702643189E+02 0.42716823104E+02 0.39936587192E+02 0.36441807869E+02 0.24645598629E+02
 0.21164465377E+02 0.17826754758E+02 0.14748317519E+02 0.12011433025E+02 0.96461485338E+01
 0.76516377655E+01 0.60063602401E+01 0.46728589836E+01 0.36121888373E+01 0.27824138205E+01
 0.21455970252E+01 0.16658562327E+01 0.13125893691E+01 0.10594711792E+01 0.88649089101E+00
 0.77880816165E+00 0.72736102981E+00 0.72755709066E+00 0.77952962214E+00 0.88760314962E+00
 0.10611139587E+01 0.13145892684E+01 0.16683662762E+01 0.21483150671E+01 0.27854485130E+01
 0.36150856714E+01 0.46758903356E+01 0.60086520759E+01 0.76537108510E+01 0.96467421395E+01
 0.12010919821E+02 0.14747187219E+02 0.17822218554E+02 0.21160580898E+02 0.24640576433E+02
 0.28103758280E+02 0.31357969005E+02 0.34189894246E+02 0.36427855984E+02 0.37964401456E+02
 0.38744131161E+02 0.38745484367E+02 0.37967553519E+02 0.36432780543E+02 0.34195820732E+02
 0.31366282365E+02 0.28113279457E+02 0.18405643637E+02 0.15704160672E+02 0.13165721251E+02
 0.10865380149E+02 0.88385144630E+01 0.71001237360E+01 0.56417176208E+01 0.44413718180E+01
 0.34728713145E+01 0.27046917865E+01 0.21072601238E+01 0.16508078247E+01 0.13092819250E+01
 0.10594711564E+01 0.88322259377E+00 0.76648623737E+00 0.70012255366E+00 0.67870818958E+00
 0.70066133553E+00 0.76758954855E+00 0.88484961160E+00 0.10616964970E+01 0.13119715360E+01
 0.16541011410E+01 0.21109097109E+01 0.27088371305E+01 0.34769395819E+01 0.44457389715E+01
 0.56455069236E+01 0.71038952469E+01 0.88416397764E+01 0.10866883821E+02 0.13167371178E+02
 0.15703518922E+02 0.18402806825E+02 0.21160580723E+02 0.23844701078E+02 0.26309431514E+02
 0.28409770232E+02 0.30011547894E+02 0.31012900838E+02 0.31353796073E+02 0.31014652544E+02
 0.30015378918E+02 0.28414558058E+02 0.26313865021E+02 0.23846541832E+02 0.21162401975E+02
 0.13577789769E+02 0.11539599599E+02 0.96523616811E+01 0.79566420807E+01 0.64763143588E+01
 0.52120284261E+01 0.41554703689E+01 0.32905115690E+01 0.25949763719E+01 0.20468614314E+01
 0.16222833026E+01 0.12999508785E+01 0.10600123972E+01 0.88649090337E+00 0.76648626708E+00
 0.69125068137E+00 0.65506913593E+00 0.65540597466E+00 0.69217903299E+00 0.76810322773E+00
 0.88870315638E+00 0.10629473899E+01 0.13034190420E+01 0.16264025376E+01 0.20513637464E+01
 0.26001110307E+01 0.32957066892E+01 0.41610585256E+01 0.52172897749E+01 0.64811520566E+01
 0.79617481058E+01 0.96558031266E+01 0.11542914495E+02 0.13580801303E+02 0.15703518848E+02
 0.17822218353E+02 0.19831612434E+02 0.21618287387E+02 0.23071756786E+02 0.24098776810E+02
 0.24630697979E+02 0.24630842329E+02 0.24099136737E+02 0.23071627703E+02 0.21618558237E+02
 0.19832696580E+02 0.17823333170E+02 0.15702608753E+02 0.99417699476E+01 0.84293103859E+01
 0.70438930834E+01 0.58114484616E+01 0.47398840260E+01 0.38310656705E+01 0.30757589313E+01
 0.24601328401E+01 0.19686566217E+01 0.15829657512E+01 0.12863359953E+01 0.10621617815E+01
 0.89681175063E+00 0.77880825198E+00 0.70012264373E+00 0.65506918744E+00 0.64065379484E+00
 0.65579586661E+00 0.70156401484E+00 0.78101569233E+00 0.89971089760E+00 0.10658841203E+01
 0.12907254155E+01 0.15881421339E+01 0.19742372491E+01 0.24664171501E+01 0.30822176830E+01
 0.38379912944E+01 0.47471102854E+01 0.58179020871E+01 0.70507489339E+01 0.84351032085E+01
 0.99461647231E+01 0.11542914484E+02 0.13167371109E+02 0.14747187066E+02 0.16199993166E+02
 0.17441240440E+02 0.18393332788E+02 0.18992354757E+02 0.19196867157E+02 0.18992628815E+02
 0.18393755360E+02 0.17441690541E+02 0.16198680424E+02 0.14744472735E+02 0.13163463857E+02
 0.11538719532E+02 0.72455522963E+01 0.61401237646E+01 0.51369003398E+01 0.42496022726E+01
 0.34856639557E+01 0.28408433003E+01 0.23087475404E+01 0.18786729543E+01 0.15371693068E+01
 0.12714686339E+01 0.10680290612E+01 0.91568548837E+00 0.80452344832E+00 0.72736119988E+00
 0.67870833261E+00 0.65540606762E+00 0.65579590790E+00 0.67995066706E+00 0.72938842863E+00
 0.80744427829E+00 0.91935078560E+00 0.10725585035E+01 0.12766833820E+01 0.15432874615E+01
 0.18852903923E+01 0.23160846087E+01 0.28484803646E+01 0.34933203618E+01 0.42580198277E+01
 0.51446311332E+01 0.61479497484E+01 0.72533087482E+01 0.84351032357E+01 0.96558031355E+01
 0.10866883767E+02 0.12010919687E+02 0.13026288545E+02 0.13852515381E+02 0.14436124992E+02
 0.14738124115E+02 0.14737639878E+02 0.14434610003E+02 0.13850102025E+02 0.13023145921E+02
 0.12007669304E+02 0.10862800602E+02 0.96508621784E+01 0.84286131659E+01 0.52772840779E+01
 0.44788904601E+01 0.37615317965E+01 0.31343149660E+01 0.25973521124E+01 0.21495701182E+01
 0.17832426220E+01 0.14894489236E+01 0.12586862763E+01 0.10803319949E+01 0.94554314014E+00
 0.84584019463E+00 0.77490077951E+00 0.72755729210E+00 0.70066148571E+00 0.69217913142E+00
 0.70156407389E+00 0.72938845883E+00 0.77761259837E+00 0.84954994481E+00 0.95012629853E+00
 0.10858750760E+01 0.12649005363E+01 0.14965645597E+01 0.17909211928E+01 0.21579570829E+01
 0.26065246316E+01 0.31432399137E+01 0.37710636865E+01 0.44880074562E+01 0.52856155413E+01
 0.61479498038E+01 0.70507489976E+01 0.79617481181E+01 0.88416396846E+01 0.96467419208E+01
 0.10332147933E+02 0.10856213228E+02 0.11185517411E+02 0.11297658345E+02 0.11184852103E+02
 0.10854775390E+02 0.10329446778E+02 0.96429783514E+01 0.88360790341E+01 0.79550251354E+01
 0.70429744173E+01 0.61398172491E+01 0.38591466219E+01 0.32941182312E+01 0.27923899539E+01
 0.23577402084E+01 0.19917128375E+01 0.16890188952E+01 0.14449888772E+01 0.12523323283E+01
 0.11030194866E+01 0.99004721137E+00 0.90620722893E+00 0.84608545984E+00 0.80490292855E+00
 0.77952976660E+00 0.76758963520E+00 0.76810328357E+00 0.78101574368E+00 0.80744433372E+00
 0.84954998890E+00 0.91070540852E+00 0.99544717863E+00 0.11094858972E+01 0.12595484335E+01
 0.14530647345E+01 0.16977015171E+01 0.20006063870E+01 0.23676019283E+01 0.28021011362E+01
 0.33041580603E+01 0.38693408266E+01 0.44880075372E+01 0.51446312490E+01 0.58179021685E+01
 0.64811520237E+01 0.71038950326E+01 0.76537104267E+01 0.80992733002E+01 0.84133369339E+01
 0.85752787314E+01 0.85745056097E+01 0.84110534559E+01 0.80957872926E+01 0.76490649500E+01
 0.70979822517E+01 0.64747673323E+01 0.58104068895E+01 0.51363144780E+01 0.44785842208E+01
 0.28610235569E+01 0.24712053725E+01 0.21307310294E+01 0.18418562613E+01 0.16018944888E+01
 0.14089973355E+01 0.12569634143E+01 0.11402656115E+01 0.10532647482E+01 0.98997306676E+00
 0.94574888252E+00 0.91602072972E+00 0.89754629575E+00 0.88760313293E+00 0.88484956016E+00
 0.88870312467E+00 0.89971092190E+00 0.91935086766E+00 0.95012640534E+00 0.99544725726E+00
 0.10595992635E+01 0.11476177457E+01 0.12650977810E+01 0.14179364559E+01 0.16118461327E+01
 0.18518281411E+01 0.21413713905E+01 0.24817549967E+01 0.28711680421E+01 0.33041581626E+01
 0.37710638537E+01 0.42580199917E+01 0.47471103528E+01 0.52172896457E+01 0.56455065199E+01
 0.60086513728E+01 0.62854304896E+01 0.64585808699E+01 0.65172339896E+01 0.64573395492E+01
 0.62828004957E+01 0.60047231626E+01 0.56402415851E+01 0.52108382105E+01 0.47389523900E+01
 0.42490060861E+01 0.37611969421E+01 0.32940505730E+01 0.21798051764E+01 0.19246288413E+01
 0.17076488686E+01 0.15285597759E+01 0.13866803634E+01 0.12770481407E+01 0.11965994441E+01
 0.11402791670E+01 0.11030882232E+01 0.10806826755E+01 0.10684593606E+01 0.10629805335E+01
 0.10611394394E+01 0.10611136901E+01 0.10616962502E+01 0.10629472410E+01 0.10658841080E+01
 0.10725586156E+01 0.10858752579E+01 0.11094860747E+01 0.11476178527E+01 0.12048850365E+01
 0.12861140836E+01 0.13960209540E+01 0.15389071210E+01 0.17181096353E+01 0.19355360330E+01
 0.21909902164E+01 0.24817551086E+01 0.28021013411E+01 0.31432401578E+01 0.34933205551E+01
 0.38379913219E+01 0.41610582736E+01 0.44457383628E+01 0.46758893617E+01 0.48376728389E+01
 0.49209919751E+01 0.49201665052E+01 0.48353752211E+01 0.46720181599E+01 0.44404451908E+01
 0.41545467173E+01 0.38302526067E+01 0.34851023252E+01 0.31339265106E+01 0.27921762119E+01
 0.24710519417E+01 0.17446911065E+01 0.15934175712E+01 0.14724102331E+01 0.13813028026E+01
 0.13167943885E+01 0.12770950646E+01 0.12569572066E+01 0.12523647603E+01 0.12588384792E+01
 0.12716447592E+01 0.12869099786E+01 0.13008154447E+01 0.13107120706E+01 0.13145886970E+01
 0.13119710702E+01 0.13034187698E+01 0.12907253672E+01 0.12766835250E+01 0.12649007916E+01
 0.12595487062E+01 0.12650979919E+01 0.12861141898E+01 0.13269701343E+01 0.13916562856E+01
 0.14834081206E+01 0.16044453951E+01 0.17554979097E+01 0.19355361360E+01 0.21413716021E+01
 0.23676022201E+01 0.26065249340E+01 0.28484805694E+01 0.30822176616E+01 0.32957063260E+01
 0.34769388129E+01 0.36150845143E+01 0.37014344431E+01 0.37302539913E+01 0.36998641133E+01
 0.36120852983E+01 0.34726384220E+01 0.32900799222E+01 0.30753189222E+01 0.28404903904E+01
 0.25970327973E+01 0.23575440848E+01 0.21306149154E+01 0.19246489775E+01 0.15026276595E+01
 0.14375788812E+01 0.13977086477E+01 0.13812626451E+01 0.13866356712E+01 0.14088764564E+01
 0.14449348007E+01 0.14894720971E+01 0.15373101904E+01 0.15835053555E+01 0.16230492993E+01
 0.16521159685E+01 0.16676560420E+01 0.16683654082E+01 0.16541004762E+01 0.16264021623E+01
 0.15881420605E+01 0.15432876320E+01 0.14965648711E+01 0.14530650757E+01 0.14179367394E+01
 0.13960211344E+01 0.13916563605E+01 0.14083682047E+01 0.14487401676E+01 0.15141064789E+01
 0.16044454682E+01 0.17181098115E+01 0.18518284227E+01 0.20006067367E+01 0.21579574187E+01
 0.23160848116E+01 0.24664170892E+01 0.26001106011E+01 0.27088362917E+01 0.27854473118E+01
 0.28247331852E+01 0.28240678645E+01 0.27832290678E+01 0.27051403441E+01 0.25949354529E+01
 0.24599544402E+01 0.23084842083E+01 0.21492743164E+01 0.19915259622E+01 0.18417113329E+01
 0.17075761372E+01 0.15933231863E+01 0.14259863605E+01 0.14376387271E+01 0.14723806954E+01
 0.15285148222E+01 0.16017967618E+01 0.16889634335E+01 0.17831563223E+01 0.18786455901E+01
 0.19688187340E+01 0.20471220143E+01 0.21080227207E+01 0.21468052512E+01 0.21606566770E+01
 0.21483139714E+01 0.21109089107E+01 0.20513633132E+01 0.19742371700E+01 0.18852905832E+01
 0.17909215323E+01 0.16977018852E+01 0.16118464408E+01 0.15389073257E+01 0.14834082211E+01
 0.14487401941E+01 0.14369439246E+01 0.14487401940E+01 0.14834082210E+01 0.15389073256E+01
 0.16118464407E+01 0.16977018850E+01 0.17909215322E+01 0.18852905831E+01 0.19742371699E+01
 0.20513633131E+01 0.21109089106E+01 0.21483139713E+01 0.21606566769E+01 0.21468052512E+01
 0.21080227205E+01 0.20471220141E+01 0.19688187338E+01 0.18786455899E+01 0.17831563221E+01
 0.16889634334E+01 0.16017967618E+01 0.15285148222E+01 0.14723806954E+01 0.14376387271E+01
 0.15026276593E+01 0.15933231862E+01 0.17075761371E+01 0.18417113329E+01 0.19915259623E+01
 0.21492743166E+01 0.23084842085E+01 0.24599544404E+01 0.25949354530E+01 0.27051403441E+01
 0.27832290678E+01 0.28240678645E+01 0.28247331851E+01 0.27854473118E+01 0.27088362917E+01
 0.26001106011E+01 0.24664170893E+01 0.23160848116E+01 0.21579574188E+01 0.20006067368E+01
 0.18518284228E+01 0.17181098116E+01 0.16044454683E+01 0.15141064789E+01 0.14487401676E+01
 0.14083682047E+01 0.13916563605E+01 0.13960211343E+01 0.14179367393E+01 0.14530650755E+01
 0.14965648709E+01 0.15432876318E+01 0.15881420603E+01 0.16264021621E+01 0.16541004760E+01
 0.16683654081E+01 0.16676560419E+01 0.16521159683E+01 0.16230492991E+01 0.15835053553E+01
 0.15373101902E+01 0.14894720969E+01 0.14449348006E+01 0.14088764562E+01 0.13866356711E+01
 0.13812626451E+01 0.13977086476E+01 0.14375788811E+01 0.17446911064E+01 0.19246489774E+01
 0.21306149155E+01 0.23575440849E+01 0.25970327976E+01 0.28404903906E+01 0.30753189223E+01
 0.32900799223E+01 0.34726384220E+01 0.36120852982E+01 0.36998641132E+01 0.37302539911E+01
 0.37014344429E+01 0.36150845141E+01 0.34769388128E+01 0.32957063259E+01 0.30822176615E+01
 0.28484805694E+01 0.26065249340E+01 0.23676022202E+01 0.21413716022E+01 0.19355361361E+01
 0.17554979098E+01 0.16044453952E+01 0.14834081206E+01 0.13916562856E+01 0.13269701342E+01
 0.12861141897E+01 0.12650979917E+01 0.12595487060E+01 0.12649007914E+01 0.12766835248E+01
 0.12907253670E+01 0.13034187696E+01 0.13119710700E+01 0.13145886968E+01 0.13107120704E+01
 0.13008154445E+01 0.12869099784E+01 0.12716447589E+01 0.12588384789E+01 0.12523647601E+01
 0.12569572064E+01 0.12770950644E+01 0.13167943883E+01 0.13813028024E+01 0.14724102330E+01
 0.15934175711E+01 0.21798051765E+01 0.24710519419E+01 0.27921762122E+01 0.31339265109E+01
 0.34851023255E+01 0.38302526069E+01 0.41545467173E+01 0.44404451907E+01 0.46720181597E+01
 0.48353752207E+01 0.49201665048E+01 0.49209919747E+01 0.48376728385E+01 0.46758893613E+01
 0.44457383625E+01 0.41610582734E+01 0.38379913218E+01 0.34933205550E+01 0.31432401578E+01
 0.28021013412E+01 0.24817551087E+01 0.21909902165E+01 0.19355360330E+01 0.17181096353E+01
 0.15389071210E+01 0.13960209540E+01 0.12861140835E+01 0.12048850364E+01 0.11476178525E+01
 0.11094860745E+01 0.10858752577E+01 0.10725586154E+01 0.10658841078E+01 0.10629472408E+01
 0.10616962500E+01 0.10611136899E+01 0.10611394392E+01 0.10629805332E+01 0.10684593603E+01
 0.10806826752E+01 0.11030882229E+01 0.11402791668E+01 0.11965994439E+01 0.12770481405E+01
 0.13866803632E+01 0.15285597757E+01 0.17076488685E+01 0.19246288413E+01 0.28610235573E+01
 0.32940505734E+01 0.37611969425E+01 0.42490060864E+01 0.47389523902E+01 0.52108382105E+01
 0.56402415849E+01 0.60047231622E+01 0.62828004952E+01 0.64573395487E+01 0.65172339890E+01
 0.64585808693E+01 0.62854304890E+01 0.60086513723E+01 0.56455065195E+01 0.52172896453E+01
 0.47471103527E+01 0.42580199916E+01 0.37710638537E+01 0.33041581626E+01 0.28711680422E+01
 0.24817549967E+01 0.21413713904E+01 0.18518281410E+01 0.16118461326E+01 0.14179364558E+01
 0.12650977809E+01 0.11476177456E+01 0.10595992633E+01 0.99544725706E+00 0.95012640513E+00
 0.91935086745E+00 0.89971092170E+00 0.88870312448E+00 0.88484955995E+00 0.88760313271E+00
 0.89754629551E+00 0.91602072946E+00 0.94574888225E+00 0.98997306649E+00 0.10532647480E+01
 0.11402656112E+01 0.12569634141E+01 0.14089973354E+01 0.16018944887E+01 0.18418562613E+01
 0.21307310296E+01 0.24712053727E+01 0.38591466224E+01 0.44785842213E+01 0.51363144784E+01
 0.58104068897E+01 0.64747673322E+01 0.70979822515E+01 0.76490649496E+01 0.80957872921E+01
 0.84110534552E+01 0.85745056090E+01 0.85752787307E+01 0.84133369332E+01 0.80992732996E+01
 0.76537104261E+01 0.71038950321E+01 0.64811520234E+01 0.58179021683E+01 0.51446312489E+01
 0.44880075372E+01 0.38693408266E+01 0.33041580603E+01 0.28021011361E+01 0.23676019282E+01
 0.20006063868E+01 0.16977015170E+01 0.14530647344E+01 0.12595484333E+01 0.11094858971E+01
 0.99544717843E+00 0.91070540832E+00 0.84954998870E+00 0.80744433353E+00 0.78101574349E+00
 0.76810328338E+00 0.76758963500E+00 0.77952976638E+00 0.80490292832E+00 0.84608545960E+00
 0.90620722870E+00 0.99004721117E+00 0.11030194864E+01 0.12523323281E+01 0.14449888772E+01
 0.16890188953E+01 0.19917128376E+01 0.23577402087E+01 0.27923899543E+01 0.32941182317E+01
 0.52772840783E+01 0.61398172494E+01 0.70429744174E+01 0.79550251353E+01 0.88360790338E+01
 0.96429783510E+01 0.10329446777E+02 0.10854775390E+02 0.11184852102E+02 0.11297658345E+02
 0.11185517410E+02 0.10856213227E+02 0.10332147933E+02 0.96467419202E+01 0.88416396841E+01
 0.79617481178E+01 0.70507489974E+01 0.61479498037E+01 0.52856155412E+01 0.44880074561E+01
 0.37710636863E+01 0.31432399135E+01 0.26065246314E+01 0.21579570827E+01 0.17909211926E+01
 0.14965645594E+01 0.12649005361E+01 0.10858750758E+01 0.95012629832E+00 0.84954994461E+00
 0.77761259819E+00 0.72938845865E+00 0.70156407372E+00 0.69217913124E+00 0.70066148551E+00
 0.72755729190E+00 0.77490077932E+00 0.84584019446E+00 0.94554314001E+00 0.10803319948E+01
 0.12586862763E+01 0.14894489237E+01 0.17832426221E+01 0.21495701185E+01 0.25973521128E+01
 0.31343149666E+01 0.37615317971E+01 0.44788904607E+01 0.72455522965E+01 0.84286131660E+01
 0.96508621783E+01 0.10862800601E+02 0.12007669304E+02 0.13023145920E+02 0.13850102024E+02
 0.14434610003E+02 0.14737639878E+02 0.14738124115E+02 0.14436124991E+02 0.13852515381E+02
 0.13026288545E+02 0.12010919687E+02 0.10866883767E+02 0.96558031352E+01 0.84351032356E+01
 0.72533087481E+01 0.61479497482E+01 0.51446311329E+01 0.42580198274E+01 0.34933203615E+01
 0.28484803642E+01 0.23160846083E+01 0.18852903919E+01 0.15432874612E+01 0.12766833817E+01
 0.10725585032E+01 0.91935078537E+00 0.80744427808E+00 0.72938842845E+00 0.67995066689E+00
 0.65579590774E+00 0.65540606744E+00 0.67870833244E+00 0.72736119973E+00 0.80452344820E+00
 0.91568548831E+00 0.10680290612E+01 0.12714686339E+01 0.15371693069E+01 0.18786729545E+01
 0.23087475408E+01 0.28408433008E+01 0.34856639563E+01 0.42496022732E+01 0.51369003403E+01
 0.61401237650E+01 0.99417699476E+01 0.11538719532E+02 0.13163463857E+02 0.14744472735E+02
 0.16198680424E+02 0.17441690542E+02 0.18393755361E+02 0.18992628816E+02 0.19196867157E+02
 0.18992354758E+02 0.18393332788E+02 0.17441240440E+02 0.16199993165E+02 0.14747187066E+02
 0.13167371108E+02 0.11542914484E+02 0.99461647230E+01 0.84351032084E+01 0.70507489337E+01
 0.58179020868E+01 0.47471102849E+01 0.38379912939E+01 0.30822176825E+01 0.24664171497E+01
 0.19742372487E+01 0.15881421335E+01 0.12907254152E+01 0.10658841200E+01 0.89971089735E+00
 0.78101569212E+00 0.70156401465E+00 0.65579586645E+00 0.64065379468E+00 0.65506918729E+00
 0.70012264360E+00 0.77880825189E+00 0.89681175061E+00 0.10621617816E+01 0.12863359955E+01
 0.15829657514E+01 0.19686566220E+01 0.24601328405E+01 0.30757589317E+01 0.38310656709E+01
 0.47398840264E+01 0.58114484619E+01 0.70438930837E+01 0.84293103860E+01 0.13577789769E+02
 0.15702608753E+02 0.17823333171E+02 0.19832696581E+02 0.21618558239E+02 0.23071627705E+02
 0.24099136739E+02 0.24630842331E+02 0.24630697981E+02 0.24098776811E+02 0.23071756787E+02
 0.21618287387E+02 0.19831612434E+02 0.17822218353E+02 0.15703518849E+02 0.13580801303E+02
 0.11542914495E+02 0.96558031264E+01 0.79617481055E+01 0.64811520562E+01 0.52172897744E+01
 0.41610585250E+01 0.32957066887E+01 0.26001110302E+01 0.20513637459E+01 0.16264025371E+01
 0.13034190416E+01 0.10629473895E+01 0.88870315611E+00 0.76810322751E+00 0.69217903281E+00
 0.65540597450E+00 0.65506913579E+00 0.69125068126E+00 0.76648626700E+00 0.88649090335E+00
 0.10600123973E+01 0.12999508787E+01 0.16222833029E+01 0.20468614317E+01 0.25949763723E+01
 0.32905115693E+01 0.41554703692E+01 0.52120284263E+01 0.64763143589E+01 0.79566420807E+01