   1   1   0   0
  0.5764366E+02  0.4335996E-09  0.4335996E-09  0.4335996E-09  0.1000000E-15
  1.000000000000000E-004
  CAR 
 Xe_FCC                                  
     37.62579168    -19.57197867  301     -3.72342980      1.00000000
    -19.572  0.0000E+00  0.0000E+00
    -19.381  0.0000E+00  0.0000E+00
    -19.191  0.0000E+00  0.0000E+00
    -19.000  0.0000E+00  0.0000E+00
    -18.809  0.0000E+00  0.0000E+00
    -18.619  0.0000E+00  0.0000E+00
    -18.428  0.0000E+00  0.0000E+00
    -18.237  0.0000E+00  0.0000E+00
    -18.047  0.0000E+00  0.0000E+00
    -17.856  0.0000E+00  0.0000E+00
    -17.665  0.0000E+00  0.0000E+00
    -17.475  0.0000E+00  0.0000E+00
    -17.284  0.0000E+00  0.0000E+00
    -17.093  0.1470E-04  0.2802E-05
    -16.903  0.4112E+00  0.7840E-01
    -16.712  0.4592E+01  0.9539E+00
    -16.521  0.5486E+01  0.2000E+01
    -16.331  0.4552E-03  0.2000E+01
    -16.140  0.0000E+00  0.2000E+01
    -15.949  0.0000E+00  0.2000E+01
    -15.759  0.0000E+00  0.2000E+01
    -15.568  0.0000E+00  0.2000E+01
    -15.377  0.0000E+00  0.2000E+01
    -15.187  0.0000E+00  0.2000E+01
    -14.996  0.0000E+00  0.2000E+01
    -14.805  0.0000E+00  0.2000E+01
    -14.615  0.0000E+00  0.2000E+01
    -14.424  0.0000E+00  0.2000E+01
    -14.234  0.0000E+00  0.2000E+01
    -14.043  0.0000E+00  0.2000E+01
    -13.852  0.0000E+00  0.2000E+01
    -13.662  0.0000E+00  0.2000E+01
    -13.471  0.0000E+00  0.2000E+01
    -13.280  0.0000E+00  0.2000E+01
    -13.090  0.0000E+00  0.2000E+01
    -12.899  0.0000E+00  0.2000E+01
    -12.708  0.0000E+00  0.2000E+01
    -12.518  0.0000E+00  0.2000E+01
    -12.327  0.0000E+00  0.2000E+01
    -12.136  0.0000E+00  0.2000E+01
    -11.946  0.0000E+00  0.2000E+01
    -11.755  0.0000E+00  0.2000E+01
    -11.564  0.0000E+00  0.2000E+01
    -11.374  0.0000E+00  0.2000E+01
    -11.183  0.0000E+00  0.2000E+01
    -10.992  0.0000E+00  0.2000E+01
    -10.802  0.0000E+00  0.2000E+01
    -10.611  0.0000E+00  0.2000E+01
    -10.420  0.0000E+00  0.2000E+01
    -10.230  0.0000E+00  0.2000E+01
    -10.039  0.0000E+00  0.2000E+01
     -9.848  0.0000E+00  0.2000E+01
     -9.658  0.0000E+00  0.2000E+01
     -9.467  0.0000E+00  0.2000E+01
     -9.276  0.0000E+00  0.2000E+01
     -9.086  0.0000E+00  0.2000E+01
     -8.895  0.0000E+00  0.2000E+01
     -8.704  0.0000E+00  0.2000E+01
     -8.514  0.0000E+00  0.2000E+01
     -8.323  0.0000E+00  0.2000E+01
     -8.132  0.0000E+00  0.2000E+01
     -7.942  0.0000E+00  0.2000E+01
     -7.751  0.0000E+00  0.2000E+01
     -7.560  0.0000E+00  0.2000E+01
     -7.370  0.0000E+00  0.2000E+01
     -7.179  0.0000E+00  0.2000E+01
     -6.988  0.0000E+00  0.2000E+01
     -6.798  0.0000E+00  0.2000E+01
     -6.607  0.0000E+00  0.2000E+01
     -6.416  0.0000E+00  0.2000E+01
     -6.226  0.0000E+00  0.2000E+01
     -6.035  0.1115E-08  0.2000E+01
     -5.845  0.5782E-01  0.2011E+01
     -5.654  0.1033E+01  0.2208E+01
     -5.463  0.4010E+01  0.2973E+01
     -5.273  0.3207E+01  0.3584E+01
     -5.082  0.1598E+01  0.3888E+01
     -4.891  0.2378E+01  0.4342E+01
     -4.701  0.3087E+01  0.4930E+01
     -4.510  0.6241E+01  0.6120E+01
     -4.319  0.6026E+01  0.7269E+01
     -4.129  0.3412E+01  0.7920E+01
     -3.938  0.4216E+00  0.8000E+01
     -3.747  0.9679E-06  0.8000E+01
     -3.557  0.0000E+00  0.8000E+01
     -3.366  0.0000E+00  0.8000E+01
     -3.175  0.0000E+00  0.8000E+01
     -2.985  0.0000E+00  0.8000E+01
     -2.794  0.0000E+00  0.8000E+01
     -2.603  0.0000E+00  0.8000E+01
     -2.413  0.0000E+00  0.8000E+01
     -2.222  0.0000E+00  0.8000E+01
     -2.031  0.0000E+00  0.8000E+01
     -1.841  0.0000E+00  0.8000E+01
     -1.650  0.0000E+00  0.8000E+01
     -1.459  0.0000E+00  0.8000E+01
     -1.269  0.0000E+00  0.8000E+01
     -1.078  0.0000E+00  0.8000E+01
     -0.887  0.0000E+00  0.8000E+01
     -0.697  0.0000E+00  0.8000E+01
     -0.506  0.0000E+00  0.8000E+01
     -0.315  0.0000E+00  0.8000E+01
     -0.125  0.0000E+00  0.8000E+01
      0.066  0.0000E+00  0.8000E+01
      0.257  0.0000E+00  0.8000E+01
      0.447  0.0000E+00  0.8000E+01
      0.638  0.0000E+00  0.8000E+01
      0.829  0.0000E+00  0.8000E+01
      1.019  0.0000E+00  0.8000E+01
      1.210  0.0000E+00  0.8000E+01
      1.401  0.0000E+00  0.8000E+01
      1.591  0.0000E+00  0.8000E+01
      1.782  0.0000E+00  0.8000E+01
      1.973  0.0000E+00  0.8000E+01
      2.163  0.0000E+00  0.8000E+01
      2.354  0.0000E+00  0.8000E+01
      2.544  0.3765E-15  0.8000E+01
      2.735  0.5358E-03  0.8000E+01
      2.926  0.4821E-01  0.8009E+01
      3.116  0.4695E-04  0.8009E+01
      3.307  0.2854E-10  0.8009E+01
      3.498  0.6037E-01  0.8021E+01
      3.688  0.3493E+00  0.8087E+01
      3.879  0.4193E+00  0.8167E+01
      4.070  0.4833E-03  0.8167E+01
      4.260  0.1079E+01  0.8373E+01
      4.451  0.1285E+01  0.8618E+01
      4.642  0.1856E+01  0.8972E+01
      4.832  0.1162E+01  0.9193E+01
      5.023  0.1735E+01  0.9524E+01
      5.214  0.3015E+01  0.1010E+02
      5.404  0.1090E+01  0.1031E+02
      5.595  0.4093E+00  0.1039E+02
      5.786  0.3654E+00  0.1045E+02
      5.976  0.4197E+01  0.1125E+02
      6.167  0.2005E+01  0.1164E+02
      6.358  0.1425E+01  0.1191E+02
      6.548  0.6723E+00  0.1204E+02
      6.739  0.3689E+00  0.1211E+02
      6.930  0.1972E+01  0.1248E+02
      7.120  0.2797E+01  0.1302E+02
      7.311  0.1168E+01  0.1324E+02
      7.502  0.1572E+01  0.1354E+02
      7.692  0.3166E+01  0.1414E+02
      7.883  0.1334E+01  0.1440E+02
      8.074  0.1920E+01  0.1476E+02
      8.264  0.2897E+01  0.1532E+02
      8.455  0.3704E+00  0.1539E+02
      8.646  0.1149E+01  0.1561E+02
      8.836  0.1141E+01  0.1582E+02
      9.027  0.5073E-01  0.1583E+02
      9.218  0.7068E+00  0.1597E+02
      9.408  0.1764E+01  0.1630E+02
      9.599  0.9227E+00  0.1648E+02
      9.790  0.2852E+01  0.1702E+02
      9.980  0.1341E+00  0.1705E+02
     10.171  0.1435E+01  0.1732E+02
     10.362  0.1360E+01  0.1758E+02
     10.552  0.1706E+01  0.1791E+02
     10.743  0.2072E+01  0.1830E+02
     10.933  0.9551E+00  0.1848E+02
     11.124  0.1170E+01  0.1871E+02
     11.315  0.6954E-05  0.1871E+02
     11.505  0.3979E+00  0.1878E+02
     11.696  0.1186E+01  0.1901E+02
     11.887  0.2730E+01  0.1953E+02
     12.077  0.3875E+01  0.2027E+02
     12.268  0.1631E+01  0.2058E+02
     12.459  0.3112E+01  0.2117E+02
     12.649  0.1088E+01  0.2138E+02
     12.840  0.2183E+01  0.2180E+02
     13.031  0.1738E+01  0.2213E+02
     13.221  0.3331E+01  0.2276E+02
     13.412  0.1969E+00  0.2280E+02
     13.603  0.1432E+01  0.2307E+02
     13.793  0.2032E+01  0.2346E+02
     13.984  0.2431E+01  0.2392E+02
     14.175  0.3300E-01  0.2393E+02
     14.365  0.2017E+01  0.2431E+02
     14.556  0.1914E+01  0.2468E+02
     14.747  0.1656E+01  0.2500E+02
     14.937  0.3753E+00  0.2507E+02
     15.128  0.1800E+01  0.2541E+02
     15.319  0.1469E+00  0.2544E+02
     15.509  0.3147E+01  0.2604E+02
     15.700  0.2799E+01  0.2657E+02
     15.891  0.3328E+01  0.2721E+02
     16.081  0.5159E+00  0.2730E+02
     16.272  0.4917E+01  0.2824E+02
     16.463  0.2510E+01  0.2872E+02
     16.653  0.2392E+01  0.2918E+02
     16.844  0.2261E+01  0.2961E+02
     17.035  0.3028E+01  0.3019E+02
     17.225  0.1738E+01  0.3052E+02
     17.416  0.2023E+01  0.3090E+02
     17.607  0.2460E+01  0.3137E+02
     17.797  0.4642E+01  0.3226E+02
     17.988  0.1389E+01  0.3252E+02
     18.179  0.1626E+01  0.3283E+02
     18.369  0.1721E+01  0.3316E+02
     18.560  0.1032E+01  0.3336E+02
     18.751  0.3601E+01  0.3404E+02
     18.941  0.3156E+01  0.3464E+02
     19.132  0.1514E+01  0.3493E+02
     19.323  0.1227E+01  0.3517E+02
     19.513  0.2855E+01  0.3571E+02
     19.704  0.2910E+01  0.3627E+02
     19.894  0.2012E+01  0.3665E+02
     20.085  0.2846E+01  0.3719E+02
     20.276  0.2841E+01  0.3773E+02
     20.466  0.5455E+01  0.3877E+02
     20.657  0.9060E+00  0.3895E+02
     20.848  0.3668E+01  0.3965E+02
     21.038  0.8941E+00  0.3982E+02
     21.229  0.1421E+01  0.4009E+02
     21.420  0.1740E+01  0.4042E+02
     21.610  0.1287E+01  0.4066E+02
     21.801  0.5965E+01  0.4180E+02
     21.992  0.4966E+00  0.4190E+02
     22.182  0.3337E+01  0.4253E+02
     22.373  0.3572E+01  0.4321E+02
     22.564  0.2145E+01  0.4362E+02
     22.754  0.3742E+01  0.4434E+02
     22.945  0.3625E+01  0.4503E+02
     23.136  0.1638E+01  0.4534E+02
     23.326  0.2228E+01  0.4576E+02
     23.517  0.5132E+01  0.4674E+02
     23.708  0.2815E+01  0.4728E+02
     23.898  0.2225E+01  0.4770E+02
     24.089  0.1502E+01  0.4799E+02
     24.280  0.5868E-01  0.4800E+02
     24.470  0.1712E+01  0.4833E+02
     24.661  0.1778E+01  0.4867E+02
     24.852  0.1523E+01  0.4896E+02
     25.042  0.1105E+01  0.4917E+02
     25.233  0.3447E+01  0.4983E+02
     25.424  0.3785E+01  0.5055E+02
     25.614  0.4208E+01  0.5135E+02
     25.805  0.5369E+00  0.5145E+02
     25.996  0.6005E+00  0.5157E+02
     26.186  0.3002E+01  0.5214E+02
     26.377  0.2006E+01  0.5252E+02
     26.568  0.3166E+01  0.5312E+02
     26.758  0.7750E+00  0.5327E+02
     26.949  0.3089E+01  0.5386E+02
     27.140  0.2598E+01  0.5436E+02
     27.330  0.6043E+00  0.5447E+02
     27.521  0.3767E+01  0.5519E+02
     27.712  0.4118E+01  0.5597E+02
     27.902  0.4956E+01  0.5692E+02
     28.093  0.3896E+01  0.5766E+02
     28.283  0.2010E+01  0.5805E+02
     28.474  0.2271E+00  0.5809E+02
     28.665  0.9689E+00  0.5827E+02
     28.855  0.3527E+01  0.5895E+02
     29.046  0.1143E+01  0.5916E+02
     29.237  0.3600E+01  0.5985E+02
     29.427  0.3208E+01  0.6046E+02
     29.618  0.8571E+00  0.6063E+02
     29.809  0.2731E+01  0.6115E+02
     29.999  0.1051E+01  0.6135E+02
     30.190  0.1407E+01  0.6162E+02
     30.381  0.1158E+01  0.6184E+02
     30.571  0.2090E+01  0.6223E+02
     30.762  0.1437E+01  0.6251E+02
     30.953  0.1927E+01  0.6288E+02
     31.143  0.1018E+01  0.6307E+02
     31.334  0.1226E+01  0.6330E+02
     31.525  0.1258E+01  0.6354E+02
     31.715  0.2018E+00  0.6358E+02
     31.906  0.7100E+00  0.6372E+02
     32.097  0.1837E-01  0.6372E+02
     32.287  0.1506E+00  0.6375E+02
     32.478  0.4349E+00  0.6383E+02
     32.669  0.6234E-06  0.6383E+02
     32.859  0.2408E-03  0.6383E+02
     33.050  0.2906E+00  0.6389E+02
     33.241  0.1482E+00  0.6392E+02
     33.431  0.1510E-03  0.6392E+02
     33.622  0.1850E+00  0.6395E+02
     33.813  0.2054E+00  0.6399E+02
     34.003  0.1948E-07  0.6399E+02
     34.194  0.0000E+00  0.6399E+02
     34.385  0.0000E+00  0.6399E+02
     34.575  0.0000E+00  0.6399E+02
     34.766  0.5319E-14  0.6399E+02
     34.957  0.1264E-02  0.6399E+02
     35.147  0.4751E-01  0.6400E+02
     35.338  0.1377E-04  0.6400E+02
     35.529  0.0000E+00  0.6400E+02
     35.719  0.0000E+00  0.6400E+02
     35.910  0.0000E+00  0.6400E+02
     36.101  0.0000E+00  0.6400E+02
     36.291  0.0000E+00  0.6400E+02
     36.482  0.0000E+00  0.6400E+02
     36.672  0.0000E+00  0.6400E+02
     36.863  0.0000E+00  0.6400E+02
     37.054  0.0000E+00  0.6400E+02
     37.244  0.0000E+00  0.6400E+02
     37.435  0.0000E+00  0.6400E+02
     37.626  0.0000E+00  0.6400E+02
