    1    1    1    1
  0.5764366E+02  0.4335996E-09  0.4335996E-09  0.4335996E-09  0.1000000E-15
  1.000000000000000E-004
  CAR 
 Xe_FCC                                  
      8    152     32
 
  0.5000000E+00  0.5000000E+00  0.5000000E+00  0.0000000E+00
    1      -16.722117   1.000000
    2       -5.834513   1.000000
    3       -4.302696   1.000000
    4       -4.302693   1.000000
    5        4.268726   0.000000
    6        7.017048   0.000000
    7        7.017054   0.000000
    8        7.602655   0.000000
    9       10.229657   0.000000
   10       11.671475   0.000000
   11       11.671479   0.000000
   12       13.547184   0.000000
   13       13.547192   0.000000
   14       13.824062   0.000000
   15       18.223745   0.000000
   16       18.753250   0.000000
   17       18.753259   0.000000
   18       20.265703   0.000000
   19       20.434773   0.000000
   20       21.581732   0.000000
   21       21.581748   0.000000
   22       22.095656   0.000000
   23       23.068087   0.000000
   24       23.068097   0.000000
   25       25.678066   0.000000
   26       26.060608   0.000000
   27       27.007091   0.000000
   28       27.007110   0.000000
   29       27.678766   0.000000
   30       27.678852   0.000000
   31       28.715223   0.000000
   32       30.107632   0.000000
 
  0.4750000E+00  0.4750000E+00  0.4750000E+00  0.0000000E+00
    1      -16.723364   1.000000
    2       -5.825687   1.000000
    3       -4.301432   1.000000
    4       -4.301429   1.000000
    5        4.270702   0.000000
    6        7.023724   0.000000
    7        7.023730   0.000000
    8        7.585967   0.000000
    9       10.207480   0.000000
   10       11.589753   0.000000
   11       11.589757   0.000000
   12       13.644113   0.000000
   13       13.644121   0.000000
   14       13.890327   0.000000
   15       18.074275   0.000000
   16       18.682675   0.000000
   17       18.682684   0.000000
   18       20.398324   0.000000
   19       20.440932   0.000000
   20       21.631200   0.000000
   21       21.631214   0.000000
   22       22.059634   0.000000
   23       23.087036   0.000000
   24       23.087046   0.000000
   25       25.622616   0.000000
   26       26.115476   0.000000
   27       27.009438   0.000000
   28       27.009461   0.000000
   29       27.732216   0.000000
   30       27.732296   0.000000
   31       28.816191   0.000000
   32       30.147079   0.000000
 
  0.4500000E+00  0.4500000E+00  0.4500000E+00  0.0000000E+00
    1      -16.728225   1.000000
    2       -5.799383   1.000000
    3       -4.297773   1.000000
    4       -4.297770   1.000000
    5        4.276129   0.000000
    6        7.043623   0.000000
    7        7.043629   0.000000
    8        7.535554   0.000000
    9       10.150339   0.000000
   10       11.382929   0.000000
   11       11.382933   0.000000
   12       13.895733   0.000000
   13       13.895740   0.000000
   14       14.079690   0.000000
   15       17.700203   0.000000
   16       18.472643   0.000000
   17       18.472651   0.000000
   18       20.435851   0.000000
   19       20.695233   0.000000
   20       21.758321   0.000000
   21       21.758334   0.000000
   22       21.935486   0.000000
   23       23.126382   0.000000
   24       23.126391   0.000000
   25       25.462031   0.000000
   26       26.222718   0.000000
   27       26.919804   0.000000
   28       26.919835   0.000000
   29       27.867370   0.000000
   30       27.867440   0.000000
   31       29.025122   0.000000
   32       30.284150   0.000000
 
  0.4250000E+00  0.4250000E+00  0.4250000E+00  0.0000000E+00
    1      -16.736166   1.000000
    2       -5.755965   1.000000
    3       -4.291759   1.000000
    4       -4.291756   1.000000
    5        4.283723   0.000000
    6        7.076388   0.000000
    7        7.076394   0.000000
    8        7.451387   0.000000
    9       10.080330   0.000000
   10       11.113670   0.000000
   11       11.113673   0.000000
   12       14.239384   0.000000
   13       14.239390   0.000000
   14       14.369779   0.000000
   15       17.226501   0.000000
   16       18.168007   0.000000
   17       18.168013   0.000000
   18       20.427913   0.000000
   19       20.964531   0.000000
   20       21.813610   0.000000
   21       21.917408   0.000000
   22       21.917418   0.000000
   23       23.199332   0.000000
   24       23.199340   0.000000
   25       25.294534   0.000000
   26       26.351660   0.000000
   27       26.812871   0.000000
   28       26.812909   0.000000
   29       28.049486   0.000000
   30       28.049548   0.000000
   31       29.261312   0.000000
   32       30.569301   0.000000
 
  0.4000000E+00  0.4000000E+00  0.4000000E+00  0.0000000E+00
    1      -16.746898   1.000000
    2       -5.696056   1.000000
    3       -4.283516   1.000000
    4       -4.283513   1.000000
    5        4.291176   0.000000
    6        7.121367   0.000000
    7        7.121373   0.000000
    8        7.335678   0.000000
    9       10.020601   0.000000
   10       10.822115   0.000000
   11       10.822117   0.000000
   12       14.634361   0.000000
   13       14.634367   0.000000
   14       14.732086   0.000000
   15       16.719301   0.000000
   16       17.804675   0.000000
   17       17.804680   0.000000
   18       20.417330   0.000000
   19       20.947066   0.000000
   20       21.909967   0.000000
   21       22.066946   0.000000
   22       22.066953   0.000000
   23       23.313067   0.000000
   24       23.313073   0.000000
   25       25.150203   0.000000
   26       26.510717   0.000000
   27       26.704341   0.000000
   28       26.704383   0.000000
   29       28.259746   0.000000
   30       28.259803   0.000000
   31       29.454863   0.000000
   32       31.037189   0.000000
 
  0.3750000E+00  0.3750000E+00  0.3750000E+00  0.0000000E+00
    1      -16.760181   1.000000
    2       -5.620575   1.000000
    3       -4.273218   1.000000
    4       -4.273215   1.000000
    5        4.294862   0.000000
    6        7.177531   0.000000
    7        7.177537   0.000000
    8        7.194890   0.000000
    9        9.987600   0.000000
   10       10.529143   0.000000
   11       10.529145   0.000000
   12       15.058198   0.000000
   13       15.058203   0.000000
   14       15.122114   0.000000
   15       16.228173   0.000000
   16       17.409472   0.000000
   17       17.409477   0.000000
   18       20.404387   0.000000
   19       20.637406   0.000000
   20       22.185282   0.000000
   21       22.185285   0.000000
   22       22.208927   0.000000
   23       23.465381   0.000000
   24       23.465385   0.000000
   25       25.038981   0.000000
   26       26.601312   0.000000
   27       26.601358   0.000000
   28       26.683729   0.000000
   29       28.485636   0.000000
   30       28.485688   0.000000
   31       29.612458   0.000000
   32       31.648613   0.000000
 
  0.3500000E+00  0.3500000E+00  0.3500000E+00  0.0000000E+00
    1      -16.775706   1.000000
    2       -5.530659   1.000000
    3       -4.261095   1.000000
    4       -4.261092   1.000000
    5        4.289744   0.000000
    6        7.040329   0.000000
    7        7.243332   0.000000
    8        7.243338   0.000000
    9        9.989369   0.000000
   10       10.246343   0.000000
   11       10.246344   0.000000
   12       15.313385   0.000000
   13       15.494227   0.000000
   14       15.494232   0.000000
   15       15.978965   0.000000
   16       17.001445   0.000000
   17       17.001448   0.000000
   18       20.215683   0.000000
   19       20.389435   0.000000
   20       22.264076   0.000000
   21       22.264077   0.000000
   22       22.537051   0.000000
   23       23.645531   0.000000
   24       23.645534   0.000000
   25       24.951595   0.000000
   26       26.502902   0.000000
   27       26.502951   0.000000
   28       26.869975   0.000000
   29       28.711473   0.000000
   30       28.711520   0.000000
   31       29.776940   0.000000
   32       31.818349   0.000000
 
  0.3250000E+00  0.3250000E+00  0.3250000E+00  0.0000000E+00
    1      -16.792912   1.000000
    2       -5.427739   1.000000
    3       -4.247403   1.000000
    4       -4.247400   1.000000
    5        4.269393   0.000000
    6        6.887055   0.000000
    7        7.316496   0.000000
    8        7.316502   0.000000
    9        9.981424   0.000000
   10        9.981425   0.000000
   11       10.027450   0.000000
   12       14.953885   0.000000
   13       15.903536   0.000000
   14       15.903543   0.000000
   15       16.319622   0.000000
   16       16.623805   0.000000
   17       16.623807   0.000000
   18       19.747094   0.000000
   19       20.382818   0.000000
   20       22.319437   0.000000
   21       22.319439   0.000000
   22       22.845236   0.000000
   23       23.832265   0.000000
   24       23.832268   0.000000
   25       24.874499   0.000000
   26       26.410764   0.000000
   27       26.410815   0.000000
   28       27.056775   0.000000
   29       28.920376   0.000000
   30       28.920418   0.000000
   31       29.985016   0.000000
   32       31.843037   0.000000
 
  0.3000000E+00  0.3000000E+00  0.3000000E+00  0.0000000E+00
    1      -16.811495   1.000000
    2       -5.313492   1.000000
    3       -4.232465   1.000000
    4       -4.232463   1.000000
    5        4.226487   0.000000
    6        6.751508   0.000000
    7        7.393594   0.000000
    8        7.393600   0.000000
    9        9.740863   0.000000
   10        9.740865   0.000000
   11       10.099618   0.000000
   12       14.460413   0.000000
   13       15.972935   0.000000
   14       15.972945   0.000000
   15       16.591031   0.000000
   16       16.591036   0.000000
   17       16.826628   0.000000
   18       19.264469   0.000000
   19       20.364823   0.000000
   20       22.351215   0.000000
   21       22.351219   0.000000
   22       23.109236   0.000000
   23       24.018303   0.000000
   24       24.018306   0.000000
   25       24.825109   0.000000
   26       26.329013   0.000000
   27       26.329066   0.000000
   28       27.215548   0.000000
   29       29.088729   0.000000
   30       29.088767   0.000000
   31       30.258785   0.000000
   32       31.924489   0.000000
 
  0.2750000E+00  0.2750000E+00  0.2750000E+00  0.0000000E+00
    1      -16.830952   1.000000
    2       -5.189921   1.000000
    3       -4.216617   1.000000
    4       -4.216614   1.000000
    5        4.154640   0.000000
    6        6.648619   0.000000
    7        7.469713   0.000000
    8        7.469719   0.000000
    9        9.531385   0.000000
   10        9.531386   0.000000
   11       10.201993   0.000000
   12       13.958804   0.000000
   13       15.615738   0.000000
   14       15.615745   0.000000
   15       16.989498   0.000000
   16       16.989501   0.000000
   17       17.355932   0.000000
   18       18.796088   0.000000
   19       20.346104   0.000000
   20       22.370413   0.000000
   21       22.370418   0.000000
   22       23.327102   0.000000
   23       24.191571   0.000000
   24       24.191575   0.000000
   25       24.787123   0.000000
   26       26.256283   0.000000
   27       26.256337   0.000000
   28       27.334280   0.000000
   29       29.190354   0.000000
   30       29.190389   0.000000
   31       30.606602   0.000000
   32       32.084396   0.000000
 
  0.2500000E+00  0.2500000E+00  0.2500000E+00  0.0000000E+00
    1      -16.850536   1.000000
    2       -5.059272   1.000000
    3       -4.200233   1.000000
    4       -4.200230   1.000000
    5        4.050843   0.000000
    6        6.588780   0.000000
    7        7.537965   0.000000
    8        7.537970   0.000000
    9        9.360819   0.000000
   10        9.360821   0.000000
   11       10.329909   0.000000
   12       13.469417   0.000000
   13       15.208495   0.000000
   14       15.208501   0.000000
   15       17.442752   0.000000
   16       17.442755   0.000000
   17       17.760157   0.000000
   18       18.479164   0.000000
   19       20.327149   0.000000
   20       22.398008   0.000000
   21       22.398013   0.000000
   22       23.526888   0.000000
   23       24.347911   0.000000
   24       24.347915   0.000000
   25       24.767644   0.000000
   26       26.193581   0.000000
   27       26.193635   0.000000
   28       27.408175   0.000000
   29       29.221451   0.000000
   30       29.221484   0.000000
   31       31.019951   0.000000
   32       32.340460   0.000000
 
  0.2250000E+00  0.2250000E+00  0.2250000E+00  0.0000000E+00
    1      -16.870146   1.000000
    2       -4.924261   1.000000
    3       -4.183713   1.000000
    4       -4.183710   1.000000
    5        3.917071   0.000000
    6        6.575910   0.000000
    7        7.589719   0.000000
    8        7.589724   0.000000
    9        9.238038   0.000000
   10        9.238040   0.000000
   11       10.477688   0.000000
   12       13.000928   0.000000
   13       14.801436   0.000000
   14       14.801442   0.000000
   15       17.579200   0.000000
   16       17.895515   0.000000
   17       17.895517   0.000000
   18       18.769038   0.000000
   19       20.308395   0.000000
   20       22.424842   0.000000
   21       22.424849   0.000000
   22       23.667183   0.000000
   23       24.483304   0.000000
   24       24.483308   0.000000
   25       24.743357   0.000000
   26       26.141492   0.000000
   27       26.141546   0.000000
   28       27.436485   0.000000
   29       29.164563   0.000000
   30       29.164593   0.000000
   31       31.445550   0.000000
   32       32.669960   0.000000
 
  0.2000000E+00  0.2000000E+00  0.2000000E+00  0.0000000E+00
    1      -16.888918   1.000000
    2       -4.787802   1.000000
    3       -4.167454   1.000000
    4       -4.167451   1.000000
    5        3.760472   0.000000
    6        6.607774   0.000000
    7        7.616644   0.000000
    8        7.616649   0.000000
    9        9.170993   0.000000
   10        9.170995   0.000000
   11       10.636862   0.000000
   12       12.563395   0.000000
   13       14.404910   0.000000
   14       14.404916   0.000000
   15       17.143622   0.000000
   16       18.336179   0.000000
   17       18.336181   0.000000
   18       19.336531   0.000000
   19       20.291339   0.000000
   20       22.470353   0.000000
   21       22.470360   0.000000
   22       23.792951   0.000000
   23       24.607030   0.000000
   24       24.607036   0.000000
   25       24.731319   0.000000
   26       26.102151   0.000000
   27       26.102204   0.000000
   28       27.426305   0.000000
   29       29.045513   0.000000
   30       29.045542   0.000000
   31       31.780186   0.000000
   32       33.062425   0.000000
 
  0.1750000E+00  0.1750000E+00  0.1750000E+00  0.0000000E+00
    1      -16.906863   1.000000
    2       -4.653303   1.000000
    3       -4.151894   1.000000
    4       -4.151891   1.000000
    5        3.590932   0.000000
    6        6.678049   0.000000
    7        7.614774   0.000000
    8        7.614778   0.000000
    9        9.162454   0.000000
   10        9.162457   0.000000
   11       10.790294   0.000000
   12       12.174514   0.000000
   13       14.023904   0.000000
   14       14.023910   0.000000
   15       16.685360   0.000000
   16       18.749486   0.000000
   17       18.749488   0.000000
   18       19.946981   0.000000
   19       20.270324   0.000000
   20       22.523909   0.000000
   21       22.523916   0.000000
   22       23.893523   0.000000
   23       24.687442   0.000000
   24       24.687448   0.000000
   25       24.718388   0.000000
   26       26.076769   0.000000
   27       26.076822   0.000000
   28       27.382256   0.000000
   29       28.855793   0.000000
   30       28.855822   0.000000
   31       31.823555   0.000000
   32       33.480019   0.000000
 
  0.1500000E+00  0.1500000E+00  0.1500000E+00  0.0000000E+00
    1      -16.923184   1.000000
    2       -4.524418   1.000000
    3       -4.137408   1.000000
    4       -4.137405   1.000000
    5        3.419228   0.000000
    6        6.778478   0.000000
    7        7.587630   0.000000
    8        7.587634   0.000000
    9        9.206708   0.000000
   10        9.206712   0.000000
   11       10.893530   0.000000
   12       11.879487   0.000000
   13       13.663727   0.000000
   14       13.663733   0.000000
   15       16.236463   0.000000
   16       19.127038   0.000000
   17       19.127039   0.000000
   18       20.254509   0.000000
   19       20.566665   0.000000
   20       22.601587   0.000000
   21       22.601594   0.000000
   22       23.978434   0.000000
   23       24.717737   0.000000
   24       24.760734   0.000000
   25       24.760743   0.000000
   26       26.068525   0.000000
   27       26.068575   0.000000
   28       27.306884   0.000000
   29       28.619326   0.000000
   30       28.619355   0.000000
   31       31.525049   0.000000
   32       33.910367   0.000000
 
  0.1250000E+00  0.1250000E+00  0.1250000E+00  0.0000000E+00
    1      -16.937640   1.000000
    2       -4.405170   1.000000
    3       -4.124392   1.000000
    4       -4.124390   1.000000
    5        3.255386   0.000000
    6        6.899878   0.000000
    7        7.544527   0.000000
    8        7.544530   0.000000
    9        9.290783   0.000000
   10        9.290786   0.000000
   11       10.856634   0.000000
   12       11.769006   0.000000
   13       13.329756   0.000000
   14       13.329763   0.000000
   15       15.807696   0.000000
   16       19.457304   0.000000
   17       19.457305   0.000000
   18       20.240562   0.000000
   19       21.179727   0.000000
   20       22.702929   0.000000
   21       22.702935   0.000000
   22       24.047471   0.000000
   23       24.723815   0.000000
   24       24.815179   0.000000
   25       24.815190   0.000000
   26       26.080554   0.000000
   27       26.080600   0.000000
   28       27.198834   0.000000
   29       28.347184   0.000000
   30       28.347214   0.000000
   31       31.064782   0.000000
   32       34.312058   0.000000
 
  0.1000000E+00  0.1000000E+00  0.1000000E+00  0.0000000E+00
    1      -16.950047   1.000000
    2       -4.299755   1.000000
    3       -4.113207   1.000000
    4       -4.113205   1.000000
    5        3.108255   0.000000
    6        7.031948   0.000000
    7        7.495993   0.000000
    8        7.495996   0.000000
    9        9.398396   0.000000
   10        9.398400   0.000000
   11       10.670432   0.000000
   12       11.852752   0.000000
   13       13.029102   0.000000
   14       13.029109   0.000000
   15       15.408013   0.000000
   16       19.725855   0.000000
   17       19.725856   0.000000
   18       20.228794   0.000000
   19       21.769391   0.000000
   20       22.819321   0.000000
   21       22.819327   0.000000
   22       24.100895   0.000000
   23       24.737268   0.000000
   24       24.847595   0.000000
   25       24.847610   0.000000
   26       26.113843   0.000000
   27       26.113884   0.000000
   28       27.054020   0.000000
   29       28.048293   0.000000
   30       28.048325   0.000000
   31       30.584085   0.000000
   32       34.620895   0.000000
 
  0.7500000E-01  0.7500000E-01  0.7500000E-01  0.0000000E+00
    1      -16.959871   1.000000
    2       -4.212272   1.000000
    3       -4.104157   1.000000
    4       -4.104154   1.000000
    5        2.985399   0.000000
    6        7.162425   0.000000
    7        7.450707   0.000000
    8        7.450710   0.000000
    9        9.512290   0.000000
   10        9.512294   0.000000
   11       10.443034   0.000000
   12       12.021800   0.000000
   13       12.771587   0.000000
   14       12.771594   0.000000
   15       15.049341   0.000000
   16       19.936371   0.000000
   17       19.936372   0.000000
   18       20.219467   0.000000
   19       22.311284   0.000000
   20       22.950928   0.000000
   21       22.950932   0.000000
   22       24.143078   0.000000
   23       24.764067   0.000000
   24       24.869894   0.000000
   25       24.869913   0.000000
   26       26.174808   0.000000
   27       26.174842   0.000000
   28       26.871059   0.000000
   29       27.752010   0.000000
   30       27.752045   0.000000
   31       30.157371   0.000000
   32       34.810989   0.000000
 
  0.5000000E-01  0.5000000E-01  0.5000000E-01  0.0000000E+00
    1      -16.966966   1.000000
    2       -4.146559   1.000000
    3       -4.097500   1.000000
    4       -4.097498   1.000000
    5        2.892962   0.000000
    6        7.276069   0.000000
    7        7.414698   0.000000
    8        7.414701   0.000000
    9        9.614357   0.000000
   10        9.614362   0.000000
   11       10.244755   0.000000
   12       12.200814   0.000000
   13       12.570033   0.000000
   14       12.570040   0.000000
   15       14.750949   0.000000
   16       20.087551   0.000000
   17       20.087552   0.000000
   18       20.212787   0.000000
   19       22.766503   0.000000
   20       23.073766   0.000000
   21       23.073770   0.000000
   22       24.179723   0.000000
   23       24.806259   0.000000
   24       24.881438   0.000000
   25       24.881460   0.000000
   26       26.261371   0.000000
   27       26.261397   0.000000
   28       26.662790   0.000000
   29       27.475842   0.000000
   30       27.475882   0.000000
   31       29.829530   0.000000
   32       34.886094   0.000000
 
  0.2500000E-01  0.2500000E-01  0.2500000E-01  0.0000000E+00
    1      -16.971252   1.000000
    2       -4.105740   1.000000
    3       -4.093432   1.000000
    4       -4.093429   1.000000
    5        2.835564   0.000000
    6        7.355199   0.000000
    7        7.391741   0.000000
    8        7.391744   0.000000
    9        9.686125   0.000000
   10        9.686129   0.000000
   11       10.111134   0.000000
   12       12.340003   0.000000
   13       12.439696   0.000000
   14       12.439703   0.000000
   15       14.544115   0.000000
   16       20.178413   0.000000
   17       20.178414   0.000000
   18       20.208906   0.000000
   19       23.081634   0.000000
   20       23.161883   0.000000
   21       23.161886   0.000000
   22       24.204099   0.000000
   23       24.857673   0.000000
   24       24.883309   0.000000
   25       24.883334   0.000000
   26       26.353288   0.000000
   27       26.353305   0.000000
   28       26.479250   0.000000
   29       27.258706   0.000000
   30       27.258753   0.000000
   31       29.626345   0.000000
   32       34.918844   0.000000
 
  0.0000000E+00  0.0000000E+00  0.0000000E+00  0.0000000E+00
    1      -16.972080   1.000000
    2       -4.092007   1.000000
    3       -4.092004   1.000000
    4       -4.091846   1.000000
    5        2.816152   0.000000
    6        7.383859   0.000000
    7        7.383912   0.000000
    8        7.383915   0.000000
    9        9.712164   0.000000
   10        9.712169   0.000000
   11       10.063890   0.000000
   12       12.393837   0.000000
   13       12.394374   0.000000
   14       12.394381   0.000000
   15       14.468271   0.000000
   16       20.229620   0.000000
   17       20.230019   0.000000
   18       20.230020   0.000000
   19       23.206124   0.000000
   20       23.206127   0.000000
   21       23.206364   0.000000
   22       24.246223   0.000000
   23       24.882995   0.000000
   24       24.883020   0.000000
   25       24.883113   0.000000
   26       26.412274   0.000000
   27       26.412285   0.000000
   28       26.413047   0.000000
   29       27.168777   0.000000
   30       27.168828   0.000000
   31       29.558100   0.000000
   32       35.025893   0.000000
 
  0.0000000E+00  0.2500000E-01  0.2500000E-01  0.0000000E+00
    1      -16.970766   1.000000
    2       -4.105747   1.000000
    3       -4.096242   1.000000
    4       -4.096137   1.000000
    5        2.842067   0.000000
    6        7.338922   0.000000
    7        7.397912   0.000000
    8        7.397948   0.000000
    9        9.635211   0.000000
   10        9.719999   0.000000
   11       10.126762   0.000000
   12       12.407424   0.000000
   13       12.411110   0.000000
   14       12.411464   0.000000
   15       14.570513   0.000000
   16       20.173673   0.000000
   17       20.186158   0.000000
   18       20.186415   0.000000
   19       23.104604   0.000000
   20       23.104761   0.000000
   21       23.138694   0.000000
   22       24.202230   0.000000
   23       24.862677   0.000000
   24       24.862754   0.000000
   25       24.889672   0.000000
   26       26.179187   0.000000
   27       26.523270   0.000000
   28       26.523777   0.000000
   29       27.176351   0.000000
   30       27.355298   0.000000
   31       29.649098   0.000000
   32       34.911529   0.000000
 
  0.0000000E+00  0.5000000E-01  0.5000000E-01  0.0000000E+00
    1      -16.965146   1.000000
    2       -4.146162   1.000000
    3       -4.108668   1.000000
    4       -4.108563   1.000000
    5        2.918694   0.000000
    6        7.215484   0.000000
    7        7.439962   0.000000
    8        7.439999   0.000000
    9        9.423903   0.000000
   10        9.743505   0.000000
   11       10.303995   0.000000
   12       12.446326   0.000000
   13       12.462376   0.000000
   14       12.462741   0.000000
   15       14.858729   0.000000
   16       20.067056   0.000000
   17       20.114892   0.000000
   18       20.115130   0.000000
   19       22.871648   0.000000
   20       22.871835   0.000000
   21       22.968104   0.000000
   22       24.162462   0.000000
   23       24.812697   0.000000
   24       24.812785   0.000000
   25       24.909432   0.000000
   26       25.791601   0.000000
   27       26.844185   0.000000
   28       26.844686   0.000000
   29       27.195300   0.000000
   30       27.641954   0.000000
   31       29.918105   0.000000
   32       34.843864   0.000000
 
  0.0000000E+00  0.7500000E-01  0.7500000E-01  0.0000000E+00
    1      -16.955591   1.000000
    2       -4.210809   1.000000
    3       -4.128896   1.000000
    4       -4.128792   1.000000
    5        3.042295   0.000000
    6        7.038260   0.000000
    7        7.509620   0.000000
    8        7.509659   0.000000
    9        9.121457   0.000000
   10        9.782584   0.000000
   11       10.570753   0.000000
   12       12.509328   0.000000
   13       12.547516   0.000000
   14       12.547881   0.000000
   15       15.291460   0.000000
   16       19.911617   0.000000
   17       19.992543   0.000000
   18       19.992745   0.000000
   19       22.576093   0.000000
   20       22.576324   0.000000
   21       22.685419   0.000000
   22       24.124192   0.000000
   23       24.754776   0.000000
   24       24.754873   0.000000
   25       24.941567   0.000000
   26       25.419867   0.000000
   27       27.224230   0.000000
   28       27.281870   0.000000
   29       27.282376   0.000000
   30       27.869260   0.000000
   31       30.334314   0.000000
   32       34.726012   0.000000
 
  0.0000000E+00  0.1000000E+00  0.1000000E+00  0.0000000E+00
    1      -16.942412   1.000000
    2       -4.296121   1.000000
    3       -4.156284   1.000000
    4       -4.156181   1.000000
    5        3.206892   0.000000
    6        6.830926   0.000000
    7        7.606226   0.000000
    8        7.606268   0.000000
    9        8.771036   0.000000
   10        9.837037   0.000000
   11       10.903144   0.000000
   12       12.595813   0.000000
   13       12.665967   0.000000
   14       12.666329   0.000000
   15       15.826809   0.000000
   16       19.704760   0.000000
   17       19.801438   0.000000
   18       19.801595   0.000000
   19       22.284225   0.000000
   20       22.284507   0.000000
   21       22.300441   0.000000
   22       24.073431   0.000000
   23       24.695667   0.000000
   24       24.695767   0.000000
   25       24.985250   0.000000
   26       25.114121   0.000000
   27       27.260503   0.000000
   28       27.772364   0.000000
   29       27.772893   0.000000
   30       28.031604   0.000000
   31       30.826608   0.000000
   32       34.474804   0.000000
 
  0.0000000E+00  0.1250000E+00  0.1250000E+00  0.0000000E+00
    1      -16.925970   1.000000
    2       -4.397923   1.000000
    3       -4.189977   1.000000
    4       -4.189874   1.000000
    5        3.404234   0.000000
    6        6.610468   0.000000
    7        7.728968   0.000000
    8        7.729013   0.000000
    9        8.406278   0.000000
   10        9.906604   0.000000
   11       11.283864   0.000000
   12       12.705793   0.000000
   13       12.816832   0.000000
   14       12.817189   0.000000
   15       16.431427   0.000000
   16       19.458531   0.000000
   17       19.528838   0.000000
   18       19.528944   0.000000
   19       21.825509   0.000000
   20       22.041353   0.000000
   21       22.041687   0.000000
   22       24.006604   0.000000
   23       24.625018   0.000000
   24       24.625122   0.000000
   25       24.841088   0.000000
   26       25.039760   0.000000
   27       27.311067   0.000000
   28       28.147210   0.000000
   29       28.279921   0.000000
   30       28.280485   0.000000
   31       31.282849   0.000000
   32       34.027203   0.000000
 
  0.0000000E+00  0.1500000E+00  0.1500000E+00  0.0000000E+00
    1      -16.906817   1.000000
    2       -4.511777   1.000000
    3       -4.228959   1.000000
    4       -4.228857   1.000000
    5        3.623575   0.000000
    6        6.387793   0.000000
    7        7.876813   0.000000
    8        7.876864   0.000000
    9        8.052748   0.000000
   10        9.990883   0.000000
   11       11.701547   0.000000
   12       12.839605   0.000000
   13       12.998791   0.000000
   14       12.999144   0.000000
   15       17.080306   0.000000
   16       19.171582   0.000000
   17       19.172528   0.000000
   18       19.172542   0.000000
   19       21.294360   0.000000