       N       E                     dE             d eps       ncg     rms          rms(c)
DAV:   1    -0.100012790975E+02   -0.10001E+02   -0.20273E+03  9728   0.133E+02
DAV:   2    -0.369757684551E+02   -0.26974E+02   -0.25816E+02 12824   0.435E+01
DAV:   3    -0.378691103226E+02   -0.89334E+00   -0.88972E+00 12064   0.722E+00
DAV:   4    -0.378721440392E+02   -0.30337E-02   -0.30336E-02 11112   0.465E-01
DAV:   5    -0.378721525663E+02   -0.85271E-05   -0.85270E-05 12112   0.258E-02    0.247E-01
DAV:   6    -0.362405586584E+02    0.16316E+01   -0.24679E-01  9896   0.929E-01    0.143E-01
DAV:   7    -0.362406280593E+02   -0.69401E-04   -0.44131E-03 11920   0.166E-01    0.101E-01
DAV:   8    -0.362403839337E+02    0.24413E-03   -0.48011E-04 10944   0.482E-02    0.238E-02
DAV:   9    -0.362404086771E+02   -0.24743E-04   -0.39204E-05 12128   0.142E-02    0.163E-02
DAV:  10    -0.362404557093E+02   -0.47032E-04   -0.14049E-05 10400   0.104E-02    0.966E-03
DAV:  11    -0.362404425480E+02    0.13161E-04   -0.35786E-06 11992   0.362E-03    0.272E-03
DAV:  12    -0.362404385194E+02    0.40286E-05   -0.52152E-07 12024   0.169E-03    0.117E-03
DAV:  13    -0.362404369674E+02    0.15520E-05   -0.17360E-08 11344   0.416E-04    0.139E-04
DAV:  14    -0.362404370331E+02   -0.65767E-07   -0.17301E-09 12160   0.106E-04    0.115E-04
DAV:  15    -0.362404369756E+02    0.57575E-07   -0.54057E-10 10056   0.653E-05    0.932E-05
DAV:  16    -0.362404369868E+02   -0.11198E-07   -0.73320E-11  6616   0.202E-05    0.930E-05
DAV:  17    -0.362404369937E+02   -0.69313E-08   -0.89954E-12  6352   0.726E-06
   1 F= -.36240437E+02 E0= -.36240437E+02  d E =-.100637E-26
