Xe_FCC                                  
           1
     4.335996    0.000000    0.000000
     2.167998    3.755082   -0.000000
     2.167998    1.251694    3.540326
   Xe
   1
Direct configuration=     1
   0.00000000  0.00000000  0.00000000
