Xe_FCC                                  
           1
     4.432200    0.000000    0.000000
     2.216100    3.838398   -0.000000
     2.216100    1.279466    3.618876
   Xe
   1
Direct configuration=     1
   0.00000000  0.00000000  0.00000000
