   1   1   0   0
  0.5789729E+02  0.4342346E-09  0.4342346E-09  0.4342346E-09  0.1000000E-15
  1.000000000000000E-004
  CAR 
 Og_FCC                                  
     35.47328480    -33.84523760  301      3.64586485      1.00000000
    -33.845  0.0000E+00  0.0000E+00
    -33.614  0.0000E+00  0.0000E+00
    -33.383  0.0000E+00  0.0000E+00
    -33.152  0.0000E+00  0.0000E+00
    -32.921  0.0000E+00  0.0000E+00
    -32.690  0.0000E+00  0.0000E+00
    -32.459  0.0000E+00  0.0000E+00
    -32.228  0.0000E+00  0.0000E+00
    -31.997  0.0000E+00  0.0000E+00
    -31.766  0.0000E+00  0.0000E+00
    -31.535  0.0000E+00  0.0000E+00
    -31.304  0.0000E+00  0.0000E+00
    -31.072  0.0000E+00  0.0000E+00
    -30.841  0.3574E-04  0.8258E-05
    -30.610  0.1658E+02  0.3831E+01
    -30.379  0.7299E+00  0.4000E+01
    -30.148  0.0000E+00  0.4000E+01
    -29.917  0.0000E+00  0.4000E+01
    -29.686  0.0000E+00  0.4000E+01
    -29.455  0.0000E+00  0.4000E+01
    -29.224  0.0000E+00  0.4000E+01
    -28.993  0.0000E+00  0.4000E+01
    -28.762  0.0000E+00  0.4000E+01
    -28.531  0.0000E+00  0.4000E+01
    -28.300  0.0000E+00  0.4000E+01
    -28.069  0.0000E+00  0.4000E+01
    -27.838  0.0000E+00  0.4000E+01
    -27.607  0.0000E+00  0.4000E+01
    -27.376  0.0000E+00  0.4000E+01
    -27.144  0.0000E+00  0.4000E+01
    -26.913  0.0000E+00  0.4000E+01
    -26.682  0.0000E+00  0.4000E+01
    -26.451  0.0000E+00  0.4000E+01
    -26.220  0.0000E+00  0.4000E+01
    -25.989  0.0000E+00  0.4000E+01
    -25.758  0.0000E+00  0.4000E+01
    -25.527  0.0000E+00  0.4000E+01
    -25.296  0.0000E+00  0.4000E+01
    -25.065  0.0000E+00  0.4000E+01
    -24.834  0.0000E+00  0.4000E+01
    -24.603  0.0000E+00  0.4000E+01
    -24.372  0.0000E+00  0.4000E+01
    -24.141  0.3356E-02  0.4001E+01
    -23.910  0.2590E+02  0.9985E+01
    -23.679  0.6620E-01  0.1000E+02
    -23.447  0.0000E+00  0.1000E+02
    -23.216  0.0000E+00  0.1000E+02
    -22.985  0.0000E+00  0.1000E+02
    -22.754  0.0000E+00  0.1000E+02
    -22.523  0.0000E+00  0.1000E+02
    -22.292  0.0000E+00  0.1000E+02
    -22.061  0.0000E+00  0.1000E+02
    -21.830  0.0000E+00  0.1000E+02
    -21.599  0.0000E+00  0.1000E+02
    -21.368  0.0000E+00  0.1000E+02
    -21.137  0.0000E+00  0.1000E+02
    -20.906  0.0000E+00  0.1000E+02
    -20.675  0.0000E+00  0.1000E+02
    -20.444  0.2092E-03  0.1000E+02
    -20.213  0.4676E+01  0.1108E+02
    -19.982  0.3979E+01  0.1200E+02
    -19.750  0.0000E+00  0.1200E+02
    -19.519  0.0000E+00  0.1200E+02
    -19.288  0.0000E+00  0.1200E+02
    -19.057  0.0000E+00  0.1200E+02
    -18.826  0.0000E+00  0.1200E+02
    -18.595  0.0000E+00  0.1200E+02
    -18.364  0.0000E+00  0.1200E+02
    -18.133  0.0000E+00  0.1200E+02
    -17.902  0.0000E+00  0.1200E+02
    -17.671  0.0000E+00  0.1200E+02
    -17.440  0.0000E+00  0.1200E+02
    -17.209  0.0000E+00  0.1200E+02
    -16.978  0.0000E+00  0.1200E+02
    -16.747  0.0000E+00  0.1200E+02
    -16.516  0.0000E+00  0.1200E+02
    -16.285  0.0000E+00  0.1200E+02
    -16.053  0.0000E+00  0.1200E+02
    -15.822  0.0000E+00  0.1200E+02
    -15.591  0.0000E+00  0.1200E+02
    -15.360  0.0000E+00  0.1200E+02
    -15.129  0.0000E+00  0.1200E+02
    -14.898  0.0000E+00  0.1200E+02
    -14.667  0.0000E+00  0.1200E+02
    -14.436  0.0000E+00  0.1200E+02
    -14.205  0.0000E+00  0.1200E+02
    -13.974  0.0000E+00  0.1200E+02
    -13.743  0.0000E+00  0.1200E+02
    -13.512  0.0000E+00  0.1200E+02
    -13.281  0.0000E+00  0.1200E+02
    -13.050  0.0000E+00  0.1200E+02
    -12.819  0.0000E+00  0.1200E+02
    -12.588  0.0000E+00  0.1200E+02
    -12.356  0.0000E+00  0.1200E+02
    -12.125  0.0000E+00  0.1200E+02
    -11.894  0.0000E+00  0.1200E+02
    -11.663  0.0000E+00  0.1200E+02
    -11.432  0.0000E+00  0.1200E+02
    -11.201  0.0000E+00  0.1200E+02
    -10.970  0.0000E+00  0.1200E+02
    -10.739  0.0000E+00  0.1200E+02
    -10.508  0.0000E+00  0.1200E+02
    -10.277  0.0000E+00  0.1200E+02
    -10.046  0.0000E+00  0.1200E+02
     -9.815  0.0000E+00  0.1200E+02
     -9.584  0.0000E+00  0.1200E+02
     -9.353  0.0000E+00  0.1200E+02
     -9.122  0.0000E+00  0.1200E+02
     -8.891  0.0000E+00  0.1200E+02
     -8.660  0.0000E+00  0.1200E+02
     -8.428  0.0000E+00  0.1200E+02
     -8.197  0.0000E+00  0.1200E+02
     -7.966  0.0000E+00  0.1200E+02
     -7.735  0.0000E+00  0.1200E+02
     -7.504  0.0000E+00  0.1200E+02
     -7.273  0.9433E-04  0.1200E+02
     -7.042  0.4964E+01  0.1315E+02
     -6.811  0.3125E+01  0.1387E+02
     -6.580  0.5632E+00  0.1400E+02
     -6.349  0.4250E-02  0.1400E+02
     -6.118  0.0000E+00  0.1400E+02
     -5.887  0.0000E+00  0.1400E+02
     -5.656  0.0000E+00  0.1400E+02
     -5.425  0.0000E+00  0.1400E+02
     -5.194  0.0000E+00  0.1400E+02
     -4.963  0.0000E+00  0.1400E+02
     -4.731  0.0000E+00  0.1400E+02
     -4.500  0.0000E+00  0.1400E+02
     -4.269  0.0000E+00  0.1400E+02
     -4.038  0.0000E+00  0.1400E+02
     -3.807  0.0000E+00  0.1400E+02
     -3.576  0.0000E+00  0.1400E+02
     -3.345  0.0000E+00  0.1400E+02
     -3.114  0.0000E+00  0.1400E+02
     -2.883  0.0000E+00  0.1400E+02
     -2.652  0.0000E+00  0.1400E+02
     -2.421  0.0000E+00  0.1400E+02
     -2.190  0.0000E+00  0.1400E+02
     -1.959  0.0000E+00  0.1400E+02
     -1.728  0.0000E+00  0.1400E+02
     -1.497  0.0000E+00  0.1400E+02
     -1.266  0.0000E+00  0.1400E+02
     -1.034  0.0000E+00  0.1400E+02
     -0.803  0.0000E+00  0.1400E+02
     -0.572  0.0000E+00  0.1400E+02
     -0.341  0.0000E+00  0.1400E+02
     -0.110  0.0000E+00  0.1400E+02
      0.121  0.7619E-13  0.1400E+02
      0.352  0.7788E-01  0.1402E+02
      0.583  0.5296E+01  0.1524E+02
      0.814  0.1236E+01  0.1553E+02
      1.045  0.9965E+00  0.1576E+02
      1.276  0.4845E+00  0.1587E+02
      1.507  0.4807E+00  0.1598E+02
      1.738  0.1455E+01  0.1632E+02
      1.969  0.1808E+01  0.1673E+02
      2.200  0.7855E+00  0.1692E+02
      2.431  0.1929E+01  0.1736E+02
      2.663  0.9339E+00  0.1758E+02
      2.894  0.4987E+00  0.1769E+02
      3.125  0.7911E+00  0.1788E+02
      3.356  0.1965E+00  0.1792E+02
      3.587  0.3218E+00  0.1800E+02
      3.818  0.6115E-01  0.1801E+02
      4.049  0.9521E-04  0.1801E+02
      4.280  0.0000E+00  0.1801E+02
      4.511  0.0000E+00  0.1801E+02
      4.742  0.0000E+00  0.1801E+02
      4.973  0.0000E+00  0.1801E+02
      5.204  0.1302E-11  0.1801E+02
      5.435  0.1095E+00  0.1803E+02
      5.666  0.1723E+00  0.1807E+02
      5.897  0.2645E-02  0.1808E+02
      6.128  0.2402E+00  0.1813E+02
      6.360  0.5784E+00  0.1826E+02
      6.591  0.8286E-01  0.1828E+02
      6.822  0.4680E+00  0.1839E+02
      7.053  0.2130E+01  0.1888E+02
      7.284  0.1683E+01  0.1927E+02
      7.515  0.9514E+00  0.1949E+02
      7.746  0.1209E+01  0.1977E+02
      7.977  0.1104E+01  0.2003E+02
      8.208  0.1793E+00  0.2007E+02
      8.439  0.1513E+00  0.2010E+02
      8.670  0.8822E+00  0.2031E+02
      8.901  0.1076E+01  0.2056E+02
      9.132  0.3031E+01  0.2126E+02
      9.363  0.1893E+01  0.2169E+02
      9.594  0.1301E+01  0.2199E+02
      9.825  0.1147E+01  0.2226E+02
     10.056  0.2908E+00  0.2233E+02
     10.288  0.3552E+00  0.2241E+02
     10.519  0.1637E+01  0.2279E+02
     10.750  0.3030E+01  0.2349E+02
     10.981  0.1410E+01  0.2381E+02
     11.212  0.7991E+00  0.2400E+02
     11.443  0.1261E+01  0.2429E+02
     11.674  0.2789E+01  0.2493E+02
     11.905  0.2685E+01  0.2555E+02
     12.136  0.5087E+00  0.2567E+02
     12.367  0.1252E+01  0.2596E+02
     12.598  0.4131E+00  0.2606E+02
     12.829  0.8756E+00  0.2626E+02
     13.060  0.2462E+01  0.2683E+02
     13.291  0.2709E+01  0.2745E+02
     13.522  0.3232E+00  0.2753E+02
     13.753  0.2980E+01  0.2822E+02
     13.985  0.2506E+01  0.2879E+02
     14.216  0.9794E+00  0.2902E+02
     14.447  0.2704E+01  0.2965E+02
     14.678  0.2468E+01  0.3022E+02
     14.909  0.1034E+01  0.3046E+02
     15.140  0.2572E+00  0.3051E+02
     15.371  0.1313E+01  0.3082E+02
     15.602  0.1754E+01  0.3122E+02
     15.833  0.1524E+01  0.3158E+02
     16.064  0.1473E+01  0.3192E+02
     16.295  0.1886E+01  0.3235E+02
     16.526  0.2290E+01  0.3288E+02
     16.757  0.1352E+01  0.3319E+02
     16.988  0.2568E+01  0.3379E+02
     17.219  0.2574E+01  0.3438E+02
     17.450  0.1355E+01  0.3469E+02
     17.682  0.1059E+01  0.3494E+02
     17.913  0.2373E+01  0.3549E+02
     18.144  0.2726E+01  0.3612E+02
     18.375  0.3181E+01  0.3685E+02
     18.606  0.4127E+01  0.3781E+02
     18.837  0.5868E+01  0.3916E+02
     19.068  0.3860E+01  0.4005E+02
     19.299  0.4262E+01  0.4104E+02
     19.530  0.2305E+01  0.4157E+02
     19.761  0.2427E+01  0.4213E+02
     19.992  0.4868E+01  0.4326E+02
     20.223  0.6609E+00  0.4341E+02
     20.454  0.1837E+01  0.4383E+02
     20.685  0.2702E+01  0.4446E+02
     20.916  0.1835E+01  0.4488E+02
     21.147  0.2343E+01  0.4542E+02
     21.379  0.2477E+01  0.4600E+02
     21.610  0.1501E+01  0.4634E+02
     21.841  0.5225E+00  0.4646E+02
     22.072  0.3628E+00  0.4655E+02
     22.303  0.5171E+00  0.4667E+02
     22.534  0.1703E+01  0.4706E+02
     22.765  0.1312E+01  0.4736E+02
     22.996  0.1859E+01  0.4779E+02
     23.227  0.8043E+00  0.4798E+02
     23.458  0.9521E+00  0.4820E+02
     23.689  0.8190E+00  0.4839E+02
     23.920  0.3017E+01  0.4909E+02
     24.151  0.1232E+01  0.4937E+02
     24.382  0.2207E+01  0.4988E+02
     24.613  0.2635E+01  0.5049E+02
     24.844  0.1504E+01  0.5084E+02
     25.076  0.1268E+01  0.5113E+02
     25.307  0.3934E+01  0.5204E+02
     25.538  0.3940E+01  0.5295E+02
     25.769  0.2733E+01  0.5358E+02
     26.000  0.2596E+01  0.5418E+02
     26.231  0.3830E+01  0.5507E+02
     26.462  0.3065E+01  0.5577E+02
     26.693  0.2647E+01  0.5639E+02
     26.924  0.1362E+01  0.5670E+02
     27.155  0.2343E+01  0.5724E+02
     27.386  0.1151E+01  0.5751E+02
     27.617  0.4404E+00  0.5761E+02
     27.848  0.1459E+01  0.5795E+02
     28.079  0.1927E+01  0.5839E+02
     28.310  0.4742E+01  0.5949E+02
     28.541  0.1151E+01  0.5975E+02
     28.772  0.2272E+01  0.6028E+02
     29.004  0.4337E+00  0.6038E+02
     29.235  0.2674E+01  0.6100E+02
     29.466  0.2687E+01  0.6162E+02
     29.697  0.1737E+01  0.6202E+02
     29.928  0.1006E+01  0.6225E+02
     30.159  0.2259E+00  0.6230E+02
     30.390  0.1571E+01  0.6267E+02
     30.621  0.1298E+01  0.6297E+02
     30.852  0.1616E+01  0.6334E+02
     31.083  0.5840E+00  0.6347E+02
     31.314  0.5447E+00  0.6360E+02
     31.545  0.1167E+01  0.6387E+02
     31.776  0.1339E-03  0.6387E+02
     32.007  0.3217E+00  0.6394E+02
     32.238  0.1865E+00  0.6399E+02
     32.469  0.5531E-01  0.6400E+02
     32.701  0.3648E-07  0.6400E+02
     32.932  0.0000E+00  0.6400E+02
     33.163  0.0000E+00  0.6400E+02
     33.394  0.0000E+00  0.6400E+02
     33.625  0.0000E+00  0.6400E+02
     33.856  0.0000E+00  0.6400E+02
     34.087  0.0000E+00  0.6400E+02
     34.318  0.0000E+00  0.6400E+02
     34.549  0.0000E+00  0.6400E+02
     34.780  0.0000E+00  0.6400E+02
     35.011  0.0000E+00  0.6400E+02
     35.242  0.0000E+00  0.6400E+02
     35.473  0.0000E+00  0.6400E+02
