    1    1    1    1
  0.5789729E+02  0.4342346E-09  0.4342346E-09  0.4342346E-09  0.1000000E-15
  1.000000000000000E-004
  CAR 
 Og_FCC                                  
     18    256     64
 
  0.5000000E+00  0.5000000E+00  0.5000000E+00  0.0000000E+00
    1      -30.693941   1.000000
    2      -30.693901   1.000000
    3      -30.681369   1.000000
    4      -30.681358   1.000000
    5      -24.022909   1.000000
    6      -24.022858   1.000000
    7      -24.018599   1.000000
    8      -24.018577   1.000000
    9      -24.016888   1.000000
   10      -24.016877   1.000000
   11      -20.221554   1.000000
   12      -20.221506   1.000000
   13       -7.051657   1.000000
   14       -7.051630   1.000000
   15        0.374224   1.000000
   16        0.374257   1.000000
   17        2.999892   1.000000
   18        2.999948   1.000000
   19        6.243352   0.000000
   20        6.243362   0.000000
   21       10.348743   0.000000
   22       10.348755   0.000000
   23       10.715704   0.000000
   24       10.715717   0.000000
   25       10.775568   0.000000
   26       10.775575   0.000000
   27       12.391490   0.000000
   28       12.391506   0.000000
   29       15.038384   0.000000
   30       15.038406   0.000000
   31       15.136969   0.000000
   32       15.136986   0.000000
   33       16.231548   0.000000
   34       16.231565   0.000000
   35       17.174187   0.000000
   36       17.174216   0.000000
   37       17.337889   0.000000
   38       17.337911   0.000000
   39       18.970199   0.000000
   40       18.970246   0.000000
   41       19.543720   0.000000
   42       19.543773   0.000000
   43       19.597014   0.000000
   44       19.597045   0.000000
   45       21.345425   0.000000
   46       21.345489   0.000000
   47       23.808225   0.000000
   48       23.808252   0.000000
   49       24.526756   0.000000
   50       24.526773   0.000000
   51       25.999936   0.000000
   52       25.999953   0.000000
   53       26.126458   0.000000
   54       26.126467   0.000000
   55       26.174234   0.000000
   56       26.174250   0.000000
   57       27.674264   0.000000
   58       27.674269   0.000000
   59       28.195390   0.000000
   60       28.195408   0.000000
   61       29.401725   0.000000
   62       29.401743   0.000000
   63       30.436624   0.000000
   64       30.436697   0.000000
 
  0.4750000E+00  0.4750000E+00  0.4750000E+00  0.0000000E+00
    1      -30.693737   1.000000
    2      -30.693697   1.000000
    3      -30.681266   1.000000
    4      -30.681254   1.000000
    5      -24.022815   1.000000
    6      -24.022764   1.000000
    7      -24.018530   1.000000
    8      -24.018508   1.000000
    9      -24.016805   1.000000
   10      -24.016794   1.000000
   11      -20.222362   1.000000
   12      -20.222315   1.000000
   13       -7.048977   1.000000
   14       -7.048949   1.000000
   15        0.383099   1.000000
   16        0.383132   1.000000
   17        3.002944   1.000000
   18        3.003000   1.000000
   19        6.244288   0.000000
   20        6.244298   0.000000
   21       10.355873   0.000000
   22       10.355885   0.000000
   23       10.716852   0.000000
   24       10.716863   0.000000
   25       10.785928   0.000000
   26       10.785935   0.000000
   27       12.346339   0.000000
   28       12.346355   0.000000
   29       14.954337   0.000000
   30       14.954358   0.000000
   31       15.080436   0.000000
   32       15.080454   0.000000
   33       16.312481   0.000000
   34       16.312497   0.000000
   35       17.250227   0.000000
   36       17.250256   0.000000
   37       17.398583   0.000000
   38       17.398606   0.000000
   39       18.920486   0.000000
   40       18.920532   0.000000
   41       19.518091   0.000000
   42       19.518144   0.000000
   43       19.563229   0.000000
   44       19.563258   0.000000
   45       21.343440   0.000000
   46       21.343503   0.000000
   47       23.735029   0.000000
   48       23.735055   0.000000
   49       24.551700   0.000000
   50       24.551716   0.000000
   51       25.867564   0.000000
   52       25.867575   0.000000
   53       26.170415   0.000000
   54       26.170431   0.000000
   55       26.265718   0.000000
   56       26.265722   0.000000
   57       27.698390   0.000000
   58       27.698397   0.000000
   59       28.202150   0.000000
   60       28.202167   0.000000
   61       29.436531   0.000000
   62       29.436548   0.000000
   63       30.473923   0.000000
   64       30.473971   0.000000
 
  0.4500000E+00  0.4500000E+00  0.4500000E+00  0.0000000E+00
    1      -30.676068   1.000000
    2      -30.676027   1.000000
    3      -30.660901   1.000000
    4      -30.660889   1.000000
    5      -24.014209   1.000000
    6      -24.014155   1.000000
    7      -24.004964   1.000000
    8      -24.004943   1.000000
    9      -24.000877   1.000000
   10      -24.000855   1.000000
   11      -20.224693   1.000000
   12      -20.224645   1.000000
   13       -7.040959   1.000000
   14       -7.040932   1.000000
   15        0.409868   1.000000
   16        0.409901   1.000000
   17        3.012153   1.000000
   18        3.012209   1.000000
   19        6.246662   0.000000
   20        6.246672   0.000000
   21       10.377424   0.000000
   22       10.377436   0.000000
   23       10.720457   0.000000
   24       10.720467   0.000000
   25       10.816087   0.000000
   26       10.816093   0.000000
   27       12.221527   0.000000
   28       12.221543   0.000000
   29       14.751602   0.000000
   30       14.751622   0.000000
   31       14.930771   0.000000
   32       14.930788   0.000000
   33       16.514983   0.000000
   34       16.514999   0.000000
   35       17.463194   0.000000
   36       17.463222   0.000000
   37       17.563806   0.000000
   38       17.563828   0.000000
   39       18.783366   0.000000
   40       18.783410   0.000000
   41       19.450385   0.000000
   42       19.450437   0.000000
   43       19.474102   0.000000
   44       19.474128   0.000000
   45       21.346621   0.000000
   46       21.346685   0.000000
   47       23.540617   0.000000
   48       23.540643   0.000000
   49       24.600009   0.000000
   50       24.600023   0.000000
   51       25.736155   0.000000
   52       25.736170   0.000000
   53       26.160968   0.000000
   54       26.160986   0.000000
   55       26.445356   0.000000
   56       26.445363   0.000000
   57       27.770995   0.000000
   58       27.771006   0.000000
   59       28.239080   0.000000
   60       28.239097   0.000000
   61       29.551201   0.000000
   62       29.551215   0.000000
   63       30.603587   0.000000
   64       30.603657   0.000000
 
  0.4250000E+00  0.4250000E+00  0.4250000E+00  0.0000000E+00
    1      -30.676000   1.000000
    2      -30.675959   1.000000
    3      -30.661729   1.000000
    4      -30.661718   1.000000
    5      -24.014135   1.000000
    6      -24.014081   1.000000
    7      -24.005503   1.000000
    8      -24.005484   1.000000
    9      -24.001542   1.000000
   10      -24.001520   1.000000
   11      -20.228599   1.000000
   12      -20.228552   1.000000
   13       -7.027982   1.000000
   14       -7.027955   1.000000
   15        0.454403   1.000000
   16        0.454436   1.000000
   17        3.027181   1.000000
   18        3.027237   1.000000
   19        6.249310   0.000000
   20        6.249320   0.000000
   21       10.412573   0.000000
   22       10.412585   0.000000
   23       10.725142   0.000000
   24       10.725150   0.000000
   25       10.861766   0.000000
   26       10.861772   0.000000
   27       12.041229   0.000000
   28       12.041244   0.000000
   29       14.492100   0.000000
   30       14.492119   0.000000
   31       14.715355   0.000000
   32       14.715372   0.000000
   33       16.781398   0.000000
   34       16.781413   0.000000
   35       17.776104   0.000000
   36       17.776132   0.000000
   37       17.797105   0.000000
   38       17.797128   0.000000
   39       18.551898   0.000000
   40       18.551940   0.000000
   41       19.323290   0.000000
   42       19.323312   0.000000
   43       19.328291   0.000000
   44       19.328341   0.000000
   45       21.336344   0.000000
   46       21.336408   0.000000
   47       23.243036   0.000000
   48       23.243061   0.000000
   49       24.619985   0.000000
   50       24.619999   0.000000
   51       25.683326   0.000000
   52       25.683350   0.000000
   53       26.144937   0.000000
   54       26.144957   0.000000
   55       26.603254   0.000000
   56       26.603264   0.000000
   57       27.859796   0.000000
   58       27.859813   0.000000
   59       28.274480   0.000000
   60       28.274498   0.000000
   61       29.712062   0.000000
   62       29.712077   0.000000
   63       30.798102   0.000000
   64       30.798258   0.000000
 
  0.4000000E+00  0.4000000E+00  0.4000000E+00  0.0000000E+00
    1      -30.669346   1.000000
    2      -30.669306   1.000000
    3      -30.662100   1.000000
    4      -30.662089   1.000000
    5      -24.008373   1.000000
    6      -24.008328   1.000000
    7      -24.005401   1.000000
    8      -24.005396   1.000000
    9      -24.001549   1.000000
   10      -24.001528   1.000000
   11      -20.233927   1.000000
   12      -20.233880   1.000000
   13       -7.010269   1.000000
   14       -7.010241   1.000000
   15        0.516674   1.000000
   16        0.516706   1.000000
   17        3.047860   1.000000
   18        3.047917   1.000000
   19        6.250548   0.000000
   20        6.250558   0.000000
   21       10.461079   0.000000
   22       10.461091   0.000000
   23       10.723932   0.000000
   24       10.723939   0.000000
   25       10.920391   0.000000
   26       10.920397   0.000000
   27       11.840653   0.000000
   28       11.840666   0.000000
   29       14.215385   0.000000
   30       14.215403   0.000000
   31       14.467372   0.000000
   32       14.467389   0.000000
   33       17.072979   0.000000
   34       17.072992   0.000000
   35       18.064730   0.000000
   36       18.064753   0.000000
   37       18.139882   0.000000
   38       18.139910   0.000000
   39       18.278818   0.000000
   40       18.278856   0.000000
   41       19.132569   0.000000
   42       19.132587   0.000000
   43       19.168842   0.000000
   44       19.168889   0.000000
   45       21.322652   0.000000
   46       21.322715   0.000000
   47       22.873401   0.000000
   48       22.873425   0.000000
   49       24.601110   0.000000
   50       24.601124   0.000000
   51       25.724954   0.000000
   52       25.724985   0.000000
   53       26.126192   0.000000
   54       26.126214   0.000000
   55       26.753725   0.000000
   56       26.753737   0.000000
   57       27.952014   0.000000
   58       27.952038   0.000000
   59       28.325779   0.000000
   60       28.325797   0.000000
   61       29.917198   0.000000
   62       29.917216   0.000000
   63       31.083350   0.000000
   64       31.083757   0.000000
 
  0.3750000E+00  0.3750000E+00  0.3750000E+00  0.0000000E+00
    1      -30.669033   1.000000
    2      -30.668993   1.000000
    3      -30.662386   1.000000
    4      -30.662375   1.000000
    5      -24.008730   1.000000
    6      -24.008687   1.000000
    7      -24.005274   1.000000
    8      -24.005265   1.000000
    9      -24.001860   1.000000
   10      -24.001838   1.000000
   11      -20.240542   1.000000
   12      -20.240494   1.000000
   13       -6.988286   1.000000
   14       -6.988258   1.000000
   15        0.596564   1.000000
   16        0.596596   1.000000
   17        3.073837   1.000000
   18        3.073894   1.000000
   19        6.247514   0.000000
   20        6.247524   0.000000
   21       10.522098   0.000000
   22       10.522111   0.000000
   23       10.699459   0.000000
   24       10.699467   0.000000
   25       10.988732   0.000000
   26       10.988738   0.000000
   27       11.661472   0.000000
   28       11.661484   0.000000
   29       13.938556   0.000000
   30       13.938573   0.000000
   31       14.206117   0.000000
   32       14.206133   0.000000
   33       17.319097   0.000000
   34       17.319103   0.000000
   35       17.960942   0.000000
   36       17.960968   0.000000
   37       18.328175   0.000000
   38       18.328200   0.000000
   39       18.585275   0.000000
   40       18.585299   0.000000
   41       18.920074   0.000000
   42       18.920088   0.000000
   43       18.994344   0.000000
   44       18.994386   0.000000
   45       21.305930   0.000000
   46       21.305993   0.000000
   47       22.445455   0.000000
   48       22.445478   0.000000
   49       24.560731   0.000000
   50       24.560745   0.000000
   51       25.829526   0.000000
   52       25.829563   0.000000
   53       26.107248   0.000000
   54       26.107273   0.000000
   55       26.903900   0.000000
   56       26.903915   0.000000
   57       28.030915   0.000000
   58       28.030946   0.000000
   59       28.392317   0.000000
   60       28.392335   0.000000
   61       30.143835   0.000000
   62       30.143858   0.000000
   63       31.463165   0.000000
   64       31.464095   0.000000
 
  0.3500000E+00  0.3500000E+00  0.3500000E+00  0.0000000E+00
    1      -30.666999   1.000000
    2      -30.666959   1.000000
    3      -30.664437   1.000000
    4      -30.664426   1.000000
    5      -24.009729   1.000000
    6      -24.009696   1.000000
    7      -24.005983   1.000000
    8      -24.005946   1.000000
    9      -24.000835   1.000000
   10      -24.000813   1.000000
   11      -20.248260   1.000000
   12      -20.248212   1.000000
   13       -6.962578   1.000000
   14       -6.962550   1.000000
   15        0.693931   1.000000
   16        0.693963   1.000000
   17        3.104653   1.000000
   18        3.104710   1.000000
   19        6.236542   0.000000
   20        6.236552   0.000000
   21       10.594322   0.000000
   22       10.594334   0.000000
   23       10.626794   0.000000
   24       10.626804   0.000000
   25       11.062659   0.000000
   26       11.062664   0.000000
   27       11.549542   0.000000
   28       11.549553   0.000000
   29       13.670919   0.000000
   30       13.670934   0.000000
   31       13.944198   0.000000
   32       13.944213   0.000000
   33       17.252144   0.000000
   34       17.252165   0.000000
   35       17.919028   0.000000
   36       17.919040   0.000000
   37       18.466974   0.000000
   38       18.467005   0.000000
   39       18.691090   0.000000
   40       18.691096   0.000000
   41       18.919847   0.000000
   42       18.919877   0.000000
   43       19.056259   0.000000
   44       19.056281   0.000000
   45       21.286646   0.000000
   46       21.286709   0.000000
   47       21.977790   0.000000
   48       21.977812   0.000000
   49       24.528472   0.000000
   50       24.528484   0.000000
   51       25.965563   0.000000
   52       25.965603   0.000000
   53       26.096461   0.000000
   54       26.096490   0.000000
   55       27.061778   0.000000
   56       27.061794   0.000000
   57       28.092193   0.000000
   58       28.092228   0.000000
   59       28.473097   0.000000
   60       28.473115   0.000000
   61       30.375062   0.000000
   62       30.375091   0.000000
   63       31.909271   0.000000
   64       31.910282   0.000000
 
  0.3250000E+00  0.3250000E+00  0.3250000E+00  0.0000000E+00
    1      -30.666973   1.000000
    2      -30.666962   1.000000
    3      -30.664055   1.000000
    4      -30.664015   1.000000
    5      -24.010210   1.000000
    6      -24.010183   1.000000
    7      -24.003420   1.000000
    8      -24.003367   1.000000
    9      -24.003242   1.000000
   10      -24.003221   1.000000
   11      -20.256882   1.000000
   12      -20.256834   1.000000
   13       -6.933791   1.000000
   14       -6.933763   1.000000
   15        0.808582   1.000000
   16        0.808613   1.000000
   17        3.139734   1.000000
   18        3.139791   1.000000
   19        6.212992   0.000000
   20        6.213002   0.000000
   21       10.496919   0.000000
   22       10.496932   0.000000
   23       10.675760   0.000000
   24       10.675773   0.000000
   25       11.138582   0.000000
   26       11.138586   0.000000
   27       11.531185   0.000000
   28       11.531197   0.000000
   29       13.419656   0.000000
   30       13.419670   0.000000
   31       13.691691   0.000000
   32       13.691706   0.000000
   33       16.880933   0.000000
   34       16.880959   0.000000
   35       17.997141   0.000000
   36       17.997152   0.000000
   37       18.314023   0.000000
   38       18.314062   0.000000
   39       18.620633   0.000000
   40       18.620645   0.000000
   41       19.102859   0.000000
   42       19.102884   0.000000
   43       19.517641   0.000000
   44       19.517664   0.000000
   45       21.264673   0.000000
   46       21.264736   0.000000
   47       21.490733   0.000000
   48       21.490753   0.000000
   49       24.523318   0.000000
   50       24.523331   0.000000
   51       26.097776   0.000000
   52       26.097807   0.000000
   53       26.113940   0.000000
   54       26.113983   0.000000
   55       27.230245   0.000000
   56       27.230261   0.000000
   57       28.148170   0.000000
   58       28.148208   0.000000
   59       28.572143   0.000000
   60       28.572162   0.000000
   61       30.604602   0.000000
   62       30.604652   0.000000
   63       31.883168   0.000000
   64       31.885631   0.000000
 
  0.3000000E+00  0.3000000E+00  0.3000000E+00  0.0000000E+00
    1      -30.670254   1.000000
    2      -30.670213   1.000000
    3      -30.668258   1.000000
    4      -30.668247   1.000000
    5      -24.010612   1.000000
    6      -24.010582   1.000000
    7      -24.008608   1.000000
    8      -24.008556   1.000000
    9      -24.006025   1.000000
   10      -24.006003   1.000000
   11      -20.266189   1.000000
   12      -20.266142   1.000000
   13       -6.902678   1.000000
   14       -6.902649   1.000000
   15        0.940226   1.000000
   16        0.940257   1.000000
   17        3.178385   1.000000
   18        3.178443   1.000000
   19        6.171103   0.000000
   20        6.171113   0.000000
   21       10.334798   0.000000
   22       10.334812   0.000000
   23       10.763927   0.000000
   24       10.763939   0.000000
   25       11.216053   0.000000
   26       11.216057   0.000000
   27       11.591548   0.000000
   28       11.591562   0.000000
   29       13.188957   0.000000
   30       13.188970   0.000000
   31       13.455262   0.000000
   32       13.455276   0.000000
   33       16.437912   0.000000
   34       16.437938   0.000000
   35       17.830308   0.000000
   36       17.830316   0.000000
   37       18.043056   0.000000
   38       18.043093   0.000000
   39       18.823598   0.000000
   40       18.823620   0.000000
   41       19.370138   0.000000
   42       19.370164   0.000000
   43       19.983945   0.000000
   44       19.983966   0.000000
   45       20.994044   0.000000
   46       20.994064   0.000000
   47       21.241805   0.000000
   48       21.241867   0.000000
   49       24.551592   0.000000
   50       24.551604   0.000000
   51       26.103750   0.000000
   52       26.103783   0.000000
   53       26.257698   0.000000
   54       26.257743   0.000000
   55       27.402487   0.000000
   56       27.402503   0.000000
   57       28.200373   0.000000
   58       28.200413   0.000000
   59       28.687039   0.000000
   60       28.687059   0.000000
   61       30.821173   0.000000
   62       30.821205   0.000000
   63       31.797244   0.000000
   64       31.797287   0.000000
 
  0.2750000E+00  0.2750000E+00  0.2750000E+00  0.0000000E+00
    1      -30.670470   1.000000
    2      -30.670430   1.000000
    3      -30.668610   1.000000
    4      -30.668599   1.000000
    5      -24.010772   1.000000
    6      -24.010742   1.000000
    7      -24.008881   1.000000
    8      -24.008831   1.000000
    9      -24.007017   1.000000
   10      -24.006995   1.000000
   11      -20.275941   1.000000
   12      -20.275894   1.000000
   13       -6.869980   1.000000
   14       -6.869951   1.000000
   15        1.088566   1.000000
   16        1.088597   1.000000
   17        3.219829   1.000000
   18        3.219887   1.000000
   19        6.104897   0.000000
   20        6.104907   0.000000
   21       10.175963   0.000000
   22       10.175978   0.000000
   23       10.854640   0.000000
   24       10.854653   0.000000
   25       11.294789   0.000000
   26       11.294793   0.000000
   27       11.702363   0.000000
   28       11.702377   0.000000
   29       12.985171   0.000000
   30       12.985182   0.000000
   31       13.242790   0.000000
   32       13.242804   0.000000
   33       15.975746   0.000000
   34       15.975771   0.000000
   35       17.546218   0.000000
   36       17.546224   0.000000
   37       17.738056   0.000000
   38       17.738092   0.000000
   39       19.135213   0.000000
   40       19.135240   0.000000
   41       19.640502   0.000000
   42       19.640527   0.000000
   43       20.438939   0.000000
   44       20.438958   0.000000
   45       20.498236   0.000000
   46       20.498256   0.000000
   47       21.218077   0.000000
   48       21.218139   0.000000
   49       24.631389   0.000000
   50       24.631402   0.000000
   51       26.129789   0.000000
   52       26.129825   0.000000
   53       26.401399   0.000000
   54       26.401445   0.000000
   55       27.578246   0.000000
   56       27.578261   0.000000
   57       28.254463   0.000000
   58       28.254503   0.000000
   59       28.819366   0.000000
   60       28.819386   0.000000
   61       31.014822   0.000000
   62       31.014852   0.000000
   63       31.688673   0.000000
   64       31.689011   0.000000
 
  0.2500000E+00  0.2500000E+00  0.2500000E+00  0.0000000E+00
    1      -30.667884   1.000000
    2      -30.667873   1.000000
    3      -30.665471   1.000000
    4      -30.665431   1.000000
    5      -24.010563   1.000000
    6      -24.010537   1.000000
    7      -24.005827   1.000000
    8      -24.005805   1.000000
    9      -24.005384   1.000000
   10      -24.005330   1.000000
   11      -20.285890   1.000000
   12      -20.285843   1.000000
   13       -6.836491   1.000000
   14       -6.836462   1.000000
   15        1.253245   1.000000
   16        1.253275   1.000000
   17        3.263193   1.000000
   18        3.263252   1.000000
   19        6.008870   0.000000
   20        6.008880   0.000000
   21       10.044303   0.000000
   22       10.044317   0.000000
   23       10.941932   0.000000
   24       10.941945   0.000000
   25       11.370436   0.000000
   26       11.370440   0.000000
   27       11.844474   0.000000
   28       11.844489   0.000000
   29       12.816243   0.000000
   30       12.816252   0.000000
   31       13.063068   0.000000
   32       13.063081   0.000000
   33       15.509013   0.000000
   34       15.509035   0.000000
   35       17.228226   0.000000
   36       17.228231   0.000000
   37       17.415097   0.000000
   38       17.415130   0.000000
   39       19.458449   0.000000
   40       19.458479   0.000000
   41       19.898182   0.000000
   42       19.898209   0.000000
   43       20.007566   0.000000
   44       20.007586   0.000000
   45       20.874817   0.000000
   46       20.874834   0.000000
   47       21.194113   0.000000
   48       21.194175   0.000000
   49       24.773180   0.000000
   50       24.773194   0.000000
   51       26.181156   0.000000
   52       26.181194   0.000000
   53       26.552357   0.000000
   54       26.552405   0.000000
   55       27.753705   0.000000
   56       27.753718   0.000000
   57       28.318363   0.000000
   58       28.318400   0.000000
   59       28.968149   0.000000
   60       28.968171   0.000000
   61       31.170520   0.000000
   62       31.170571   0.000000
   63       31.559763   0.000000
   64       31.559909   0.000000
 
  0.2250000E+00  0.2250000E+00  0.2250000E+00  0.0000000E+00
    1      -30.663162   1.000000
    2      -30.663122   1.000000
    3      -30.658154   1.000000
    4      -30.658142   1.000000
    5      -24.004700   1.000000
    6      -24.004679   1.000000
    7      -24.003523   1.000000
    8      -24.003469   1.000000
    9      -24.002291   1.000000
   10      -24.002270   1.000000
   11      -20.295781   1.000000
   12      -20.295734   1.000000
   13       -6.803063   1.000000
   14       -6.803034   1.000000
   15        1.433721   1.000000
   16        1.433750   1.000000
   17        3.307482   1.000000
   18        3.307541   1.000000
   19        5.879271   0.000000
   20        5.879282   0.000000
   21        9.955693   0.000000
   22        9.955706   0.000000
   23       11.018007   0.000000
   24       11.018020   0.000000
   25       11.434024   0.000000
   26       11.434030   0.000000
   27       12.006961   0.000000
   28       12.006975   0.000000
   29       12.692368   0.000000
   30       12.692374   0.000000
   31       12.925591   0.000000
   32       12.925604   0.000000
   33       15.047077   0.000000
   34       15.047097   0.000000
   35       16.897730   0.000000
   36       16.897735   0.000000
   37       17.081373   0.000000
   38       17.081404   0.000000
   39       19.492250   0.000000
   40       19.492266   0.000000
   41       19.806244   0.000000
   42       19.806277   0.000000
   43       20.133614   0.000000
   44       20.133641   0.000000
   45       21.183549   0.000000
   46       21.183611   0.000000
   47       21.275380   0.000000
   48       21.275395   0.000000
   49       24.981016   0.000000
   50       24.981032   0.000000
   51       26.254627   0.000000
   52       26.254666   0.000000
   53       26.692609   0.000000
   54       26.692658   0.000000
   55       27.916583   0.000000
   56       27.916594   0.000000
   57       28.408237   0.000000
   58       28.408269   0.000000
   59       29.133683   0.000000
   60       29.133705   0.000000
   61       31.266457   0.000000
   62       31.266575   0.000000
   63       31.420802   0.000000
   64       31.420984   0.000000
 
  0.2000000E+00  0.2000000E+00  0.2000000E+00  0.0000000E+00
    1      -30.654652   1.000000
    2      -30.654612   1.000000
    3      -30.653694   1.000000
    4      -30.653682   1.000000
    5      -24.000573   1.000000
    6      -24.000547   1.000000
    7      -23.999427   1.000000
    8      -23.999373   1.000000
    9      -23.998283   1.000000
   10      -23.998261   1.000000
   11      -20.305399   1.000000
   12      -20.305351   1.000000
   13       -6.770510   1.000000
   14       -6.770481   1.000000
   15        1.629481   1.000000
   16        1.629509   1.000000
   17        3.351615   1.000000
   18        3.351675   1.000000
   19        5.714845   0.000000
   20        5.714857   0.000000
   21        9.916944   0.000000
   22        9.916956   0.000000
   23       11.073134   0.000000
   24       11.073146   0.000000
   25       11.472735   0.000000
   26       11.472744   0.000000
   27       12.180684   0.000000
   28       12.180699   0.000000
   29       12.627205   0.000000
   30       12.627209   0.000000
   31       12.842096   0.000000
   32       12.842109   0.000000
   33       14.597411   0.000000
   34       14.597429   0.000000
   35       16.562931   0.000000
   36       16.562935   0.000000
   37       16.741493   0.000000
   38       16.741523   0.000000
   39       19.035087   0.000000
   40       19.035104   0.000000
   41       20.086644   0.000000
   42       20.086683   0.000000
   43       20.346016   0.000000
   44       20.346043   0.000000
   45       21.161835   0.000000
   46       21.161897   0.000000
   47       21.637319   0.000000
   48       21.637330   0.000000
   49       25.258397   0.000000
   50       25.258415   0.000000
   51       26.358526   0.000000
   52       26.358567   0.000000
   53       26.830585   0.000000
   54       26.830636   0.000000
   55       28.061292   0.000000
   56       28.061308   0.000000
   57       28.529675   0.000000
   58       28.529698   0.000000
   59       29.318762   0.000000
   60       29.318786   0.000000
   61       31.273457   0.000000
   62       31.273525   0.000000
   63       31.275544   0.000000
   64       31.275607   0.000000
 
  0.1750000E+00  0.1750000E+00  0.1750000E+00  0.0000000E+00
    1      -30.662235   1.000000
    2      -30.662195   1.000000
    3      -30.660769   1.000000
    4      -30.660758   1.000000
    5      -24.005995   1.000000
    6      -24.005973   1.000000
    7      -24.005175   1.000000
    8      -24.005166   1.000000
    9      -24.002679   1.000000
   10      -24.002636   1.000000
   11      -20.314526   1.000000
   12      -20.314479   1.000000
   13       -6.739708   1.000000
   14       -6.739678   1.000000
   15        1.839754   1.000000
   16        1.839782   1.000000
   17        3.394380   1.000000
   18        3.394440   1.000000
   19        5.517567   0.000000
   20        5.517580   0.000000
   21        9.929892   0.000000
   22        9.929904   0.000000
   23       11.099677   0.000000
   24       11.099689   0.000000
   25       11.477421   0.000000
   26       11.477434   0.000000
   27       12.355472   0.000000
   28       12.355488   0.000000
   29       12.628327   0.000000
   30       12.628330   0.000000
   31       12.819950   0.000000
   32       12.819963   0.000000
   33       14.170532   0.000000
   34       14.170547   0.000000
   35       16.226582   0.000000
   36       16.226586   0.000000
   37       16.396609   0.000000
   38       16.396637   0.000000
   39       18.583138   0.000000
   40       18.583156   0.000000
   41       20.338065   0.000000
   42       20.338109   0.000000
   43       20.523482   0.000000
   44       20.523510   0.000000