   1   1   0   0
  0.8678794E+02  0.4969639E-09  0.4969639E-09  0.4969639E-09  0.1000000E-15
  1.000000000000000E-004
  CAR 
 Og_FCC                                  
     11.50820278    -32.61349664  301     -1.42576451      1.00000000
    -32.613  0.0000E+00  0.0000E+00
    -32.466  0.0000E+00  0.0000E+00
    -32.319  0.0000E+00  0.0000E+00
    -32.172  0.0000E+00  0.0000E+00
    -32.025  0.0000E+00  0.0000E+00
    -31.878  0.0000E+00  0.0000E+00
    -31.731  0.0000E+00  0.0000E+00
    -31.584  0.0000E+00  0.0000E+00
    -31.437 -0.1979E-27 -0.2911E-28
    -31.290 -0.7460E-18 -0.1097E-18
    -31.143 -0.3424E-10 -0.5036E-11
    -30.996 -0.1928E-04 -0.2835E-05
    -30.849 -0.1139E+00 -0.1676E-01
    -30.702 -0.1136E+01 -0.1839E+00
    -30.554  0.6136E+02  0.8841E+01
    -30.407  0.8433E+01  0.1008E+02
    -30.260 -0.5490E+00  0.1000E+02
    -30.113 -0.3673E-03  0.1000E+02
    -29.966 -0.2335E-08  0.1000E+02
    -29.819  0.0000E+00  0.1000E+02
    -29.672  0.0000E+00  0.1000E+02
    -29.525  0.0000E+00  0.1000E+02
    -29.378  0.0000E+00  0.1000E+02
    -29.231  0.0000E+00  0.1000E+02
    -29.084  0.0000E+00  0.1000E+02
    -28.937  0.0000E+00  0.1000E+02
    -28.790  0.0000E+00  0.1000E+02
    -28.643  0.0000E+00  0.1000E+02
    -28.495  0.0000E+00  0.1000E+02
    -28.348  0.0000E+00  0.1000E+02
    -28.201  0.0000E+00  0.1000E+02
    -28.054  0.0000E+00  0.1000E+02
    -27.907  0.0000E+00  0.1000E+02
    -27.760  0.0000E+00  0.1000E+02
    -27.613  0.0000E+00  0.1000E+02
    -27.466  0.0000E+00  0.1000E+02
    -27.319  0.0000E+00  0.1000E+02
    -27.172  0.0000E+00  0.1000E+02
    -27.025  0.0000E+00  0.1000E+02
    -26.878  0.0000E+00  0.1000E+02
    -26.731  0.0000E+00  0.1000E+02
    -26.584  0.0000E+00  0.1000E+02
    -26.436  0.0000E+00  0.1000E+02
    -26.289  0.0000E+00  0.1000E+02
    -26.142  0.0000E+00  0.1000E+02
    -25.995  0.0000E+00  0.1000E+02
    -25.848  0.0000E+00  0.1000E+02
    -25.701  0.0000E+00  0.1000E+02
    -25.554  0.0000E+00  0.1000E+02
    -25.407  0.0000E+00  0.1000E+02
    -25.260  0.0000E+00  0.1000E+02
    -25.113  0.0000E+00  0.1000E+02
    -24.966  0.0000E+00  0.1000E+02
    -24.819  0.0000E+00  0.1000E+02
    -24.672  0.0000E+00  0.1000E+02
    -24.525  0.0000E+00  0.1000E+02
    -24.377 -0.2097E-29  0.1000E+02
    -24.230 -0.1243E-19  0.1000E+02
    -24.083 -0.9308E-12  0.1000E+02
    -23.936 -0.8884E-06  0.1000E+02
    -23.789 -0.9447E-02  0.9999E+01
    -23.642 -0.4514E+00  0.9932E+01
    -23.495  0.1078E+02  0.1152E+02
    -23.348  0.3479E+01  0.1203E+02
    -23.201 -0.1990E+00  0.1200E+02
    -23.054 -0.2745E-03  0.1200E+02
    -22.907 -0.3373E-08  0.1200E+02
    -22.760  0.0000E+00  0.1200E+02
    -22.613  0.0000E+00  0.1200E+02
    -22.466  0.0000E+00  0.1200E+02
    -22.318  0.0000E+00  0.1200E+02
    -22.171  0.0000E+00  0.1200E+02
    -22.024  0.0000E+00  0.1200E+02
    -21.877  0.0000E+00  0.1200E+02
    -21.730  0.0000E+00  0.1200E+02
    -21.583  0.0000E+00  0.1200E+02
    -21.436  0.0000E+00  0.1200E+02
    -21.289  0.0000E+00  0.1200E+02
    -21.142  0.0000E+00  0.1200E+02
    -20.995  0.0000E+00  0.1200E+02
    -20.848  0.0000E+00  0.1200E+02
    -20.701  0.0000E+00  0.1200E+02
    -20.554  0.0000E+00  0.1200E+02
    -20.406  0.0000E+00  0.1200E+02
    -20.259  0.0000E+00  0.1200E+02
    -20.112  0.0000E+00  0.1200E+02
    -19.965  0.0000E+00  0.1200E+02
    -19.818  0.0000E+00  0.1200E+02
    -19.671  0.0000E+00  0.1200E+02
    -19.524  0.0000E+00  0.1200E+02
    -19.377  0.0000E+00  0.1200E+02
    -19.230  0.0000E+00  0.1200E+02
    -19.083  0.0000E+00  0.1200E+02
    -18.936  0.0000E+00  0.1200E+02
    -18.789  0.0000E+00  0.1200E+02
    -18.642  0.0000E+00  0.1200E+02
    -18.495  0.0000E+00  0.1200E+02
    -18.347  0.0000E+00  0.1200E+02
    -18.200  0.0000E+00  0.1200E+02
    -18.053  0.0000E+00  0.1200E+02
    -17.906  0.0000E+00  0.1200E+02
    -17.759  0.0000E+00  0.1200E+02
    -17.612  0.0000E+00  0.1200E+02
    -17.465  0.0000E+00  0.1200E+02
    -17.318  0.0000E+00  0.1200E+02
    -17.171  0.0000E+00  0.1200E+02
    -17.024  0.0000E+00  0.1200E+02
    -16.877  0.0000E+00  0.1200E+02
    -16.730  0.0000E+00  0.1200E+02
    -16.583  0.0000E+00  0.1200E+02
    -16.436  0.0000E+00  0.1200E+02
    -16.288  0.0000E+00  0.1200E+02
    -16.141  0.0000E+00  0.1200E+02
    -15.994  0.0000E+00  0.1200E+02
    -15.847  0.0000E+00  0.1200E+02
    -15.700  0.0000E+00  0.1200E+02
    -15.553  0.0000E+00  0.1200E+02
    -15.406  0.0000E+00  0.1200E+02
    -15.259  0.0000E+00  0.1200E+02
    -15.112  0.0000E+00  0.1200E+02
    -14.965  0.0000E+00  0.1200E+02
    -14.818  0.0000E+00  0.1200E+02
    -14.671  0.0000E+00  0.1200E+02
    -14.524  0.0000E+00  0.1200E+02
    -14.377  0.0000E+00  0.1200E+02
    -14.229  0.0000E+00  0.1200E+02
    -14.082  0.0000E+00  0.1200E+02
    -13.935  0.0000E+00  0.1200E+02
    -13.788  0.0000E+00  0.1200E+02
    -13.641  0.0000E+00  0.1200E+02
    -13.494  0.0000E+00  0.1200E+02
    -13.347  0.0000E+00  0.1200E+02
    -13.200  0.0000E+00  0.1200E+02
    -13.053  0.0000E+00  0.1200E+02
    -12.906  0.0000E+00  0.1200E+02
    -12.759  0.0000E+00  0.1200E+02
    -12.612  0.0000E+00  0.1200E+02
    -12.465  0.0000E+00  0.1200E+02
    -12.318  0.0000E+00  0.1200E+02
    -12.170  0.0000E+00  0.1200E+02
    -12.023  0.0000E+00  0.1200E+02
    -11.876  0.0000E+00  0.1200E+02
    -11.729  0.0000E+00  0.1200E+02
    -11.582  0.0000E+00  0.1200E+02
    -11.435  0.0000E+00  0.1200E+02
    -11.288  0.0000E+00  0.1200E+02
    -11.141  0.0000E+00  0.1200E+02
    -10.994  0.0000E+00  0.1200E+02
    -10.847  0.0000E+00  0.1200E+02
    -10.700  0.0000E+00  0.1200E+02
    -10.553  0.0000E+00  0.1200E+02
    -10.406  0.0000E+00  0.1200E+02
    -10.259  0.0000E+00  0.1200E+02
    -10.111  0.0000E+00  0.1200E+02
     -9.964  0.0000E+00  0.1200E+02
     -9.817  0.0000E+00  0.1200E+02
     -9.670  0.0000E+00  0.1200E+02
     -9.523  0.0000E+00  0.1200E+02
     -9.376  0.0000E+00  0.1200E+02
     -9.229  0.0000E+00  0.1200E+02
     -9.082  0.0000E+00  0.1200E+02
     -8.935  0.0000E+00  0.1200E+02
     -8.788  0.0000E+00  0.1200E+02
     -8.641  0.0000E+00  0.1200E+02
     -8.494  0.0000E+00  0.1200E+02
     -8.347  0.0000E+00  0.1200E+02
     -8.199  0.0000E+00  0.1200E+02
     -8.052  0.0000E+00  0.1200E+02
     -7.905  0.0000E+00  0.1200E+02
     -7.758  0.0000E+00  0.1200E+02
     -7.611  0.0000E+00  0.1200E+02
     -7.464  0.0000E+00  0.1200E+02
     -7.317  0.0000E+00  0.1200E+02
     -7.170  0.0000E+00  0.1200E+02
     -7.023  0.0000E+00  0.1200E+02
     -6.876  0.0000E+00  0.1200E+02
     -6.729  0.0000E+00  0.1200E+02
     -6.582  0.0000E+00  0.1200E+02
     -6.435  0.0000E+00  0.1200E+02
     -6.288  0.0000E+00  0.1200E+02
     -6.140  0.0000E+00  0.1200E+02
     -5.993  0.0000E+00  0.1200E+02
     -5.846  0.0000E+00  0.1200E+02
     -5.699  0.0000E+00  0.1200E+02
     -5.552  0.0000E+00  0.1200E+02
     -5.405  0.0000E+00  0.1200E+02
     -5.258  0.0000E+00  0.1200E+02
     -5.111  0.0000E+00  0.1200E+02
     -4.964  0.0000E+00  0.1200E+02
     -4.817  0.0000E+00  0.1200E+02
     -4.670  0.0000E+00  0.1200E+02
     -4.523  0.0000E+00  0.1200E+02
     -4.376  0.0000E+00  0.1200E+02
     -4.229  0.0000E+00  0.1200E+02
     -4.081  0.0000E+00  0.1200E+02
     -3.934  0.0000E+00  0.1200E+02
     -3.787  0.0000E+00  0.1200E+02
     -3.640 -0.2446E-31  0.1200E+02
     -3.493 -0.1451E-21  0.1200E+02
     -3.346 -0.1053E-13  0.1200E+02
     -3.199 -0.9525E-08  0.1200E+02
     -3.052 -0.1025E-03  0.1200E+02
     -2.905 -0.1533E-01  0.1200E+02
     -2.758  0.1674E+00  0.1202E+02
     -2.611  0.2737E+01  0.1242E+02
     -2.464  0.6535E+01  0.1339E+02
     -2.317  0.2567E+01  0.1376E+02
     -2.170  0.2660E+01  0.1415E+02
     -2.022  0.3073E+01  0.1461E+02
     -1.875  0.5198E+01  0.1537E+02
     -1.728  0.7701E+01  0.1650E+02
     -1.581  0.7335E+01  0.1758E+02
     -1.434  0.2805E+01  0.1800E+02
     -1.287  0.4229E-01  0.1800E+02
     -1.140 -0.1047E-01  0.1800E+02
     -0.993 -0.9846E-05  0.1800E+02
     -0.846 -0.1139E-09  0.1800E+02
     -0.699 -0.1769E-16  0.1800E+02
     -0.552  0.0000E+00  0.1800E+02
     -0.405  0.0000E+00  0.1800E+02
     -0.258  0.0000E+00  0.1800E+02
     -0.111  0.0000E+00  0.1800E+02
      0.037  0.0000E+00  0.1800E+02
      0.184  0.0000E+00  0.1800E+02
      0.331  0.0000E+00  0.1800E+02
      0.478  0.0000E+00  0.1800E+02
      0.625  0.0000E+00  0.1800E+02
      0.772 -0.1734E-36  0.1800E+02
      0.919 -0.6127E-26  0.1800E+02
      1.066 -0.2754E-17  0.1800E+02
      1.213 -0.1472E-10  0.1800E+02
      1.360 -0.9292E-06  0.1800E+02
      1.507 -0.4925E-03  0.1800E+02
      1.654  0.8782E-02  0.1800E+02
      1.801  0.1921E-01  0.1800E+02
      1.949 -0.4448E-02  0.1800E+02
      2.096  0.6002E-01  0.1801E+02
      2.243  0.1994E+00  0.1804E+02
      2.390  0.1214E+00  0.1806E+02
      2.537 -0.9844E-02  0.1806E+02
      2.684  0.7794E-01  0.1807E+02
      2.831  0.2457E+00  0.1811E+02
      2.978  0.1627E+00  0.1813E+02
      3.125  0.7080E+00  0.1823E+02
      3.272 -0.2055E-01  0.1823E+02
      3.419 -0.2333E-01  0.1823E+02
      3.566  0.4873E+00  0.1830E+02
      3.713  0.6157E+00  0.1839E+02
      3.860  0.1268E+01  0.1858E+02
      4.008  0.3931E-01  0.1858E+02
      4.155  0.1355E+01  0.1878E+02
      4.302  0.7382E+00  0.1889E+02
      4.449  0.3319E+00  0.1894E+02
      4.596  0.1995E+01  0.1923E+02
      4.743  0.1562E+01  0.1946E+02
      4.890  0.1221E+01  0.1964E+02
      5.037  0.3474E+00  0.1969E+02
      5.184  0.8840E+00  0.1982E+02
      5.331  0.5966E+00  0.1991E+02
      5.478  0.5038E+00  0.1998E+02
      5.625  0.6692E-01  0.1999E+02
      5.772  0.7568E+00  0.2011E+02
      5.919  0.7088E+00  0.2021E+02
      6.067  0.1401E+01  0.2042E+02
      6.214  0.2533E+01  0.2079E+02
      6.361  0.2878E+01  0.2121E+02
      6.508  0.8895E+00  0.2134E+02
      6.655  0.1684E+01  0.2159E+02
      6.802  0.5600E+01  0.2241E+02
      6.949  0.3021E+01  0.2286E+02
      7.096  0.8568E+00  0.2298E+02
      7.243  0.1020E+01  0.2313E+02
      7.390  0.1017E+01  0.2328E+02
      7.537  0.2303E+01  0.2362E+02
      7.684  0.2591E+01  0.2400E+02
      7.831  0.2135E+01  0.2432E+02
      7.978  0.2262E+01  0.2465E+02
      8.126  0.3438E+01  0.2516E+02
      8.273  0.1970E+01  0.2545E+02
      8.420  0.6312E+00  0.2554E+02
      8.567  0.8096E+00  0.2566E+02
      8.714  0.5755E+00  0.2574E+02
      8.861  0.2340E+00  0.2578E+02
      9.008  0.4468E+00  0.2584E+02
      9.155  0.2052E+00  0.2587E+02
      9.302  0.6300E-01  0.2588E+02
      9.449  0.6207E+00  0.2597E+02
      9.596  0.1927E+00  0.2600E+02
      9.743 -0.6331E-02  0.2600E+02
      9.890 -0.3139E-03  0.2600E+02
     10.037 -0.5074E-07  0.2600E+02
     10.185 -0.8984E-13  0.2600E+02
     10.332  0.0000E+00  0.2600E+02
     10.479  0.0000E+00  0.2600E+02
     10.626  0.0000E+00  0.2600E+02
     10.773  0.0000E+00  0.2600E+02
     10.920  0.0000E+00  0.2600E+02
     11.067  0.0000E+00  0.2600E+02
     11.214  0.0000E+00  0.2600E+02
     11.361  0.0000E+00  0.2600E+02
     11.508  0.0000E+00  0.2600E+02
