    1    1    1    1
  0.8678794E+02  0.4969638E-09  0.4969638E-09  0.4969638E-09  0.1000000E-15
  1.000000000000000E-004
  CAR 
 Og_FCC                                  
     18     29     13
 
  0.0000000E+00  0.0000000E+00  0.0000000E+00  0.1953125E-02
    1      -30.607629   1.000000
    2      -30.607628   1.000000
    3      -30.607628   1.000000
    4      -30.607234   1.000000
    5      -30.607234   1.000000
    6      -23.544052   1.000000
    7       -1.452384   0.716667
    8       -1.452384   0.716667
    9       -1.452384   0.716666
   10        1.677211   0.000000
   11        7.703753   0.000000
   12        7.703753   0.000000
   13        7.703754   0.000000
 
  0.1250000E+00  0.1031990E-17  0.0000000E+00  0.1562500E-01
    1      -30.607570   1.000000
    2      -30.607534   1.000000
    3      -30.607534   1.000000
    4      -30.607183   1.000000
    5      -30.607183   1.000000
    6      -23.541560   1.000000
    7       -1.742478   1.000036
    8       -1.477972   0.881982
    9       -1.477972   0.881982
   10        2.123136   0.000000
   11        7.174967   0.000000
   12        7.815014   0.000000
   13        7.815014   0.000000
 
  0.2500000E+00  0.2063981E-17  0.0000000E+00  0.1562500E-01
    1      -30.607495   1.000000
    2      -30.607495   1.000000
    3      -30.607444   1.000000
    4      -30.606982   1.000000
    5      -30.606982   1.000000
    6      -23.535765   1.000000
    7       -2.261835   1.000000
    8       -1.538242   1.033700
    9       -1.538242   1.033700
   10        2.992867   0.000000
   11        6.841221   0.000000
   12        7.791035   0.000000
   13        7.791035   0.000000
 
  0.3750000E+00  0.3095971E-17  0.2775558E-16  0.1562500E-01
    1      -30.607542   1.000000
    2      -30.607541   1.000000
    3      -30.607315   1.000000
    4      -30.606671   1.000000
    5      -30.606670   1.000000
    6      -23.529937   1.000000
    7       -2.654417   1.000000
    8       -1.596528   1.018216
    9       -1.596528   1.018216
   10        3.609058   0.000000
   11        7.188835   0.000000
   12        7.516298   0.000000
   13        7.516298   0.000000
 
  0.5000000E+00  0.4127962E-17  0.0000000E+00  0.7812500E-02
    1      -30.607570   1.000000
    2      -30.607570   1.000000
    3      -30.607261   1.000000
    4      -30.606541   1.000000
    5      -30.606541   1.000000
    6      -23.527535   1.000000
    7       -2.795173   1.000000
    8       -1.620132   1.009549
    9       -1.620132   1.009549
   10        3.775102   0.000000
   11        7.396739   0.000000
   12        7.396739   0.000000
   13        7.535924   0.000000
 
  0.1250000E+00  0.1250000E+00  0.2775558E-16  0.1171875E-01
    1      -30.607667   1.000000
    2      -30.607429   1.000000
    3      -30.607429   1.000000
    4      -30.607271   1.000000
    5      -30.607134   1.000000
    6      -23.540769   1.000000
    7       -1.750686   1.000022
    8       -1.529060   1.028218
    9       -1.529060   1.028218
   10        2.277271   0.000000
   11        6.953880   0.000000
   12        7.942419   0.000000
   13        7.951000   0.000000
 
  0.2500000E+00  0.1250000E+00  0.2775558E-16  0.4687500E-01
    1      -30.607641   1.000000
    2      -30.607374   1.000000
    3      -30.607333   1.000000
    4      -30.607144   1.000000
    5      -30.606950   1.000000
    6      -23.536116   1.000000
    7       -2.138855   1.000000
    8       -1.605881   1.014387
    9       -1.588940   1.021604
   10        3.027920   0.000000
   11        6.590518   0.000000
   12        7.445874   0.000000
   13        8.101708   0.000000
 
  0.3750000E+00  0.1250000E+00  0.0000000E+00  0.4687500E-01
    1      -30.607574   1.000000
    2      -30.607367   1.000000
    3      -30.607323   1.000000
    4      -30.606859   1.000000
    5      -30.606647   1.000000
    6      -23.530277   1.000000
    7       -2.526705   1.000000
    8       -1.680889   1.000918
    9       -1.662944   1.002014
   10        3.792341   0.000000
   11        6.696382   0.000000
   12        6.982948   0.000000
   13        7.902484   0.000000
 
  0.5000000E+00  0.1250000E+00  0.0000000E+00  0.4687500E-01
    1      -30.607563   1.000000
    2      -30.607407   1.000000
    3      -30.607196   1.000000
    4      -30.606653   1.000000
    5      -30.606524   1.000000
    6      -23.526702   1.000000
    7       -2.723928   1.000000
    8       -1.768675   1.000007
    9       -1.669262   1.001541
   10        4.126954   0.000000
   11        6.631377   0.000000
   12        7.614465   0.000000
   13        7.667419   0.000000
 
 -0.3750000E+00  0.1250000E+00 -0.5551115E-16  0.4687500E-01
    1      -30.607536   1.000000
    2      -30.607412   1.000000
    3      -30.607207   1.000000
    4      -30.606679   1.000000
    5      -30.606599   1.000000
    6      -23.527508   1.000000
    7       -2.678506   1.000000
    8       -1.799079   1.000001
    9       -1.621670   1.009105
   10        4.075457   0.000000
   11        6.720505   0.000000
   12        7.413623   0.000000
   13        7.633008   0.000000
 
 -0.2500000E+00  0.1250000E+00  0.0000000E+00  0.4687500E-01
    1      -30.607482   1.000000
    2      -30.607376   1.000000
    3      -30.607369   1.000000
    4      -30.607023   1.000000
    5      -30.606736   1.000000
    6      -23.532213   1.000000
    7       -2.409362   1.000000
    8       -1.746383   1.000028
    9       -1.545714   1.035356
   10        3.570940   0.000000
   11        6.740701   0.000000
   12        7.151140   0.000000
   13        7.854363   0.000000
 
 -0.1250000E+00  0.1250000E+00 -0.2401945E-17  0.2343750E-01
    1      -30.607526   1.000000
    2      -30.607441   1.000000
    3      -30.607412   1.000000
    4      -30.607233   1.000000
    5      -30.607003   1.000000
    6      -23.538016   1.000000
    7       -2.022798   1.000000
    8       -1.615380   1.011019
    9       -1.485128   0.917136
   10        2.717718   0.000000
   11        6.820741   0.000000
   12        7.675476   0.000000
   13        8.016748   0.000000
 
  0.2500000E+00  0.2500000E+00  0.5551115E-16  0.1171875E-01
    1      -30.607804   1.000000
    2      -30.607379   1.000000
    3      -30.606990   1.000000
    4      -30.606990   1.000000
    5      -30.606941   1.000000
    6      -23.533039   1.000000
    7       -2.239601   1.000000
    8       -1.704662   1.000289
    9       -1.704662   1.000289
   10        3.514795   0.000000
   11        6.153116   0.000000
   12        7.046982   0.000000
   13        8.595993   0.000000
 
  0.3750000E+00  0.2500000E+00  0.5551115E-16  0.4687500E-01
    1      -30.607761   1.000000
    2      -30.607398   1.000000
    3      -30.606996   1.000000
    4      -30.606762   1.000000
    5      -30.606626   1.000000
    6      -23.528352   1.000000
    7       -2.468141   1.000000
    8       -1.828700   1.000000
    9       -1.776395   1.000004
   10        4.163760   0.000000
   11        6.037822   0.000000
   12        6.710438   0.000000
   13        8.698309   0.000000
 
  0.5000000E+00  0.2500000E+00  0.5551115E-16  0.4687500E-01
    1      -30.607649   1.000000
    2      -30.607233   1.000000
    3      -30.607053   1.000000
    4      -30.606693   1.000000
    5      -30.606489   1.000000
    6      -23.524782   1.000000
    7       -2.588083   1.000000
    8       -2.018215   1.000000
    9       -1.782988   1.000003
   10        4.677713   0.000000
   11        6.238286   0.000000
   12        6.798303   0.000000
   13        8.419438   0.000000
 
 -0.3750000E+00  0.2500000E+00  0.0000000E+00  0.4687500E-01
    1      -30.607581   1.000000
    2      -30.607090   1.000000
    3      -30.606989   1.000000
    4      -30.606775   1.000000
    5      -30.606648   1.000000
    6      -23.524457   1.000000
    7       -2.554697   1.000000
    8       -2.155276   1.000000
    9       -1.721147   1.000121
   10        4.886066   0.000000
   11        6.180995   0.000000
   12        7.358283   0.000000
   13        8.203409   0.000000
 
 -0.2500000E+00  0.2500000E+00 -0.4803891E-17  0.2343750E-01
    1      -30.607513   1.000000
    2      -30.607165   1.000000
    3      -30.607123   1.000000
    4      -30.606968   1.000000
    5      -30.606668   1.000000
    6      -23.527526   1.000000
    7       -2.488292   1.000000
    8       -2.048446   1.000000
    9       -1.623222   1.008672
   10        4.463303   0.000000
   11        6.435097   0.000000
   12        6.791181   0.000000
   13        8.064144   0.000000
 
  0.3750000E+00  0.3750000E+00  0.1110223E-15  0.1171875E-01
    1      -30.607917   1.000000
    2      -30.607473   1.000000
    3      -30.606737   1.000000
    4      -30.606527   1.000000
    5      -30.606527   1.000000
    6      -23.525268   1.000000
    7       -2.576264   1.000000
    8       -1.868554   1.000000
    9       -1.868554   1.000000
   10        4.272471   0.000000
   11        5.656044   0.000000
   12        7.225297   0.000000
   13        9.502671   0.000000
 
  0.5000000E+00  0.3750000E+00  0.1110223E-15  0.4687500E-01
    1      -30.607849   1.000000
    2      -30.607449   1.000000
    3      -30.606739   1.000000
    4      -30.606455   1.000000
    5      -30.606411   1.000000
    6      -23.522853   1.000000
    7       -2.623630   1.000000
    8       -2.011346   1.000000
    9       -1.890521   1.000000
   10        4.494841   0.000000
   11        5.736605   0.000000
   12        7.589619   0.000000
   13        9.355175   0.000000
 
 -0.3750000E+00  0.3750000E+00 -0.7205836E-17  0.2343750E-01
    1      -30.607679   1.000000
    2      -30.607205   1.000000
    3      -30.606828   1.000000
    4      -30.606604   1.000000
    5      -30.606512   1.000000
    6      -23.522483   1.000000
    7       -2.502455   1.000000
    8       -2.262503   1.000000
    9       -1.831429   1.000000
   10        4.868866   0.000000
   11        6.228981   0.000000
   12        7.707456   0.000000
   13        7.781032   0.000000
 
  0.5000000E+00  0.5000000E+00  0.1110223E-15  0.5859375E-02
    1      -30.607965   1.000000
    2      -30.607509   1.000000
    3      -30.606665   1.000000
    4      -30.606343   1.000000
    5      -30.606343   1.000000
    6      -23.522082   1.000000
    7       -2.690080   1.000000
    8       -1.933439   1.000000
    9       -1.933439   1.000000
   10        4.290786   0.000000
   11        5.488932   0.000000
   12        8.666066   0.000000
   13        9.473608   0.000000
 
  0.3750000E+00  0.2500000E+00  0.1250000E+00  0.4687500E-01
    1      -30.607590   1.000000
    2      -30.607400   1.000000
    3      -30.607182   1.000000
    4      -30.607001   1.000000
    5      -30.606733   1.000000
    6      -23.531440   1.000000
    7       -2.361874   1.000000
    8       -1.811262   1.000000
    9       -1.626330   1.007850
   10        3.782220   0.000000
   11        6.388436   0.000000
   12        6.828940   0.000000
   13        8.442759   0.000000
 
  0.5000000E+00  0.2500000E+00  0.1250000E+00  0.9375000E-01
    1      -30.607494   1.000000
    2      -30.607344   1.000000
    3      -30.607132   1.000000
    4      -30.606766   1.000000
    5      -30.606590   1.000000
    6      -23.526717   1.000000
    7       -2.552473   1.000000
    8       -1.968168   1.000000
    9       -1.702521   1.000323
   10        4.517894   0.000000
   11        6.319538   0.000000
   12        6.723691   0.000000
   13        8.206401   0.000000
 
 -0.3750000E+00  0.2500000E+00  0.1250000E+00  0.4687500E-01
    1      -30.607511   1.000000
    2      -30.607304   1.000000
    3      -30.607019   1.000000
    4      -30.606775   1.000000
    5      -30.606545   1.000000
    6      -23.524819   1.000000
    7       -2.626342   1.000000
    8       -2.019435   1.000000
    9       -1.743600   1.000033
   10        4.771593   0.000000
   11        6.133588   0.000000
   12        7.442732   0.000000
   13        8.025661   0.000000
 
  0.5000000E+00  0.3750000E+00  0.1250000E+00  0.4687500E-01
    1      -30.607692   1.000000
    2      -30.607405   1.000000
    3      -30.606938   1.000000
    4      -30.606570   1.000000
    5      -30.606533   1.000000
    6      -23.524813   1.000000
    7       -2.549048   1.000000
    8       -1.992104   1.000000
    9       -1.849051   1.000000
   10        4.657566   0.000000
   11        6.016662   0.000000
   12        6.634237   0.000000
   13        8.985023   0.000000
 
 -0.3750000E+00  0.3750000E+00  0.1250000E+00  0.9375000E-01
    1      -30.607530   1.000000
    2      -30.607241   1.000000
    3      -30.606947   1.000000
    4      -30.606749   1.000000
    5      -30.606425   1.000000
    6      -23.522847   1.000000
    7       -2.501095   1.000000
    8       -2.201820   1.000000
    9       -1.880661   1.000000
   10        5.161692   0.000000
   11        6.207684   0.000000
   12        6.795579   0.000000
   13        8.002281   0.000000
 
 -0.2500000E+00  0.3750000E+00  0.1250000E+00  0.4687500E-01
    1      -30.607469   1.000000
    2      -30.607133   1.000000
    3      -30.607039   1.000000
    4      -30.606816   1.000000
    5      -30.606543   1.000000
    6      -23.523672   1.000000
    7       -2.452210   1.000000
    8       -2.262565   1.000000
    9       -1.807215   1.000000
   10        5.361634   0.000000
   11        5.918219   0.000000
   12        6.906987   0.000000
   13        8.028454   0.000000
 
 -0.3750000E+00  0.5000000E+00  0.1250000E+00  0.2343750E-01
    1      -30.607731   1.000000
    2      -30.607420   1.000000
    3      -30.606747   1.000000
    4      -30.606566   1.000000
    5      -30.606338   1.000000
    6      -23.522038   1.000000
    7       -2.594677   1.000000
    8       -2.063226   1.000000
    9       -1.958050   1.000000
   10        4.722319   0.000000
   11        5.881548   0.000000
   12        7.794890   0.000000
   13        8.084733   0.000000
 
 -0.2500000E+00  0.5000000E+00  0.2500000E+00  0.1171875E-01
    1      -30.607285   1.000000
    2      -30.607132   1.000000
    3      -30.607132   1.000000
    4      -30.606858   1.000000
    5      -30.606324   1.000000
    6      -23.521997   1.000000
    7       -2.345697   1.000000
    8       -2.345697   1.000000
    9       -1.982072   1.000000
   10        5.680618   0.000000
   11        6.273865   0.000000
   12        6.894495   0.000000
   13        6.894495   0.000000
