Og_FCC                                  
           1
     4.969638    0.000000    0.000000
     2.484819    4.303833   -0.000000
     2.484819    1.434611    4.057693
   Og
   1
Direct configuration=     1
   0.00000000  0.00000000  0.00000000
