   1   1   0   0
  0.6594484E+02  0.4534875E-09  0.4534875E-09  0.4534875E-09  0.1000000E-15
  1.000000000000000E-004
  CAR 
 Og_FCC                                  
     14.55657728    -31.23005655  301      0.52839979      1.00000000
    -31.230  0.0000E+00  0.0000E+00
    -31.077  0.0000E+00  0.0000E+00
    -30.925  0.0000E+00  0.0000E+00
    -30.772  0.0000E+00  0.0000E+00
    -30.620  0.0000E+00  0.0000E+00
    -30.467  0.0000E+00  0.0000E+00
    -30.314  0.0000E+00  0.0000E+00
    -30.162  0.0000E+00  0.0000E+00
    -30.009 -0.6413E-30 -0.9788E-31
    -29.856 -0.1439E-19 -0.2197E-20
    -29.704 -0.2835E-11 -0.4326E-12
    -29.551 -0.4925E-05 -0.7517E-06
    -29.399 -0.6522E-01 -0.9954E-02
    -29.246 -0.1628E+01 -0.2585E+00
    -29.093  0.5935E+02  0.8799E+01
    -28.941  0.8322E+01  0.1007E+02
    -28.788 -0.4526E+00  0.1000E+02
    -28.635 -0.1779E-03  0.1000E+02
    -28.483 -0.4785E-09  0.1000E+02
    -28.330  0.0000E+00  0.1000E+02
    -28.178  0.0000E+00  0.1000E+02
    -28.025  0.0000E+00  0.1000E+02
    -27.872  0.0000E+00  0.1000E+02
    -27.720  0.0000E+00  0.1000E+02
    -27.567  0.0000E+00  0.1000E+02
    -27.415  0.0000E+00  0.1000E+02
    -27.262  0.0000E+00  0.1000E+02
    -27.109  0.0000E+00  0.1000E+02
    -26.957  0.0000E+00  0.1000E+02
    -26.804  0.0000E+00  0.1000E+02
    -26.651  0.0000E+00  0.1000E+02
    -26.499  0.0000E+00  0.1000E+02
    -26.346  0.0000E+00  0.1000E+02
    -26.194  0.0000E+00  0.1000E+02
    -26.041  0.0000E+00  0.1000E+02
    -25.888  0.0000E+00  0.1000E+02
    -25.736  0.0000E+00  0.1000E+02
    -25.583  0.0000E+00  0.1000E+02
    -25.430  0.0000E+00  0.1000E+02
    -25.278  0.0000E+00  0.1000E+02
    -25.125  0.0000E+00  0.1000E+02
    -24.973  0.0000E+00  0.1000E+02
    -24.820  0.0000E+00  0.1000E+02
    -24.667  0.0000E+00  0.1000E+02
    -24.515  0.0000E+00  0.1000E+02
    -24.362  0.0000E+00  0.1000E+02
    -24.209  0.0000E+00  0.1000E+02
    -24.057  0.0000E+00  0.1000E+02
    -23.904  0.0000E+00  0.1000E+02
    -23.752  0.0000E+00  0.1000E+02
    -23.599  0.0000E+00  0.1000E+02
    -23.446  0.0000E+00  0.1000E+02
    -23.294  0.0000E+00  0.1000E+02
    -23.141  0.0000E+00  0.1000E+02
    -22.988 -0.1523E-31  0.1000E+02
    -22.836 -0.3018E-21  0.1000E+02
    -22.683 -0.5809E-13  0.1000E+02
    -22.531 -0.1180E-06  0.1000E+02
    -22.378 -0.2568E-02  0.1000E+02
    -22.225 -0.3741E+00  0.9943E+01
    -22.073  0.8039E+01  0.1117E+02
    -21.920  0.5729E+01  0.1204E+02
    -21.767 -0.2867E+00  0.1200E+02
    -21.615 -0.6636E-03  0.1200E+02
    -21.462 -0.9157E-08  0.1200E+02
    -21.310 -0.8861E-15  0.1200E+02
    -21.157  0.0000E+00  0.1200E+02
    -21.004  0.0000E+00  0.1200E+02
    -20.852  0.0000E+00  0.1200E+02
    -20.699  0.0000E+00  0.1200E+02
    -20.547  0.0000E+00  0.1200E+02
    -20.394  0.0000E+00  0.1200E+02
    -20.241  0.0000E+00  0.1200E+02
    -20.089  0.0000E+00  0.1200E+02
    -19.936  0.0000E+00  0.1200E+02
    -19.783  0.0000E+00  0.1200E+02
    -19.631  0.0000E+00  0.1200E+02
    -19.478  0.0000E+00  0.1200E+02
    -19.326  0.0000E+00  0.1200E+02
    -19.173  0.0000E+00  0.1200E+02
    -19.020  0.0000E+00  0.1200E+02
    -18.868  0.0000E+00  0.1200E+02
    -18.715  0.0000E+00  0.1200E+02
    -18.562  0.0000E+00  0.1200E+02
    -18.410  0.0000E+00  0.1200E+02
    -18.257  0.0000E+00  0.1200E+02
    -18.105  0.0000E+00  0.1200E+02
    -17.952  0.0000E+00  0.1200E+02
    -17.799  0.0000E+00  0.1200E+02
    -17.647  0.0000E+00  0.1200E+02
    -17.494  0.0000E+00  0.1200E+02
    -17.341  0.0000E+00  0.1200E+02
    -17.189  0.0000E+00  0.1200E+02
    -17.036  0.0000E+00  0.1200E+02
    -16.884  0.0000E+00  0.1200E+02
    -16.731  0.0000E+00  0.1200E+02
    -16.578  0.0000E+00  0.1200E+02
    -16.426  0.0000E+00  0.1200E+02
    -16.273  0.0000E+00  0.1200E+02
    -16.120  0.0000E+00  0.1200E+02
    -15.968  0.0000E+00  0.1200E+02
    -15.815  0.0000E+00  0.1200E+02
    -15.663  0.0000E+00  0.1200E+02
    -15.510  0.0000E+00  0.1200E+02
    -15.357  0.0000E+00  0.1200E+02
    -15.205  0.0000E+00  0.1200E+02
    -15.052  0.0000E+00  0.1200E+02
    -14.899  0.0000E+00  0.1200E+02
    -14.747  0.0000E+00  0.1200E+02
    -14.594  0.0000E+00  0.1200E+02
    -14.442  0.0000E+00  0.1200E+02
    -14.289  0.0000E+00  0.1200E+02
    -14.136  0.0000E+00  0.1200E+02
    -13.984  0.0000E+00  0.1200E+02
    -13.831  0.0000E+00  0.1200E+02
    -13.679  0.0000E+00  0.1200E+02
    -13.526  0.0000E+00  0.1200E+02
    -13.373  0.0000E+00  0.1200E+02
    -13.221  0.0000E+00  0.1200E+02
    -13.068  0.0000E+00  0.1200E+02
    -12.915  0.0000E+00  0.1200E+02
    -12.763  0.0000E+00  0.1200E+02
    -12.610  0.0000E+00  0.1200E+02
    -12.458  0.0000E+00  0.1200E+02
    -12.305  0.0000E+00  0.1200E+02
    -12.152  0.0000E+00  0.1200E+02
    -12.000  0.0000E+00  0.1200E+02
    -11.847  0.0000E+00  0.1200E+02
    -11.694  0.0000E+00  0.1200E+02
    -11.542  0.0000E+00  0.1200E+02
    -11.389  0.0000E+00  0.1200E+02
    -11.237  0.0000E+00  0.1200E+02
    -11.084  0.0000E+00  0.1200E+02
    -10.931  0.0000E+00  0.1200E+02
    -10.779  0.0000E+00  0.1200E+02
    -10.626  0.0000E+00  0.1200E+02
    -10.473  0.0000E+00  0.1200E+02
    -10.321  0.0000E+00  0.1200E+02
    -10.168  0.0000E+00  0.1200E+02
    -10.016  0.0000E+00  0.1200E+02
     -9.863  0.0000E+00  0.1200E+02
     -9.710  0.0000E+00  0.1200E+02
     -9.558  0.0000E+00  0.1200E+02
     -9.405  0.0000E+00  0.1200E+02
     -9.252  0.0000E+00  0.1200E+02
     -9.100  0.0000E+00  0.1200E+02
     -8.947  0.0000E+00  0.1200E+02
     -8.795  0.0000E+00  0.1200E+02
     -8.642  0.0000E+00  0.1200E+02
     -8.489  0.0000E+00  0.1200E+02
     -8.337  0.0000E+00  0.1200E+02
     -8.184  0.0000E+00  0.1200E+02
     -8.031  0.0000E+00  0.1200E+02
     -7.879  0.0000E+00  0.1200E+02
     -7.726  0.0000E+00  0.1200E+02
     -7.574  0.0000E+00  0.1200E+02
     -7.421  0.0000E+00  0.1200E+02
     -7.268  0.0000E+00  0.1200E+02
     -7.116  0.0000E+00  0.1200E+02
     -6.963  0.0000E+00  0.1200E+02
     -6.811  0.0000E+00  0.1200E+02
     -6.658  0.0000E+00  0.1200E+02
     -6.505  0.0000E+00  0.1200E+02
     -6.353  0.0000E+00  0.1200E+02
     -6.200  0.0000E+00  0.1200E+02
     -6.047  0.0000E+00  0.1200E+02
     -5.895  0.0000E+00  0.1200E+02
     -5.742  0.0000E+00  0.1200E+02
     -5.590  0.0000E+00  0.1200E+02
     -5.437  0.0000E+00  0.1200E+02
     -5.284  0.0000E+00  0.1200E+02
     -5.132  0.0000E+00  0.1200E+02
     -4.979  0.0000E+00  0.1200E+02
     -4.826  0.0000E+00  0.1200E+02
     -4.674  0.0000E+00  0.1200E+02
     -4.521  0.0000E+00  0.1200E+02
     -4.369  0.0000E+00  0.1200E+02
     -4.216  0.0000E+00  0.1200E+02
     -4.063  0.0000E+00  0.1200E+02
     -3.911  0.0000E+00  0.1200E+02
     -3.758  0.0000E+00  0.1200E+02
     -3.605  0.0000E+00  0.1200E+02
     -3.453  0.0000E+00  0.1200E+02
     -3.300  0.0000E+00  0.1200E+02
     -3.148  0.0000E+00  0.1200E+02
     -2.995  0.0000E+00  0.1200E+02
     -2.842 -0.1902E-38  0.1200E+02
     -2.690 -0.4395E-27  0.1200E+02
     -2.537 -0.9340E-18  0.1200E+02
     -2.384 -0.1754E-10  0.1200E+02
     -2.232 -0.3082E-05  0.1200E+02
     -2.079 -0.4454E-02  0.1200E+02
     -1.927  0.6781E-01  0.1201E+02
     -1.774  0.6632E+00  0.1211E+02
     -1.621  0.2429E+01  0.1248E+02
     -1.469  0.4303E+01  0.1314E+02
     -1.316  0.2917E+01  0.1358E+02
     -1.164  0.1145E+01  0.1376E+02
     -1.011  0.1079E+01  0.1392E+02
     -0.858  0.1742E+01  0.1419E+02
     -0.706  0.1627E+01  0.1444E+02
     -0.553  0.1687E+01  0.1469E+02
     -0.400  0.3127E+01  0.1517E+02
     -0.248  0.3287E+01  0.1567E+02
     -0.095  0.3594E+01  0.1622E+02
      0.057  0.4447E+01  0.1690E+02
      0.210  0.3730E+01  0.1747E+02
      0.363  0.2527E+01  0.1786E+02
      0.515  0.9243E+00  0.1800E+02
      0.668  0.2430E-01  0.1800E+02
      0.821 -0.3148E-02  0.1800E+02
      0.973 -0.1456E-05  0.1800E+02
      1.126 -0.6711E-11  0.1800E+02
      1.278  0.0000E+00  0.1800E+02
      1.431  0.0000E+00  0.1800E+02
      1.584  0.0000E+00  0.1800E+02
      1.736  0.0000E+00  0.1800E+02
      1.889 -0.5119E-33  0.1800E+02
      2.042 -0.9530E-23  0.1800E+02
      2.194 -0.1551E-14  0.1800E+02
      2.347 -0.2217E-08  0.1800E+02
      2.499 -0.2383E-04  0.1800E+02
      2.652 -0.3032E-03  0.1800E+02
      2.805  0.1672E-01  0.1800E+02
      2.957  0.1677E-02  0.1800E+02
      3.110 -0.1399E-03  0.1800E+02
      3.263 -0.5020E-02  0.1800E+02
      3.415  0.1062E+00  0.1802E+02
      3.568  0.6503E-01  0.1803E+02
      3.720  0.8915E-01  0.1804E+02
      3.873 -0.3751E-02  0.1804E+02
      4.026 -0.6016E-02  0.1804E+02
      4.178  0.1921E+00  0.1807E+02
      4.331  0.2968E-01  0.1807E+02
      4.484  0.2917E+00  0.1812E+02
      4.636  0.2984E+00  0.1816E+02
      4.789 -0.1664E-01  0.1816E+02
      4.941  0.1174E-01  0.1816E+02
      5.094  0.5891E+00  0.1825E+02
      5.247  0.3827E+00  0.1831E+02
      5.399  0.6556E+00  0.1841E+02
      5.552  0.8420E+00  0.1854E+02
      5.704  0.9505E+00  0.1869E+02
      5.857  0.6942E+00  0.1879E+02
      6.010  0.7362E+00  0.1890E+02
      6.162  0.1912E+01  0.1920E+02
      6.315  0.1114E+01  0.1937E+02
      6.468  0.1353E+01  0.1957E+02
      6.620  0.1079E+01  0.1974E+02
      6.773  0.2929E-01  0.1974E+02
      6.925  0.1051E+01  0.1990E+02
      7.078  0.5739E+00  0.1999E+02
      7.231  0.9737E+00  0.2014E+02
      7.383  0.3951E+00  0.2020E+02
      7.536  0.2529E+00  0.2024E+02
      7.689  0.9812E+00  0.2039E+02
      7.841  0.1417E+01  0.2060E+02
      7.994  0.2747E+01  0.2102E+02
      8.146  0.2217E+01  0.2136E+02
      8.299  0.7859E+00  0.2148E+02
      8.452  0.2661E+01  0.2189E+02
      8.604  0.3801E+01  0.2247E+02
      8.757  0.1268E+01  0.2266E+02
      8.910  0.3180E+00  0.2271E+02
      9.062  0.2901E+00  0.2275E+02
      9.215  0.4992E+00  0.2283E+02
      9.367  0.7705E+00  0.2295E+02
      9.520  0.3445E+01  0.2347E+02
      9.673  0.2921E+01  0.2392E+02
      9.825  0.1870E+01  0.2420E+02
      9.978  0.1896E+01  0.2449E+02
     10.131  0.2662E+01  0.2490E+02
     10.283  0.1586E+01  0.2514E+02
     10.436  0.4491E+00  0.2521E+02
     10.588  0.8563E+00  0.2534E+02
     10.741  0.6145E+00  0.2543E+02
     10.894  0.3418E+00  0.2549E+02
     11.046  0.6577E+00  0.2559E+02
     11.199  0.4415E+00  0.2565E+02
     11.352  0.7605E+00  0.2577E+02
     11.504  0.6374E+00  0.2587E+02
     11.657  0.6393E+00  0.2596E+02
     11.809  0.1288E+00  0.2598E+02
     11.962 -0.7104E-02  0.2598E+02
     12.115 -0.6925E-05  0.2598E+02
     12.267 -0.6572E-03  0.2598E+02
     12.420  0.1157E-01  0.2599E+02
     12.572  0.9930E-01  0.2600E+02
     12.725 -0.2233E-02  0.2600E+02
     12.878 -0.1263E-03  0.2600E+02
     13.030 -0.1071E-07  0.2600E+02
     13.183 -0.6873E-14  0.2600E+02
     13.336  0.0000E+00  0.2600E+02
     13.488  0.0000E+00  0.2600E+02
     13.641  0.0000E+00  0.2600E+02
     13.793  0.0000E+00  0.2600E+02
     13.946  0.0000E+00  0.2600E+02
     14.099  0.0000E+00  0.2600E+02
     14.251  0.0000E+00  0.2600E+02
     14.404  0.0000E+00  0.2600E+02
     14.557  0.0000E+00  0.2600E+02
