    1    1    1    1
  0.6594484E+02  0.4534874E-09  0.4534874E-09  0.4534874E-09  0.1000000E-15
  1.000000000000000E-004
  CAR 
 Og_FCC                                  
     18     35     13
 
  0.0000000E+00  0.0000000E+00  0.0000000E+00  0.1371742E-02
    1      -29.147403   1.000000
    2      -29.147403   1.000000
    3      -29.147403   1.000000
    4      -29.145538   1.000000
    5      -29.145538   1.000000
    6      -22.139981   1.000000
    7        0.491138   0.792376
    8        0.491138   0.792376
    9        0.491138   0.792376
   10        2.746377  -0.000000
   11        9.616208   0.000000
   12        9.616208   0.000000
   13        9.616678   0.000000
 
  0.1111111E+00 -0.2674530E-16 -0.2775558E-16  0.1097394E-01
    1      -29.147235   1.000000
    2      -29.147116   1.000000
    3      -29.147116   1.000000
    4      -29.145449   1.000000
    5      -29.145449   1.000000
    6      -22.133301   1.000000
    7       -0.049970   1.000000
    8        0.452464   0.978908
    9        0.452464   0.978908
   10        3.389353   0.000000
   11        8.907007   0.000000
   12        9.734284   0.000000
   13        9.734285   0.000000
 
  0.2222222E+00 -0.3961282E-16 -0.5551115E-16  0.1097394E-01
    1      -29.146839   1.000000
    2      -29.146808   1.000000
    3      -29.146808   1.000000
    4      -29.144877   1.000000
    5      -29.144877   1.000000
    6      -22.116655   1.000000
    7       -0.896156   1.000000
    8        0.357629   1.018213
    9        0.357629   1.018213
   10        4.400349   0.000000
   11        8.635414   0.000000
   12        9.765242   0.000000
   13        9.765242   0.000000
 
  0.3333333E+00 -0.5248034E-16 -0.5551115E-16  0.1097394E-01
    1      -29.146886   1.000000
    2      -29.146886   1.000000
    3      -29.146386   1.000000
    4      -29.143793   1.000000
    5      -29.143793   1.000000
    6      -22.097575   1.000000
    7       -1.554240   1.000000
    8        0.254692   1.000376
    9        0.254692   1.000376
   10        4.979390   0.000000
   11        9.241262   0.000000
   12        9.454448   0.000000
   13        9.454451   0.000000
 
  0.4444444E+00 -0.7922564E-16 -0.1110223E-15  0.1097394E-01
    1      -29.147011   1.000000
    2      -29.147011   1.000000
    3      -29.146110   1.000000
    4      -29.142991   1.000000
    5      -29.142991   1.000000
    6      -22.085028   1.000000
    7       -1.903232   1.000000
    8        0.190041   1.000009
    9        0.190041   1.000009
   10        5.121194   0.000000
   11        9.229469   0.000000
   12        9.229469   0.000000
   13        9.586914   0.000000
 
  0.1111111E+00  0.1111111E+00 -0.4163336E-16  0.8230453E-02
    1      -29.147573   1.000000
    2      -29.146783   1.000000
    3      -29.146783   1.000000
    4      -29.145681   1.000000
    5      -29.145258   1.000000
    6      -22.131116   1.000000
    7       -0.079927   1.000000
    8        0.369349   1.023505
    9        0.369349   1.023505
   10        3.608200   0.000000
   11        8.626975   0.000000
   12        9.894704   0.000000
   13        9.897981   0.000000
 
  0.2222222E+00  0.1111111E+00 -0.4163336E-16  0.3292181E-01
    1      -29.147482   1.000000
    2      -29.146330   1.000000
    3      -29.146303   1.000000
    4      -29.145515   1.000000
    5      -29.144729   1.000000
    6      -22.117855   1.000000
    7       -0.714108   1.000000
    8        0.244270   1.000221
    9        0.278845   1.001181
   10        4.502382   0.000000
   11        8.246601   0.000000
   12        9.380597   0.000000
   13       10.113041   0.000000
 
  0.3333333E+00  0.1111111E+00 -0.8326673E-16  0.3292181E-01
    1      -29.147148   1.000000
    2      -29.146304   1.000000
    3      -29.146264   1.000000
    4      -29.144568   1.000000
    5      -29.143680   1.000000
    6      -22.099542   1.000000
    7       -1.355591   1.000000
    8        0.137687   1.000000
    9        0.139802   1.000000
   10        5.265072   0.000000
   11        8.534457   0.000000
   12        8.749538   0.000000
   13        9.927489   0.000000
 
  0.4444444E+00  0.1111111E+00 -0.8326673E-16  0.3292181E-01
    1      -29.147067   1.000000
    2      -29.146470   1.000000
    3      -29.145966   1.000000
    4      -29.143641   1.000000
    5      -29.142935   1.000000
    6      -22.084824   1.000000
    7       -1.762971   1.000000
    8       -0.013062   1.000000
    9        0.094899   1.000000
   10        5.542336   0.000000
   11        8.378504   0.000000
   12        9.605315   0.000000
   13        9.664678   0.000000
 
 -0.4444444E+00  0.1111111E+00  0.8326673E-16  0.3292181E-01
    1      -29.147012   1.000000
    2      -29.146564   1.000000
    3      -29.145834   1.000000
    4      -29.143126   1.000000
    5      -29.142999   1.000000
    6      -22.080628   1.000000
    7       -1.865230   1.000000
    8       -0.108487   1.000000
    9        0.132497   1.000000
   10        5.587293   0.000000
   11        8.322570   0.000000
   12        9.434985   0.000000
   13       10.388166   0.000000
 
 -0.3333333E+00  0.1111111E+00  0.2775558E-16  0.3292181E-01
    1      -29.146861   1.000000
    2      -29.146507   1.000000
    3      -29.146104   1.000000
    4      -29.143890   1.000000
    5      -29.143260   1.000000
    6      -22.088999   1.000000
    7       -1.651565   1.000000
    8       -0.102179   1.000000
    9        0.235649   1.000139
   10        5.506155   0.000000
   11        8.564743   0.000000
   12        9.398781   0.000000
   13        9.497327   0.000000
 
 -0.2222222E+00  0.1111111E+00  0.4857226E-16  0.3292181E-01
    1      -29.146746   1.000000
    2      -29.146564   1.000000
    3      -29.146398   1.000000
    4      -29.145097   1.000000
    5      -29.144004   1.000000
    6      -22.105913   1.000000
    7       -1.162699   1.000000
    8        0.016946   1.000000
    9        0.360976   1.019684
   10        5.050582   0.000000
   11        8.516491   0.000000
   12        9.074855   0.000000
   13        9.797952   0.000000
 
 -0.1111111E+00  0.1111111E+00  0.3054804E-16  0.1646091E-01
    1      -29.147120   1.000000
    2      -29.146753   1.000000
    3      -29.146683   1.000000
    4      -29.145578   1.000000
    5      -29.144925   1.000000
    6      -22.123377   1.000000
    7       -0.527814   1.000000
    8        0.233535   1.000124
    9        0.448942   0.988646
   10        4.129250   0.000000
   11        8.514810   0.000000
   12        9.673968   0.000000
   13        9.890182   0.000000
 
  0.2222222E+00  0.2222222E+00  0.0000000E+00  0.8230453E-02
    1      -29.148006   1.000000
    2      -29.146082   1.000000
    3      -29.145260   1.000000
    4      -29.145260   1.000000
    5      -29.144595   1.000000
    6      -22.108963   1.000000
    7       -0.880111   1.000000
    8        0.083676   1.000000
    9        0.083676   1.000000
   10        5.087639   0.000000
   11        7.710679   0.000000
   12        8.912011   0.000000
   13       10.624997   0.000000
 
  0.3333333E+00  0.2222222E+00 -0.5551115E-16  0.3292181E-01
    1      -29.147951   1.000000
    2      -29.146270   1.000000
    3      -29.145033   1.000000
    4      -29.144369   1.000000
    5      -29.143643   1.000000
    6      -22.094080   1.000000
    7       -1.274699   1.000000
    8       -0.103963   1.000000
    9       -0.047370   1.000000
   10        5.728416   0.000000
   11        7.588815   0.000000
   12        8.528870   0.000000
   13       10.795459   0.000000
 
  0.4444444E+00  0.2222222E+00 -0.1387779E-15  0.3292181E-01
    1      -29.147536   1.000000
    2      -29.146024   1.000000
    3      -29.145207   1.000000
    4      -29.143854   1.000000
    5      -29.142854   1.000000
    6      -22.080140   1.000000
    7       -1.571327   1.000000
    8       -0.381610   1.000000
    9       -0.095304   1.000000
   10        6.122138   0.000000
   11        8.016139   0.000000
   12        8.446837   0.000000
   13       10.477872   0.000000
 
 -0.4444444E+00  0.2222222E+00  0.1110223E-15  0.3292181E-01
    1      -29.147253   1.000000
    2      -29.145368   1.000000
    3      -29.145294   1.000000
    4      -29.143812   1.000000
    5      -29.142940   1.000000
    6      -22.073726   1.000000
    7       -1.659269   1.000000
    8       -0.634521   1.000000
    9       -0.042321   1.000000
   10        6.324623   0.000000
   11        7.939860   0.000000
   12        9.606076   0.000000
   13       10.166294   0.000000
 
 -0.3333333E+00  0.2222222E+00  0.4163336E-16  0.3292181E-01
    1      -29.147008   1.000000
    2      -29.145410   1.000000
    3      -29.145285   1.000000
    4      -29.143881   1.000000
    5      -29.143612   1.000000
    6      -22.077868   1.000000
    7       -1.561765   1.000000
    8       -0.699812   1.000000
    9        0.091985   1.000000
   10        6.431031   0.000000
   11        7.955959   0.000000
   12        9.378821   0.000000
   13       10.008681   0.000000
 
 -0.2222222E+00  0.2222222E+00  0.3436159E-16  0.1646091E-01
    1      -29.146754   1.000000
    2      -29.146038   1.000000
    3      -29.145350   1.000000
    4      -29.145201   1.000000
    5      -29.143479   1.000000
    6      -22.090597   1.000000
    7       -1.384259   1.000000
    8       -0.452283   1.000000
    9        0.252261   1.000333
   10        6.007688   0.000000
   11        8.311954   0.000000
   12        8.550150   0.000000
   13        9.982345   0.000000
 
  0.3333333E+00  0.3333333E+00  0.0000000E+00  0.8230453E-02
    1      -29.148506   1.000000
    2      -29.146550   1.000000
    3      -29.143828   1.000000
    4      -29.143492   1.000000
    5      -29.143492   1.000000
    6      -22.083590   1.000000
    7       -1.442535   1.000000
    8       -0.209189   1.000000
    9       -0.209188   1.000000
   10        5.742453   0.000000
   11        7.093216   0.000000
   12        9.148291   0.000000
   13       11.594580   0.000000
 
  0.4444444E+00  0.3333333E+00 -0.1665335E-15  0.3292181E-01
    1      -29.148364   1.000000
    2      -29.146599   1.000000
    3      -29.143880   1.000000
    4      -29.143003   1.000000
    5      -29.142705   1.000000
    6      -22.073088   1.000000
    7       -1.593708   1.000000
    8       -0.443575   1.000000
    9       -0.281743   1.000000
   10        5.837065   0.000000
   11        7.159917   0.000000
   12        9.528883   0.000000
   13       11.631351   0.000000
 
 -0.4444444E+00  0.3333333E+00  0.1179612E-15  0.3292181E-01
    1      -29.147786   1.000000
    2      -29.146010   1.000000
    3      -29.144074   1.000000
    4      -29.143243   1.000000
    5      -29.142738   1.000000
    6      -22.067455   1.000000
    7       -1.536939   1.000000
    8       -0.857681   1.000000
    9       -0.238904   1.000000
   10        6.111547   0.000000
   11        7.868673   0.000000
   12        9.537957   0.000000
   13       11.229872   0.000000
 
 -0.3333333E+00  0.3333333E+00  0.3433054E-16  0.1646091E-01
    1      -29.147338   1.000000
    2      -29.144781   1.000000
    3      -29.144414   1.000000
    4      -29.144122   1.000000
    5      -29.143472   1.000000
    6      -22.069369   1.000000
    7       -1.285608   1.000000
    8       -1.217696   1.000000
    9       -0.095631   1.000000
   10        6.461460   0.000000
   11        8.403070   0.000000
   12        9.743802   0.000000
   13       10.095446   0.000000
 
  0.4444444E+00  0.4444444E+00  0.0000000E+00  0.8230453E-02
    1      -29.148846   1.000000
    2      -29.146886   1.000000
    3      -29.143333   1.000000
    4      -29.142365   1.000000
    5      -29.142365   1.000000
    6      -22.067042   1.000000
    7       -1.719332   1.000000
    8       -0.385609   1.000000
    9       -0.385609   1.000000
   10        5.503564   0.000000
   11        6.783546   0.000000
   12       11.022484   0.000000
   13       12.475367   0.000000
 
 -0.4444444E+00  0.4444444E+00  0.6872317E-16  0.1646091E-01
    1      -29.148528   1.000000
    2      -29.146754   1.000000
    3      -29.143418   1.000000
    4      -29.142465   1.000000
    5      -29.142364   1.000000
    6      -22.064812   1.000000
    7       -1.690470   1.000000
    8       -0.578121   1.000000
    9       -0.369515   1.000000
   10        5.667275   0.000000
   11        7.013928   0.000000
   12       11.375135   0.000000
   13       11.408152   0.000000
 
  0.3333333E+00  0.2222222E+00  0.1111111E+00  0.3292181E-01
    1      -29.147373   1.000000
    2      -29.146327   1.000000
    3      -29.145536   1.000000
    4      -29.145319   1.000000
    5      -29.143962   1.000000
    6      -22.103753   1.000000
    7       -1.101175   1.000000
    8       -0.080942   1.000000
    9        0.226947   1.000086
   10        5.338046   0.000000
   11        8.019247   0.000000
   12        8.693546   0.000000
   13       10.555504   0.000000
 
  0.4444444E+00  0.2222222E+00  0.1111111E+00  0.6584362E-01
    1      -29.146936   1.000000
    2      -29.146369   1.000000
    3      -29.145532   1.000000
    4      -29.144325   1.000000
    5      -29.143282   1.000000
    6      -22.087648   1.000000
    7       -1.473672   1.000000
    8       -0.344573   1.000000
    9        0.107450   1.000000
   10        6.046879   0.000000
   11        8.119304   0.000000
   12        8.426465   0.000000
   13       10.216038   0.000000
 
 -0.4444444E+00  0.2222222E+00  0.1111111E+00  0.6584362E-01
    1      -29.146884   1.000000
    2      -29.146215   1.000000
    3      -29.145243   1.000000
    4      -29.143762   1.000000
    5      -29.142998   1.000000
    6      -22.077085   1.000000
    7       -1.693502   1.000000
    8       -0.471245   1.000000
    9        0.002889   1.000000
   10        6.284257   0.000000
   11        7.802694   0.000000
   12        9.597900   0.000000
   13       10.031841   0.000000
 
  0.4444444E+00  0.3333333E+00  0.1111111E+00  0.3292181E-01
    1      -29.147804   1.000000
    2      -29.146397   1.000000
    3      -29.144728   1.000000
    4      -29.143534   1.000000
    5      -29.143161   1.000000
    6      -22.081364   1.000000
    7       -1.467352   1.000000
    8       -0.398489   1.000000
    9       -0.148478   1.000000
   10        6.151248   0.000000
   11        7.534898   0.000000
   12        8.468880   0.000000
   13       11.313326   0.000000
 
 -0.4444444E+00  0.3333333E+00  0.1111111E+00  0.6584362E-01
    1      -29.147230   1.000000
    2      -29.146094   1.000000
    3      -29.144779   1.000000
    4      -29.143500   1.000000
    5      -29.142797   1.000000
    6      -22.071592   1.000000
    7       -1.526384   1.000000
    8       -0.717700   1.000000
    9       -0.244192   1.000000
   10        6.540893   0.000000
   11        7.977268   0.000000
   12        8.447266   0.000000
   13       11.027527   0.000000
 
 -0.3333333E+00  0.3333333E+00  0.1111111E+00  0.6584362E-01
    1      -29.146913   1.000000
    2      -29.145474   1.000000
    3      -29.144524   1.000000
    4      -29.144346   1.000000
    5      -29.142883   1.000000
    6      -22.069372   1.000000
    7       -1.448004   1.000000
    8       -0.967991   1.000000
    9       -0.201731   1.000000
   10        6.861506   0.000000
   11        7.829289   0.000000
   12        9.439100   0.000000
   13       10.005445   0.000000
 
 -0.2222222E+00  0.3333333E+00  0.1111111E+00  0.3292181E-01
    1      -29.146664   1.000000
    2      -29.145979   1.000000
    3      -29.145068   1.000000
    4      -29.143605   1.000000
    5      -29.143601   1.000000
    6      -22.075703   1.000000
    7       -1.456681   1.000000
    8       -0.816552   1.000000
    9       -0.048256   1.000000
   10        6.939108   0.000000
   11        7.635557   0.000000
   12        8.632638   0.000000
   13       10.638158   0.000000
 
 -0.4444444E+00  0.4444444E+00  0.1111111E+00  0.3292181E-01
    1      -29.148086   1.000000
    2      -29.146592   1.000000
    3      -29.143765   1.000000
    4      -29.142954   1.000000
    5      -29.142364   1.000000
    6      -22.066724   1.000000
    7       -1.613899   1.000000
    8       -0.587857   1.000000
    9       -0.424058   1.000000
   10        5.978800   0.000000
   11        7.270139   0.000000
   12        9.856838   0.000000
   13       11.505835   0.000000
 
 -0.3333333E+00  0.4444444E+00  0.1111111E+00  0.3292181E-01
    1      -29.147349   1.000000
    2      -29.146025   1.000000
    3      -29.143933   1.000000
    4      -29.143885   1.000000
    5      -29.142388   1.000000
    6      -22.065238   1.000000
    7       -1.449480   1.000000
    8       -0.944389   1.000000
    9       -0.389016   1.000000
   10        6.426070   0.000000
   11        7.969809   0.000000
   12        9.464341   0.000000
   13       10.147759   0.000000
 
 -0.3333333E+00  0.4444444E+00  0.2222222E+00  0.3292181E-01
    1      -29.146177   1.000000
    2      -29.146127   1.000000
    3      -29.144973   1.000000
    4      -29.144039   1.000000
    5      -29.142380   1.000000
    6      -22.066003   1.000000
    7       -1.327696   1.000000
    8       -1.029831   1.000000
    9       -0.451564   1.000000
   10        7.169475   0.000000
   11        8.094255   0.000000
   12        8.531696   0.000000
   13        9.788750   0.000000
