 vasp.5.4.4.18Apr17-6-g9f103f2a35 (build Jul 09 2018 16:43:14) complex          
  
 executed on             LinuxIFC date 2018.11.24  21:28:57
 running on  128 total cores
 distrk:  each k-point on   16 cores,    8 groups
 distr:  one band on NCORES_PER_BAND=   4 cores,    4 groups


--------------------------------------------------------------------------------------------------------


 INCAR:
 POTCAR:    PAW Og, JanMewes Oct 18               

 ----------------------------------------------------------------------------- 
|                                                                             |
|           W    W    AA    RRRRR   N    N  II  N    N   GGGG   !!!           |
|           W    W   A  A   R    R  NN   N  II  NN   N  G    G  !!!           |
|           W    W  A    A  R    R  N N  N  II  N N  N  G       !!!           |
|           W WW W  AAAAAA  RRRRR   N  N N  II  N  N N  G  GGG   !            |
|           WW  WW  A    A  R   R   N   NN  II  N   NN  G    G                |
|           W    W  A    A  R    R  N    N  II  N    N   GGGG   !!!           |
|                                                                             |
|      For optimal performance we recommend to set                            |
|        NCORE= 4 - approx SQRT( number of cores)                             |
|      NCORE specifies how many cores store one orbital (NPAR=cpu/NCORE).     |
|      This setting can  greatly improve the performance of VASP for DFT.     |
|      The default,   NCORE=1            might be grossly inefficient         |
|      on modern multi-core architectures or massively parallel machines.     |
|      Do your own testing !!!!                                               |
|      Unfortunately you need to use the default for GW and RPA calculations. |
|      (for HF NCORE is supported but not extensively tested yet)             |
|                                                                             |
 ----------------------------------------------------------------------------- 


 ----------------------------------------------------------------------------- 
|                                                                             |
|           W    W    AA    RRRRR   N    N  II  N    N   GGGG   !!!           |
|           W    W   A  A   R    R  NN   N  II  NN   N  G    G  !!!           |
|           W    W  A    A  R    R  N N  N  II  N N  N  G       !!!           |
|           W WW W  AAAAAA  RRRRR   N  N N  II  N  N N  G  GGG   !            |
|           WW  WW  A    A  R   R   N   NN  II  N   NN  G    G                |
|           W    W  A    A  R    R  N    N  II  N    N   GGGG   !!!           |
|                                                                             |
|      You have enabled k-point parallelism (KPAR>1).                         |
|      This developmental code was originally  written by Paul Kent at ORNL,  |
|      and carefully double checked in Vienna.                                |
|      GW as well as linear response parallelism added by Martijn Marsman     |
|      and Georg Kresse.                                                      |
|      Carefully verify results versus KPAR=1.                                |
|      Report problems to Paul Kent and Vienna.                               |
|                                                                             |
 ----------------------------------------------------------------------------- 

 POTCAR:    PAW Og, JanMewes Oct 18               
   VRHFIN =Og : 10d 2s 6p, PE                                                   
   LEXCH  = PE                                                                  
   EATOM  =  2640.5573 eV,  194.0755 Ry                                         
                                                                                
   TITEL  = PAW Og, JanMewes Oct 18                                             
   LULTRA =        F    use ultrasoft PP ?                                      
   IUNSCR =        1    unscreen: 0-lin 1-nonlin 2-no                           
   RPACOR =    1.700    partial core radius                                     
   POMASS =    0.010; ZVAL   =   18.000    mass and valenz                      
   RCORE  =    2.600    outmost cutoff radius                                   
   RWIGS  =    3.500; RWIGS  =    1.852    wigner-seitz radius (au A)           
   ENMAX  =  339.336; ENMIN  =  254.502 eV                                      
   ICORE  =        3    local potential                                         
   LCOR   =        T    correct aug charges                                     
   LPAW   =        T    paw PP                                                  
   EAUG   =  361.025                                                            
   DEXC   =   -0.000                                                            
   RAUG   =    1.300    factor for augmentation sphere                          
   RDEP   =    2.775    radius for radial grids                                 
   RDEPT  =    2.135    core radius for aug-charge                              
   QCUT   =   -4.994; QGAM   =    9.988    optimization parameters              
                                                                                
   Atomic configuration                                                         
   22 entries                                                                   
     n  l   j            E        occ.                                          
     1  0  0.50   -225781.4217   2.0000                                         
     2  0  0.50    -47342.3774   2.0000                                         
     2  1  1.50    -33463.4058   6.0000                                         
     3  0  0.50    -12845.8060   2.0000                                         
     3  1  1.50     -9184.5562   6.0000                                         
     3  2  2.50     -7322.6146  10.0000                                         
     4  0  0.50     -3781.9433   2.0000                                         
     4  1  1.50     -2605.9204   6.0000                                         
     4  2  2.50     -1899.4626  10.0000                                         
     4  3  3.50     -1273.6890  14.0000                                         
     5  0  0.50     -1046.0643   2.0000                                         
     5  1  1.50      -650.9265   6.0000                                         
     5  2  2.50      -388.1490  10.0000                                         
     5  3  3.50      -152.1121  14.0000                                         
     6  0  0.50      -224.6639   2.0000                                         
     6  1  0.50      -184.3267   2.0000                                         
     6  1  1.50       -97.8537   4.0000                                         
     6  2  2.50       -35.6667  10.0000                                         
     7  0  0.50       -28.5889   2.0000                                         
     8  0  0.50        -1.3606   0.0000                                         
     7  1  1.50        -7.0827   6.0000                                         
     6  3  3.50        -0.0136   0.0000                                         
   Description                                                                  
     l       E           TYP  RCUT    TYP  RCUT                                 
     2    -35.6666962     23  2.100                                             
     2     34.0145650     23  2.300                                             
     0    -28.5889381     23  1.600                                             
     0     40.8174780     23  2.200                                             
     1     -7.0826811     23  2.200                                             
     1    148.3035034     23  1.900                                             
     3      6.8029130      7  2.600                                             
  local pseudopotential read in
  partial core-charges read in
  partial kinetic energy density read in
  kinetic energy density of atom read in
  atomic valenz-charges read in
  non local Contribution for L=           2  read in
    real space projection operators read in
  non local Contribution for L=           2  read in
    real space projection operators read in
  non local Contribution for L=           0  read in
    real space projection operators read in
  non local Contribution for L=           0  read in
    real space projection operators read in
  non local Contribution for L=           1  read in
    real space projection operators read in
  non local Contribution for L=           1  read in
    real space projection operators read in
    PAW grid and wavefunctions read in
 
   number of l-projection  operators is LMAX  =           6
   number of lm-projection operators is LMMAX =          18
 
  PAW Og, JanMewes Oct 18               :
 energy of atom  1       EATOM=-2640.5573
 kinetic energy error for atom=    0.6524 (will be added to EATOM!!)
 
 
 POSCAR: Og_FCC                                  
  positions in direct lattice
  velocities in cartesian coordinates
 exchange correlation table for  LEXCH =        8
   RHO(1)=    0.500       N(1)  =     2000
   RHO(2)=  100.500       N(2)  =     4000
 


--------------------------------------------------------------------------------------------------------


 ion  position               nearest neighbor table
   1  0.000  0.000  0.000-
 

IMPORTANT INFORMATION: All symmetrisations will be switched off!
NOSYMM: (Re-)initialisation of all symmetry stuff for point group C_1.

 
 
 KPOINTS: k-points                                

Automatic generation of k-mesh.
Space group operators:
 irot       det(A)        alpha          n_x          n_y          n_z        tau_x        tau_y        tau_z
    1     1.000000     0.000000     1.000000     0.000000     0.000000     0.000000     0.000000     0.000000
 
 Subroutine IBZKPT returns following result:
 ===========================================
 
 Found    343 irreducible k-points:
 
 Following reciprocal coordinates:
            Coordinates               Weight
  0.000000  0.000000  0.000000      1.000000
  0.142857  0.000000  0.000000      1.000000
  0.285714  0.000000  0.000000      1.000000
  0.428571  0.000000  0.000000      1.000000
 -0.428571 -0.000000 -0.000000      1.000000
 -0.285714 -0.000000 -0.000000      1.000000
 -0.142857 -0.000000 -0.000000      1.000000
  0.000000  0.142857  0.000000      1.000000
  0.142857  0.142857  0.000000      1.000000
  0.285714  0.142857  0.000000      1.000000
  0.428571  0.142857  0.000000      1.000000
 -0.428571  0.142857 -0.000000      1.000000
 -0.285714  0.142857 -0.000000      1.000000
 -0.142857  0.142857 -0.000000      1.000000
  0.000000  0.285714 -0.000000      1.000000
  0.142857  0.285714  0.000000      1.000000
  0.285714  0.285714  0.000000      1.000000
  0.428571  0.285714  0.000000      1.000000
 -0.428571  0.285714 -0.000000      1.000000
 -0.285714  0.285714 -0.000000      1.000000
 -0.142857  0.285714 -0.000000      1.000000
  0.000000  0.428571 -0.000000      1.000000
  0.142857  0.428571  0.000000      1.000000
  0.285714  0.428571  0.000000      1.000000
  0.428571  0.428571  0.000000      1.000000
 -0.428571  0.428571 -0.000000      1.000000
 -0.285714  0.428571 -0.000000      1.000000
 -0.142857  0.428571 -0.000000      1.000000
 -0.000000 -0.428571  0.000000      1.000000
  0.142857 -0.428571  0.000000      1.000000
  0.285714 -0.428571  0.000000      1.000000
  0.428571 -0.428571  0.000000      1.000000
 -0.428571 -0.428571  0.000000      1.000000
 -0.285714 -0.428571 -0.000000      1.000000
 -0.142857 -0.428571  0.000000      1.000000
 -0.000000 -0.285714  0.000000      1.000000
  0.142857 -0.285714  0.000000      1.000000
  0.285714 -0.285714  0.000000      1.000000
  0.428571 -0.285714  0.000000      1.000000
 -0.428571 -0.285714 -0.000000      1.000000
 -0.285714 -0.285714 -0.000000      1.000000
 -0.142857 -0.285714 -0.000000      1.000000
 -0.000000 -0.142857 -0.000000      1.000000
  0.142857 -0.142857  0.000000      1.000000
  0.285714 -0.142857  0.000000      1.000000
  0.428571 -0.142857  0.000000      1.000000
 -0.428571 -0.142857 -0.000000      1.000000
 -0.285714 -0.142857 -0.000000      1.000000
 -0.142857 -0.142857 -0.000000      1.000000
 -0.000000  0.000000  0.142857      1.000000
  0.142857 -0.000000  0.142857      1.000000
  0.285714 -0.000000  0.142857      1.000000
  0.428571 -0.000000  0.142857      1.000000
 -0.428571 -0.000000  0.142857      1.000000
 -0.285714 -0.000000  0.142857      1.000000
 -0.142857 -0.000000  0.142857      1.000000
 -0.000000  0.142857  0.142857      1.000000
  0.142857  0.142857  0.142857      1.000000
  0.285714  0.142857  0.142857      1.000000
  0.428571  0.142857  0.142857      1.000000
 -0.428571  0.142857  0.142857      1.000000
 -0.285714  0.142857  0.142857      1.000000
 -0.142857  0.142857  0.142857      1.000000
 -0.000000  0.285714  0.142857      1.000000
  0.142857  0.285714  0.142857      1.000000
  0.285714  0.285714  0.142857      1.000000
  0.428571  0.285714  0.142857      1.000000
 -0.428571  0.285714  0.142857      1.000000
 -0.285714  0.285714  0.142857      1.000000
 -0.142857  0.285714  0.142857      1.000000
 -0.000000  0.428571  0.142857      1.000000
  0.142857  0.428571  0.142857      1.000000
  0.285714  0.428571  0.142857      1.000000
  0.428571  0.428571  0.142857      1.000000
 -0.428571  0.428571  0.142857      1.000000
 -0.285714  0.428571  0.142857      1.000000
 -0.142857  0.428571  0.142857      1.000000
 -0.000000 -0.428571  0.142857      1.000000
  0.142857 -0.428571  0.142857      1.000000
  0.285714 -0.428571  0.142857      1.000000
  0.428571 -0.428571  0.142857      1.000000
 -0.428571 -0.428571  0.142857      1.000000
 -0.285714 -0.428571  0.142857      1.000000
 -0.142857 -0.428571  0.142857      1.000000
 -0.000000 -0.285714  0.142857      1.000000
  0.142857 -0.285714  0.142857      1.000000
  0.285714 -0.285714  0.142857      1.000000
  0.428571 -0.285714  0.142857      1.000000
 -0.428571 -0.285714  0.142857      1.000000
 -0.285714 -0.285714  0.142857      1.000000
 -0.142857 -0.285714  0.142857      1.000000
  0.000000 -0.142857  0.142857      1.000000
  0.142857 -0.142857  0.142857      1.000000
  0.285714 -0.142857  0.142857      1.000000
  0.428571 -0.142857  0.142857      1.000000
 -0.428571 -0.142857  0.142857      1.000000
 -0.285714 -0.142857  0.142857      1.000000
 -0.142857 -0.142857  0.142857      1.000000
 -0.000000  0.000000  0.285714      1.000000
  0.142857  0.000000  0.285714      1.000000
  0.285714 -0.000000  0.285714      1.000000
  0.428571 -0.000000  0.285714      1.000000
 -0.428571 -0.000000  0.285714      1.000000
 -0.285714 -0.000000  0.285714      1.000000
 -0.142857 -0.000000  0.285714      1.000000
 -0.000000  0.142857  0.285714      1.000000
  0.142857  0.142857  0.285714      1.000000
  0.285714  0.142857  0.285714      1.000000
  0.428571  0.142857  0.285714      1.000000
 -0.428571  0.142857  0.285714      1.000000
 -0.285714  0.142857  0.285714      1.000000
 -0.142857  0.142857  0.285714      1.000000
 -0.000000  0.285714  0.285714      1.000000
  0.142857  0.285714  0.285714      1.000000
  0.285714  0.285714  0.285714      1.000000
  0.428571  0.285714  0.285714      1.000000
 -0.428571  0.285714  0.285714      1.000000
 -0.285714  0.285714  0.285714      1.000000
 -0.142857  0.285714  0.285714      1.000000
 -0.000000  0.428571  0.285714      1.000000
  0.142857  0.428571  0.285714      1.000000
  0.285714  0.428571  0.285714      1.000000
  0.428571  0.428571  0.285714      1.000000
 -0.428571  0.428571  0.285714      1.000000
 -0.285714  0.428571  0.285714      1.000000
 -0.142857  0.428571  0.285714      1.000000
 -0.000000 -0.428571  0.285714      1.000000
  0.142857 -0.428571  0.285714      1.000000
  0.285714 -0.428571  0.285714      1.000000
  0.428571 -0.428571  0.285714      1.000000
 -0.428571 -0.428571  0.285714      1.000000
 -0.285714 -0.428571  0.285714      1.000000
 -0.142857 -0.428571  0.285714      1.000000
  0.000000 -0.285714  0.285714      1.000000
  0.142857 -0.285714  0.285714      1.000000
  0.285714 -0.285714  0.285714      1.000000
  0.428571 -0.285714  0.285714      1.000000
 -0.428571 -0.285714  0.285714      1.000000
 -0.285714 -0.285714  0.285714      1.000000
 -0.142857 -0.285714  0.285714      1.000000
 -0.000000 -0.142857  0.285714      1.000000
  0.142857 -0.142857  0.285714      1.000000
  0.285714 -0.142857  0.285714      1.000000
  0.428571 -0.142857  0.285714      1.000000
 -0.428571 -0.142857  0.285714      1.000000
 -0.285714 -0.142857  0.285714      1.000000
 -0.142857 -0.142857  0.285714      1.000000
 -0.000000 -0.000000  0.428571      1.000000
  0.142857  0.000000  0.428571      1.000000
  0.285714  0.000000  0.428571      1.000000
  0.428571  0.000000  0.428571      1.000000
 -0.428571  0.000000  0.428571      1.000000
 -0.285714  0.000000  0.428571      1.000000
 -0.142857 -0.000000  0.428571      1.000000
 -0.000000  0.142857  0.428571      1.000000
  0.142857  0.142857  0.428571      1.000000
  0.285714  0.142857  0.428571      1.000000
  0.428571  0.142857  0.428571      1.000000
 -0.428571  0.142857  0.428571      1.000000
 -0.285714  0.142857  0.428571      1.000000
 -0.142857  0.142857  0.428571      1.000000
 -0.000000  0.285714  0.428571      1.000000
  0.142857  0.285714  0.428571      1.000000
  0.285714  0.285714  0.428571      1.000000
  0.428571  0.285714  0.428571      1.000000
 -0.428571  0.285714  0.428571      1.000000
 -0.285714  0.285714  0.428571      1.000000
 -0.142857  0.285714  0.428571      1.000000
 -0.000000  0.428571  0.428571      1.000000
  0.142857  0.428571  0.428571      1.000000
  0.285714  0.428571  0.428571      1.000000
  0.428571  0.428571  0.428571      1.000000
 -0.428571  0.428571  0.428571      1.000000
 -0.285714  0.428571  0.428571      1.000000
 -0.142857  0.428571  0.428571      1.000000
  0.000000 -0.428571  0.428571      1.000000
  0.142857 -0.428571  0.428571      1.000000
  0.285714 -0.428571  0.428571      1.000000
  0.428571 -0.428571  0.428571      1.000000
 -0.428571 -0.428571  0.428571      1.000000
 -0.285714 -0.428571  0.428571      1.000000
 -0.142857 -0.428571  0.428571      1.000000
  0.000000 -0.285714  0.428571      1.000000
  0.142857 -0.285714  0.428571      1.000000
  0.285714 -0.285714  0.428571      1.000000
  0.428571 -0.285714  0.428571      1.000000
 -0.428571 -0.285714  0.428571      1.000000
 -0.285714 -0.285714  0.428571      1.000000
 -0.142857 -0.285714  0.428571      1.000000
 -0.000000 -0.142857  0.428571      1.000000
  0.142857 -0.142857  0.428571      1.000000
  0.285714 -0.142857  0.428571      1.000000
  0.428571 -0.142857  0.428571      1.000000
 -0.428571 -0.142857  0.428571      1.000000
 -0.285714 -0.142857  0.428571      1.000000
 -0.142857 -0.142857  0.428571      1.000000
  0.000000  0.000000 -0.428571      1.000000
  0.142857 -0.000000 -0.428571      1.000000
  0.285714 -0.000000 -0.428571      1.000000
  0.428571 -0.000000 -0.428571      1.000000
 -0.428571 -0.000000 -0.428571      1.000000
 -0.285714 -0.000000 -0.428571      1.000000
 -0.142857 -0.000000 -0.428571      1.000000
  0.000000  0.142857 -0.428571      1.000000
  0.142857  0.142857 -0.428571      1.000000
  0.285714  0.142857 -0.428571      1.000000
  0.428571  0.142857 -0.428571      1.000000
 -0.428571  0.142857 -0.428571      1.000000
 -0.285714  0.142857 -0.428571      1.000000
 -0.142857  0.142857 -0.428571      1.000000
  0.000000  0.285714 -0.428571      1.000000
  0.142857  0.285714 -0.428571      1.000000
  0.285714  0.285714 -0.428571      1.000000
  0.428571  0.285714 -0.428571      1.000000
 -0.428571  0.285714 -0.428571      1.000000
 -0.285714  0.285714 -0.428571      1.000000
 -0.142857  0.285714 -0.428571      1.000000
 -0.000000  0.428571 -0.428571      1.000000
  0.142857  0.428571 -0.428571      1.000000
  0.285714  0.428571 -0.428571      1.000000
  0.428571  0.428571 -0.428571      1.000000
 -0.428571  0.428571 -0.428571      1.000000
 -0.285714  0.428571 -0.428571      1.000000
 -0.142857  0.428571 -0.428571      1.000000
  0.000000 -0.428571 -0.428571      1.000000
  0.142857 -0.428571 -0.428571      1.000000
  0.285714 -0.428571 -0.428571      1.000000
  0.428571 -0.428571 -0.428571      1.000000
 -0.428571 -0.428571 -0.428571      1.000000
 -0.285714 -0.428571 -0.428571      1.000000
 -0.142857 -0.428571 -0.428571      1.000000
  0.000000 -0.285714 -0.428571      1.000000
  0.142857 -0.285714 -0.428571      1.000000
  0.285714 -0.285714 -0.428571      1.000000
  0.428571 -0.285714 -0.428571      1.000000
 -0.428571 -0.285714 -0.428571      1.000000
 -0.285714 -0.285714 -0.428571      1.000000
 -0.142857 -0.285714 -0.428571      1.000000
  0.000000 -0.142857 -0.428571      1.000000
  0.142857 -0.142857 -0.428571      1.000000
  0.285714 -0.142857 -0.428571      1.000000
  0.428571 -0.142857 -0.428571      1.000000
 -0.428571 -0.142857 -0.428571      1.000000
 -0.285714 -0.142857 -0.428571      1.000000
 -0.142857 -0.142857 -0.428571      1.000000
  0.000000 -0.000000 -0.285714      1.000000
  0.142857 -0.000000 -0.285714      1.000000
  0.285714  0.000000 -0.285714      1.000000
  0.428571  0.000000 -0.285714      1.000000
 -0.428571  0.000000 -0.285714      1.000000
 -0.285714  0.000000 -0.285714      1.000000
 -0.142857 -0.000000 -0.285714      1.000000
  0.000000  0.142857 -0.285714      1.000000
  0.142857  0.142857 -0.285714      1.000000
  0.285714  0.142857 -0.285714      1.000000
  0.428571  0.142857 -0.285714      1.000000
 -0.428571  0.142857 -0.285714      1.000000
 -0.285714  0.142857 -0.285714      1.000000
 -0.142857  0.142857 -0.285714      1.000000
  0.000000  0.285714 -0.285714      1.000000
  0.142857  0.285714 -0.285714      1.000000
  0.285714  0.285714 -0.285714      1.000000
  0.428571  0.285714 -0.285714      1.000000
 -0.428571  0.285714 -0.285714      1.000000
 -0.285714  0.285714 -0.285714      1.000000
 -0.142857  0.285714 -0.285714      1.000000
  0.000000  0.428571 -0.285714      1.000000
  0.142857  0.428571 -0.285714      1.000000
  0.285714  0.428571 -0.285714      1.000000
  0.428571  0.428571 -0.285714      1.000000
 -0.428571  0.428571 -0.285714      1.000000
 -0.285714  0.428571 -0.285714      1.000000
 -0.142857  0.428571 -0.285714      1.000000
  0.000000 -0.428571 -0.285714      1.000000
  0.142857 -0.428571 -0.285714      1.000000
  0.285714 -0.428571 -0.285714      1.000000
  0.428571 -0.428571 -0.285714      1.000000
 -0.428571 -0.428571 -0.285714      1.000000
 -0.285714 -0.428571 -0.285714      1.000000
 -0.142857 -0.428571 -0.285714      1.000000
  0.000000 -0.285714 -0.285714      1.000000
  0.142857 -0.285714 -0.285714      1.000000
  0.285714 -0.285714 -0.285714      1.000000
  0.428571 -0.285714 -0.285714      1.000000
 -0.428571 -0.285714 -0.285714      1.000000
 -0.285714 -0.285714 -0.285714      1.000000
 -0.142857 -0.285714 -0.285714      1.000000
  0.000000 -0.142857 -0.285714      1.000000
  0.142857 -0.142857 -0.285714      1.000000
  0.285714 -0.142857 -0.285714      1.000000
  0.428571 -0.142857 -0.285714      1.000000
 -0.428571 -0.142857 -0.285714      1.000000
 -0.285714 -0.142857 -0.285714      1.000000
 -0.142857 -0.142857 -0.285714      1.000000
  0.000000 -0.000000 -0.142857      1.000000
  0.142857  0.000000 -0.142857      1.000000
  0.285714  0.000000 -0.142857      1.000000
  0.428571  0.000000 -0.142857      1.000000
 -0.428571 -0.000000 -0.142857      1.000000
 -0.285714  0.000000 -0.142857      1.000000
 -0.142857  0.000000 -0.142857      1.000000
  0.000000  0.142857 -0.142857      1.000000
  0.142857  0.142857 -0.142857      1.000000
  0.285714  0.142857 -0.142857      1.000000
  0.428571  0.142857 -0.142857      1.000000
 -0.428571  0.142857 -0.142857      1.000000
 -0.285714  0.142857 -0.142857      1.000000
 -0.142857  0.142857 -0.142857      1.000000
  0.000000  0.285714 -0.142857      1.000000
  0.142857  0.285714 -0.142857      1.000000
  0.285714  0.285714 -0.142857      1.000000
  0.428571  0.285714 -0.142857      1.000000
 -0.428571  0.285714 -0.142857      1.000000
 -0.285714  0.285714 -0.142857      1.000000
 -0.142857  0.285714 -0.142857      1.000000
  0.000000  0.428571 -0.142857      1.000000
  0.142857  0.428571 -0.142857      1.000000
  0.285714  0.428571 -0.142857      1.000000
  0.428571  0.428571 -0.142857      1.000000
 -0.428571  0.428571 -0.142857      1.000000
 -0.285714  0.428571 -0.142857      1.000000
 -0.142857  0.428571 -0.142857      1.000000
  0.000000 -0.428571 -0.142857      1.000000
  0.142857 -0.428571 -0.142857      1.000000
  0.285714 -0.428571 -0.142857      1.000000
  0.428571 -0.428571 -0.142857      1.000000
 -0.428571 -0.428571 -0.142857      1.000000
 -0.285714 -0.428571 -0.142857      1.000000
 -0.142857 -0.428571 -0.142857      1.000000
  0.000000 -0.285714 -0.142857      1.000000
  0.142857 -0.285714 -0.142857      1.000000
  0.285714 -0.285714 -0.142857      1.000000
  0.428571 -0.285714 -0.142857      1.000000
 -0.428571 -0.285714 -0.142857      1.000000
 -0.285714 -0.285714 -0.142857      1.000000
 -0.142857 -0.285714 -0.142857      1.000000
  0.000000 -0.142857 -0.142857      1.000000
  0.142857 -0.142857 -0.142857      1.000000
  0.285714 -0.142857 -0.142857      1.000000
  0.428571 -0.142857 -0.142857      1.000000
 -0.428571 -0.142857 -0.142857      1.000000
 -0.285714 -0.142857 -0.142857      1.000000
 -0.142857 -0.142857 -0.142857      1.000000
 
 Following cartesian coordinates:
            Coordinates               Weight
  0.000000  0.000000  0.000000      1.000000
  0.032899 -0.018994 -0.013431      1.000000
  0.065797 -0.037988 -0.026862      1.000000
  0.098696 -0.056982 -0.040292      1.000000
 -0.098696  0.056982  0.040292      1.000000
 -0.065797  0.037988  0.026862      1.000000
 -0.032899  0.018994  0.013431      1.000000
  0.000000  0.037988 -0.013431      1.000000
  0.032899  0.018994 -0.026862      1.000000
  0.065797  0.000000 -0.040292      1.000000
  0.098696 -0.018994 -0.053723      1.000000
 -0.098696  0.094970  0.026862      1.000000
 -0.065797  0.075976  0.013431      1.000000
 -0.032899  0.056982 -0.000000      1.000000
  0.000000  0.075976 -0.026862      1.000000
  0.032899  0.056982 -0.040292      1.000000
  0.065797  0.037988 -0.053723      1.000000
  0.098696  0.018994 -0.067154      1.000000
 -0.098696  0.132958  0.013431      1.000000
 -0.065797  0.113964  0.000000      1.000000
 -0.032899  0.094970 -0.013431      1.000000
  0.000000  0.113964 -0.040292      1.000000
  0.032899  0.094970 -0.053723      1.000000
  0.065797  0.075976 -0.067154      1.000000
  0.098696  0.056982 -0.080585      1.000000
 -0.098696  0.170946  0.000000      1.000000
 -0.065797  0.151952 -0.013431      1.000000
 -0.032899  0.132958 -0.026862      1.000000
 -0.000000 -0.113964  0.040292      1.000000
  0.032899 -0.132958  0.026862      1.000000
  0.065797 -0.151952  0.013431      1.000000
  0.098696 -0.170946 -0.000000      1.000000
 -0.098696 -0.056982  0.080585      1.000000
 -0.065797 -0.075976  0.067154      1.000000
 -0.032899 -0.094970  0.053723      1.000000
 -0.000000 -0.075976  0.026862      1.000000
  0.032899 -0.094970  0.013431      1.000000
  0.065797 -0.113964 -0.000000      1.000000
  0.098696 -0.132958 -0.013431      1.000000
 -0.098696 -0.018994  0.067154      1.000000
 -0.065797 -0.037988  0.053723      1.000000
 -0.032899 -0.056982  0.040292      1.000000
 -0.000000 -0.037988  0.013431      1.000000
  0.032899 -0.056982 -0.000000      1.000000
  0.065797 -0.075976 -0.013431      1.000000
  0.098696 -0.094970 -0.026862      1.000000
 -0.098696  0.018994  0.053723      1.000000
 -0.065797  0.000000  0.040292      1.000000
 -0.032899 -0.018994  0.026862      1.000000
 -0.000000  0.000000  0.040292      1.000000
  0.032899 -0.018994  0.026862      1.000000
  0.065797 -0.037988  0.013431      1.000000
  0.098696 -0.056982  0.000000      1.000000
 -0.098696  0.056982  0.080585      1.000000
 -0.065797  0.037988  0.067154      1.000000
 -0.032899  0.018994  0.053723      1.000000
 -0.000000  0.037988  0.026862      1.000000
  0.032899  0.018994  0.013431      1.000000
  0.065797  0.000000  0.000000      1.000000
  0.098696 -0.018994 -0.013431      1.000000
 -0.098696  0.094970  0.067154      1.000000
 -0.065797  0.075976  0.053723      1.000000
 -0.032899  0.056982  0.040292      1.000000
 -0.000000  0.075976  0.013431      1.000000
  0.032899  0.056982  0.000000      1.000000
  0.065797  0.037988 -0.013431      1.000000
  0.098696  0.018994 -0.026862      1.000000
 -0.098696  0.132958  0.053723      1.000000
 -0.065797  0.113964  0.040292      1.000000
 -0.032899  0.094970  0.026862      1.000000
 -0.000000  0.113964  0.000000      1.000000
  0.032899  0.094970 -0.013431      1.000000
  0.065797  0.075976 -0.026862      1.000000
  0.098696  0.056982 -0.040292      1.000000
 -0.098696  0.170946  0.040292      1.000000
 -0.065797  0.151952  0.026862      1.000000
 -0.032899  0.132958  0.013431      1.000000
 -0.000000 -0.113964  0.080585      1.000000
  0.032899 -0.132958  0.067154      1.000000
  0.065797 -0.151952  0.053723      1.000000
  0.098696 -0.170946  0.040292      1.000000
 -0.098696 -0.056982  0.120877      1.000000
 -0.065797 -0.075976  0.107446      1.000000
 -0.032899 -0.094970  0.094016      1.000000
 -0.000000 -0.075976  0.067154      1.000000
  0.032899 -0.094970  0.053723      1.000000
  0.065797 -0.113964  0.040292      1.000000
  0.098696 -0.132958  0.026862      1.000000
 -0.098696 -0.018994  0.107446      1.000000
 -0.065797 -0.037988  0.094016      1.000000
 -0.032899 -0.056982  0.080585      1.000000
 -0.000000 -0.037988  0.053723      1.000000
  0.032899 -0.056982  0.040292      1.000000
  0.065797 -0.075976  0.026862      1.000000
  0.098696 -0.094970  0.013431      1.000000
 -0.098696  0.018994  0.094016      1.000000
 -0.065797  0.000000  0.080585      1.000000
 -0.032899 -0.018994  0.067154      1.000000
 -0.000000  0.000000  0.080585      1.000000
  0.032899 -0.018994  0.067154      1.000000
  0.065797 -0.037988  0.053723      1.000000
  0.098696 -0.056982  0.040292      1.000000
 -0.098696  0.056982  0.120877      1.000000
 -0.065797  0.037988  0.107446      1.000000
 -0.032899  0.018994  0.094016      1.000000
 -0.000000  0.037988  0.067154      1.000000
  0.032899  0.018994  0.053723      1.000000
  0.065797  0.000000  0.040292      1.000000
  0.098696 -0.018994  0.026862      1.000000
 -0.098696  0.094970  0.107446      1.000000
 -0.065797  0.075976  0.094016      1.000000
 -0.032899  0.056982  0.080585      1.000000
 -0.000000  0.075976  0.053723      1.000000
  0.032899  0.056982  0.040292      1.000000
  0.065797  0.037988  0.026862      1.000000
  0.098696  0.018994  0.013431      1.000000
 -0.098696  0.132958  0.094016      1.000000
 -0.065797  0.113964  0.080585      1.000000
 -0.032899  0.094970  0.067154      1.000000
 -0.000000  0.113964  0.040292      1.000000
  0.032899  0.094970  0.026862      1.000000
  0.065797  0.075976  0.013431      1.000000
  0.098696  0.056982 -0.000000      1.000000
 -0.098696  0.170946  0.080585      1.000000
 -0.065797  0.151952  0.067154      1.000000
 -0.032899  0.132958  0.053723      1.000000
 -0.000000 -0.113964  0.120877      1.000000
  0.032899 -0.132958  0.107446      1.000000
  0.065797 -0.151952  0.094016      1.000000
  0.098696 -0.170946  0.080585      1.000000
 -0.098696 -0.056982  0.161170      1.000000
 -0.065797 -0.075976  0.147739      1.000000
 -0.032899 -0.094970  0.134308      1.000000
 -0.000000 -0.075976  0.107446      1.000000
  0.032899 -0.094970  0.094016      1.000000
  0.065797 -0.113964  0.080585      1.000000
  0.098696 -0.132958  0.067154      1.000000
 -0.098696 -0.018994  0.147739      1.000000
 -0.065797 -0.037988  0.134308      1.000000
 -0.032899 -0.056982  0.120877      1.000000
 -0.000000 -0.037988  0.094016      1.000000
  0.032899 -0.056982  0.080585      1.000000
  0.065797 -0.075976  0.067154      1.000000
  0.098696 -0.094970  0.053723      1.000000
 -0.098696  0.018994  0.134308      1.000000
 -0.065797  0.000000  0.120877      1.000000
 -0.032899 -0.018994  0.107446      1.000000
 -0.000000  0.000000  0.120877      1.000000
  0.032899 -0.018994  0.107446      1.000000
  0.065797 -0.037988  0.094016      1.000000
  0.098696 -0.056982  0.080585      1.000000
 -0.098696  0.056982  0.161170      1.000000
 -0.065797  0.037988  0.147739      1.000000
 -0.032899  0.018994  0.134308      1.000000
 -0.000000  0.037988  0.107446      1.000000
  0.032899  0.018994  0.094016      1.000000
  0.065797  0.000000  0.080585      1.000000
  0.098696 -0.018994  0.067154      1.000000
 -0.098696  0.094970  0.147739      1.000000
 -0.065797  0.075976  0.134308      1.000000
 -0.032899  0.056982  0.120877      1.000000
 -0.000000  0.075976  0.094016      1.000000
  0.032899  0.056982  0.080585      1.000000
  0.065797  0.037988  0.067154      1.000000
  0.098696  0.018994  0.053723      1.000000
 -0.098696  0.132958  0.134308      1.000000
 -0.065797  0.113964  0.120877      1.000000
 -0.032899  0.094970  0.107446      1.000000
 -0.000000  0.113964  0.080585      1.000000
  0.032899  0.094970  0.067154      1.000000
  0.065797  0.075976  0.053723      1.000000
  0.098696  0.056982  0.040292      1.000000
 -0.098696  0.170946  0.120877      1.000000
 -0.065797  0.151952  0.107446      1.000000
 -0.032899  0.132958  0.094016      1.000000
 -0.000000 -0.113964  0.161170      1.000000
  0.032899 -0.132958  0.147739      1.000000
  0.065797 -0.151952  0.134308      1.000000
  0.098696 -0.170946  0.120877      1.000000
 -0.098696 -0.056982  0.201462      1.000000
 -0.065797 -0.075976  0.188031      1.000000
 -0.032899 -0.094970  0.174600      1.000000
 -0.000000 -0.075976  0.147739      1.000000
  0.032899 -0.094970  0.134308      1.000000
  0.065797 -0.113964  0.120877      1.000000
  0.098696 -0.132958  0.107446      1.000000
 -0.098696 -0.018994  0.188031      1.000000
 -0.065797 -0.037988  0.174600      1.000000
 -0.032899 -0.056982  0.161170      1.000000
 -0.000000 -0.037988  0.134308      1.000000
  0.032899 -0.056982  0.120877      1.000000
  0.065797 -0.075976  0.107446      1.000000
  0.098696 -0.094970  0.094016      1.000000
 -0.098696  0.018994  0.174600      1.000000
 -0.065797  0.000000  0.161170      1.000000
 -0.032899 -0.018994  0.147739      1.000000
  0.000000 -0.000000 -0.120877      1.000000
  0.032899 -0.018994 -0.134308      1.000000
  0.065797 -0.037988 -0.147739      1.000000
  0.098696 -0.056982 -0.161170      1.000000
 -0.098696  0.056982 -0.080585      1.000000
 -0.065797  0.037988 -0.094016      1.000000
 -0.032899  0.018994 -0.107446      1.000000
  0.000000  0.037988 -0.134308      1.000000
  0.032899  0.018994 -0.147739      1.000000
  0.065797  0.000000 -0.161170      1.000000
  0.098696 -0.018994 -0.174600      1.000000
 -0.098696  0.094970 -0.094016      1.000000
 -0.065797  0.075976 -0.107446      1.000000
 -0.032899  0.056982 -0.120877      1.000000
  0.000000  0.075976 -0.147739      1.000000
  0.032899  0.056982 -0.161170      1.000000
  0.065797  0.037988 -0.174600      1.000000
  0.098696  0.018994 -0.188031      1.000000
 -0.098696  0.132958 -0.107446      1.000000
 -0.065797  0.113964 -0.120877      1.000000
 -0.032899  0.094970 -0.134308      1.000000
  0.000000  0.113964 -0.161170      1.000000
  0.032899  0.094970 -0.174600      1.000000
  0.065797  0.075976 -0.188031      1.000000
  0.098696  0.056982 -0.201462      1.000000
 -0.098696  0.170946 -0.120877      1.000000
 -0.065797  0.151952 -0.134308      1.000000
 -0.032899  0.132958 -0.147739      1.000000
  0.000000 -0.113964 -0.080585      1.000000
  0.032899 -0.132958 -0.094016      1.000000
  0.065797 -0.151952 -0.107446      1.000000
  0.098696 -0.170946 -0.120877      1.000000
 -0.098696 -0.056982 -0.040292      1.000000
 -0.065797 -0.075976 -0.053723      1.000000
 -0.032899 -0.094970 -0.067154      1.000000
  0.000000 -0.075976 -0.094016      1.000000
  0.032899 -0.094970 -0.107446      1.000000
  0.065797 -0.113964 -0.120877      1.000000
  0.098696 -0.132958 -0.134308      1.000000
 -0.098696 -0.018994 -0.053723      1.000000
 -0.065797 -0.037988 -0.067154      1.000000
 -0.032899 -0.056982 -0.080585      1.000000
  0.000000 -0.037988 -0.107446      1.000000
  0.032899 -0.056982 -0.120877      1.000000
  0.065797 -0.075976 -0.134308      1.000000
  0.098696 -0.094970 -0.147739      1.000000
 -0.098696  0.018994 -0.067154      1.000000
 -0.065797  0.000000 -0.080585      1.000000
 -0.032899 -0.018994 -0.094016      1.000000
  0.000000 -0.000000 -0.080585      1.000000
  0.032899 -0.018994 -0.094016      1.000000
  0.065797 -0.037988 -0.107446      1.000000
  0.098696 -0.056982 -0.120877      1.000000
 -0.098696  0.056982 -0.040292      1.000000
 -0.065797  0.037988 -0.053723      1.000000
 -0.032899  0.018994 -0.067154      1.000000
  0.000000  0.037988 -0.094016      1.000000
  0.032899  0.018994 -0.107446      1.000000
  0.065797  0.000000 -0.120877      1.000000
  0.098696 -0.018994 -0.134308      1.000000
 -0.098696  0.094970 -0.053723      1.000000
 -0.065797  0.075976 -0.067154      1.000000
 -0.032899  0.056982 -0.080585      1.000000
  0.000000  0.075976 -0.107446      1.000000
  0.032899  0.056982 -0.120877      1.000000
  0.065797  0.037988 -0.134308      1.000000
  0.098696  0.018994 -0.147739      1.000000
 -0.098696  0.132958 -0.067154      1.000000
 -0.065797  0.113964 -0.080585      1.000000
 -0.032899  0.094970 -0.094016      1.000000
  0.000000  0.113964 -0.120877      1.000000
  0.032899  0.094970 -0.134308      1.000000
  0.065797  0.075976 -0.147739      1.000000
  0.098696  0.056982 -0.161170      1.000000
 -0.098696  0.170946 -0.080585      1.000000
 -0.065797  0.151952 -0.094016      1.000000
 -0.032899  0.132958 -0.107446      1.000000
  0.000000 -0.113964 -0.040292      1.000000
  0.032899 -0.132958 -0.053723      1.000000
  0.065797 -0.151952 -0.067154      1.000000
  0.098696 -0.170946 -0.080585      1.000000
 -0.098696 -0.056982  0.000000      1.000000
 -0.065797 -0.075976 -0.013431      1.000000
 -0.032899 -0.094970 -0.026862      1.000000
  0.000000 -0.075976 -0.053723      1.000000
  0.032899 -0.094970 -0.067154      1.000000
  0.065797 -0.113964 -0.080585      1.000000
  0.098696 -0.132958 -0.094016      1.000000
 -0.098696 -0.018994 -0.013431      1.000000
 -0.065797 -0.037988 -0.026862      1.000000
 -0.032899 -0.056982 -0.040292      1.000000
  0.000000 -0.037988 -0.067154      1.000000
  0.032899 -0.056982 -0.080585      1.000000
  0.065797 -0.075976 -0.094016      1.000000
  0.098696 -0.094970 -0.107446      1.000000
 -0.098696  0.018994 -0.026862      1.000000
 -0.065797  0.000000 -0.040292      1.000000
 -0.032899 -0.018994 -0.053723      1.000000
  0.000000 -0.000000 -0.040292      1.000000
  0.032899 -0.018994 -0.053723      1.000000
  0.065797 -0.037988 -0.067154      1.000000
  0.098696 -0.056982 -0.080585      1.000000
 -0.098696  0.056982  0.000000      1.000000
 -0.065797  0.037988 -0.013431      1.000000
 -0.032899  0.018994 -0.026862      1.000000
  0.000000  0.037988 -0.053723      1.000000
  0.032899  0.018994 -0.067154      1.000000
  0.065797  0.000000 -0.080585      1.000000
  0.098696 -0.018994 -0.094016      1.000000
 -0.098696  0.094970 -0.013431      1.000000
 -0.065797  0.075976 -0.026862      1.000000
 -0.032899  0.056982 -0.040292      1.000000
  0.000000  0.075976 -0.067154      1.000000
  0.032899  0.056982 -0.080585      1.000000
  0.065797  0.037988 -0.094016      1.000000
  0.098696  0.018994 -0.107446      1.000000
 -0.098696  0.132958 -0.026862      1.000000
 -0.065797  0.113964 -0.040292      1.000000
 -0.032899  0.094970 -0.053723      1.000000
  0.000000  0.113964 -0.080585      1.000000
  0.032899  0.094970 -0.094016      1.000000
  0.065797  0.075976 -0.107446      1.000000
  0.098696  0.056982 -0.120877      1.000000
 -0.098696  0.170946 -0.040292      1.000000
 -0.065797  0.151952 -0.053723      1.000000
 -0.032899  0.132958 -0.067154      1.000000
 -0.000000 -0.113964  0.000000      1.000000
  0.032899 -0.132958 -0.013431      1.000000
  0.065797 -0.151952 -0.026862      1.000000
  0.098696 -0.170946 -0.040292      1.000000
 -0.098696 -0.056982  0.040292      1.000000
 -0.065797 -0.075976  0.026862      1.000000
 -0.032899 -0.094970  0.013431      1.000000
  0.000000 -0.075976 -0.013431      1.000000
  0.032899 -0.094970 -0.026862      1.000000
  0.065797 -0.113964 -0.040292      1.000000
  0.098696 -0.132958 -0.053723      1.000000
 -0.098696 -0.018994  0.026862      1.000000
 -0.065797 -0.037988  0.013431      1.000000
 -0.032899 -0.056982  0.000000      1.000000
  0.000000 -0.037988 -0.026862      1.000000
  0.032899 -0.056982 -0.040292      1.000000
  0.065797 -0.075976 -0.053723      1.000000
  0.098696 -0.094970 -0.067154      1.000000
 -0.098696  0.018994  0.013431      1.000000
 -0.065797  0.000000  0.000000      1.000000
 -0.032899 -0.018994 -0.013431      1.000000
 


--------------------------------------------------------------------------------------------------------




 Dimension of arrays:
   k-points           NKPTS =    343   k-points in BZ     NKDIM =    343   number of bands    NBANDS=     28
   number of dos      NEDOS =    301   number of ions     NIONS =      1
   non local maximal  LDIM  =      6   non local SUM 2l+1 LMDIM =     18
   total plane-waves  NPLWV =  21952
   max r-space proj   IRMAX =      1   max aug-charges    IRDMAX= 182324
   dimension x,y,z NGX =    28 NGY =   28 NGZ =   28
   dimension x,y,z NGXF=    56 NGYF=   56 NGZF=   56
   support grid    NGXF=   112 NGYF=  112 NGZF=  112
   ions per type =               1
   NGX,Y,Z   is equivalent  to a cutoff of  10.72, 10.72, 10.72 a.u.
   NGXF,Y,Z  is equivalent  to a cutoff of  21.44, 21.44, 21.44 a.u.

 SYSTEM =  Og_FCC                                  
 POSCAR =  Og_FCC                                  

 Startparameter for this run:
   NWRITE =      2    write-flag & timer
   PREC   = accura    normal or accurate (medium, high low for compatibility)
   ISTART =      0    job   : 0-new  1-cont  2-samecut
   ICHARG =      2    charge: 1-file 2-atom 10-const
   ISPIN  =      1    spin polarized calculation?
   LNONCOLLINEAR =      T non collinear calculations
   LSORBIT =      T    spin-orbit coupling
   INIWAV =      1    electr: 0-lowe 1-rand  2-diag
   LASPH  =      F    aspherical Exc in radial PAW
   METAGGA=      F    non-selfconsistent MetaGGA calc.

 Electronic Relaxation 1
   ENCUT  =  300.0 eV  22.05 Ry    4.70 a.u.   6.13  6.13  6.13*2*pi/ulx,y,z
   ENINI  =  300.0     initial cutoff
   ENAUG  =  361.0 eV  augmentation charge cutoff
   NELM   =     50;   NELMIN=  2; NELMDL= -5     # of ELM steps 
   EDIFF  = 0.1E-07   stopping-criterion for ELM
   LREAL  =      F    real-space projection
   NLSPLINE    = F    spline interpolate recip. space projectors
   LCOMPAT=      F    compatible to vasp.4.4
   GGA_COMPAT  = F    GGA compatible to vasp.4.4-vasp.4.6
   LMAXPAW     = -100 max onsite density
   LMAXMIX     =    2 max onsite mixed and CHGCAR
   VOSKOWN=      0    Vosko Wilk Nusair interpolation
   ROPT   =    0.00000
 Ionic relaxation
   EDIFFG = 0.1E-04   stopping-criterion for IOM
   NSW    =      1    number of steps for IOM
   NBLOCK =      1;   KBLOCK =      1    inner block; outer block 
   IBRION =     -1    ionic relax: 0-MD 1-quasi-New 2-CG
   NFREE  =      5    steps in history (QN), initial steepest desc. (CG)
   ISIF   =      3    stress and relaxation
   IWAVPR =     10    prediction:  0-non 1-charg 2-wave 3-comb
   ISYM   =      0    0-nonsym 1-usesym 2-fastsym
   LCORR  =      T    Harris-Foulkes like correction to forces

   POTIM  = 0.1000    time-step for ionic-motion
   TEIN   =    0.0    initial temperature
   TEBEG  =    0.0;   TEEND  =   0.0 temperature during run
   SMASS  =  -3.00    Nose mass-parameter (am)
   estimated Nose-frequenzy (Omega)   =  0.10E-29 period in steps =****** mass=  -0.431E-27a.u.
   SCALEE = 1.0000    scale energy and forces
   NPACO  =    256;   APACO  = 16.0  distance and # of slots for P.C.
   PSTRESS=    0.0 pullay stress

  Mass of Ions in am
   POMASS =   0.01
  Ionic Valenz
   ZVAL   =  18.00
  Atomic Wigner-Seitz radii
   RWIGS  =  -1.00
  virtual crystal weights 
   VCA    =   1.00
   NELECT =      18.0000    total number of electrons
   NUPDOWN=      -1.0000    fix difference up-down

 DOS related values:
   EMIN   =  10.00;   EMAX   =-10.00  energy-range for DOS
   EFERMI =   0.00
   ISMEAR =     0;   SIGMA  =   0.00  broadening in eV -4-tet -1-fermi 0-gaus

 Electronic relaxation 2 (details)
   IALGO  =     38    algorithm
   LDIAG  =      T    sub-space diagonalisation (order eigenvalues)
   LSUBROT=      F    optimize rotation matrix (better conditioning)
   TURBO    =      0    0=normal 1=particle mesh
   IRESTART =      0    0=no restart 2=restart with 2 vectors
   NREBOOT  =      0    no. of reboots
   NMIN     =      0    reboot dimension
   EREF     =   0.00    reference energy to select bands
   IMIX   =      4    mixing-type and parameters
     AMIX     =   0.40;   BMIX     =  1.00
     AMIX_MAG =   1.60;   BMIX_MAG =  1.00
     AMIN     =   0.10
     WC   =   100.;   INIMIX=   1;  MIXPRE=   1;  MAXMIX=  50

 Intra band minimization:
   WEIMIN = 0.0000     energy-eigenvalue tresh-hold
   EBREAK =  0.89E-10  absolut break condition
   DEPER  =   0.30     relativ break condition  

   TIME   =   0.40     timestep for ELM

  volume/ion in A,a.u.               =      57.90       390.71
  Fermi-wavevector in a.u.,A,eV,Ry     =   1.109038  2.095777 16.734680  1.229964
  Thomas-Fermi vector in A             =   2.245572
 
 Write flags
   LWAVE        =      T    write WAVECAR
   LDOWNSAMPLE  =      F    k-point downsampling of WAVECAR
   LCHARG       =      F    write CHGCAR
   LVTOT        =      F    write LOCPOT, total local potential
   LVHAR        =      F    write LOCPOT, Hartree potential only
   LELF         =      F    write electronic localiz. function (ELF)
   LORBIT       =      0    0 simple, 1 ext, 2 COOP (PROOUT), +10 PAW based schemes


 Dipole corrections
   LMONO  =      F    monopole corrections only (constant potential shift)
   LDIPOL =      F    correct potential (dipole corrections)
   IDIPOL =      0    1-x, 2-y, 3-z, 4-all directions 
   EPSILON=  1.0000000 bulk dielectric constant

 Exchange correlation treatment:
   GGA     =    PE    GGA type
   LEXCH   =     8    internal setting for exchange type
   VOSKOWN=      0    Vosko Wilk Nusair interpolation
   LHFCALC =     F    Hartree Fock is set to
   LHFONE  =     F    Hartree Fock one center treatment
   AEXX    =    0.0000 exact exchange contribution

 Linear response parameters
   LEPSILON=     F    determine dielectric tensor
   LRPA    =     F    only Hartree local field effects (RPA)
   LNABLA  =     F    use nabla operator in PAW spheres
   LVEL    =     F    velocity operator in full k-point grid
   LINTERFAST=   F  fast interpolation
   KINTER  =     0    interpolate to denser k-point grid
   CSHIFT  =0.1000    complex shift for real part using Kramers Kronig
   OMEGAMAX=  -1.0    maximum frequency
   DEG_THRESHOLD= 0.2000000E-02 threshold for treating states as degnerate
   RTIME   =   -0.100 relaxation time in fs
  (WPLASMAI=    0.000 imaginary part of plasma frequency in eV, 0.658/RTIME)
   DFIELD  = 0.0000000 0.0000000 0.0000000 field for delta impulse in time
 
 Orbital magnetization related:
   ORBITALMAG=     F  switch on orbital magnetization
   LCHIMAG   =     F  perturbation theory with respect to B field
   DQ        =  0.001000  dq finite difference perturbation B field
   LLRAUG    =     F  two centre corrections for induced B field



--------------------------------------------------------------------------------------------------------


 Static calculation
 charge density and potential will be updated during run
 non collinear spin polarized calculation
 Variant of blocked Davidson
 Davidson routine will perform the subspace rotation
 perform sub-space diagonalisation
    after iterative eigenvector-optimisation
 modified Broyden-mixing scheme, WC =      100.0
 initial mixing is a Kerker type mixing with AMIX =  0.4000 and BMIX =      1.0000
 Hartree-type preconditioning will be used
 using additional bands           19
 reciprocal scheme for non local part
 use partial core corrections
 calculate Harris-corrections to forces 
   (improved forces if not selfconsistent)
 use gradient corrections 
 use of overlap-Matrix (Vanderbilt PP)
 Gauss-broadening in eV      SIGMA  =   0.00


--------------------------------------------------------------------------------------------------------


  energy-cutoff  :      300.00
  volume of cell :       57.90
      direct lattice vectors                 reciprocal lattice vectors
     4.342345876  0.000000000  0.000000000     0.230290269 -0.132958149 -0.094015609
     2.171172938  3.760581840 -0.000000000     0.000000000  0.265916298 -0.094015609
     2.171172938  1.253527280  3.545510561    -0.000000000  0.000000000  0.282046826

  length of vectors
     4.342345876  4.342345876  4.342345876     0.282046826  0.282046826  0.282046826


 
 k-points in units of 2pi/SCALE and weight: k-points                                
   0.00000000  0.00000000  0.00000000       0.003
   0.03289861 -0.01899402 -0.01343080       0.003
   0.06579722 -0.03798804 -0.02686160       0.003
   0.09869583 -0.05698206 -0.04029240       0.003
  -0.09869583  0.05698206  0.04029240       0.003
  -0.06579722  0.03798804  0.02686160       0.003
  -0.03289861  0.01899402  0.01343080       0.003
   0.00000000  0.03798804 -0.01343080       0.003
   0.03289861  0.01899402 -0.02686160       0.003
   0.06579722  0.00000000 -0.04029240       0.003
   0.09869583 -0.01899402 -0.05372320       0.003
  -0.09869583  0.09497011  0.02686160       0.003
  -0.06579722  0.07597609  0.01343080       0.003
  -0.03289861  0.05698206 -0.00000000       0.003
   0.00000000  0.07597609 -0.02686160       0.003
   0.03289861  0.05698206 -0.04029240       0.003
   0.06579722  0.03798804 -0.05372320       0.003
   0.09869583  0.01899402 -0.06715401       0.003
  -0.09869583  0.13295815  0.01343080       0.003
  -0.06579722  0.11396413  0.00000000       0.003
  -0.03289861  0.09497011 -0.01343080       0.003
   0.00000000  0.11396413 -0.04029240       0.003
   0.03289861  0.09497011 -0.05372320       0.003
   0.06579722  0.07597609 -0.06715401       0.003
   0.09869583  0.05698206 -0.08058481       0.003
  -0.09869583  0.17094619  0.00000000       0.003
  -0.06579722  0.15195217 -0.01343080       0.003
  -0.03289861  0.13295815 -0.02686160       0.003
  -0.00000000 -0.11396413  0.04029240       0.003
   0.03289861 -0.13295815  0.02686160       0.003
   0.06579722 -0.15195217  0.01343080       0.003
   0.09869583 -0.17094619 -0.00000000       0.003
  -0.09869583 -0.05698206  0.08058481       0.003
  -0.06579722 -0.07597609  0.06715401       0.003
  -0.03289861 -0.09497011  0.05372320       0.003
  -0.00000000 -0.07597609  0.02686160       0.003
   0.03289861 -0.09497011  0.01343080       0.003
   0.06579722 -0.11396413 -0.00000000       0.003
   0.09869583 -0.13295815 -0.01343080       0.003
  -0.09869583 -0.01899402  0.06715401       0.003
  -0.06579722 -0.03798804  0.05372320       0.003
  -0.03289861 -0.05698206  0.04029240       0.003
  -0.00000000 -0.03798804  0.01343080       0.003
   0.03289861 -0.05698206 -0.00000000       0.003
   0.06579722 -0.07597609 -0.01343080       0.003
   0.09869583 -0.09497011 -0.02686160       0.003
  -0.09869583  0.01899402  0.05372320       0.003
  -0.06579722  0.00000000  0.04029240       0.003
  -0.03289861 -0.01899402  0.02686160       0.003
  -0.00000000  0.00000000  0.04029240       0.003
   0.03289861 -0.01899402  0.02686160       0.003
   0.06579722 -0.03798804  0.01343080       0.003
   0.09869583 -0.05698206  0.00000000       0.003
  -0.09869583  0.05698206  0.08058481       0.003
  -0.06579722  0.03798804  0.06715401       0.003
  -0.03289861  0.01899402  0.05372320       0.003
  -0.00000000  0.03798804  0.02686160       0.003
   0.03289861  0.01899402  0.01343080       0.003
   0.06579722  0.00000000  0.00000000       0.003
   0.09869583 -0.01899402 -0.01343080       0.003
  -0.09869583  0.09497011  0.06715401       0.003
  -0.06579722  0.07597609  0.05372320       0.003
  -0.03289861  0.05698206  0.04029240       0.003
  -0.00000000  0.07597609  0.01343080       0.003
   0.03289861  0.05698206  0.00000000       0.003
   0.06579722  0.03798804 -0.01343080       0.003
   0.09869583  0.01899402 -0.02686160       0.003
  -0.09869583  0.13295815  0.05372320       0.003
  -0.06579722  0.11396413  0.04029240       0.003
  -0.03289861  0.09497011  0.02686160       0.003
  -0.00000000  0.11396413  0.00000000       0.003
   0.03289861  0.09497011 -0.01343080       0.003
   0.06579722  0.07597609 -0.02686160       0.003
   0.09869583  0.05698206 -0.04029240       0.003
  -0.09869583  0.17094619  0.04029240       0.003
  -0.06579722  0.15195217  0.02686160       0.003
  -0.03289861  0.13295815  0.01343080       0.003
  -0.00000000 -0.11396413  0.08058481       0.003
   0.03289861 -0.13295815  0.06715401       0.003
   0.06579722 -0.15195217  0.05372320       0.003
   0.09869583 -0.17094619  0.04029240       0.003
  -0.09869583 -0.05698206  0.12087721       0.003
  -0.06579722 -0.07597609  0.10744641       0.003
  -0.03289861 -0.09497011  0.09401561       0.003
  -0.00000000 -0.07597609  0.06715401       0.003
   0.03289861 -0.09497011  0.05372320       0.003
   0.06579722 -0.11396413  0.04029240       0.003
   0.09869583 -0.13295815  0.02686160       0.003
  -0.09869583 -0.01899402  0.10744641       0.003
  -0.06579722 -0.03798804  0.09401561       0.003
  -0.03289861 -0.05698206  0.08058481       0.003
  -0.00000000 -0.03798804  0.05372320       0.003
   0.03289861 -0.05698206  0.04029240       0.003
   0.06579722 -0.07597609  0.02686160       0.003
   0.09869583 -0.09497011  0.01343080       0.003
  -0.09869583  0.01899402  0.09401561       0.003
  -0.06579722  0.00000000  0.08058481       0.003
  -0.03289861 -0.01899402  0.06715401       0.003
  -0.00000000  0.00000000  0.08058481       0.003
   0.03289861 -0.01899402  0.06715401       0.003
   0.06579722 -0.03798804  0.05372320       0.003
   0.09869583 -0.05698206  0.04029240       0.003
  -0.09869583  0.05698206  0.12087721       0.003
  -0.06579722  0.03798804  0.10744641       0.003
  -0.03289861  0.01899402  0.09401561       0.003
  -0.00000000  0.03798804  0.06715401       0.003
   0.03289861  0.01899402  0.05372320       0.003
   0.06579722  0.00000000  0.04029240       0.003
   0.09869583 -0.01899402  0.02686160       0.003
  -0.09869583  0.09497011  0.10744641       0.003
  -0.06579722  0.07597609  0.09401561       0.003
  -0.03289861  0.05698206  0.08058481       0.003
  -0.00000000  0.07597609  0.05372320       0.003
   0.03289861  0.05698206  0.04029240       0.003
   0.06579722  0.03798804  0.02686160       0.003
   0.09869583  0.01899402  0.01343080       0.003
  -0.09869583  0.13295815  0.09401561       0.003
  -0.06579722  0.11396413  0.08058481       0.003
  -0.03289861  0.09497011  0.06715401       0.003
  -0.00000000  0.11396413  0.04029240       0.003
   0.03289861  0.09497011  0.02686160       0.003
   0.06579722  0.07597609  0.01343080       0.003
   0.09869583  0.05698206 -0.00000000       0.003
  -0.09869583  0.17094619  0.08058481       0.003
  -0.06579722  0.15195217  0.06715401       0.003
  -0.03289861  0.13295815  0.05372320       0.003
  -0.00000000 -0.11396413  0.12087721       0.003
   0.03289861 -0.13295815  0.10744641       0.003
   0.06579722 -0.15195217  0.09401561       0.003
   0.09869583 -0.17094619  0.08058481       0.003
  -0.09869583 -0.05698206  0.16116961       0.003
  -0.06579722 -0.07597609  0.14773881       0.003
  -0.03289861 -0.09497011  0.13430801       0.003
  -0.00000000 -0.07597609  0.10744641       0.003
   0.03289861 -0.09497011  0.09401561       0.003
   0.06579722 -0.11396413  0.08058481       0.003
   0.09869583 -0.13295815  0.06715401       0.003
  -0.09869583 -0.01899402  0.14773881       0.003
  -0.06579722 -0.03798804  0.13430801       0.003
  -0.03289861 -0.05698206  0.12087721       0.003
  -0.00000000 -0.03798804  0.09401561       0.003
   0.03289861 -0.05698206  0.08058481       0.003
   0.06579722 -0.07597609  0.06715401       0.003
   0.09869583 -0.09497011  0.05372320       0.003
  -0.09869583  0.01899402  0.13430801       0.003
  -0.06579722  0.00000000  0.12087721       0.003
  -0.03289861 -0.01899402  0.10744641       0.003
  -0.00000000  0.00000000  0.12087721       0.003
   0.03289861 -0.01899402  0.10744641       0.003
   0.06579722 -0.03798804  0.09401561       0.003
   0.09869583 -0.05698206  0.08058481       0.003
  -0.09869583  0.05698206  0.16116961       0.003
  -0.06579722  0.03798804  0.14773881       0.003
  -0.03289861  0.01899402  0.13430801       0.003
  -0.00000000  0.03798804  0.10744641       0.003
   0.03289861  0.01899402  0.09401561       0.003
   0.06579722  0.00000000  0.08058481       0.003
   0.09869583 -0.01899402  0.06715401       0.003
  -0.09869583  0.09497011  0.14773881       0.003
  -0.06579722  0.07597609  0.13430801       0.003
  -0.03289861  0.05698206  0.12087721       0.003
  -0.00000000  0.07597609  0.09401561       0.003
   0.03289861  0.05698206  0.08058481       0.003
   0.06579722  0.03798804  0.06715401       0.003
   0.09869583  0.01899402  0.05372320       0.003
  -0.09869583  0.13295815  0.13430801       0.003
  -0.06579722  0.11396413  0.12087721       0.003
  -0.03289861  0.09497011  0.10744641       0.003
  -0.00000000  0.11396413  0.08058481       0.003
   0.03289861  0.09497011  0.06715401       0.003
   0.06579722  0.07597609  0.05372320       0.003
   0.09869583  0.05698206  0.04029240       0.003
  -0.09869583  0.17094619  0.12087721       0.003
  -0.06579722  0.15195217  0.10744641       0.003
  -0.03289861  0.13295815  0.09401561       0.003
  -0.00000000 -0.11396413  0.16116961       0.003
   0.03289861 -0.13295815  0.14773881       0.003
   0.06579722 -0.15195217  0.13430801       0.003
   0.09869583 -0.17094619  0.12087721       0.003
  -0.09869583 -0.05698206  0.20146202       0.003
  -0.06579722 -0.07597609  0.18803122       0.003
  -0.03289861 -0.09497011  0.17460042       0.003
  -0.00000000 -0.07597609  0.14773881       0.003
   0.03289861 -0.09497011  0.13430801       0.003
   0.06579722 -0.11396413  0.12087721       0.003
   0.09869583 -0.13295815  0.10744641       0.003
  -0.09869583 -0.01899402  0.18803122       0.003
  -0.06579722 -0.03798804  0.17460042       0.003
  -0.03289861 -0.05698206  0.16116961       0.003
  -0.00000000 -0.03798804  0.13430801       0.003
   0.03289861 -0.05698206  0.12087721       0.003
   0.06579722 -0.07597609  0.10744641       0.003
   0.09869583 -0.09497011  0.09401561       0.003
  -0.09869583  0.01899402  0.17460042       0.003
  -0.06579722  0.00000000  0.16116961       0.003
  -0.03289861 -0.01899402  0.14773881       0.003
   0.00000000 -0.00000000 -0.12087721       0.003
   0.03289861 -0.01899402 -0.13430801       0.003
   0.06579722 -0.03798804 -0.14773881       0.003
   0.09869583 -0.05698206 -0.16116961       0.003
  -0.09869583  0.05698206 -0.08058481       0.003
  -0.06579722  0.03798804 -0.09401561       0.003
  -0.03289861  0.01899402 -0.10744641       0.003
   0.00000000  0.03798804 -0.13430801       0.003
   0.03289861  0.01899402 -0.14773881       0.003
   0.06579722  0.00000000 -0.16116961       0.003
   0.09869583 -0.01899402 -0.17460042       0.003
  -0.09869583  0.09497011 -0.09401561       0.003
  -0.06579722  0.07597609 -0.10744641       0.003
  -0.03289861  0.05698206 -0.12087721       0.003
   0.00000000  0.07597609 -0.14773881       0.003
   0.03289861  0.05698206 -0.16116961       0.003
   0.06579722  0.03798804 -0.17460042       0.003
   0.09869583  0.01899402 -0.18803122       0.003
  -0.09869583  0.13295815 -0.10744641       0.003
  -0.06579722  0.11396413 -0.12087721       0.003
  -0.03289861  0.09497011 -0.13430801       0.003
   0.00000000  0.11396413 -0.16116961       0.003
   0.03289861  0.09497011 -0.17460042       0.003
   0.06579722  0.07597609 -0.18803122       0.003
   0.09869583  0.05698206 -0.20146202       0.003
  -0.09869583  0.17094619 -0.12087721       0.003
  -0.06579722  0.15195217 -0.13430801       0.003
  -0.03289861  0.13295815 -0.14773881       0.003
   0.00000000 -0.11396413 -0.08058481       0.003
   0.03289861 -0.13295815 -0.09401561       0.003
   0.06579722 -0.15195217 -0.10744641       0.003
   0.09869583 -0.17094619 -0.12087721       0.003
  -0.09869583 -0.05698206 -0.04029240       0.003
  -0.06579722 -0.07597609 -0.05372320       0.003
  -0.03289861 -0.09497011 -0.06715401       0.003
   0.00000000 -0.07597609 -0.09401561       0.003
   0.03289861 -0.09497011 -0.10744641       0.003
   0.06579722 -0.11396413 -0.12087721       0.003
   0.09869583 -0.13295815 -0.13430801       0.003
  -0.09869583 -0.01899402 -0.05372320       0.003
  -0.06579722 -0.03798804 -0.06715401       0.003
  -0.03289861 -0.05698206 -0.08058481       0.003
   0.00000000 -0.03798804 -0.10744641       0.003
   0.03289861 -0.05698206 -0.12087721       0.003
   0.06579722 -0.07597609 -0.13430801       0.003
   0.09869583 -0.09497011 -0.14773881       0.003
  -0.09869583  0.01899402 -0.06715401       0.003
  -0.06579722  0.00000000 -0.08058481       0.003
  -0.03289861 -0.01899402 -0.09401561       0.003
   0.00000000 -0.00000000 -0.08058481       0.003
   0.03289861 -0.01899402 -0.09401561       0.003
   0.06579722 -0.03798804 -0.10744641       0.003
   0.09869583 -0.05698206 -0.12087721       0.003
  -0.09869583  0.05698206 -0.04029240       0.003
  -0.06579722  0.03798804 -0.05372320       0.003
  -0.03289861  0.01899402 -0.06715401       0.003
   0.00000000  0.03798804 -0.09401561       0.003
   0.03289861  0.01899402 -0.10744641       0.003
   0.06579722  0.00000000 -0.12087721       0.003
   0.09869583 -0.01899402 -0.13430801       0.003
  -0.09869583  0.09497011 -0.05372320       0.003
  -0.06579722  0.07597609 -0.06715401       0.003
  -0.03289861  0.05698206 -0.08058481       0.003
   0.00000000  0.07597609 -0.10744641       0.003
   0.03289861  0.05698206 -0.12087721       0.003
   0.06579722  0.03798804 -0.13430801       0.003
   0.09869583  0.01899402 -0.14773881       0.003
  -0.09869583  0.13295815 -0.06715401       0.003
  -0.06579722  0.11396413 -0.08058481       0.003
  -0.03289861  0.09497011 -0.09401561       0.003
   0.00000000  0.11396413 -0.12087721       0.003
   0.03289861  0.09497011 -0.13430801       0.003
   0.06579722  0.07597609 -0.14773881       0.003
   0.09869583  0.05698206 -0.16116961       0.003
  -0.09869583  0.17094619 -0.08058481       0.003
  -0.06579722  0.15195217 -0.09401561       0.003
  -0.03289861  0.13295815 -0.10744641       0.003
   0.00000000 -0.11396413 -0.04029240       0.003
   0.03289861 -0.13295815 -0.05372320       0.003
   0.06579722 -0.15195217 -0.06715401       0.003
   0.09869583 -0.17094619 -0.08058481       0.003
  -0.09869583 -0.05698206  0.00000000       0.003
  -0.06579722 -0.07597609 -0.01343080       0.003
  -0.03289861 -0.09497011 -0.02686160       0.003
   0.00000000 -0.07597609 -0.05372320       0.003
   0.03289861 -0.09497011 -0.06715401       0.003
   0.06579722 -0.11396413 -0.08058481       0.003
   0.09869583 -0.13295815 -0.09401561       0.003
  -0.09869583 -0.01899402 -0.01343080       0.003
  -0.06579722 -0.03798804 -0.02686160       0.003
  -0.03289861 -0.05698206 -0.04029240       0.003
   0.00000000 -0.03798804 -0.06715401       0.003
   0.03289861 -0.05698206 -0.08058481       0.003
   0.06579722 -0.07597609 -0.09401561       0.003
   0.09869583 -0.09497011 -0.10744641       0.003
  -0.09869583  0.01899402 -0.02686160       0.003
  -0.06579722  0.00000000 -0.04029240       0.003
  -0.03289861 -0.01899402 -0.05372320       0.003
   0.00000000 -0.00000000 -0.04029240       0.003
   0.03289861 -0.01899402 -0.05372320       0.003
   0.06579722 -0.03798804 -0.06715401       0.003
   0.09869583 -0.05698206 -0.08058481       0.003
  -0.09869583  0.05698206  0.00000000       0.003
  -0.06579722  0.03798804 -0.01343080       0.003
  -0.03289861  0.01899402 -0.02686160       0.003
   0.00000000  0.03798804 -0.05372320       0.003
   0.03289861  0.01899402 -0.06715401       0.003
   0.06579722  0.00000000 -0.08058481       0.003
   0.09869583 -0.01899402 -0.09401561       0.003
  -0.09869583  0.09497011 -0.01343080       0.003
  -0.06579722  0.07597609 -0.02686160       0.003
  -0.03289861  0.05698206 -0.04029240       0.003
   0.00000000  0.07597609 -0.06715401       0.003
   0.03289861  0.05698206 -0.08058481       0.003
   0.06579722  0.03798804 -0.09401561       0.003
   0.09869583  0.01899402 -0.10744641       0.003
  -0.09869583  0.13295815 -0.02686160       0.003
  -0.06579722  0.11396413 -0.04029240       0.003
  -0.03289861  0.09497011 -0.05372320       0.003
   0.00000000  0.11396413 -0.08058481       0.003
   0.03289861  0.09497011 -0.09401561       0.003
   0.06579722  0.07597609 -0.10744641       0.003
   0.09869583  0.05698206 -0.12087721       0.003
  -0.09869583  0.17094619 -0.04029240       0.003
  -0.06579722  0.15195217 -0.05372320       0.003
  -0.03289861  0.13295815 -0.06715401       0.003
  -0.00000000 -0.11396413  0.00000000       0.003
   0.03289861 -0.13295815 -0.01343080       0.003
   0.06579722 -0.15195217 -0.02686160       0.003
   0.09869583 -0.17094619 -0.04029240       0.003
  -0.09869583 -0.05698206  0.04029240       0.003
  -0.06579722 -0.07597609  0.02686160       0.003
  -0.03289861 -0.09497011  0.01343080       0.003
   0.00000000 -0.07597609 -0.01343080       0.003
   0.03289861 -0.09497011 -0.02686160       0.003
   0.06579722 -0.11396413 -0.04029240       0.003
   0.09869583 -0.13295815 -0.05372320       0.003
  -0.09869583 -0.01899402  0.02686160       0.003
  -0.06579722 -0.03798804  0.01343080       0.003
  -0.03289861 -0.05698206  0.00000000       0.003
   0.00000000 -0.03798804 -0.02686160       0.003
   0.03289861 -0.05698206 -0.04029240       0.003
   0.06579722 -0.07597609 -0.05372320       0.003
   0.09869583 -0.09497011 -0.06715401       0.003
  -0.09869583  0.01899402  0.01343080       0.003
  -0.06579722  0.00000000  0.00000000       0.003
  -0.03289861 -0.01899402 -0.01343080       0.003
 
 k-points in reciprocal lattice and weights: k-points                                
   0.00000000  0.00000000  0.00000000       0.003
   0.14285714  0.00000000  0.00000000       0.003
   0.28571429  0.00000000  0.00000000       0.003
   0.42857143  0.00000000  0.00000000       0.003
  -0.42857143 -0.00000000 -0.00000000       0.003
  -0.28571429 -0.00000000 -0.00000000       0.003
  -0.14285714 -0.00000000 -0.00000000       0.003
   0.00000000  0.14285714  0.00000000       0.003
   0.14285714  0.14285714  0.00000000       0.003
   0.28571429  0.14285714  0.00000000       0.003
   0.42857143  0.14285714  0.00000000       0.003
  -0.42857143  0.14285714 -0.00000000       0.003
  -0.28571429  0.14285714 -0.00000000       0.003
  -0.14285714  0.14285714 -0.00000000       0.003
   0.00000000  0.28571429 -0.00000000       0.003
   0.14285714  0.28571429  0.00000000       0.003
   0.28571429  0.28571429  0.00000000       0.003
   0.42857143  0.28571429  0.00000000       0.003
  -0.42857143  0.28571429 -0.00000000       0.003
  -0.28571429  0.28571429 -0.00000000       0.003
  -0.14285714  0.28571429 -0.00000000       0.003
   0.00000000  0.42857143 -0.00000000       0.003
   0.14285714  0.42857143  0.00000000       0.003
   0.28571429  0.42857143  0.00000000       0.003
   0.42857143  0.42857143  0.00000000       0.003
  -0.42857143  0.42857143 -0.00000000       0.003
  -0.28571429  0.42857143 -0.00000000       0.003
  -0.14285714  0.42857143 -0.00000000       0.003
  -0.00000000 -0.42857143  0.00000000       0.003
   0.14285714 -0.42857143  0.00000000       0.003
   0.28571429 -0.42857143  0.00000000       0.003
   0.42857143 -0.42857143  0.00000000       0.003
  -0.42857143 -0.42857143  0.00000000       0.003
  -0.28571429 -0.42857143 -0.00000000       0.003
  -0.14285714 -0.42857143  0.00000000       0.003
  -0.00000000 -0.28571429  0.00000000       0.003
   0.14285714 -0.28571429  0.00000000       0.003
   0.28571429 -0.28571429  0.00000000       0.003
   0.42857143 -0.28571429  0.00000000       0.003
  -0.42857143 -0.28571429 -0.00000000       0.003
  -0.28571429 -0.28571429 -0.00000000       0.003
  -0.14285714 -0.28571429 -0.00000000       0.003
  -0.00000000 -0.14285714 -0.00000000       0.003
   0.14285714 -0.14285714  0.00000000       0.003
   0.28571429 -0.14285714  0.00000000       0.003
   0.42857143 -0.14285714  0.00000000       0.003
  -0.42857143 -0.14285714 -0.00000000       0.003
  -0.28571429 -0.14285714 -0.00000000       0.003
  -0.14285714 -0.14285714 -0.00000000       0.003
  -0.00000000  0.00000000  0.14285714       0.003
   0.14285714 -0.00000000  0.14285714       0.003
   0.28571429 -0.00000000  0.14285714       0.003
   0.42857143 -0.00000000  0.14285714       0.003
  -0.42857143 -0.00000000  0.14285714       0.003
  -0.28571429 -0.00000000  0.14285714       0.003
  -0.14285714 -0.00000000  0.14285714       0.003
  -0.00000000  0.14285714  0.14285714       0.003
   0.14285714  0.14285714  0.14285714       0.003
   0.28571429  0.14285714  0.14285714       0.003
   0.42857143  0.14285714  0.14285714       0.003
  -0.42857143  0.14285714  0.14285714       0.003
  -0.28571429  0.14285714  0.14285714       0.003
  -0.14285714  0.14285714  0.14285714       0.003
  -0.00000000  0.28571429  0.14285714       0.003
   0.14285714  0.28571429  0.14285714       0.003
   0.28571429  0.28571429  0.14285714       0.003
   0.42857143  0.28571429  0.14285714       0.003
  -0.42857143  0.28571429  0.14285714       0.003
  -0.28571429  0.28571429  0.14285714       0.003
  -0.14285714  0.28571429  0.14285714       0.003
  -0.00000000  0.42857143  0.14285714       0.003
   0.14285714  0.42857143  0.14285714       0.003
   0.28571429  0.42857143  0.14285714       0.003
   0.42857143  0.42857143  0.14285714       0.003
  -0.42857143  0.42857143  0.14285714       0.003
  -0.28571429  0.42857143  0.14285714       0.003
  -0.14285714  0.42857143  0.14285714       0.003
  -0.00000000 -0.42857143  0.14285714       0.003
   0.14285714 -0.42857143  0.14285714       0.003
   0.28571429 -0.42857143  0.14285714       0.003
   0.42857143 -0.42857143  0.14285714       0.003
  -0.42857143 -0.42857143  0.14285714       0.003
  -0.28571429 -0.42857143  0.14285714       0.003
  -0.14285714 -0.42857143  0.14285714       0.003
  -0.00000000 -0.28571429  0.14285714       0.003
   0.14285714 -0.28571429  0.14285714       0.003
   0.28571429 -0.28571429  0.14285714       0.003
   0.42857143 -0.28571429  0.14285714       0.003
  -0.42857143 -0.28571429  0.14285714       0.003
  -0.28571429 -0.28571429  0.14285714       0.003
  -0.14285714 -0.28571429  0.14285714       0.003
   0.00000000 -0.14285714  0.14285714       0.003
   0.14285714 -0.14285714  0.14285714       0.003
   0.28571429 -0.14285714  0.14285714       0.003
   0.42857143 -0.14285714  0.14285714       0.003
  -0.42857143 -0.14285714  0.14285714       0.003
  -0.28571429 -0.14285714  0.14285714       0.003
  -0.14285714 -0.14285714  0.14285714       0.003
  -0.00000000  0.00000000  0.28571429       0.003
   0.14285714  0.00000000  0.28571429       0.003
   0.28571429 -0.00000000  0.28571429       0.003
   0.42857143 -0.00000000  0.28571429       0.003
  -0.42857143 -0.00000000  0.28571429       0.003
  -0.28571429 -0.00000000  0.28571429       0.003
  -0.14285714 -0.00000000  0.28571429       0.003
  -0.00000000  0.14285714  0.28571429       0.003
   0.14285714  0.14285714  0.28571429       0.003
   0.28571429  0.14285714  0.28571429       0.003
   0.42857143  0.14285714  0.28571429       0.003
  -0.42857143  0.14285714  0.28571429       0.003
  -0.28571429  0.14285714  0.28571429       0.003
  -0.14285714  0.14285714  0.28571429       0.003
  -0.00000000  0.28571429  0.28571429       0.003
   0.14285714  0.28571429  0.28571429       0.003
   0.28571429  0.28571429  0.28571429       0.003
   0.42857143  0.28571429  0.28571429       0.003
  -0.42857143  0.28571429  0.28571429       0.003
  -0.28571429  0.28571429  0.28571429       0.003
  -0.14285714  0.28571429  0.28571429       0.003
  -0.00000000  0.42857143  0.28571429       0.003
   0.14285714  0.42857143  0.28571429       0.003
   0.28571429  0.42857143  0.28571429       0.003
   0.42857143  0.42857143  0.28571429       0.003
  -0.42857143  0.42857143  0.28571429       0.003
  -0.28571429  0.42857143  0.28571429       0.003
  -0.14285714  0.42857143  0.28571429       0.003
  -0.00000000 -0.42857143  0.28571429       0.003
   0.14285714 -0.42857143  0.28571429       0.003
   0.28571429 -0.42857143  0.28571429       0.003
   0.42857143 -0.42857143  0.28571429       0.003
  -0.42857143 -0.42857143  0.28571429       0.003
  -0.28571429 -0.42857143  0.28571429       0.003
  -0.14285714 -0.42857143  0.28571429       0.003
   0.00000000 -0.28571429  0.28571429       0.003
   0.14285714 -0.28571429  0.28571429       0.003
   0.28571429 -0.28571429  0.28571429       0.003
   0.42857143 -0.28571429  0.28571429       0.003
  -0.42857143 -0.28571429  0.28571429       0.003
  -0.28571429 -0.28571429  0.28571429       0.003
  -0.14285714 -0.28571429  0.28571429       0.003
  -0.00000000 -0.14285714  0.28571429       0.003
   0.14285714 -0.14285714  0.28571429       0.003
   0.28571429 -0.14285714  0.28571429       0.003
   0.42857143 -0.14285714  0.28571429       0.003
  -0.42857143 -0.14285714  0.28571429       0.003
  -0.28571429 -0.14285714  0.28571429       0.003
  -0.14285714 -0.14285714  0.28571429       0.003
  -0.00000000 -0.00000000  0.42857143       0.003
   0.14285714  0.00000000  0.42857143       0.003
   0.28571429  0.00000000  0.42857143       0.003
   0.42857143  0.00000000  0.42857143       0.003
  -0.42857143  0.00000000  0.42857143       0.003
  -0.28571429  0.00000000  0.42857143       0.003
  -0.14285714 -0.00000000  0.42857143       0.003
  -0.00000000  0.14285714  0.42857143       0.003
   0.14285714  0.14285714  0.42857143       0.003
   0.28571429  0.14285714  0.42857143       0.003
   0.42857143  0.14285714  0.42857143       0.003
  -0.42857143  0.14285714  0.42857143       0.003
  -0.28571429  0.14285714  0.42857143       0.003
  -0.14285714  0.14285714  0.42857143       0.003
  -0.00000000  0.28571429  0.42857143       0.003
   0.14285714  0.28571429  0.42857143       0.003
   0.28571429  0.28571429  0.42857143       0.003
   0.42857143  0.28571429  0.42857143       0.003
  -0.42857143  0.28571429  0.42857143       0.003
  -0.28571429  0.28571429  0.42857143       0.003
  -0.14285714  0.28571429  0.42857143       0.003
  -0.00000000  0.42857143  0.42857143       0.003
   0.14285714  0.42857143  0.42857143       0.003
   0.28571429  0.42857143  0.42857143       0.003
   0.42857143  0.42857143  0.42857143       0.003
  -0.42857143  0.42857143  0.42857143       0.003
  -0.28571429  0.42857143  0.42857143       0.003
  -0.14285714  0.42857143  0.42857143       0.003
   0.00000000 -0.42857143  0.42857143       0.003
   0.14285714 -0.42857143  0.42857143       0.003
   0.28571429 -0.42857143  0.42857143       0.003
   0.42857143 -0.42857143  0.42857143       0.003
  -0.42857143 -0.42857143  0.42857143       0.003
  -0.28571429 -0.42857143  0.42857143       0.003
  -0.14285714 -0.42857143  0.42857143       0.003
   0.00000000 -0.28571429  0.42857143       0.003
   0.14285714 -0.28571429  0.42857143       0.003
   0.28571429 -0.28571429  0.42857143       0.003
   0.42857143 -0.28571429  0.42857143       0.003
  -0.42857143 -0.28571429  0.42857143       0.003
  -0.28571429 -0.28571429  0.42857143       0.003
  -0.14285714 -0.28571429  0.42857143       0.003
  -0.00000000 -0.14285714  0.42857143       0.003
   0.14285714 -0.14285714  0.42857143       0.003
   0.28571429 -0.14285714  0.42857143       0.003
   0.42857143 -0.14285714  0.42857143       0.003
  -0.42857143 -0.14285714  0.42857143       0.003
  -0.28571429 -0.14285714  0.42857143       0.003
  -0.14285714 -0.14285714  0.42857143       0.003
   0.00000000  0.00000000 -0.42857143       0.003
   0.14285714 -0.00000000 -0.42857143       0.003
   0.28571429 -0.00000000 -0.42857143       0.003
   0.42857143 -0.00000000 -0.42857143       0.003
  -0.42857143 -0.00000000 -0.42857143       0.003
  -0.28571429 -0.00000000 -0.42857143       0.003
  -0.14285714 -0.00000000 -0.42857143       0.003
   0.00000000  0.14285714 -0.42857143       0.003
   0.14285714  0.14285714 -0.42857143       0.003
   0.28571429  0.14285714 -0.42857143       0.003
   0.42857143  0.14285714 -0.42857143       0.003
  -0.42857143  0.14285714 -0.42857143       0.003
  -0.28571429  0.14285714 -0.42857143       0.003
  -0.14285714  0.14285714 -0.42857143       0.003
   0.00000000  0.28571429 -0.42857143       0.003
   0.14285714  0.28571429 -0.42857143       0.003
   0.28571429  0.28571429 -0.42857143       0.003
   0.42857143  0.28571429 -0.42857143       0.003
  -0.42857143  0.28571429 -0.42857143       0.003
  -0.28571429  0.28571429 -0.42857143       0.003
  -0.14285714  0.28571429 -0.42857143       0.003
  -0.00000000  0.42857143 -0.42857143       0.003
   0.14285714  0.42857143 -0.42857143       0.003
   0.28571429  0.42857143 -0.42857143       0.003
   0.42857143  0.42857143 -0.42857143       0.003
  -0.42857143  0.42857143 -0.42857143       0.003
  -0.28571429  0.42857143 -0.42857143       0.003
  -0.14285714  0.42857143 -0.42857143       0.003
   0.00000000 -0.42857143 -0.42857143       0.003
   0.14285714 -0.42857143 -0.42857143       0.003
   0.28571429 -0.42857143 -0.42857143       0.003
   0.42857143 -0.42857143 -0.42857143       0.003
  -0.42857143 -0.42857143 -0.42857143       0.003
  -0.28571429 -0.42857143 -0.42857143       0.003
  -0.14285714 -0.42857143 -0.42857143       0.003
   0.00000000 -0.28571429 -0.42857143       0.003
   0.14285714 -0.28571429 -0.42857143       0.003
   0.28571429 -0.28571429 -0.42857143       0.003
   0.42857143 -0.28571429 -0.42857143       0.003
  -0.42857143 -0.28571429 -0.42857143       0.003
  -0.28571429 -0.28571429 -0.42857143       0.003
  -0.14285714 -0.28571429 -0.42857143       0.003
   0.00000000 -0.14285714 -0.42857143       0.003
   0.14285714 -0.14285714 -0.42857143       0.003
   0.28571429 -0.14285714 -0.42857143       0.003
   0.42857143 -0.14285714 -0.42857143       0.003
  -0.42857143 -0.14285714 -0.42857143       0.003
  -0.28571429 -0.14285714 -0.42857143       0.003
  -0.14285714 -0.14285714 -0.42857143       0.003
   0.00000000 -0.00000000 -0.28571429       0.003
   0.14285714 -0.00000000 -0.28571429       0.003
   0.28571429  0.00000000 -0.28571429       0.003
   0.42857143  0.00000000 -0.28571429       0.003
  -0.42857143  0.00000000 -0.28571429       0.003
  -0.28571429  0.00000000 -0.28571429       0.003
  -0.14285714 -0.00000000 -0.28571429       0.003
   0.00000000  0.14285714 -0.28571429       0.003
   0.14285714  0.14285714 -0.28571429       0.003
   0.28571429  0.14285714 -0.28571429       0.003
   0.42857143  0.14285714 -0.28571429       0.003
  -0.42857143  0.14285714 -0.28571429       0.003
  -0.28571429  0.14285714 -0.28571429       0.003
  -0.14285714  0.14285714 -0.28571429       0.003
   0.00000000  0.28571429 -0.28571429       0.003
   0.14285714  0.28571429 -0.28571429       0.003
   0.28571429  0.28571429 -0.28571429       0.003
   0.42857143  0.28571429 -0.28571429       0.003
  -0.42857143  0.28571429 -0.28571429       0.003
[...]
    0.000000  125.481834  125.477515  125.477953   18.265818   21.485821   23.137325
    0.543452    3.634377    3.634165    3.634157   -0.818034   -0.964151   -1.039937
    1.086904    2.140076    2.139945    2.139941   -0.089023   -0.105249   -0.114192
    1.630356    3.042566    3.042372    3.042379   -0.027568   -0.032923   -0.035925
    2.173808    3.377022    3.376309    3.376358   -0.012768   -0.014964   -0.017147
    2.717260    6.752428    6.718380    6.720263    0.026323    0.002003    0.019292
    3.260712    2.640705    2.641443    2.641309   -0.005233   -0.005069   -0.006923
    3.804164    3.508408    3.508465    3.508453   -0.002281   -0.002820   -0.003305
    4.347615    3.416104    3.416113    3.416111   -0.002013   -0.002683   -0.002956
    4.891067    2.835969    2.835965    2.835970   -0.001381   -0.001830   -0.002122
    5.434519    9.755122    9.755095    9.755050   -0.000819   -0.001003   -0.001454
    5.977971    8.633803    8.635248    8.633920   -0.001323   -0.004230   -0.003479
    6.521423    4.587875    4.588186    4.587365   -0.004616   -0.007783   -0.006860
    7.064875    2.136139    2.136753    2.136653    0.020946    0.034070    0.027686
    7.608327    3.010512    3.010107    3.009932   -0.002073   -0.005224   -0.003495
    8.151779    3.159478    3.159326    3.159730   -0.000500   -0.001168   -0.000734
    8.695231    1.079767    1.079701    1.079714    0.001308    0.001093    0.001064
    9.238683    1.287416    1.287157    1.287138    0.003863    0.004016    0.003973
    9.782135    1.162646    1.162995    1.162468    0.003308    0.004243    0.003255
   10.325587    0.541179    0.540985    0.540831    0.004696    0.004460    0.004280
   10.869039    0.523470    0.523394    0.523133   -0.003808   -0.004716   -0.003789
   11.412491    0.314572    0.314522    0.314425   -0.001333   -0.002297   -0.002416
   11.955942    0.196806    0.200711    0.198071    0.000031   -0.000983   -0.004722
   12.499394    0.126003    0.126202    0.126016   -0.000476    0.000376    0.001241
   13.042846    0.088861    0.088896    0.088860   -0.000411   -0.000091    0.000484
   13.586298    0.156316    0.156328    0.156314   -0.000314   -0.000123    0.000323
   14.129750    0.503454    0.503592    0.503723   -0.001286   -0.001035   -0.000719
   14.673202    0.394561    0.394576    0.394562   -0.000197   -0.000108    0.000233
   15.216654    0.209995    0.209804    0.209842   -0.000131   -0.000300    0.000176
   15.760106    0.316577    0.316566    0.316564   -0.000252   -0.000262    0.000072
   16.303558    0.567307    0.567338    0.567314   -0.000330   -0.000346   -0.000034
   16.847010    0.269611    0.269606    0.269602   -0.000266   -0.000308    0.000035
   17.390462    0.356149    0.356133    0.356129   -0.000319   -0.000444   -0.000037
   17.933914    0.639671    0.639637    0.639676   -0.000619   -0.000782   -0.000304
   18.477366    0.467419    0.467414    0.467398   -0.000313   -0.000403    0.000094
   19.020818    0.202372    0.202355    0.202324   -0.000397   -0.000554    0.000129
   19.564270    0.119680    0.119629    0.119535   -0.000673   -0.000961    0.000178
   20.107721    0.220105    0.219190    0.217193   -0.002538   -0.004348   -0.000029
   20.651173    0.074550    0.074449    0.074286    0.000984    0.001055    0.000043
   21.194625    0.054280    0.054260    0.054227    0.000459    0.000570    0.000074
   21.738077    0.023470    0.023461    0.023448    0.000316    0.000414    0.000102
   22.281529    0.006587    0.006583    0.006576    0.000273    0.000358    0.000147
   22.824981    0.004067    0.004064    0.004061    0.000281    0.000363    0.000212
   23.368433    0.003474    0.003472    0.003470    0.000367    0.000460    0.000356
   23.911885    0.004838    0.004836    0.004835    0.000826    0.000999    0.000964
   24.455337    0.004997    0.004996    0.004995   -0.000722   -0.000826   -0.000982
   24.998789    0.005236    0.005235    0.005235   -0.000251   -0.000274   -0.000372
   25.542241    0.037351    0.037354    0.037353   -0.000156   -0.000160   -0.000241
   26.085693    0.020375    0.020374    0.020374   -0.000121   -0.000123   -0.000188
   26.629145    0.043884    0.043884    0.043884   -0.000119   -0.000122   -0.000178
   27.172597    0.098616    0.098616    0.098615   -0.000165   -0.000178   -0.000230
   27.716048    0.041934    0.041949    0.041944   -0.000443   -0.000522   -0.000579
   28.259500    0.017187    0.017185    0.017186    0.000162    0.000216    0.000195
   28.802952    0.076211    0.076212    0.076212    0.000075    0.000112    0.000089
   29.346404    0.055954    0.055949    0.055950    0.000072    0.000107    0.000088
   29.889856    0.046084    0.046082    0.046083    0.000065    0.000103    0.000087
   30.433308    0.171720    0.171724    0.171723   -0.000066   -0.000082   -0.000084
   30.976760    0.067891    0.067888    0.067889    0.000043    0.000073    0.000070
   31.520212    0.058388    0.058389    0.058389    0.000051    0.000087    0.000090
   32.063664    0.084530    0.084526    0.084527    0.000065    0.000113    0.000131
   32.607116    0.117493    0.117481    0.117480    0.000128    0.000237    0.000295
   33.150568    0.111522    0.111481    0.111485   -0.000160   -0.000288   -0.000379
   33.694020    0.091900    0.091900    0.091899   -0.000003   -0.000022   -0.000062
   34.237472    0.137657    0.137647    0.137655    0.000002   -0.000017   -0.000032
   34.780924    0.063062    0.063055    0.063059   -0.000002   -0.000028   -0.000026
   35.324376    0.072579    0.072569    0.072580    0.000031    0.000018    0.000031
   35.867827    0.054738    0.054710    0.054742    0.000051    0.000023    0.000074
   36.411279    0.098763    0.098540    0.098791    0.000203    0.000226    0.000317
   36.954731    0.062969    0.062749    0.062997   -0.000217   -0.000099   -0.000424
   37.498183    0.034050    0.034024    0.034053   -0.000101   -0.000073   -0.000190
   38.041635    0.074013    0.074003    0.074016   -0.000068   -0.000051   -0.000130
   38.585087    0.020212    0.020209    0.020206   -0.000070   -0.000050   -0.000124
   39.128539    0.016045    0.016042    0.016045   -0.000055   -0.000044   -0.000100
   39.671991    0.017268    0.017266    0.017269   -0.000047   -0.000036   -0.000089
   40.215443    0.008939    0.008937    0.008939   -0.000050   -0.000042   -0.000092
   40.758895    0.024618    0.024622    0.024624   -0.000060   -0.000047   -0.000101
   41.302347    0.016785    0.016782    0.016785   -0.000059   -0.000051   -0.000105
   41.845799    0.019930    0.019926    0.019930   -0.000069   -0.000059   -0.000122
   42.389251    0.045144    0.045136    0.045146   -0.000106   -0.000098   -0.000179
   42.932703    0.043668    0.043627    0.043671   -0.000229   -0.000184   -0.000346
   43.476154    0.061161    0.060852    0.061276    0.000320    0.000384    0.000621
   44.019606    0.014723    0.014706    0.014727    0.000094    0.000088    0.000167
   44.563058    0.030103    0.030095    0.030105    0.000041    0.000038    0.000077
   45.106510    0.007575    0.007573    0.007579    0.000028    0.000029    0.000048
   45.649962    0.001538    0.001536    0.001538    0.000024    0.000021    0.000036
   46.193414    0.000713    0.000712    0.000714    0.000017    0.000016    0.000026
   46.736866    0.000465    0.000464    0.000465    0.000013    0.000012    0.000019
   47.280318    0.000341    0.000341    0.000341    0.000010    0.000010    0.000015
   47.823770    0.000266    0.000266    0.000266    0.000008    0.000008    0.000011
   48.367222    0.000216    0.000216    0.000216    0.000007    0.000007    0.000009
   48.910674    0.000180    0.000180    0.000180    0.000006    0.000006    0.000007
   49.454126    0.000153    0.000153    0.000153    0.000005    0.000005    0.000006
   49.997578    0.000132    0.000132    0.000132    0.000004    0.000004    0.000005
   50.541030    0.000115    0.000115    0.000115    0.000003    0.000004    0.000004
   51.084482    0.000101    0.000101    0.000101    0.000003    0.000003    0.000003
   51.627933    0.000090    0.000090    0.000090    0.000003    0.000003    0.000002
   52.171385    0.000081    0.000081    0.000081    0.000002    0.000003    0.000002
   52.714837    0.000073    0.000072    0.000073    0.000002    0.000002    0.000001
   53.258289    0.000066    0.000066    0.000066    0.000002    0.000002    0.000001
   53.801741    0.000060    0.000060    0.000060    0.000001    0.000002    0.000001

  frequency dependent      REAL DIELECTRIC FUNCTION (independent particle, no local field effects) current-current (2nd set in vasprun.xml)
     E(ev)        X           Y           Z          XY          YZ          ZX
  --------------------------------------------------------------------------------------------------------------
    0.000000   20.632536   20.631696   20.631747   -4.055761   -4.774843   -5.143498
    0.543452   -2.764365   -2.764490   -2.764615    0.192145    0.226026    0.243598
    1.086904    6.604958    6.604487    6.604430    0.100423    0.117730    0.127175
    1.630356    1.782840    1.782041    1.782019    0.047127    0.054663    0.059467
    2.173808    6.410014    6.408065    6.408144    0.028924    0.032436    0.036000
    2.717260    6.928849    6.937987    6.938849    0.049178    0.050620    0.068293
    3.260712    5.639195    5.637670    5.637803    0.011497    0.012972    0.014123
    3.804164    7.765659    7.765452    7.765391    0.008629    0.009981    0.010887
    4.347615    1.426564    1.426522    1.426448    0.006582    0.007672    0.008357
    4.891067    2.195382    2.195361    2.195310    0.005227    0.006100    0.006670
    5.434519    1.324707    1.324573    1.324571    0.003540    0.003574    0.004444
    5.977971    1.471144    1.471420    1.471394    0.010337    0.016694    0.013554
    6.521423   -2.627170   -2.627395   -2.626723    0.003562    0.004207    0.005119
    7.064875   -1.373628   -1.373440   -1.373488    0.007956    0.011188    0.010563
    7.608327   -1.252051   -1.251702   -1.252566    0.005001    0.008348    0.006804
    8.151779   -1.829219   -1.829183   -1.828953    0.005359    0.007383    0.007253
    8.695231   -1.789756   -1.789594   -1.789898    0.001531    0.001711    0.001988
    9.238683   -0.403933   -0.403998   -0.404306   -0.000829   -0.001628   -0.001133
    9.782135   -1.270157   -1.270759   -1.270882    0.004582    0.005138    0.005763
   10.325587   -1.052790   -1.052966   -1.053701   -0.000508   -0.001764    0.000224
   10.869039   -0.607601   -0.606858   -0.606659    0.000146    0.001420    0.000857
   11.412491   -0.194134   -0.193321   -0.193771    0.001223    0.002204    0.001534
   11.955942   -0.120885   -0.118978   -0.120642    0.001333    0.005702    0.006818
   12.499394   -0.009852   -0.010747   -0.009907    0.000785    0.000759    0.001627
   13.042846    0.287030    0.286604    0.286989    0.000739    0.000773    0.001154
   13.586298    0.399140    0.398864    0.399105    0.000658    0.000712    0.000971
   14.129750    0.689860    0.689614    0.689734   -0.000095   -0.000563   -0.000217
   14.673202    0.317897    0.317751    0.317860    0.000583    0.000688    0.000842
   15.216654    0.394572    0.394463    0.394524    0.000352    0.000339    0.000523
   15.760106    0.705079    0.704931    0.704974    0.000532    0.000554    0.000725
   16.303558    0.680027    0.679884    0.679900    0.000079   -0.000104    0.000140
   16.847010    0.431636    0.431492    0.431480    0.000480    0.000470    0.000645
   17.390462    0.735157    0.734993    0.734956    0.000202    0.000008    0.000278
   17.933914    0.468680    0.468691    0.468516    0.000224    0.000136    0.000303
   18.477366    0.387948    0.387756    0.387623    0.000371    0.000216    0.000491
   19.020818    0.434030    0.433792    0.433554    0.000400    0.000169    0.000514
   19.564270    0.406843    0.406479    0.405992    0.000445   -0.000003    0.000496
   20.107721    0.486973    0.485888    0.484252    0.002097    0.001422    0.000391
   20.651173    0.423575    0.423977    0.424801    0.000471    0.001457    0.000200
   21.194625    0.503569    0.503727    0.504141    0.000307    0.000771    0.000295
   21.738077    0.521845    0.521931    0.522216    0.000274    0.000591    0.000306
   22.281529    0.591634    0.591685    0.591907    0.000256    0.000496    0.000302
   22.824981    0.636740    0.636771    0.636957    0.000235    0.000432    0.000284
   23.368433    0.672993    0.673011    0.673172    0.000200    0.000364    0.000244
   23.911885    0.707174    0.707183    0.707326   -0.000062    0.000038   -0.000085
   24.455337    0.726803    0.726806    0.726935   -0.000059    0.000027   -0.000079
   24.998789    0.761681    0.761678    0.761798    0.000174    0.000292    0.000218
   25.542241    0.769834    0.769832    0.769943    0.000179    0.000289    0.000226
   26.085693    0.798131    0.798119    0.798224    0.000185    0.000290    0.000234
   26.629145    0.829603    0.829588    0.829688    0.000181    0.000279    0.000229
   27.172597    0.754400    0.754383    0.754479    0.000185    0.000279    0.000234
   27.716048    0.799317    0.799292    0.799386    0.000538    0.000638    0.000669
   28.259500    0.836552    0.836527    0.836617    0.000199    0.000292    0.000254
   28.802952    0.849036    0.849010    0.849098    0.000157    0.000236    0.000200
   29.346404    0.845277    0.845249    0.845336    0.000166    0.000259    0.000215
   29.889856    0.898102    0.898067    0.898155    0.000132    0.000199    0.000167
   30.433308    0.864156    0.864110    0.864199    0.000504    0.000754    0.000679
   30.976760    0.802537    0.802487    0.802577    0.000131    0.000194    0.000166
   31.520212    0.851271    0.851221    0.851310    0.000128    0.000197    0.000164
   32.063664    0.841426    0.841365    0.841456    0.000118    0.000185    0.000152
   32.607116    0.856909    0.856819    0.856909    0.000069    0.000112    0.000070
   33.150568    0.821747    0.821756    0.821865    0.000062    0.000088   -0.000061
   33.694020    0.884342    0.884283    0.884408    0.000125    0.000194    0.000140
   34.237472    0.824357    0.824286    0.824416    0.000100    0.000164    0.000112
   34.780924    0.828418    0.828319    0.828473    0.000026    0.000071    0.000020
   35.324376    0.871843    0.871703    0.871899    0.000119    0.000209    0.000135
   35.867827    0.811614    0.811388    0.811680    0.000127    0.000262    0.000137
   36.411279    0.837345    0.836726    0.837449    0.000073    0.000322   -0.000007
   36.954731    0.761123    0.761723    0.761087   -0.000033   -0.000152   -0.000016
   37.498183    0.816030    0.816246    0.816037    0.000066    0.000040    0.000105
   38.041635    0.795160    0.795284    0.795176    0.000079    0.000076    0.000118
   38.585087    0.819905    0.819994    0.819925    0.000065    0.000092    0.000104
   39.128539    0.843765    0.843825    0.843788    0.000076    0.000092    0.000108
   39.671991    0.851031    0.851074    0.851054    0.000068    0.000087    0.000098
   40.215443    0.867042    0.867072    0.867065    0.000071    0.000096    0.000103
   40.758895    0.874779    0.874795    0.874802    0.000072    0.000097    0.000104
   41.302347    0.869397    0.869402    0.869422    0.000066    0.000099    0.000100
   41.845799    0.883822    0.883809    0.883849    0.000071    0.000113    0.000111
   42.389251    0.879670    0.879627    0.879702    0.000062    0.000120    0.000113
   42.932703    0.898245    0.898105    0.898280    0.000056    0.000148    0.000150
   43.476154    0.851598    0.851990    0.851535    0.000398    0.000179    0.000602
   44.019606    0.859517    0.859652    0.859511    0.000104    0.000067    0.000110
   44.563058    0.881591    0.881675    0.881595    0.000082    0.000075    0.000090
   45.106510    0.874252    0.874317    0.874265    0.000082    0.000069    0.000089
   45.649962    0.879897    0.879950    0.879906    0.000069    0.000071    0.000080
   46.193414    0.888073    0.888119    0.888083    0.000066    0.000070    0.000078
   46.736866    0.893721    0.893761    0.893731    0.000063    0.000069    0.000076
   47.280318    0.898279    0.898315    0.898290    0.000061    0.000068    0.000074
   47.823770    0.902192    0.902224    0.902202    0.000060    0.000067    0.000072
   48.367222    0.905663    0.905692    0.905673    0.000058    0.000066    0.000071
   48.910674    0.908805    0.908832    0.908816    0.000056    0.000065    0.000069
   49.454126    0.911688    0.911714    0.911699    0.000055    0.000064    0.000067
   49.997578    0.914360    0.914384    0.914371    0.000054    0.000063    0.000066
   50.541030    0.916854    0.916877    0.916865    0.000052    0.000062    0.000065
   51.084482    0.919195    0.919216    0.919205    0.000051    0.000061    0.000063
   51.627933    0.921401    0.921421    0.921411    0.000050    0.000060    0.000062
   52.171385    0.923489    0.923508    0.923499    0.000049    0.000059    0.000061
   52.714837    0.925470    0.925488    0.925479    0.000048    0.000057    0.000059
   53.258289    0.927354    0.927371    0.927364    0.000047    0.000056    0.000058
   53.801741    0.929151    0.929167    0.929160    0.000046    0.000055    0.000057
 
 The outermost node in the dielectric function lies at epsilon=  12.6


--------------------------------------------------------------------------------------------------------


    OPTICS:  cpu time    0.2780: real time    0.2820
    4ORBIT:  cpu time    0.0000: real time    0.0000

 Spin-Orbit-Coupling matrix elements

 Ion:    1  E_soc:    -33.0168364
 l=   1
     0.0000000    -5.0845631    -5.0845631
    -5.0845631     0.0000000    -5.0845630
    -5.0845631    -5.0845630     0.0000000
 l=   2
     0.0000000    -0.0836557     0.0000000    -0.0836557    -0.3345756
    -0.0836557     0.0000000    -0.2509317    -0.0836674    -0.0836557
     0.0000000    -0.2509317     0.0000000    -0.2509317     0.0000000
    -0.0836557    -0.0836674    -0.2509317     0.0000000    -0.0836557
    -0.3345756    -0.0836557     0.0000000    -0.0836557     0.0000000
 l=   3
     0.0000000     0.0000000     0.0000000     0.0000000     0.0000000     0.0000000     0.0000000
     0.0000000     0.0000000     0.0000000     0.0000000     0.0000000     0.0000000     0.0000000
     0.0000000     0.0000000     0.0000000     0.0000000     0.0000000     0.0000000     0.0000000
     0.0000000     0.0000000     0.0000000     0.0000000     0.0000000     0.0000000     0.0000000
     0.0000000     0.0000000     0.0000000     0.0000000     0.0000000     0.0000000     0.0000000
     0.0000000     0.0000000     0.0000000     0.0000000     0.0000000     0.0000000     0.0000000
     0.0000000     0.0000000     0.0000000     0.0000000     0.0000000     0.0000000     0.0000000

 total amount of memory used by VASP MPI-rank0    61229. kBytes
=======================================================================

   base      :      30000. kBytes
   nonl-proj :       8893. kBytes
   fftplans  :       3396. kBytes
   grid      :       3512. kBytes
   one-center:         62. kBytes
   wavefun   :      15366. kBytes
 
  
  
 General timing and accounting informations for this job:
 ========================================================
  
                  Total CPU time used (sec):       29.051
                            User time (sec):       27.571
                          System time (sec):        1.480
                         Elapsed time (sec):       30.341
  
                   Maximum memory used (kb):      184884.
                   Average memory used (kb):           0.
  
                          Minor page faults:       175330
                          Major page faults:            0
                 Voluntary context switches:         1356
