   1   1   0   0
  0.5789729E+02  0.4342346E-09  0.4342346E-09  0.4342346E-09  0.1000000E-15
  1.000000000000000E-004
  CAR 
 Og_FCC                                  
     80.57798002    -35.74774249  301      3.94920097      1.00000000
    -35.748  0.0000E+00  0.0000E+00
    -35.360  0.0000E+00  0.0000E+00
    -34.972  0.0000E+00  0.0000E+00
    -34.584  0.0000E+00  0.0000E+00
    -34.197  0.0000E+00  0.0000E+00
    -33.809  0.0000E+00  0.0000E+00
    -33.421  0.0000E+00  0.0000E+00
    -33.033  0.0000E+00  0.0000E+00
    -32.646  0.0000E+00  0.0000E+00
    -32.258  0.0000E+00  0.0000E+00
    -31.870  0.0000E+00  0.0000E+00
    -31.482  0.0000E+00  0.0000E+00
    -31.095  0.0000E+00  0.0000E+00
    -30.707  0.0000E+00  0.0000E+00
    -30.319  0.0000E+00  0.4000E+01
    -29.931  0.0000E+00  0.4000E+01
    -29.544  0.0000E+00  0.4000E+01
    -29.156  0.0000E+00  0.4000E+01
    -28.768  0.0000E+00  0.4000E+01
    -28.380  0.0000E+00  0.4000E+01
    -27.993  0.0000E+00  0.4000E+01
    -27.605  0.0000E+00  0.4000E+01
    -27.217  0.0000E+00  0.4000E+01
    -26.829  0.0000E+00  0.4000E+01
    -26.442  0.0000E+00  0.4000E+01
    -26.054  0.0000E+00  0.4000E+01
    -25.666  0.0000E+00  0.4000E+01
    -25.278  0.0000E+00  0.4000E+01
    -24.891  0.0000E+00  0.4000E+01
    -24.503  0.0000E+00  0.4000E+01
    -24.115  0.0000E+00  0.4000E+01
    -23.727  0.0000E+00  0.1000E+02
    -23.340  0.0000E+00  0.1000E+02
    -22.952  0.0000E+00  0.1000E+02
    -22.564  0.0000E+00  0.1000E+02
    -22.176  0.0000E+00  0.1000E+02
    -21.789  0.0000E+00  0.1000E+02
    -21.401  0.0000E+00  0.1000E+02
    -21.013  0.0000E+00  0.1000E+02
    -20.625  0.0000E+00  0.1000E+02
    -20.238  0.0000E+00  0.1000E+02
    -19.850  0.0000E+00  0.1200E+02
    -19.462  0.0000E+00  0.1200E+02
    -19.074  0.0000E+00  0.1200E+02
    -18.687  0.0000E+00  0.1200E+02
    -18.299  0.0000E+00  0.1200E+02
    -17.911  0.0000E+00  0.1200E+02
    -17.523  0.0000E+00  0.1200E+02
    -17.136  0.0000E+00  0.1200E+02
    -16.748  0.0000E+00  0.1200E+02
    -16.360  0.0000E+00  0.1200E+02
    -15.972  0.0000E+00  0.1200E+02
    -15.585  0.0000E+00  0.1200E+02
    -15.197  0.0000E+00  0.1200E+02
    -14.809  0.0000E+00  0.1200E+02
    -14.421  0.0000E+00  0.1200E+02
    -14.034  0.0000E+00  0.1200E+02
    -13.646  0.0000E+00  0.1200E+02
    -13.258  0.0000E+00  0.1200E+02
    -12.870  0.0000E+00  0.1200E+02
    -12.483  0.0000E+00  0.1200E+02
    -12.095  0.0000E+00  0.1200E+02
    -11.707  0.0000E+00  0.1200E+02
    -11.319  0.0000E+00  0.1200E+02
    -10.932  0.0000E+00  0.1200E+02
    -10.544  0.0000E+00  0.1200E+02
    -10.156  0.0000E+00  0.1200E+02
     -9.768  0.0000E+00  0.1200E+02
     -9.381  0.0000E+00  0.1200E+02
     -8.993  0.0000E+00  0.1200E+02
     -8.605  0.0000E+00  0.1200E+02
     -8.217  0.0000E+00  0.1200E+02
     -7.830  0.0000E+00  0.1200E+02
     -7.442  0.0000E+00  0.1200E+02
     -7.054  0.0000E+00  0.1386E+02
     -6.666  0.0000E+00  0.1400E+02
     -6.279  0.0000E+00  0.1400E+02
     -5.891  0.0000E+00  0.1400E+02
     -5.503  0.0000E+00  0.1400E+02
     -5.115  0.0000E+00  0.1400E+02
     -4.728  0.0000E+00  0.1400E+02
     -4.340  0.0000E+00  0.1400E+02
     -3.952  0.0000E+00  0.1400E+02
     -3.564  0.0000E+00  0.1400E+02
     -3.177  0.0000E+00  0.1400E+02
     -2.789  0.0000E+00  0.1400E+02
     -2.401  0.0000E+00  0.1400E+02
     -2.013  0.0000E+00  0.1400E+02
     -1.626  0.0000E+00  0.1400E+02
     -1.238  0.0000E+00  0.1400E+02
     -0.850  0.0000E+00  0.1400E+02
     -0.462  0.0000E+00  0.1400E+02
     -0.075  0.0000E+00  0.1400E+02
      0.313  0.0000E+00  0.1400E+02
      0.701  0.0000E+00  0.1400E+02
      1.089  0.2181E-02  0.1545E+02
      1.476  0.0000E+00  0.1575E+02
      1.864  0.0000E+00  0.1597E+02
      2.252  0.0000E+00  0.1666E+02
      2.640  0.7164E-01  0.1696E+02
      3.027  0.0000E+00  0.1763E+02
      3.415  0.0000E+00  0.1778E+02
      3.803  0.2388E-01  0.1799E+02
      4.191  0.0000E+00  0.1801E+02
      4.579  0.0000E+00  0.1801E+02
      4.966  0.0000E+00  0.1801E+02
      5.354  0.0000E+00  0.1801E+02
      5.742  0.0000E+00  0.1808E+02
      6.130  0.0000E+00  0.1814E+02
      6.517  0.0000E+00  0.1828E+02
      6.905  0.0000E+00  0.1844E+02
      7.293  0.0000E+00  0.1944E+02
      7.681  0.0000E+00  0.1978E+02
      8.068  0.0000E+00  0.2003E+02
      8.456  0.0000E+00  0.2031E+02
      8.844  0.1435E+00  0.2058E+02
      9.232  0.0000E+00  0.2169E+02
      9.619  0.0000E+00  0.2203E+02
     10.007  0.0000E+00  0.2238E+02
     10.395  0.0000E+00  0.2286E+02
     10.783  0.0000E+00  0.2358E+02
     11.170  0.0000E+00  0.2401E+02
     11.558  0.0000E+00  0.2500E+02
     11.946  0.0000E+00  0.2567E+02
     12.334  0.0000E+00  0.2606E+02
     12.721  0.0000E+00  0.2631E+02
     13.109  0.0000E+00  0.2748E+02
     13.497  0.0000E+00  0.2812E+02
     13.885  0.0000E+00  0.2895E+02
     14.272  0.0000E+00  0.2973E+02
     14.660  0.0000E+00  0.3047E+02
     15.048  0.1075E+00  0.3085E+02
     15.436  0.0000E+00  0.3135E+02
     15.823  0.0000E+00  0.3199E+02
     16.211  0.1433E+00  0.3301E+02
     16.599  0.0000E+00  0.3346E+02
     16.987  0.0000E+00  0.3431E+02
     17.374  0.0000E+00  0.3489E+02
     17.762  0.0000E+00  0.3610E+02
     18.150  0.0000E+00  0.3722E+02
     18.538  0.0000E+00  0.3914E+02
     18.925  0.0000E+00  0.4144E+02
     19.313  0.0000E+00  0.4197E+02
     19.701  0.0000E+00  0.4325E+02
     20.089  0.2865E+00  0.4412E+02
     20.476  0.0000E+00  0.4544E+02
     20.864  0.0000E+00  0.4600E+02
     21.252  0.0000E+00  0.4641E+02
     21.640  0.0000E+00  0.4646E+02
     22.027  0.0000E+00  0.4693E+02
     22.415  0.1473E+00  0.4768E+02
     22.803  0.0000E+00  0.4806E+02
     23.191  0.0000E+00  0.4905E+02
     23.578  0.0000E+00  0.4933E+02
     23.966  0.1910E+00  0.5046E+02
     24.354  0.0000E+00  0.5133E+02
     24.742  0.4017E+00  0.5252E+02
     25.129  0.0000E+00  0.5377E+02
     25.517  0.0000E+00  0.5532E+02
     25.905  0.0000E+00  0.5651E+02
     26.293  0.5731E+00  0.5742E+02
     26.680  0.0000E+00  0.5767E+02
     27.068  0.0000E+00  0.5811E+02
     27.456  0.0000E+00  0.5942E+02
     27.844  0.0000E+00  0.6007E+02
     28.231  0.0000E+00  0.6057E+02
     28.619  0.0000E+00  0.6161E+02
     29.007  0.0000E+00  0.6224E+02
     29.395  0.0000E+00  0.6257E+02
     29.782  0.0000E+00  0.6362E+02
     30.170  0.0000E+00  0.6459E+02
     30.558  0.0000E+00  0.6510E+02
     30.946  0.2577E+00  0.6611E+02
     31.333  0.0000E+00  0.6688E+02
     31.721  0.6023E-01  0.6808E+02
     32.109  0.0000E+00  0.6974E+02
     32.497  0.0000E+00  0.7052E+02
     32.884  0.0000E+00  0.7150E+02
     33.272  0.0000E+00  0.7275E+02
     33.660  0.5331E+00  0.7346E+02
     34.048  0.0000E+00  0.7442E+02
     34.435  0.0000E+00  0.7500E+02
     34.823  0.1015E-14  0.7589E+02
     35.211  0.0000E+00  0.7735E+02
     35.599  0.0000E+00  0.7839E+02
     35.986  0.8225E-05  0.7978E+02
     36.374  0.0000E+00  0.8035E+02
     36.762  0.0000E+00  0.8142E+02
     37.150  0.0000E+00  0.8330E+02
     37.537  0.5008E-09  0.8330E+02
     37.925  0.0000E+00  0.8463E+02
     38.313  0.0000E+00  0.8549E+02
     38.701  0.0000E+00  0.8607E+02
     39.088  0.4430E+00  0.8652E+02
     39.476  0.2866E+00  0.8809E+02
     39.864  0.0000E+00  0.8916E+02
     40.252  0.0000E+00  0.8969E+02
     40.639  0.0000E+00  0.9104E+02
     41.027  0.0000E+00  0.9169E+02
     41.415  0.0000E+00  0.9334E+02
     41.803  0.1457E-14  0.9392E+02
     42.190  0.0000E+00  0.9540E+02
     42.578  0.1194E-01  0.9627E+02
     42.966  0.0000E+00  0.9757E+02
     43.354  0.0000E+00  0.9856E+02
     43.742  0.0000E+00  0.9929E+02
     44.129  0.1910E+00  0.1002E+03
     44.517  0.5731E+00  0.1013E+03
     44.905  0.0000E+00  0.1026E+03
     45.293  0.0000E+00  0.1035E+03
     45.680  0.2388E-01  0.1049E+03
     46.068  0.9552E-01  0.1058E+03
     46.456  0.0000E+00  0.1069E+03
     46.844  0.0000E+00  0.1079E+03
     47.231  0.2866E+00  0.1098E+03
     47.619  0.0000E+00  0.1105E+03
     48.007  0.0000E+00  0.1116E+03
     48.395  0.0000E+00  0.1127E+03
     48.782  0.0000E+00  0.1135E+03
     49.170  0.5731E+00  0.1148E+03
     49.558  0.0000E+00  0.1158E+03
     49.946  0.0000E+00  0.1170E+03
     50.333  0.0000E+00  0.1177E+03
     50.721  0.0000E+00  0.1189E+03
     51.109  0.0000E+00  0.1205E+03
     51.497  0.0000E+00  0.1219E+03
     51.884  0.4586E-06  0.1230E+03
     52.272  0.0000E+00  0.1250E+03
     52.660  0.0000E+00  0.1264E+03
     53.048  0.1433E+00  0.1267E+03
     53.435  0.0000E+00  0.1276E+03
     53.823  0.0000E+00  0.1290E+03
     54.211  0.3409E+00  0.1302E+03
     54.599  0.0000E+00  0.1318E+03
     54.986  0.4220E-02  0.1326E+03
     55.374  0.4575E+00  0.1338E+03
     55.762  0.0000E+00  0.1352E+03
     56.150  0.0000E+00  0.1362E+03
     56.537  0.0000E+00  0.1375E+03
     56.925  0.7164E-01  0.1382E+03
     57.313  0.5731E+00  0.1396E+03
     57.701  0.0000E+00  0.1404E+03
     58.088  0.0000E+00  0.1420E+03
     58.476  0.6214E-02  0.1432E+03
     58.864  0.0000E+00  0.1442E+03
     59.252  0.0000E+00  0.1457E+03
     59.639  0.0000E+00  0.1470E+03
     60.027  0.1910E+00  0.1483E+03
     60.415  0.0000E+00  0.1497E+03
     60.803  0.5398E+00  0.1510E+03
     61.190  0.0000E+00  0.1518E+03
     61.578  0.1433E+00  0.1527E+03
     61.966  0.1030E-14  0.1542E+03
     62.354  0.0000E+00  0.1555E+03
     62.741  0.0000E+00  0.1566E+03
     63.129  0.0000E+00  0.1576E+03
     63.517  0.0000E+00  0.1589E+03
     63.905  0.7164E-01  0.1601E+03
     64.292  0.0000E+00  0.1620E+03
     64.680  0.0000E+00  0.1633E+03
     65.068  0.0000E+00  0.1646E+03
     65.456  0.7164E-01  0.1656E+03
     65.843  0.7602E-12  0.1678E+03
     66.231  0.0000E+00  0.1691E+03
     66.619  0.0000E+00  0.1703E+03
     67.007  0.0000E+00  0.1716E+03
     67.394  0.5731E+00  0.1726E+03
     67.782  0.0000E+00  0.1739E+03
     68.170  0.0000E+00  0.1750E+03
     68.558  0.0000E+00  0.1766E+03
     68.945  0.0000E+00  0.1775E+03
     69.333  0.1907E+00  0.1790E+03
     69.721  0.0000E+00  0.1803E+03
     70.109  0.0000E+00  0.1813E+03
     70.496  0.0000E+00  0.1826E+03
     70.884  0.0000E+00  0.1845E+03
     71.272  0.0000E+00  0.1856E+03
     71.660  0.0000E+00  0.1872E+03
     72.047  0.1150E+00  0.1901E+03
     72.435  0.0000E+00  0.1910E+03
     72.823  0.5846E-02  0.1928E+03
     73.211  0.0000E+00  0.1943E+03
     73.598  0.0000E+00  0.1948E+03
     73.986  0.0000E+00  0.1953E+03
     74.374  0.0000E+00  0.1958E+03
     74.762  0.0000E+00  0.1959E+03
     75.149  0.0000E+00  0.1959E+03
     75.537  0.0000E+00  0.1960E+03
     75.925  0.0000E+00  0.1960E+03
     76.313  0.0000E+00  0.1960E+03
     76.700  0.0000E+00  0.1960E+03
     77.088  0.0000E+00  0.1960E+03
     77.476  0.0000E+00  0.1960E+03
     77.864  0.0000E+00  0.1960E+03
     78.251  0.0000E+00  0.1960E+03
     78.639  0.0000E+00  0.1960E+03
     79.027  0.0000E+00  0.1960E+03
     79.415  0.0000E+00  0.1960E+03
     79.802  0.0000E+00  0.1960E+03
     80.190  0.0000E+00  0.1960E+03
     80.578  0.0000E+00  0.1960E+03
