<?xml version="1.0" encoding="ISO-8859-1"?>
<modeling>
 <generator>
  <i name="program" type="string">vasp </i>
  <i name="version" type="string">5.4.4.18Apr17-6-g9f103f2a35  </i>
  <i name="subversion" type="string">(build Nov 03 2018 10:20:46) complex            parallel </i>
  <i name="platform" type="string">LinuxIFC </i>
  <i name="date" type="string">2019 01 01 </i>
  <i name="time" type="string">15:19:41 </i>
 </generator>
 <incar>
  <i type="string" name="SYSTEM">   Og_FCC</i>
  <i type="string" name="PREC">accurate</i>
  <i type="string" name="ALGO">   EXACT</i>
  <i type="logical" name="ADDGRID"> T  </i>
  <i type="logical" name="LSORBIT"> T  </i>
  <i type="int" name="ISPIN">     1</i>
  <i type="int" name="MAXMIX">    50</i>
  <i type="int" name="NELM">    50</i>
  <i type="int" name="NELMDL">    -5</i>
  <i type="int" name="NELMIN">     2</i>
  <i type="int" name="IBRION">    -1</i>
  <i type="int" name="NFREE">     5</i>
  <i name="EDIFF">      0.00000001</i>
  <i name="EDIFFG">      0.00001000</i>
  <i type="int" name="NSW">     1</i>
  <i type="int" name="ISIF">     3</i>
  <i type="int" name="ISYM">     0</i>
  <i name="SYMPREC">      0.00000010</i>
  <i name="ENCUT">    400.00000000</i>
  <i type="int" name="NBANDS">   196</i>
  <i name="POTIM">      0.10000000</i>
  <i type="logical" name="LREAL"> F  </i>
  <i type="int" name="ISMEAR">     0</i>
  <i name="SIGMA">      0.00100000</i>
  <i type="int" name="NWRITE">     2</i>
  <i type="logical" name="LWAVE"> T  </i>
  <i type="logical" name="LCHARG"> F  </i>
  <i type="logical" name="LVTOT"> F  </i>
  <i type="logical" name="LOPTICS"> T  </i>
  <i type="logical" name="GGA_COMPAT"> F  </i>
  <v type="int" name="KPOINT_BSE">    -1     0     0     0</v>
  <i type="int" name="NELM">    50</i>
  <i type="string" name="GGA"> PE</i>
 </incar>
 <structure name="primitive_cell" >
  <crystal>
   <varray name="basis" >
    <v>       4.34234588       0.00000000       0.00000000 </v>
    <v>       2.17117294       3.76058184      -0.00000000 </v>
    <v>       2.17117294       1.25352728       3.54551056 </v>
   </varray>
   <i name="volume">     57.89729060 </i>
   <varray name="rec_basis" >
    <v>       0.23029027      -0.13295815      -0.09401561 </v>
    <v>       0.00000000       0.26591630      -0.09401561 </v>
    <v>      -0.00000000       0.00000000       0.28204683 </v>
   </varray>
  </crystal>
  <varray name="positions" >
   <v>       0.00000000       0.00000000       0.00000000 </v>
  </varray>
 </structure>
 <varray name="primitive_index" >
  <v type="int" >        1 </v>
 </varray>
 <kpoints>
  <generation param="Gamma">
   <v type="int" name="divisions">       6        6        6 </v>
   <v name="usershift">      0.00000000       0.00000000       0.00000000 </v>
   <v name="genvec1">      0.16666667       0.00000000       0.00000000 </v>
   <v name="genvec2">     -0.00000000       0.16666667      -0.00000000 </v>
   <v name="genvec3">      0.00000000      -0.00000000       0.16666667 </v>
   <v name="shift">      0.00000000       0.00000000       0.00000000 </v>
  </generation>
  <varray name="kpointlist" >
   <v>       0.00000000       0.00000000       0.00000000 </v>
   <v>       0.16666667       0.00000000       0.00000000 </v>
   <v>       0.33333333       0.00000000       0.00000000 </v>
   <v>       0.50000000       0.00000000       0.00000000 </v>
   <v>      -0.33333333      -0.00000000       0.00000000 </v>
   <v>      -0.16666667      -0.00000000      -0.00000000 </v>
   <v>      -0.00000000       0.16666667      -0.00000000 </v>
   <v>       0.16666667       0.16666667       0.00000000 </v>
   <v>       0.33333333       0.16666667      -0.00000000 </v>
   <v>       0.50000000       0.16666667       0.00000000 </v>
   <v>      -0.33333333       0.16666667      -0.00000000 </v>
   <v>      -0.16666667       0.16666667      -0.00000000 </v>
   <v>       0.00000000       0.33333333      -0.00000000 </v>
   <v>       0.16666667       0.33333333       0.00000000 </v>
   <v>       0.33333333       0.33333333       0.00000000 </v>
   <v>       0.50000000       0.33333333       0.00000000 </v>
   <v>      -0.33333333       0.33333333      -0.00000000 </v>
   <v>      -0.16666667       0.33333333      -0.00000000 </v>
   <v>       0.00000000       0.50000000      -0.00000000 </v>
   <v>       0.16666667       0.50000000       0.00000000 </v>
   <v>       0.33333333       0.50000000       0.00000000 </v>
   <v>       0.50000000       0.50000000       0.00000000 </v>
   <v>      -0.33333333       0.50000000      -0.00000000 </v>
   <v>      -0.16666667       0.50000000      -0.00000000 </v>
   <v>      -0.00000000      -0.33333333       0.00000000 </v>
   <v>       0.16666667      -0.33333333       0.00000000 </v>
   <v>       0.33333333      -0.33333333       0.00000000 </v>
   <v>       0.50000000      -0.33333333       0.00000000 </v>
   <v>      -0.33333333      -0.33333333      -0.00000000 </v>
   <v>      -0.16666667      -0.33333333       0.00000000 </v>
   <v>       0.00000000      -0.16666667       0.00000000 </v>
   <v>       0.16666667      -0.16666667       0.00000000 </v>
   <v>       0.33333333      -0.16666667       0.00000000 </v>
   <v>       0.50000000      -0.16666667       0.00000000 </v>
   <v>      -0.33333333      -0.16666667       0.00000000 </v>
   <v>      -0.16666667      -0.16666667       0.00000000 </v>
   <v>       0.00000000       0.00000000       0.16666667 </v>
   <v>       0.16666667       0.00000000       0.16666667 </v>
   <v>       0.33333333      -0.00000000       0.16666667 </v>
   <v>       0.50000000      -0.00000000       0.16666667 </v>
   <v>      -0.33333333      -0.00000000       0.16666667 </v>
   <v>      -0.16666667       0.00000000       0.16666667 </v>
   <v>      -0.00000000       0.16666667       0.16666667 </v>
   <v>       0.16666667       0.16666667       0.16666667 </v>
   <v>       0.33333333       0.16666667       0.16666667 </v>
   <v>       0.50000000       0.16666667       0.16666667 </v>
   <v>      -0.33333333       0.16666667       0.16666667 </v>
   <v>      -0.16666667       0.16666667       0.16666667 </v>
   <v>      -0.00000000       0.33333333       0.16666667 </v>
   <v>       0.16666667       0.33333333       0.16666667 </v>
   <v>       0.33333333       0.33333333       0.16666667 </v>
   <v>       0.50000000       0.33333333       0.16666667 </v>
   <v>      -0.33333333       0.33333333       0.16666667 </v>
   <v>      -0.16666667       0.33333333       0.16666667 </v>
   <v>      -0.00000000       0.50000000       0.16666667 </v>
   <v>       0.16666667       0.50000000       0.16666667 </v>
   <v>       0.33333333       0.50000000       0.16666667 </v>
   <v>       0.50000000       0.50000000       0.16666667 </v>
   <v>      -0.33333333       0.50000000       0.16666667 </v>
   <v>      -0.16666667       0.50000000       0.16666667 </v>
   <v>      -0.00000000      -0.33333333       0.16666667 </v>
   <v>       0.16666667      -0.33333333       0.16666667 </v>
   <v>       0.33333333      -0.33333333       0.16666667 </v>
   <v>       0.50000000      -0.33333333       0.16666667 </v>
   <v>      -0.33333333      -0.33333333       0.16666667 </v>
   <v>      -0.16666667      -0.33333333       0.16666667 </v>
   <v>       0.00000000      -0.16666667       0.16666667 </v>
   <v>       0.16666667      -0.16666667       0.16666667 </v>
   <v>       0.33333333      -0.16666667       0.16666667 </v>
   <v>       0.50000000      -0.16666667       0.16666667 </v>
   <v>      -0.33333333      -0.16666667       0.16666667 </v>
   <v>      -0.16666667      -0.16666667       0.16666667 </v>
   <v>       0.00000000       0.00000000       0.33333333 </v>
   <v>       0.16666667       0.00000000       0.33333333 </v>
   <v>       0.33333333       0.00000000       0.33333333 </v>
   <v>       0.50000000      -0.00000000       0.33333333 </v>
   <v>      -0.33333333       0.00000000       0.33333333 </v>
   <v>      -0.16666667       0.00000000       0.33333333 </v>
   <v>      -0.00000000       0.16666667       0.33333333 </v>
   <v>       0.16666667       0.16666667       0.33333333 </v>
   <v>       0.33333333       0.16666667       0.33333333 </v>
   <v>       0.50000000       0.16666667       0.33333333 </v>
   <v>      -0.33333333       0.16666667       0.33333333 </v>
   <v>      -0.16666667       0.16666667       0.33333333 </v>
   <v>      -0.00000000       0.33333333       0.33333333 </v>
   <v>       0.16666667       0.33333333       0.33333333 </v>
   <v>       0.33333333       0.33333333       0.33333333 </v>
   <v>       0.50000000       0.33333333       0.33333333 </v>
   <v>      -0.33333333       0.33333333       0.33333333 </v>
   <v>      -0.16666667       0.33333333       0.33333333 </v>
   <v>       0.00000000       0.50000000       0.33333333 </v>
   <v>       0.16666667       0.50000000       0.33333333 </v>
   <v>       0.33333333       0.50000000       0.33333333 </v>
   <v>       0.50000000       0.50000000       0.33333333 </v>
   <v>      -0.33333333       0.50000000       0.33333333 </v>
   <v>      -0.16666667       0.50000000       0.33333333 </v>
   <v>       0.00000000      -0.33333333       0.33333333 </v>
   <v>       0.16666667      -0.33333333       0.33333333 </v>
   <v>       0.33333333      -0.33333333       0.33333333 </v>
   <v>       0.50000000      -0.33333333       0.33333333 </v>
   <v>      -0.33333333      -0.33333333       0.33333333 </v>
   <v>      -0.16666667      -0.33333333       0.33333333 </v>
   <v>       0.00000000      -0.16666667       0.33333333 </v>
   <v>       0.16666667      -0.16666667       0.33333333 </v>
   <v>       0.33333333      -0.16666667       0.33333333 </v>
   <v>       0.50000000      -0.16666667       0.33333333 </v>
   <v>      -0.33333333      -0.16666667       0.33333333 </v>
   <v>      -0.16666667      -0.16666667       0.33333333 </v>
   <v>       0.00000000       0.00000000       0.50000000 </v>
   <v>       0.16666667       0.00000000       0.50000000 </v>
   <v>       0.33333333       0.00000000       0.50000000 </v>
   <v>       0.50000000      -0.00000000       0.50000000 </v>
   <v>      -0.33333333       0.00000000       0.50000000 </v>
   <v>      -0.16666667       0.00000000       0.50000000 </v>
   <v>      -0.00000000       0.16666667       0.50000000 </v>
   <v>       0.16666667       0.16666667       0.50000000 </v>
   <v>       0.33333333       0.16666667       0.50000000 </v>
   <v>       0.50000000       0.16666667       0.50000000 </v>
   <v>      -0.33333333       0.16666667       0.50000000 </v>
   <v>      -0.16666667       0.16666667       0.50000000 </v>
   <v>       0.00000000       0.33333333       0.50000000 </v>
   <v>       0.16666667       0.33333333       0.50000000 </v>
   <v>       0.33333333       0.33333333       0.50000000 </v>
   <v>       0.50000000       0.33333333       0.50000000 </v>
   <v>      -0.33333333       0.33333333       0.50000000 </v>
   <v>      -0.16666667       0.33333333       0.50000000 </v>
   <v>      -0.00000000       0.50000000       0.50000000 </v>
   <v>       0.16666667       0.50000000       0.50000000 </v>
   <v>       0.33333333       0.50000000       0.50000000 </v>
   <v>       0.50000000       0.50000000       0.50000000 </v>
   <v>      -0.33333333       0.50000000       0.50000000 </v>
   <v>      -0.16666667       0.50000000       0.50000000 </v>
   <v>       0.00000000      -0.33333333       0.50000000 </v>
   <v>       0.16666667      -0.33333333       0.50000000 </v>
   <v>       0.33333333      -0.33333333       0.50000000 </v>
   <v>       0.50000000      -0.33333333       0.50000000 </v>
   <v>      -0.33333333      -0.33333333       0.50000000 </v>
   <v>      -0.16666667      -0.33333333       0.50000000 </v>
   <v>       0.00000000      -0.16666667       0.50000000 </v>
   <v>       0.16666667      -0.16666667       0.50000000 </v>
   <v>       0.33333333      -0.16666667       0.50000000 </v>
   <v>       0.50000000      -0.16666667       0.50000000 </v>
   <v>      -0.33333333      -0.16666667       0.50000000 </v>
   <v>      -0.16666667      -0.16666667       0.50000000 </v>
   <v>       0.00000000       0.00000000      -0.33333333 </v>
   <v>       0.16666667      -0.00000000      -0.33333333 </v>
   <v>       0.33333333      -0.00000000      -0.33333333 </v>
   <v>       0.50000000       0.00000000      -0.33333333 </v>
   <v>      -0.33333333      -0.00000000      -0.33333333 </v>
   <v>      -0.16666667      -0.00000000      -0.33333333 </v>
   <v>      -0.00000000       0.16666667      -0.33333333 </v>
   <v>       0.16666667       0.16666667      -0.33333333 </v>
   <v>       0.33333333       0.16666667      -0.33333333 </v>
   <v>       0.50000000       0.16666667      -0.33333333 </v>
   <v>      -0.33333333       0.16666667      -0.33333333 </v>
   <v>      -0.16666667       0.16666667      -0.33333333 </v>
   <v>       0.00000000       0.33333333      -0.33333333 </v>
   <v>       0.16666667       0.33333333      -0.33333333 </v>
   <v>       0.33333333       0.33333333      -0.33333333 </v>
   <v>       0.50000000       0.33333333      -0.33333333 </v>
   <v>      -0.33333333       0.33333333      -0.33333333 </v>
   <v>      -0.16666667       0.33333333      -0.33333333 </v>
   <v>      -0.00000000       0.50000000      -0.33333333 </v>
   <v>       0.16666667       0.50000000      -0.33333333 </v>
   <v>       0.33333333       0.50000000      -0.33333333 </v>
   <v>       0.50000000       0.50000000      -0.33333333 </v>
   <v>      -0.33333333       0.50000000      -0.33333333 </v>
   <v>      -0.16666667       0.50000000      -0.33333333 </v>
   <v>       0.00000000      -0.33333333      -0.33333333 </v>
   <v>       0.16666667      -0.33333333      -0.33333333 </v>
   <v>       0.33333333      -0.33333333      -0.33333333 </v>
   <v>       0.50000000      -0.33333333      -0.33333333 </v>
   <v>      -0.33333333      -0.33333333      -0.33333333 </v>
   <v>      -0.16666667      -0.33333333      -0.33333333 </v>
   <v>       0.00000000      -0.16666667      -0.33333333 </v>
   <v>       0.16666667      -0.16666667      -0.33333333 </v>
   <v>       0.33333333      -0.16666667      -0.33333333 </v>
   <v>       0.50000000      -0.16666667      -0.33333333 </v>
   <v>      -0.33333333      -0.16666667      -0.33333333 </v>
   <v>      -0.16666667      -0.16666667      -0.33333333 </v>
   <v>      -0.00000000      -0.00000000      -0.16666667 </v>
   <v>       0.16666667      -0.00000000      -0.16666667 </v>
   <v>       0.33333333       0.00000000      -0.16666667 </v>
   <v>       0.50000000       0.00000000      -0.16666667 </v>
   <v>      -0.33333333       0.00000000      -0.16666667 </v>
   <v>      -0.16666667      -0.00000000      -0.16666667 </v>
   <v>      -0.00000000       0.16666667      -0.16666667 </v>
   <v>       0.16666667       0.16666667      -0.16666667 </v>
   <v>       0.33333333       0.16666667      -0.16666667 </v>
   <v>       0.50000000       0.16666667      -0.16666667 </v>
   <v>      -0.33333333       0.16666667      -0.16666667 </v>
   <v>      -0.16666667       0.16666667      -0.16666667 </v>
   <v>       0.00000000       0.33333333      -0.16666667 </v>
   <v>       0.16666667       0.33333333      -0.16666667 </v>
   <v>       0.33333333       0.33333333      -0.16666667 </v>
   <v>       0.50000000       0.33333333      -0.16666667 </v>
   <v>      -0.33333333       0.33333333      -0.16666667 </v>
   <v>      -0.16666667       0.33333333      -0.16666667 </v>
   <v>      -0.00000000       0.50000000      -0.16666667 </v>
   <v>       0.16666667       0.50000000      -0.16666667 </v>
   <v>       0.33333333       0.50000000      -0.16666667 </v>
   <v>       0.50000000       0.50000000      -0.16666667 </v>
   <v>      -0.33333333       0.50000000      -0.16666667 </v>
   <v>      -0.16666667       0.50000000      -0.16666667 </v>
   <v>       0.00000000      -0.33333333      -0.16666667 </v>
   <v>       0.16666667      -0.33333333      -0.16666667 </v>
   <v>       0.33333333      -0.33333333      -0.16666667 </v>
   <v>       0.50000000      -0.33333333      -0.16666667 </v>
   <v>      -0.33333333      -0.33333333      -0.16666667 </v>
   <v>      -0.16666667      -0.33333333      -0.16666667 </v>
   <v>       0.00000000      -0.16666667      -0.16666667 </v>
   <v>       0.16666667      -0.16666667      -0.16666667 </v>
   <v>       0.33333333      -0.16666667      -0.16666667 </v>
   <v>       0.50000000      -0.16666667      -0.16666667 </v>
   <v>      -0.33333333      -0.16666667      -0.16666667 </v>
   <v>      -0.16666667      -0.16666667      -0.16666667 </v>
  </varray>
  <varray name="weights" >
   <v>       0.00462963 </v>
   <v>       0.00462963 </v>
   <v>       0.00462963 </v>
   <v>       0.00462963 </v>
   <v>       0.00462963 </v>
   <v>       0.00462963 </v>
   <v>       0.00462963 </v>
   <v>       0.00462963 </v>
   <v>       0.00462963 </v>
   <v>       0.00462963 </v>
   <v>       0.00462963 </v>
   <v>       0.00462963 </v>
   <v>       0.00462963 </v>
   <v>       0.00462963 </v>
   <v>       0.00462963 </v>
   <v>       0.00462963 </v>
   <v>       0.00462963 </v>
   <v>       0.00462963 </v>
   <v>       0.00462963 </v>
   <v>       0.00462963 </v>
   <v>       0.00462963 </v>
   <v>       0.00462963 </v>
   <v>       0.00462963 </v>
   <v>       0.00462963 </v>
   <v>       0.00462963 </v>
   <v>       0.00462963 </v>
   <v>       0.00462963 </v>
   <v>       0.00462963 </v>
   <v>       0.00462963 </v>
   <v>       0.00462963 </v>
   <v>       0.00462963 </v>
   <v>       0.00462963 </v>
   <v>       0.00462963 </v>
   <v>       0.00462963 </v>
   <v>       0.00462963 </v>
   <v>       0.00462963 </v>
   <v>       0.00462963 </v>
   <v>       0.00462963 </v>
   <v>       0.00462963 </v>
   <v>       0.00462963 </v>
   <v>       0.00462963 </v>
   <v>       0.00462963 </v>
   <v>       0.00462963 </v>
   <v>       0.00462963 </v>
   <v>       0.00462963 </v>
   <v>       0.00462963 </v>
   <v>       0.00462963 </v>
   <v>       0.00462963 </v>
   <v>       0.00462963 </v>
   <v>       0.00462963 </v>
   <v>       0.00462963 </v>
   <v>       0.00462963 </v>
   <v>       0.00462963 </v>
   <v>       0.00462963 </v>
   <v>       0.00462963 </v>
   <v>       0.00462963 </v>
   <v>       0.00462963 </v>
   <v>       0.00462963 </v>
   <v>       0.00462963 </v>
   <v>       0.00462963 </v>
   <v>       0.00462963 </v>
   <v>       0.00462963 </v>
   <v>       0.00462963 </v>
   <v>       0.00462963 </v>
   <v>       0.00462963 </v>
   <v>       0.00462963 </v>
   <v>       0.00462963 </v>
   <v>       0.00462963 </v>
   <v>       0.00462963 </v>
   <v>       0.00462963 </v>
   <v>       0.00462963 </v>
   <v>       0.00462963 </v>
   <v>       0.00462963 </v>
   <v>       0.00462963 </v>
   <v>       0.00462963 </v>
   <v>       0.00462963 </v>
   <v>       0.00462963 </v>
   <v>       0.00462963 </v>
   <v>       0.00462963 </v>
   <v>       0.00462963 </v>
   <v>       0.00462963 </v>
   <v>       0.00462963 </v>
   <v>       0.00462963 </v>
   <v>       0.00462963 </v>
   <v>       0.00462963 </v>
   <v>       0.00462963 </v>
   <v>       0.00462963 </v>
   <v>       0.00462963 </v>
   <v>       0.00462963 </v>
   <v>       0.00462963 </v>
   <v>       0.00462963 </v>
   <v>       0.00462963 </v>
   <v>       0.00462963 </v>
   <v>       0.00462963 </v>
   <v>       0.00462963 </v>
   <v>       0.00462963 </v>
   <v>       0.00462963 </v>
   <v>       0.00462963 </v>
   <v>       0.00462963 </v>
   <v>       0.00462963 </v>
   <v>       0.00462963 </v>
   <v>       0.00462963 </v>
   <v>       0.00462963 </v>
   <v>       0.00462963 </v>
   <v>       0.00462963 </v>
   <v>       0.00462963 </v>
   <v>       0.00462963 </v>
   <v>       0.00462963 </v>
   <v>       0.00462963 </v>
   <v>       0.00462963 </v>
   <v>       0.00462963 </v>
   <v>       0.00462963 </v>
   <v>       0.00462963 </v>
   <v>       0.00462963 </v>
   <v>       0.00462963 </v>
   <v>       0.00462963 </v>
   <v>       0.00462963 </v>
   <v>       0.00462963 </v>
   <v>       0.00462963 </v>
   <v>       0.00462963 </v>
   <v>       0.00462963 </v>
   <v>       0.00462963 </v>
   <v>       0.00462963 </v>
   <v>       0.00462963 </v>
   <v>       0.00462963 </v>
   <v>       0.00462963 </v>
   <v>       0.00462963 </v>
   <v>       0.00462963 </v>
   <v>       0.00462963 </v>
   <v>       0.00462963 </v>
   <v>       0.00462963 </v>
   <v>       0.00462963 </v>
   <v>       0.00462963 </v>
   <v>       0.00462963 </v>
   <v>       0.00462963 </v>
   <v>       0.00462963 </v>
   <v>       0.00462963 </v>
   <v>       0.00462963 </v>
   <v>       0.00462963 </v>
   <v>       0.00462963 </v>
   <v>       0.00462963 </v>
   <v>       0.00462963 </v>
   <v>       0.00462963 </v>
   <v>       0.00462963 </v>
   <v>       0.00462963 </v>
   <v>       0.00462963 </v>
   <v>       0.00462963 </v>
   <v>       0.00462963 </v>
   <v>       0.00462963 </v>
   <v>       0.00462963 </v>
   <v>       0.00462963 </v>
   <v>       0.00462963 </v>
   <v>       0.00462963 </v>
   <v>       0.00462963 </v>
   <v>       0.00462963 </v>
   <v>       0.00462963 </v>
   <v>       0.00462963 </v>
   <v>       0.00462963 </v>
   <v>       0.00462963 </v>
   <v>       0.00462963 </v>
   <v>       0.00462963 </v>
   <v>       0.00462963 </v>
   <v>       0.00462963 </v>
   <v>       0.00462963 </v>
   <v>       0.00462963 </v>
   <v>       0.00462963 </v>
   <v>       0.00462963 </v>
   <v>       0.00462963 </v>
   <v>       0.00462963 </v>
   <v>       0.00462963 </v>
   <v>       0.00462963 </v>
   <v>       0.00462963 </v>
   <v>       0.00462963 </v>
   <v>       0.00462963 </v>
   <v>       0.00462963 </v>
   <v>       0.00462963 </v>
   <v>       0.00462963 </v>
   <v>       0.00462963 </v>
   <v>       0.00462963 </v>
   <v>       0.00462963 </v>
   <v>       0.00462963 </v>
   <v>       0.00462963 </v>
   <v>       0.00462963 </v>
   <v>       0.00462963 </v>
   <v>       0.00462963 </v>
   <v>       0.00462963 </v>
   <v>       0.00462963 </v>
   <v>       0.00462963 </v>
   <v>       0.00462963 </v>
   <v>       0.00462963 </v>
   <v>       0.00462963 </v>
   <v>       0.00462963 </v>
   <v>       0.00462963 </v>
   <v>       0.00462963 </v>
   <v>       0.00462963 </v>
   <v>       0.00462963 </v>
   <v>       0.00462963 </v>
   <v>       0.00462963 </v>
   <v>       0.00462963 </v>
   <v>       0.00462963 </v>
   <v>       0.00462963 </v>
   <v>       0.00462963 </v>
   <v>       0.00462963 </v>
   <v>       0.00462963 </v>
   <v>       0.00462963 </v>
   <v>       0.00462963 </v>
   <v>       0.00462963 </v>
   <v>       0.00462963 </v>
   <v>       0.00462963 </v>
   <v>       0.00462963 </v>
   <v>       0.00462963 </v>
   <v>       0.00462963 </v>
   <v>       0.00462963 </v>
   <v>       0.00462963 </v>
   <v>       0.00462963 </v>
   <v>       0.00462963 </v>
  </varray>
 </kpoints>
 <parameters>
  <separator name="general" >
   <i type="string" name="SYSTEM">Og_FCC</i>
   <i type="logical" name="LCOMPAT"> F  </i>
  </separator>
  <separator name="electronic" >
   <i type="string" name="PREC">accura</i>
   <i name="ENMAX">    400.00000000</i>
   <i name="ENAUG">    361.02500000</i>
   <i name="EDIFF">      0.00000001</i>
   <i type="int" name="IALGO">    90</i>
   <i type="int" name="IWAVPR">    10</i>
   <i type="int" name="NBANDS">   196</i>
   <i name="NELECT">     18.00000000</i>
   <i type="int" name="TURBO">     0</i>
   <i type="int" name="IRESTART">     0</i>
   <i type="int" name="NREBOOT">     0</i>
   <i type="int" name="NMIN">     0</i>
   <i name="EREF">      0.00000000</i>
   <separator name="electronic smearing" >
    <i type="int" name="ISMEAR">     0</i>
    <i name="SIGMA">      0.00100000</i>
    <i name="KSPACING">      0.50000000</i>
    <i type="logical" name="KGAMMA"> T  </i>
   </separator>
   <separator name="electronic projectors" >
    <i type="logical" name="LREAL"> F  </i>
    <v name="ROPT">      0.00000000</v>
    <i type="int" name="LMAXPAW">  -100</i>
    <i type="int" name="LMAXMIX">     2</i>
    <i type="logical" name="NLSPLINE"> F  </i>
   </separator>
   <separator name="electronic startup" >
    <i type="int" name="ISTART">     1</i>
    <i type="int" name="ICHARG">     0</i>
    <i type="int" name="INIWAV">     1</i>
   </separator>
   <separator name="electronic spin" >
    <i type="int" name="ISPIN">     1</i>
    <i type="logical" name="LNONCOLLINEAR"> T  </i>
    <v name="MAGMOM">      1.00000000      1.00000000      1.00000000</v>
    <i name="NUPDOWN">     -1.00000000</i>
    <i type="logical" name="LSORBIT"> T  </i>
    <v name="SAXIS">      0.00000000      0.00000000      1.00000000</v>
    <i type="logical" name="LSPIRAL"> F  </i>
    <v name="QSPIRAL">      0.00000000      0.00000000      0.00000000</v>
    <i type="logical" name="LZEROZ"> F  </i>
   </separator>
   <separator name="electronic exchange-correlation" >
    <i type="logical" name="LASPH"> F  </i>
    <i type="logical" name="LMETAGGA"> F  </i>
   </separator>
   <separator name="electronic convergence" >
    <i type="int" name="NELM">    50</i>
    <i type="int" name="NELMDL">    -5</i>
    <i type="int" name="NELMIN">     2</i>
    <i name="ENINI">    400.00000000</i>
    <separator name="electronic convergence detail" >
     <i type="logical" name="LDIAG"> T  </i>
     <i type="logical" name="LSUBROT"> F  </i>
     <i name="WEIMIN">      0.00000000</i>
     <i name="EBREAK">      0.00000000</i>
     <i name="DEPER">      0.30000000</i>
     <i type="int" name="NRMM">     4</i>
     <i name="TIME">      0.40000000</i>
    </separator>
   </separator>
   <separator name="electronic mixer" >
    <i name="AMIX">      0.40000000</i>
    <i name="BMIX">      1.00000000</i>
    <i name="AMIN">      0.10000000</i>
    <i name="AMIX_MAG">      1.60000000</i>
    <i name="BMIX_MAG">      1.00000000</i>
    <separator name="electronic mixer details" >
     <i type="int" name="IMIX">     4</i>
     <i type="logical" name="MIXFIRST"> F  </i>
     <i type="int" name="MAXMIX">    50</i>
     <i name="WC">    100.00000000</i>
     <i type="int" name="INIMIX">     1</i>
     <i type="int" name="MIXPRE">     1</i>
     <i type="int" name="MREMOVE">     5</i>
    </separator>
   </separator>
   <separator name="electronic dipolcorrection" >
    <i type="logical" name="LDIPOL"> F  </i>
    <i type="logical" name="LMONO"> F  </i>
    <i type="int" name="IDIPOL">     0</i>
    <i name="EPSILON">      1.00000000</i>
    <v name="DIPOL">   -100.00000000   -100.00000000   -100.00000000</v>
    <i name="EFIELD">      0.00000000</i>
   </separator>
  </separator>
  <separator name="grids" >
   <i type="int" name="NGX">    28</i>
   <i type="int" name="NGY">    28</i>
   <i type="int" name="NGZ">    28</i>
   <i type="int" name="NGXF">    56</i>
   <i type="int" name="NGYF">    56</i>
   <i type="int" name="NGZF">    56</i>
   <i type="logical" name="ADDGRID"> T  </i>
  </separator>
  <separator name="ionic" >
   <i type="int" name="NSW">     1</i>
   <i type="int" name="IBRION">    -1</i>
   <i type="int" name="MDALGO">     0</i>
   <i type="int" name="ISIF">     3</i>
   <i name="PSTRESS">      0.00000000</i>
   <i name="EDIFFG">      0.00001000</i>
   <i type="int" name="NFREE">     5</i>
   <i name="POTIM">      0.10000000</i>
   <i name="SMASS">     -3.00000000</i>
   <i name="SCALEE">      1.00000000</i>
  </separator>
  <separator name="ionic md" >
   <i name="TEBEG">      0.00010000</i>
   <i name="TEEND">      0.00010000</i>
   <i type="int" name="NBLOCK">     1</i>
   <i type="int" name="KBLOCK">     1</i>
   <i type="int" name="NPACO">   256</i>
   <i name="APACO">     16.00000000</i>
  </separator>
  <separator name="symmetry" >
   <i type="int" name="ISYM">     0</i>
   <i name="SYMPREC">      0.00000010</i>
  </separator>
  <separator name="dos" >
   <i type="int" name="LORBIT">     0</i>
   <v name="RWIGS">     -1.00000000</v>
   <i type="int" name="NEDOS">   301</i>
   <i name="EMIN">     10.00000000</i>
   <i name="EMAX">    -10.00000000</i>
   <i name="EFERMI">      0.00000000</i>
  </separator>
  <separator name="writing" >
   <i type="int" name="NWRITE">     2</i>
   <i type="logical" name="LWAVE"> T  </i>
   <i type="logical" name="LDOWNSAMPLE"> F  </i>
   <i type="logical" name="LCHARG"> F  </i>
   <i type="logical" name="LPARD"> F  </i>
   <i type="logical" name="LVTOT"> F  </i>
   <i type="logical" name="LVHAR"> F  </i>
   <i type="logical" name="LELF"> F  </i>
   <i type="logical" name="LOPTICS"> T  </i>
   <v name="STM">      0.00000000      0.00000000      0.00000000      0.00000000      0.00000000      0.00000000      0.00000000</v>
  </separator>
  <separator name="performance" >
   <i type="int" name="NPAR">     2</i>
   <i type="int" name="NSIM">     4</i>
   <i type="int" name="NBLK">    -1</i>
   <i type="logical" name="LPLANE"> T  </i>
   <i type="logical" name="LSCALAPACK"> T  </i>
   <i type="logical" name="LSCAAWARE"> T  </i>
   <i type="logical" name="LSCALU"> F  </i>
   <i type="logical" name="LASYNC"> F  </i>
   <i type="logical" name="LORBITALREAL"> F  </i>
  </separator>
  <separator name="miscellaneous" >
   <i type="int" name="IDIOT">     3</i>
   <i type="int" name="ISPECIAL">     0</i>
   <i type="logical" name="LMUSIC"> F  </i>
   <v name="POMASS">      0.01000000</v>
   <v name="DARWINR">      0.00000000</v>
   <v name="DARWINV">      1.00000000</v>
   <i type="logical" name="LCORR"> T  </i>
  </separator>
  <i type="logical" name="GGA_COMPAT"> F  </i>
  <i type="logical" name="LBERRY"> F  </i>
  <i type="int" name="ICORELEVEL">     0</i>
  <i type="logical" name="LDAU"> F  </i>
  <i type="int" name="I_CONSTRAINED_M">     0</i>
  <separator name="electronic exchange-correlation" >
   <i type="string" name="GGA">PE</i>
   <i type="int" name="VOSKOWN">     0</i>
   <i type="logical" name="LHFCALC"> F  </i>
   <i type="string" name="PRECFOCK"></i>
   <i type="logical" name="LSYMGRAD"> F  </i>
   <i type="logical" name="LHFONE"> F  </i>
   <i type="logical" name="LRHFCALC"> F  </i>
   <i type="logical" name="LTHOMAS"> F  </i>
   <i type="logical" name="LMODELHF"> F  </i>
   <i name="ENCUT4O">     -1.00000000</i>
   <i type="int" name="EXXOEP">     0</i>
   <i type="int" name="FOURORBIT">     0</i>
   <i name="AEXX">      0.00000000</i>
   <i name="HFALPHA">      0.00000000</i>
   <i name="MCALPHA">      0.00000000</i>
   <i name="ALDAX">      1.00000000</i>
   <i name="AGGAX">      1.00000000</i>
   <i name="ALDAC">      1.00000000</i>
   <i name="AGGAC">      1.00000000</i>
   <i type="int" name="NKREDX">     1</i>
   <i type="int" name="NKREDY">     1</i>
   <i type="int" name="NKREDZ">     1</i>
   <i type="logical" name="SHIFTRED"> F  </i>
   <i type="logical" name="ODDONLY"> F  </i>
   <i type="logical" name="EVENONLY"> F  </i>
   <i type="int" name="LMAXFOCK">     0</i>
   <i type="int" name="NMAXFOCKAE">     0</i>
   <i type="logical" name="LFOCKAEDFT"> F  </i>
   <i name="HFSCREEN">      0.00000000</i>
   <i name="HFSCREENC">      0.00000000</i>
   <i type="int" name="NBANDSGWLOW">     0</i>
  </separator>
  <separator name="vdW DFT" >
   <i type="logical" name="LUSE_VDW"> F  </i>
   <i name="Zab_VDW">     -0.84910000</i>
   <i name="PARAM1">      0.12340000</i>
   <i name="PARAM2">      1.00000000</i>
   <i name="PARAM3">      0.00000000</i>
  </separator>
  <separator name="model GW" >
   <i type="int" name="MODEL_GW">     0</i>
   <i name="MODEL_EPS0">     34.73837436</i>
   <i name="MODEL_ALPHA">      1.00000000</i>
  </separator>
  <separator name="linear response parameters" >
   <i type="logical" name="LEPSILON"> F  </i>
   <i type="logical" name="LRPA"> F  </i>
   <i type="logical" name="LNABLA"> F  </i>
   <i type="logical" name="LVEL"> F  </i>
   <i type="int" name="KINTER">     0</i>
   <i name="CSHIFT">      0.10000000</i>
   <i name="OMEGAMAX">     -1.00000000</i>
   <i name="DEG_THRESHOLD">      0.00200000</i>
   <i name="RTIME">     -0.10000000</i>
   <i name="WPLASMAI">      0.00000000</i>
   <v name="DFIELD">      0.00000000      0.00000000      0.00000000</v>
   <v name="WPLASMA">      0.00000000      0.00000000      0.00000000      0.00000000      0.00000000      0.00000000      0.00000000      0.00000000      0.00000000</v>
  </separator>
  <separator name="orbital magnetization" >
   <i type="logical" name="NUCIND"> F  </i>
   <v name="MAGPOS">      0.00000000      0.00000000      0.00000000</v>
   <i type="logical" name="LNICSALL"> T  </i>
   <i type="logical" name="ORBITALMAG"> F  </i>
   <i type="logical" name="LMAGBLOCH"> F  </i>
   <i type="logical" name="LCHIMAG"> F  </i>
   <i type="logical" name="LGAUGE"> T  </i>
   <i type="int" name="MAGATOM">     0</i>
   <v name="MAGDIPOL">      0.00000000      0.00000000      0.00000000</v>
   <v name="AVECCONST">      0.00000000      0.00000000      0.00000000</v>
  </separator>
  <separator name="response functions" >
   <i type="logical" name="LADDER"> F  </i>
   <i type="logical" name="LRPAFORCE"> F  </i>
   <i type="logical" name="LFXC"> F  </i>
   <i type="logical" name="LHARTREE"> T  </i>
   <i type="int" name="IBSE">     0</i>
   <v type="int" name="KPOINT">    -1     0     0     0</v>
   <i type="logical" name="LTCTE"> F  </i>
   <i type="logical" name="LTETE"> F  </i>
   <i type="logical" name="LTRIPLET"> F  </i>
   <i type="logical" name="LFXCEPS"> F  </i>
   <i type="logical" name="LFXHEG"> F  </i>
   <i type="int" name="NATURALO">     2</i>
   <i type="logical" name="L2ORDER"> F  </i>
   <i type="logical" name="LMP2LT"> F  </i>
   <i type="logical" name="LUSEW"> F  </i>
   <i name="ENCUTGW">     -2.00000000</i>
   <i name="ENCUTGWSOFT">     -2.00000000</i>
   <i name="ENCUTLF">     -1.00000000</i>
   <i type="int" name="LMAXMP2">    -1</i>
   <i name="SCISSOR">      0.00000000</i>
   <i type="int" name="NOMEGA">     0</i>
   <i type="int" name="NOMEGAR">     0</i>
   <i type="int" name="NBANDSGW">    -1</i>
   <i type="int" name="NBANDSO">    -1</i>
   <i type="int" name="NBANDSV">    -1</i>
   <i type="int" name="NELM">    50</i>
   <i type="int" name="NELMHF">     1</i>
   <i type="int" name="DIM">     3</i>
   <i type="int" name="ANTIRES">     0</i>
   <i name="OMEGAMAX">    -30.00000000</i>
   <i name="OMEGAMIN">    -30.00000000</i>
   <i name="OMEGATL">   -200.00000000</i>
   <i type="int" name="OMEGAGRID">   140</i>
   <i name="CSHIFT">     -0.10000000</i>
   <i type="logical" name="SELFENERGY"> F  </i>
   <i type="logical" name="LSPECTRAL"> F  </i>
   <i type="logical" name="LSPECTRALGW"> F  </i>
   <i type="logical" name="LSINGLES"> F  </i>
   <i type="logical" name="LFERMIGW"> F  </i>
   <i type="logical" name="ODDONLYGW"> F  </i>
   <i type="logical" name="EVENONLYGW"> F  </i>
   <i type="int" name="NKREDLFX">     1</i>
   <i type="int" name="NKREDLFY">     1</i>
   <i type="int" name="NKREDLFZ">     1</i>
   <i type="int" name="MAXMEM">  2800</i>
   <i type="int" name="TELESCOPE">     0</i>
   <i type="int" name="TAUPAR">     1</i>
   <i type="int" name="OMEGAPAR">    -1</i>
   <i name="LAMBDA">      1.00000000</i>
  </separator>
  <separator name="External order field" >
   <i name="OFIELD_KAPPA">      0.00000000</i>
   <v name="OFIELD_K">      0.00000000      0.00000000      0.00000000</v>
   <i name="OFIELD_Q6_NEAR">      0.00000000</i>
   <i name="OFIELD_Q6_FAR">      0.00000000</i>
   <i name="OFIELD_A">      0.00000000</i>
  </separator>
 </parameters>
 <atominfo>
  <atoms>       1 </atoms>
  <types>       1 </types>
  <array name="atoms" >
   <dimension dim="1">ion</dimension>
   <field type="string">element</field>
   <field type="int">atomtype</field>
   <set>
    <rc><c>Og</c><c>   1</c></rc>
   </set>
  </array>
  <array name="atomtypes" >
   <dimension dim="1">type</dimension>
   <field type="int">atomspertype</field>
   <field type="string">element</field>
   <field>mass</field>
   <field>valence</field>
   <field type="string">pseudopotential</field>
   <set>
    <rc><c>   1</c><c>Og</c><c>      0.01000000</c><c>     18.00000000</c><c>  PAW Og, JanMewes Oct 18               </c></rc>
   </set>
  </array>
 </atominfo>
 <structure name="initialpos" >
  <crystal>
   <varray name="basis" >
    <v>       4.34234588       0.00000000       0.00000000 </v>
    <v>       2.17117294       3.76058184      -0.00000000 </v>
    <v>       2.17117294       1.25352728       3.54551056 </v>
   </varray>
   <i name="volume">     57.89729060 </i>
   <varray name="rec_basis" >
    <v>       0.23029027      -0.13295815      -0.09401561 </v>
    <v>       0.00000000       0.26591630      -0.09401561 </v>
    <v>      -0.00000000       0.00000000       0.28204683 </v>
   </varray>
  </crystal>
  <varray name="positions" >
   <v>       0.00000000       0.00000000       0.00000000 </v>
  </varray>
  <varray name="velocities" >
   <v>       0.00000000       0.00000000       0.00000000 </v>
  </varray>
 </structure>
 <calculation>
  <scstep>
   <time name="diag">  255.46  255.49</time>
   <time name="total">  255.56  255.59</time>
   <energy>
    <i name="alphaZ">     65.89697999 </i>
    <i name="ewald">  -1741.63824267 </i>
    <i name="hartreedc">   -672.59595346 </i>
    <i name="XCdc">    -68.80825335 </i>
    <i name="pawpsdc">   2323.85199525 </i>
    <i name="pawaedc">  -2248.37150820 </i>
    <i name="eentropy">     -0.00000001 </i>
    <i name="bandstr">   -311.97491794 </i>
    <i name="atom">   2640.37581857 </i>
    <i name="e_fr_energy">    -13.26408184 </i>
    <i name="e_wo_entrp">    -13.26408183 </i>
    <i name="e_0_energy">    -13.26408183 </i>
   </energy>
  </scstep>
  <scstep>
   <time name="diag">  256.30  256.22</time>
   <time name="total">  256.31  256.23</time>
   <energy>
    <i name="e_fr_energy">    -13.26408184 </i>
    <i name="e_wo_entrp">    -13.26408183 </i>
    <i name="e_0_energy">    -13.26408183 </i>
   </energy>
  </scstep>
  <scstep>
   <time name="diag">  256.37  256.33</time>
   <time name="total">  256.38  256.35</time>
   <energy>
    <i name="e_fr_energy">    -13.26408184 </i>
    <i name="e_wo_entrp">    -13.26408183 </i>
    <i name="e_0_energy">    -13.26408183 </i>
   </energy>
  </scstep>
  <scstep>
   <time name="diag">  255.98  255.88</time>
   <time name="total">  255.99  255.89</time>
   <energy>
    <i name="e_fr_energy">    -13.26408184 </i>
    <i name="e_wo_entrp">    -13.26408183 </i>
    <i name="e_0_energy">    -13.26408183 </i>
   </energy>
  </scstep>
  <scstep>
   <time name="diag">  256.04  256.00</time>
   <time name="total">  256.19  256.15</time>
   <energy>
    <i name="e_fr_energy">    -13.26408184 </i>
    <i name="e_wo_entrp">    -13.26408183 </i>
    <i name="e_0_energy">    -13.26408183 </i>
   </energy>
  </scstep>
  <scstep>
   <time name="diag">  255.43  255.31</time>
   <time name="total">  255.52  255.40</time>
   <energy>
    <i name="alphaZ">     65.89697999 </i>
    <i name="ewald">  -1741.63824267 </i>
    <i name="hartreedc">   -672.59595804 </i>
    <i name="XCdc">    -68.80825310 </i>
    <i name="pawpsdc">   2323.85203535 </i>
    <i name="pawaedc">  -2248.37155018 </i>
    <i name="eentropy">     -0.00000001 </i>
    <i name="bandstr">   -311.97491175 </i>
    <i name="atom">   2640.37581857 </i>
    <i name="e_fr_energy">    -13.26408185 </i>
    <i name="e_wo_entrp">    -13.26408183 </i>
    <i name="e_0_energy">    -13.26408184 </i>
   </energy>
  </scstep>
  <structure>
   <crystal>
    <varray name="basis" >
     <v>       4.34234588       0.00000000       0.00000000 </v>
     <v>       2.17117294       3.76058184      -0.00000000 </v>
     <v>       2.17117294       1.25352728       3.54551056 </v>
    </varray>
    <i name="volume">     57.89729060 </i>
    <varray name="rec_basis" >
     <v>       0.23029027      -0.13295815      -0.09401561 </v>
     <v>       0.00000000       0.26591630      -0.09401561 </v>
     <v>      -0.00000000       0.00000000       0.28204683 </v>
    </varray>
   </crystal>
   <varray name="positions" >
    <v>       0.00000000       0.00000000       0.00000000 </v>
   </varray>
  </structure>
  <varray name="forces" >
   <v>      -0.00000000       0.00000000       0.00000001 </v>
  </varray>
  <varray name="stress" >
   <v>      -5.44782217       0.00007439       0.00003306 </v>
   <v>       0.00007498      -5.44771677      -0.00003524 </v>
   <v>       0.00003301      -0.00003582      -5.44770077 </v>
  </varray>
  <energy>
   <i name="e_fr_energy">    -13.70404394 </i>
   <i name="e_wo_entrp">    -13.70404393 </i>
   <i name="e_0_energy">     -0.00000001 </i>
  </energy>
  <time name="totalsc"> 1543.11 1544.78</time>
  <eigenvalues>
   <array>
    <dimension dim="1">band</dimension>
    <dimension dim="2">kpoint</dimension>
    <dimension dim="3">spin</dimension>
    <field>eigene</field>
    <field>occ</field>
    <set>
     <set comment="spin 1">
      <set comment="kpoint 1">
       <r>  -30.4602    1.0000 </r>
       <r>  -30.4601    1.0000 </r>
       <r>  -30.4600    1.0000 </r>
       <r>  -30.4599    1.0000 </r>
       <r>  -23.7895    1.0000 </r>
       <r>  -23.7887    1.0000 </r>
       <r>  -23.7856    1.0000 </r>
       <r>  -23.7851    1.0000 </r>
       <r>  -23.7849    1.0000 </r>
       <r>  -23.7844    1.0000 </r>
       <r>  -20.2255    1.0000 </r>
       <r>  -20.2247    1.0000 </r>
       <r>   -6.9205    1.0000 </r>
       <r>   -6.9194    1.0000 </r>
       <r>    3.7151    1.0000 </r>
       <r>    3.7156    1.0000 </r>
       <r>    3.9467    0.9998 </r>
       <r>    3.9468    0.9997 </r>
       <r>    3.9516    0.0003 </r>
       <r>    3.9517    0.0002 </r>
       <r>   10.8832    0.0000 </r>
       <r>   10.8835    0.0000 </r>
       <r>   10.8839    0.0000 </r>
       <r>   10.8842    0.0000 </r>
       <r>   11.1131    0.0000 </r>
       <r>   11.1137    0.0000 </r>
       <r>   11.3088    0.0000 </r>
       <r>   11.3102    0.0000 </r>
       <r>   13.2096    0.0000 </r>
       <r>   13.2126    0.0000 </r>
       <r>   13.5133    0.0000 </r>
       <r>   13.5135    0.0000 </r>
       <r>   13.5144    0.0000 </r>
       <r>   13.5146    0.0000 </r>
       <r>   14.3603    0.0000 </r>
       <r>   14.3618    0.0000 </r>
       <r>   14.3627    0.0000 </r>
       <r>   14.3642    0.0000 </r>
       <r>   16.2605    0.0000 </r>
       <r>   16.2609    0.0000 </r>
       <r>   20.3466    0.0000 </r>
       <r>   20.3469    0.0000 </r>
       <r>   20.3474    0.0000 </r>
       <r>   20.3479    0.0000 </r>
       <r>   20.3485    0.0000 </r>
       <r>   20.3488    0.0000 </r>
       <r>   22.9474    0.0000 </r>
       <r>   22.9483    0.0000 </r>
       <r>   26.1826    0.0000 </r>
       <r>   26.1828    0.0000 </r>
       <r>   26.1847    0.0000 </r>
       <r>   26.1848    0.0000 </r>
       <r>   26.3645    0.0000 </r>
       <r>   26.3652    0.0000 </r>
       <r>   27.7082    0.0000 </r>
       <r>   27.7099    0.0000 </r>
       <r>   29.4126    0.0000 </r>
       <r>   29.4136    0.0000 </r>
       <r>   29.4142    0.0000 </r>
       <r>   29.4152    0.0000 </r>
       <r>   30.1871    0.0000 </r>
       <r>   30.1878    0.0000 </r>
       <r>   30.3428    0.0000 </r>
       <r>   30.3432    0.0000 </r>
       <r>   30.3440    0.0000 </r>
       <r>   30.3443    0.0000 </r>
       <r>   30.7886    0.0000 </r>
       <r>   30.7887    0.0000 </r>
       <r>   31.5928    0.0000 </r>
       <r>   31.5929    0.0000 </r>
       <r>   31.5941    0.0000 </r>
       <r>   31.5942    0.0000 </r>
       <r>   37.7501    0.0000 </r>
       <r>   37.7506    0.0000 </r>
       <r>   37.7509    0.0000 </r>
       <r>   37.7513    0.0000 </r>
       <r>   37.7516    0.0000 </r>
       <r>   37.7521    0.0000 </r>
       <r>   38.5858    0.0000 </r>
       <r>   38.5872    0.0000 </r>
       <r>   38.5986    0.0000 </r>
       <r>   38.5989    0.0000 </r>
       <r>   38.5994    0.0000 </r>
       <r>   38.6018    0.0000 </r>
       <r>   38.6023    0.0000 </r>
       <r>   38.6025    0.0000 </r>
       <r>   41.1020    0.0000 </r>
       <r>   41.1023    0.0000 </r>
       <r>   41.1025    0.0000 </r>
       <r>   41.1028    0.0000 </r>
       <r>   41.2887    0.0000 </r>
       <r>   41.2892    0.0000 </r>
       <r>   42.5702    0.0000 </r>
       <r>   42.5710    0.0000 </r>
       <r>   42.8505    0.0000 </r>
       <r>   42.8516    0.0000 </r>
       <r>   42.8523    0.0000 </r>
       <r>   42.8534    0.0000 </r>
       <r>   43.1677    0.0000 </r>
       <r>   43.1682    0.0000 </r>
       <r>   43.1686    0.0000 </r>
       <r>   43.1691    0.0000 </r>
       <r>   44.0528    0.0000 </r>
       <r>   44.0528    0.0000 </r>
       <r>   44.0551    0.0000 </r>
       <r>   44.0551    0.0000 </r>
       <r>   44.1371    0.0000 </r>
       <r>   44.1377    0.0000 </r>
       <r>   44.1385    0.0000 </r>
       <r>   44.1391    0.0000 </r>
       <r>   44.3306    0.0000 </r>
       <r>   44.3315    0.0000 </r>
       <r>   45.2724    0.0000 </r>
       <r>   45.2733    0.0000 </r>
       <r>   45.6763    0.0000 </r>
       <r>   45.6777    0.0000 </r>
       <r>   46.1291    0.0000 </r>
       <r>   46.1293    0.0000 </r>
       <r>   46.1304    0.0000 </r>
       <r>   46.1305    0.0000 </r>
       <r>   46.6596    0.0000 </r>
       <r>   46.6598    0.0000 </r>
       <r>   47.0221    0.0000 </r>
       <r>   47.0223    0.0000 </r>
       <r>   47.0229    0.0000 </r>
       <r>   47.0230    0.0000 </r>
       <r>   47.1508    0.0000 </r>
       <r>   47.1521    0.0000 </r>
       <r>   51.2619    0.0000 </r>
       <r>   51.2623    0.0000 </r>
       <r>   51.2624    0.0000 </r>
       <r>   51.2635    0.0000 </r>
       <r>   51.2636    0.0000 </r>
       <r>   51.2641    0.0000 </r>
       <r>   54.0195    0.0000 </r>
       <r>   54.0215    0.0000 </r>
       <r>   54.1864    0.0000 </r>
       <r>   54.1866    0.0000 </r>
       <r>   54.1878    0.0000 </r>
       <r>   54.1880    0.0000 </r>
       <r>   58.3665    0.0000 </r>
       <r>   58.3673    0.0000 </r>
       <r>   58.3773    0.0000 </r>
       <r>   58.3774    0.0000 </r>
       <r>   58.3782    0.0000 </r>
       <r>   58.3783    0.0000 </r>
       <r>   58.9018    0.0000 </r>
       <r>   58.9023    0.0000 </r>
       <r>   65.3079    0.0000 </r>
       <r>   65.3087    0.0000 </r>
       <r>   65.8711    0.0000 </r>
       <r>   65.8713    0.0000 </r>
       <r>   65.8725    0.0000 </r>
       <r>   65.8727    0.0000 </r>
       <r>   65.9420    0.0000 </r>
       <r>   65.9423    0.0000 </r>
       <r>   66.2427    0.0000 </r>
       <r>   66.2432    0.0000 </r>
       <r>   66.2438    0.0000 </r>
       <r>   66.2442    0.0000 </r>
       <r>   67.4999    0.0000 </r>
       <r>   67.5007    0.0000 </r>
       <r>   67.5014    0.0000 </r>
       <r>   67.5022    0.0000 </r>
       <r>   67.8511    0.0000 </r>
       <r>   67.8512    0.0000 </r>
       <r>   67.8515    0.0000 </r>
       <r>   67.8534    0.0000 </r>
       <r>   67.8537    0.0000 </r>
       <r>   67.8538    0.0000 </r>
       <r>   70.3161    0.0000 </r>
       <r>   70.3172    0.0000 </r>
       <r>   71.9073    0.0000 </r>
       <r>   71.9077    0.0000 </r>
       <r>   72.3198    0.0000 </r>
       <r>   72.3199    0.0000 </r>
       <r>   72.3216    0.0000 </r>
       <r>   72.3217    0.0000 </r>
       <r>   72.8230    0.0000 </r>
       <r>   72.8242    0.0000 </r>
       <r>   72.8250    0.0000 </r>
       <r>   72.8262    0.0000 </r>
       <r>   74.0120    0.0000 </r>
       <r>   74.0124    0.0000 </r>
       <r>   74.0126    0.0000 </r>
       <r>   74.0132    0.0000 </r>
       <r>   74.0135    0.0000 </r>
       <r>   74.0138    0.0000 </r>
       <r>   74.1531    0.0000 </r>
       <r>   74.1533    0.0000 </r>
       <r>   74.1539    0.0000 </r>
       <r>   74.1546    0.0000 </r>
       <r>   74.1552    0.0000 </r>
       <r>   74.1554    0.0000 </r>
       <r>   74.2626    0.0000 </r>
       <r>   74.2629    0.0000 </r>
      </set>
      <set comment="kpoint 2">
       <r>  -30.4597    1.0000 </r>
       <r>  -30.4595    1.0000 </r>
       <r>  -30.4590    1.0000 </r>
       <r>  -30.4588    1.0000 </r>
       <r>  -23.7877    1.0000 </r>
       <r>  -23.7871    1.0000 </r>
       <r>  -23.7850    1.0000 </r>
       <r>  -23.7849    1.0000 </r>
       <r>  -23.7835    1.0000 </r>
       <r>  -23.7824    1.0000 </r>
       <r>  -20.1971    1.0000 </r>
       <r>  -20.1963    1.0000 </r>
       <r>   -7.0110    1.0000 </r>
       <r>   -7.0099    1.0000 </r>
       <r>    2.1862    1.0000 </r>
       <r>    2.1893    1.0000 </r>
       <r>    3.7906    1.0000 </r>
       <r>    3.7951    1.0000 </r>
       <r>    5.5263    0.0000 </r>
       <r>    5.5278    0.0000 </r>
       <r>    9.8166    0.0000 </r>
       <r>    9.8178    0.0000 </r>
       <r>   11.0554    0.0000 </r>
       <r>   11.0560    0.0000 </r>
       <r>   11.3794    0.0000 </r>
       <r>   11.3796    0.0000 </r>
       <r>   12.1584    0.0000 </r>
       <r>   12.1589    0.0000 </r>
       <r>   12.5036    0.0000 </r>
       <r>   12.5053    0.0000 </r>
       <r>   12.6751    0.0000 </r>
       <r>   12.6773    0.0000 </r>
       <r>   13.7715    0.0000 </r>
       <r>   13.7733    0.0000 </r>
       <r>   15.8813    0.0000 </r>
       <r>   15.8827    0.0000 </r>
       <r>   16.0308    0.0000 </r>
       <r>   16.0336    0.0000 </r>
       <r>   18.0339    0.0000 </r>
       <r>   18.0342    0.0000 </r>
       <r>   19.8728    0.0000 </r>
       <r>   19.8746    0.0000 </r>
       <r>   20.0029    0.0000 </r>
       <r>   20.0050    0.0000 </r>
       <r>   20.4146    0.0000 </r>
       <r>   20.4151    0.0000 </r>
       <r>   21.7909    0.0000 </r>
       <r>   21.7912    0.0000 </r>
       <r>   24.9958    0.0000 </r>
       <r>   24.9969    0.0000 </r>
       <r>   25.6001    0.0000 </r>
       <r>   25.6024    0.0000 </r>
       <r>   25.8915    0.0000 </r>
       <r>   25.8931    0.0000 </r>
       <r>   27.0983    0.0000 </r>
       <r>   27.0996    0.0000 </r>
       <r>   27.7952    0.0000 </r>
       <r>   27.7955    0.0000 </r>
       <r>   28.6701    0.0000 </r>
       <r>   28.6709    0.0000 </r>
       <r>   30.1875    0.0000 </r>
       <r>   30.1899    0.0000 </r>
       <r>   30.2570    0.0000 </r>
       <r>   30.2581    0.0000 </r>
       <r>   30.9015    0.0000 </r>
       <r>   30.9025    0.0000 </r>
       <r>   30.9965    0.0000 </r>
       <r>   30.9967    0.0000 </r>
       <r>   32.9057    0.0000 </r>
       <r>   32.9077    0.0000 </r>
       <r>   35.3151    0.0000 </r>
       <r>   35.3157    0.0000 </r>
       <r>   35.4458    0.0000 </r>
       <r>   35.4471    0.0000 </r>
       <r>   36.5136    0.0000 </r>
       <r>   36.5149    0.0000 </r>
       <r>   36.5296    0.0000 </r>
       <r>   36.5298    0.0000 </r>
       <r>   36.9437    0.0000 </r>
       <r>   36.9446    0.0000 </r>
       <r>   38.3404    0.0000 </r>
       <r>   38.3411    0.0000 </r>
       <r>   39.1271    0.0000 </r>
       <r>   39.1300    0.0000 </r>
       <r>   39.3124    0.0000 </r>
       <r>   39.3132    0.0000 </r>
       <r>   39.5175    0.0000 </r>
       <r>   39.5178    0.0000 </r>
       <r>   39.5229    0.0000 </r>
       <r>   39.5235    0.0000 </r>
       <r>   40.4062    0.0000 </r>
       <r>   40.4063    0.0000 </r>
       <r>   40.5427    0.0000 </r>
       <r>   40.5438    0.0000 </r>
       <r>   41.3671    0.0000 </r>
       <r>   41.3684    0.0000 </r>
       <r>   41.5213    0.0000 </r>
       <r>   41.5223    0.0000 </r>
       <r>   42.6972    0.0000 </r>
       <r>   42.6978    0.0000 </r>
       <r>   43.2001    0.0000 </r>
       <r>   43.2004    0.0000 </r>
       <r>   43.3042    0.0000 </r>
       <r>   43.3046    0.0000 </r>
       <r>   44.1227    0.0000 </r>
       <r>   44.1233    0.0000 </r>
       <r>   44.6546    0.0000 </r>
       <r>   44.6549    0.0000 </r>
       <r>   44.7573    0.0000 </r>
       <r>   44.7589    0.0000 </r>
       <r>   44.8934    0.0000 </r>
       <r>   44.8945    0.0000 </r>
       <r>   46.5047    0.0000 </r>
       <r>   46.5060    0.0000 </r>
       <r>   47.1127    0.0000 </r>
       <r>   47.1132    0.0000 </r>
       <r>   47.5403    0.0000 </r>
       <r>   47.5412    0.0000 </r>
       <r>   48.4275    0.0000 </r>
       <r>   48.4282    0.0000 </r>
       <r>   49.3361    0.0000 </r>
       <r>   49.3365    0.0000 </r>
       <r>   49.3621    0.0000 </r>
       <r>   49.3634    0.0000 </r>
       <r>   50.3789    0.0000 </r>
       <r>   50.3802    0.0000 </r>
       <r>   51.3557    0.0000 </r>
       <r>   51.3560    0.0000 </r>
       <r>   51.9676    0.0000 </r>
       <r>   51.9685    0.0000 </r>
       <r>   52.4245    0.0000 </r>
       <r>   52.4259    0.0000 </r>
       <r>   52.4994    0.0000 </r>
       <r>   52.4997    0.0000 </r>
       <r>   53.7998    0.0000 </r>
       <r>   53.8001    0.0000 </r>
       <r>   53.9193    0.0000 </r>
       <r>   53.9198    0.0000 </r>
       <r>   54.0318    0.0000 </r>
       <r>   54.0331    0.0000 </r>
       <r>   57.3550    0.0000 </r>
       <r>   57.3560    0.0000 </r>
       <r>   59.2855    0.0000 </r>
       <r>   59.2865    0.0000 </r>
       <r>   59.3521    0.0000 </r>
       <r>   59.3531    0.0000 </r>
       <r>   60.4235    0.0000 </r>
       <r>   60.4238    0.0000 </r>
       <r>   62.0810    0.0000 </r>
       <r>   62.0824    0.0000 </r>
       <r>   62.5012    0.0000 </r>
       <r>   62.5028    0.0000 </r>
       <r>   63.6047    0.0000 </r>
       <r>   63.6054    0.0000 </r>
       <r>   63.7062    0.0000 </r>
       <r>   63.7082    0.0000 </r>
       <r>   65.2606    0.0000 </r>
       <r>   65.2618    0.0000 </r>
       <r>   65.3863    0.0000 </r>
       <r>   65.3872    0.0000 </r>
       <r>   65.9384    0.0000 </r>
       <r>   65.9387    0.0000 </r>
       <r>   66.8932    0.0000 </r>
       <r>   66.8954    0.0000 </r>
       <r>   66.9669    0.0000 </r>
       <r>   66.9675    0.0000 </r>
       <r>   69.3309    0.0000 </r>
       <r>   69.3311    0.0000 </r>
       <r>   69.6581    0.0000 </r>
       <r>   69.6585    0.0000 </r>
       <r>   69.7919    0.0000 </r>
       <r>   69.7935    0.0000 </r>
       <r>   70.3663    0.0000 </r>
       <r>   70.3668    0.0000 </r>
       <r>   70.3832    0.0000 </r>
       <r>   70.3836    0.0000 </r>
       <r>   70.6719    0.0000 </r>
       <r>   70.6721    0.0000 </r>
       <r>   71.1733    0.0000 </r>
       <r>   71.1744    0.0000 </r>
       <r>   71.1814    0.0000 </r>
       <r>   71.1820    0.0000 </r>
       <r>   71.6244    0.0000 </r>
       <r>   71.6259    0.0000 </r>
       <r>   71.9935    0.0000 </r>
       <r>   71.9939    0.0000 </r>
       <r>   72.5565    0.0000 </r>
       <r>   72.5570    0.0000 </r>
       <r>   72.8543    0.0000 </r>
       <r>   72.8562    0.0000 </r>
       <r>   73.9085    0.0000 </r>
       <r>   73.9087    0.0000 </r>
       <r>   74.1833    0.0000 </r>
       <r>   74.1837    0.0000 </r>
       <r>   75.2896    0.0000 </r>
       <r>   75.2904    0.0000 </r>
      </set>
      <set comment="kpoint 3">
       <r>  -30.4594    1.0000 </r>
       <r>  -30.4591    1.0000 </r>
       <r>  -30.4576    1.0000 </r>
       <r>  -30.4574    1.0000 </r>
       <r>  -23.7872    1.0000 </r>
       <r>  -23.7871    1.0000 </r>
       <r>  -23.7827    1.0000 </r>
       <r>  -23.7821    1.0000 </r>
       <r>  -23.7796    1.0000 </r>
       <r>  -23.7785    1.0000 </r>
       <r>  -20.1428    1.0000 </r>
       <r>  -20.1420    1.0000 </r>
       <r>   -7.1942    1.0000 </r>
       <r>   -7.1932    1.0000 </r>
       <r>    1.0897    1.0000 </r>
       <r>    1.0931    1.0000 </r>
       <r>    3.5109    1.0000 </r>
       <r>    3.5151    1.0000 </r>
       <r>    6.2142    0.0000 </r>
       <r>    6.2145    0.0000 </r>
       <r>   10.4101    0.0000 </r>
       <r>   10.4110    0.0000 </r>
       <r>   10.6101    0.0000 </r>
       <r>   10.6108    0.0000 </r>
       <r>   11.0430    0.0000 </r>
       <r>   11.0434    0.0000 </r>
       <r>   11.2750    0.0000 </r>
       <r>   11.2753    0.0000 </r>
       <r>   13.3034    0.0000 </r>
       <r>   13.3039    0.0000 </r>
       <r>   13.5719    0.0000 </r>
       <r>   13.5733    0.0000 </r>
       <r>   16.6399    0.0000 </r>
       <r>   16.6418    0.0000 </r>
       <r>   17.6925    0.0000 </r>
       <r>   17.6943    0.0000 </r>
       <r>   17.9344    0.0000 </r>
       <r>   17.9374    0.0000 </r>
       <r>   18.3089    0.0000 </r>
       <r>   18.3105    0.0000 </r>
       <r>   18.7474    0.0000 </r>
       <r>   18.7494    0.0000 </r>
       <r>   19.0529    0.0000 </r>
       <r>   19.0551    0.0000 </r>
       <r>   20.5548    0.0000 </r>
       <r>   20.5553    0.0000 </r>
       <r>   21.1356    0.0000 </r>
       <r>   21.1359    0.0000 </r>
       <r>   23.9597    0.0000 </r>
       <r>   23.9600    0.0000 </r>
       <r>   25.1905    0.0000 </r>
       <r>   25.1920    0.0000 </r>
       <r>   25.2931    0.0000 </r>
       <r>   25.2948    0.0000 </r>
       <r>   26.3660    0.0000 </r>
       <r>   26.3670    0.0000 </r>
       <r>   27.0109    0.0000 </r>
       <r>   27.0112    0.0000 </r>
       <r>   27.5863    0.0000 </r>
       <r>   27.5871    0.0000 </r>
       <r>   29.5904    0.0000 </r>
       <r>   29.5906    0.0000 </r>
       <r>   31.0213    0.0000 </r>
       <r>   31.0238    0.0000 </r>
       <r>   31.4528    0.0000 </r>
       <r>   31.4530    0.0000 </r>
       <r>   31.8925    0.0000 </r>
       <r>   31.8932    0.0000 </r>
       <r>   32.0428    0.0000 </r>
       <r>   32.0446    0.0000 </r>
       <r>   32.1884    0.0000 </r>
       <r>   32.1888    0.0000 </r>
       <r>   33.6774    0.0000 </r>
       <r>   33.6788    0.0000 </r>
       <r>   33.8374    0.0000 </r>
       <r>   33.8382    0.0000 </r>
       <r>   34.9152    0.0000 </r>
       <r>   34.9165    0.0000 </r>
       <r>   35.6960    0.0000 </r>
       <r>   35.6983    0.0000 </r>
       <r>   35.9890    0.0000 </r>
       <r>   35.9897    0.0000 </r>
       <r>   36.4403    0.0000 </r>
       <r>   36.4418    0.0000 </r>
       <r>   39.2955    0.0000 </r>
       <r>   39.2974    0.0000 </r>
       <r>   39.3267    0.0000 </r>
       <r>   39.3275    0.0000 </r>
       <r>   40.0858    0.0000 </r>
       <r>   40.0860    0.0000 </r>
       <r>   40.6635    0.0000 </r>
       <r>   40.6640    0.0000 </r>
       <r>   40.8764    0.0000 </r>
       <r>   40.8773    0.0000 </r>
       <r>   42.0680    0.0000 </r>
       <r>   42.0685    0.0000 </r>
       <r>   42.8319    0.0000 </r>
       <r>   42.8322    0.0000 </r>
       <r>   43.0507    0.0000 </r>
       <r>   43.0520    0.0000 </r>
       <r>   43.8420    0.0000 </r>
       <r>   43.8433    0.0000 </r>
       <r>   44.6812    0.0000 </r>
       <r>   44.6815    0.0000 </r>
       <r>   44.8150    0.0000 </r>
       <r>   44.8156    0.0000 </r>
       <r>   45.9635    0.0000 </r>
       <r>   45.9636    0.0000 </r>
       <r>   46.4173    0.0000 </r>
       <r>   46.4187    0.0000 </r>
       <r>   46.4994    0.0000 </r>
       <r>   46.5008    0.0000 </r>
       <r>   47.0575    0.0000 </r>
       <r>   47.0583    0.0000 </r>
       <r>   49.6480    0.0000 </r>
       <r>   49.6485    0.0000 </r>
       <r>   51.1409    0.0000 </r>
       <r>   51.1415    0.0000 </r>
       <r>   51.3932    0.0000 </r>
       <r>   51.3943    0.0000 </r>
       <r>   51.8138    0.0000 </r>
       <r>   51.8142    0.0000 </r>
       <r>   51.9747    0.0000 </r>
       <r>   51.9753    0.0000 </r>
       <r>   52.2361    0.0000 </r>
       <r>   52.2367    0.0000 </r>
       <r>   52.5688    0.0000 </r>
       <r>   52.5695    0.0000 </r>
       <r>   53.5663    0.0000 </r>
       <r>   53.5672    0.0000 </r>
       <r>   54.2402    0.0000 </r>
       <r>   54.2409    0.0000 </r>
       <r>   54.3183    0.0000 </r>
       <r>   54.3194    0.0000 </r>
       <r>   55.0838    0.0000 </r>
       <r>   55.0846    0.0000 </r>
       <r>   55.5688    0.0000 </r>
       <r>   55.5712    0.0000 </r>
       <r>   55.8419    0.0000 </r>
       <r>   55.8425    0.0000 </r>
       <r>   56.0401    0.0000 </r>
       <r>   56.0422    0.0000 </r>
       <r>   57.5572    0.0000 </r>
       <r>   57.5574    0.0000 </r>
       <r>   59.5747    0.0000 </r>
       <r>   59.5755    0.0000 </r>
       <r>   60.0216    0.0000 </r>
       <r>   60.0219    0.0000 </r>
       <r>   60.1464    0.0000 </r>
       <r>   60.1481    0.0000 </r>
       <r>   60.3854    0.0000 </r>
       <r>   60.3863    0.0000 </r>
       <r>   60.9679    0.0000 </r>
       <r>   60.9682    0.0000 </r>
       <r>   61.9036    0.0000 </r>
       <r>   61.9044    0.0000 </r>
       <r>   63.0857    0.0000 </r>
       <r>   63.0859    0.0000 </r>
       <r>   63.1488    0.0000 </r>
       <r>   63.1491    0.0000 </r>
       <r>   64.4475    0.0000 </r>
       <r>   64.4481    0.0000 </r>
       <r>   64.8464    0.0000 </r>
       <r>   64.8477    0.0000 </r>
       <r>   64.9211    0.0000 </r>
       <r>   64.9218    0.0000 </r>
       <r>   66.9946    0.0000 </r>
       <r>   66.9955    0.0000 </r>
       <r>   67.3242    0.0000 </r>
       <r>   67.3263    0.0000 </r>
       <r>   67.5622    0.0000 </r>
       <r>   67.5623    0.0000 </r>
       <r>   68.2253    0.0000 </r>
       <r>   68.2260    0.0000 </r>
       <r>   68.6915    0.0000 </r>
       <r>   68.6929    0.0000 </r>
       <r>   70.0747    0.0000 </r>
       <r>   70.0752    0.0000 </r>
       <r>   70.6529    0.0000 </r>
       <r>   70.6531    0.0000 </r>
       <r>   70.7474    0.0000 </r>
       <r>   70.7493    0.0000 </r>
       <r>   71.8621    0.0000 </r>
       <r>   71.8634    0.0000 </r>
       <r>   71.9232    0.0000 </r>
       <r>   71.9235    0.0000 </r>
       <r>   72.1660    0.0000 </r>
       <r>   72.1662    0.0000 </r>
       <r>   72.2179    0.0000 </r>
       <r>   72.2196    0.0000 </r>
       <r>   72.9820    0.0000 </r>
       <r>   72.9834    0.0000 </r>
       <r>   73.0825    0.0000 </r>
       <r>   73.0837    0.0000 </r>
       <r>   73.6645    0.0000 </r>
       <r>   73.6648    0.0000 </r>
      </set>
      <set comment="kpoint 4">
       <r>  -30.4590    1.0000 </r>
       <r>  -30.4588    1.0000 </r>
       <r>  -30.4568    1.0000 </r>
       <r>  -30.4567    1.0000 </r>
       <r>  -23.7877    1.0000 </r>
       <r>  -23.7875    1.0000 </r>
       <r>  -23.7809    1.0000 </r>
       <r>  -23.7802    1.0000 </r>
       <r>  -23.7776    1.0000 </r>
       <r>  -23.7765    1.0000 </r>
       <r>  -20.1145    1.0000 </r>
       <r>  -20.1137    1.0000 </r>
       <r>   -7.2861    1.0000 </r>
       <r>   -7.2852    1.0000 </r>
       <r>    0.7093    1.0000 </r>
       <r>    0.7127    1.0000 </r>
       <r>    3.3841    1.0000 </r>
       <r>    3.3882    1.0000 </r>
       <r>    6.2159    0.0000 </r>
       <r>    6.2162    0.0000 </r>
       <r>   10.3202    0.0000 </r>
       <r>   10.3212    0.0000 </r>
       <r>   10.5250    0.0000 </r>
       <r>   10.5256    0.0000 </r>
       <r>   10.7247    0.0000 </r>
       <r>   10.7252    0.0000 </r>
       <r>   12.0981    0.0000 </r>
       <r>   12.0986    0.0000 </r>
       <r>   14.6783    0.0000 </r>
       <r>   14.6784    0.0000 </r>
       <r>   14.7649    0.0000 </r>
       <r>   14.7661    0.0000 </r>
       <r>   16.1142    0.0000 </r>
       <r>   16.1154    0.0000 </r>
       <r>   17.1055    0.0000 </r>
       <r>   17.1056    0.0000 </r>
       <r>   17.2759    0.0000 </r>
       <r>   17.2783    0.0000 </r>
       <r>   18.5053    0.0000 </r>
       <r>   18.5076    0.0000 </r>
       <r>   18.9993    0.0000 </r>
       <r>   19.0025    0.0000 </r>
       <r>   19.0554    0.0000 </r>
       <r>   19.0573    0.0000 </r>
       <r>   20.6283    0.0000 </r>
       <r>   20.6289    0.0000 </r>
       <r>   23.2425    0.0000 </r>
       <r>   23.2436    0.0000 </r>
       <r>   23.9829    0.0000 </r>
       <r>   23.9842    0.0000 </r>
       <r>   25.2894    0.0000 </r>
       <r>   25.2898    0.0000 </r>
       <r>   25.4808    0.0000 </r>
       <r>   25.4817    0.0000 </r>
       <r>   25.5326    0.0000 </r>
       <r>   25.5335    0.0000 </r>
       <r>   27.0109    0.0000 </r>
       <r>   27.0114    0.0000 </r>
       <r>   27.2375    0.0000 </r>
       <r>   27.2387    0.0000 </r>
       <r>   28.3213    0.0000 </r>
       <r>   28.3217    0.0000 </r>
       <r>   29.4550    0.0000 </r>
       <r>   29.4560    0.0000 </r>
       <r>   30.8201    0.0000 </r>
       <r>   30.8204    0.0000 </r>
       <r>   30.8473    0.0000 </r>
       <r>   30.8494    0.0000 </r>
       <r>   31.7196    0.0000 </r>
       <r>   31.7220    0.0000 </r>
       <r>   32.4489    0.0000 </r>
       <r>   32.4491    0.0000 </r>
       <r>   32.8674    0.0000 </r>
       <r>   32.8678    0.0000 </r>
       <r>   33.0507    0.0000 </r>
       <r>   33.0521    0.0000 </r>
       <r>   33.9477    0.0000 </r>
       <r>   33.9495    0.0000 </r>
       <r>   34.0367    0.0000 </r>
       <r>   34.0391    0.0000 </r>
       <r>   35.8190    0.0000 </r>
       <r>   35.8196    0.0000 </r>
       <r>   36.6470    0.0000 </r>
       <r>   36.6484    0.0000 </r>
       <r>   39.5017    0.0000 </r>
       <r>   39.5027    0.0000 </r>
       <r>   39.6208    0.0000 </r>
       <r>   39.6232    0.0000 </r>
       <r>   39.7573    0.0000 </r>
       <r>   39.7579    0.0000 </r>
       <r>   40.2262    0.0000 </r>
       <r>   40.2270    0.0000 </r>
       <r>   40.4933    0.0000 </r>
       <r>   40.4943    0.0000 </r>
       <r>   41.9335    0.0000 </r>
       <r>   41.9345    0.0000 </r>
       <r>   42.1524    0.0000 </r>
       <r>   42.1527    0.0000 </r>
       <r>   44.8466    0.0000 </r>
       <r>   44.8471    0.0000 </r>
       <r>   46.0638    0.0000 </r>
       <r>   46.0644    0.0000 </r>
       <r>   46.2182    0.0000 </r>
       <r>   46.2192    0.0000 </r>
       <r>   46.4022    0.0000 </r>
       <r>   46.4026    0.0000 </r>
       <r>   46.4062    0.0000 </r>
       <r>   46.4069    0.0000 </r>
       <r>   47.6796    0.0000 </r>
       <r>   47.6803    0.0000 </r>
       <r>   49.4263    0.0000 </r>
       <r>   49.4272    0.0000 </r>
       <r>   50.0263    0.0000 </r>
       <r>   50.0271    0.0000 </r>
       <r>   50.2084    0.0000 </r>
       <r>   50.2095    0.0000 </r>
       <r>   50.9269    0.0000 </r>
       <r>   50.9285    0.0000 </r>
       <r>   51.2863    0.0000 </r>
       <r>   51.2871    0.0000 </r>
       <r>   51.4874    0.0000 </r>
       <r>   51.4875    0.0000 </r>
       <r>   52.6155    0.0000 </r>
       <r>   52.6171    0.0000 </r>
       <r>   52.6438    0.0000 </r>
       <r>   52.6447    0.0000 </r>
       <r>   52.7848    0.0000 </r>
       <r>   52.7866    0.0000 </r>
       <r>   52.9521    0.0000 </r>
       <r>   52.9527    0.0000 </r>
       <r>   53.0618    0.0000 </r>
       <r>   53.0628    0.0000 </r>
       <r>   53.0943    0.0000 </r>
       <r>   53.0971    0.0000 </r>
       <r>   57.0577    0.0000 </r>
       <r>   57.0589    0.0000 </r>
       <r>   57.1450    0.0000 </r>
       <r>   57.1451    0.0000 </r>
       <r>   57.2315    0.0000 </r>
       <r>   57.2317    0.0000 </r>
       <r>   57.4177    0.0000 </r>
       <r>   57.4184    0.0000 </r>
       <r>   57.6784    0.0000 </r>
       <r>   57.6788    0.0000 </r>
       <r>   57.7623    0.0000 </r>
       <r>   57.7631    0.0000 </r>
       <r>   58.0074    0.0000 </r>
       <r>   58.0080    0.0000 </r>
       <r>   59.4979    0.0000 </r>
       <r>   59.4989    0.0000 </r>
       <r>   59.8156    0.0000 </r>
       <r>   59.8179    0.0000 </r>
       <r>   60.1265    0.0000 </r>
       <r>   60.1275    0.0000 </r>
       <r>   61.3641    0.0000 </r>
       <r>   61.3654    0.0000 </r>
       <r>   61.6082    0.0000 </r>
       <r>   61.6091    0.0000 </r>
       <r>   62.9771    0.0000 </r>
       <r>   62.9777    0.0000 </r>
       <r>   63.0581    0.0000 </r>
       <r>   63.0584    0.0000 </r>
       <r>   63.1080    0.0000 </r>
       <r>   63.1096    0.0000 </r>
       <r>   65.9295    0.0000 </r>
       <r>   65.9311    0.0000 </r>
       <r>   66.1165    0.0000 </r>
       <r>   66.1165    0.0000 </r>
       <r>   67.3650    0.0000 </r>
       <r>   67.3652    0.0000 </r>
       <r>   67.8698    0.0000 </r>
       <r>   67.8710    0.0000 </r>
       <r>   67.8725    0.0000 </r>
       <r>   67.8727    0.0000 </r>
       <r>   67.9654    0.0000 </r>
       <r>   67.9661    0.0000 </r>
       <r>   69.8153    0.0000 </r>
       <r>   69.8160    0.0000 </r>
       <r>   69.8853    0.0000 </r>
       <r>   69.8871    0.0000 </r>
       <r>   70.2936    0.0000 </r>
       <r>   70.2944    0.0000 </r>
       <r>   71.9707    0.0000 </r>
       <r>   71.9711    0.0000 </r>
       <r>   72.0304    0.0000 </r>
       <r>   72.0315    0.0000 </r>
       <r>   72.3434    0.0000 </r>
       <r>   72.3444    0.0000 </r>
       <r>   72.3445    0.0000 </r>
       <r>   72.3457    0.0000 </r>
       <r>   72.3592    0.0000 </r>
       <r>   72.3606    0.0000 </r>
       <r>   72.6523    0.0000 </r>
       <r>   72.6535    0.0000 </r>
       <r>   74.1115    0.0000 </r>
       <r>   74.1118    0.0000 </r>
      </set>
      <set comment="kpoint 5">
       <r>  -30.4594    1.0000 </r>
       <r>  -30.4591    1.0000 </r>
       <r>  -30.4576    1.0000 </r>
       <r>  -30.4574    1.0000 </r>
       <r>  -23.7872    1.0000 </r>
       <r>  -23.7871    1.0000 </r>
       <r>  -23.7827    1.0000 </r>
       <r>  -23.7821    1.0000 </r>
       <r>  -23.7796    1.0000 </r>
       <r>  -23.7785    1.0000 </r>
       <r>  -20.1428    1.0000 </r>
       <r>  -20.1420    1.0000 </r>
       <r>   -7.1942    1.0000 </r>
       <r>   -7.1932    1.0000 </r>
       <r>    1.0897    1.0000 </r>
       <r>    1.0931    1.0000 </r>
       <r>    3.5109    1.0000 </r>
       <r>    3.5151    1.0000 </r>
       <r>    6.2142    0.0000 </r>
       <r>    6.2145    0.0000 </r>
       <r>   10.4101    0.0000 </r>
       <r>   10.4110    0.0000 </r>
       <r>   10.6101    0.0000 </r>
       <r>   10.6108    0.0000 </r>
       <r>   11.0430    0.0000 </r>
       <r>   11.0434    0.0000 </r>
       <r>   11.2750    0.0000 </r>
       <r>   11.2753    0.0000 </r>
       <r>   13.3034    0.0000 </r>
       <r>   13.3039    0.0000 </r>
       <r>   13.5719    0.0000 </r>
       <r>   13.5733    0.0000 </r>
       <r>   16.6399    0.0000 </r>
       <r>   16.6418    0.0000 </r>
       <r>   17.6925    0.0000 </r>
       <r>   17.6943    0.0000 </r>
       <r>   17.9344    0.0000 </r>
       <r>   17.9374    0.0000 </r>
       <r>   18.3089    0.0000 </r>
       <r>   18.3105    0.0000 </r>
       <r>   18.7474    0.0000 </r>
       <r>   18.7494    0.0000 </r>
       <r>   19.0529    0.0000 </r>
       <r>   19.0551    0.0000 </r>
       <r>   20.5548    0.0000 </r>
       <r>   20.5553    0.0000 </r>
       <r>   21.1356    0.0000 </r>
       <r>   21.1359    0.0000 </r>
       <r>   23.9597    0.0000 </r>
       <r>   23.9600    0.0000 </r>
       <r>   25.1905    0.0000 </r>
       <r>   25.1920    0.0000 </r>
       <r>   25.2931    0.0000 </r>
       <r>   25.2948    0.0000 </r>
       <r>   26.3660    0.0000 </r>
       <r>   26.3670    0.0000 </r>
       <r>   27.0109    0.0000 </r>
       <r>   27.0112    0.0000 </r>
       <r>   27.5863    0.0000 </r>
       <r>   27.5871    0.0000 </r>
       <r>   29.5904    0.0000 </r>
       <r>   29.5906    0.0000 </r>
       <r>   31.0213    0.0000 </r>
       <r>   31.0238    0.0000 </r>
       <r>   31.4528    0.0000 </r>
       <r>   31.4530    0.0000 </r>
       <r>   31.8925    0.0000 </r>
       <r>   31.8932    0.0000 </r>
       <r>   32.0428    0.0000 </r>
       <r>   32.0446    0.0000 </r>
       <r>   32.1884    0.0000 </r>
       <r>   32.1888    0.0000 </r>
       <r>   33.6774    0.0000 </r>
       <r>   33.6788    0.0000 </r>
       <r>   33.8374    0.0000 </r>
       <r>   33.8382    0.0000 </r>
       <r>   34.9152    0.0000 </r>
       <r>   34.9165    0.0000 </r>
       <r>   35.6960    0.0000 </r>
       <r>   35.6983    0.0000 </r>
       <r>   35.9890    0.0000 </r>
       <r>   35.9897    0.0000 </r>
       <r>   36.4403    0.0000 </r>
       <r>   36.4418    0.0000 </r>
       <r>   39.2955    0.0000 </r>
       <r>   39.2974    0.0000 </r>
       <r>   39.3267    0.0000 </r>
       <r>   39.3275    0.0000 </r>
       <r>   40.0858    0.0000 </r>
       <r>   40.0860    0.0000 </r>
       <r>   40.6635    0.0000 </r>
       <r>   40.6640    0.0000 </r>
       <r>   40.8764    0.0000 </r>
       <r>   40.8773    0.0000 </r>
       <r>   42.0680    0.0000 </r>
       <r>   42.0685    0.0000 </r>
       <r>   42.8319    0.0000 </r>
       <r>   42.8322    0.0000 </r>
       <r>   43.0507    0.0000 </r>
       <r>   43.0520    0.0000 </r>
       <r>   43.8420    0.0000 </r>
       <r>   43.8433    0.0000 </r>
       <r>   44.6812    0.0000 </r>
       <r>   44.6815    0.0000 </r>
       <r>   44.8150    0.0000 </r>
       <r>   44.8156    0.0000 </r>
       <r>   45.9635    0.0000 </r>
       <r>   45.9636    0.0000 </r>
       <r>   46.4173    0.0000 </r>
       <r>   46.4187    0.0000 </r>
       <r>   46.4994    0.0000 </r>
       <r>   46.5008    0.0000 </r>
       <r>   47.0575    0.0000 </r>
       <r>   47.0583    0.0000 </r>
       <r>   49.6480    0.0000 </r>
       <r>   49.6485    0.0000 </r>
       <r>   51.1409    0.0000 </r>
       <r>   51.1415    0.0000 </r>
       <r>   51.3932    0.0000 </r>
       <r>   51.3943    0.0000 </r>
       <r>   51.8138    0.0000 </r>
       <r>   51.8142    0.0000 </r>
       <r>   51.9747    0.0000 </r>
       <r>   51.9753    0.0000 </r>
       <r>   52.2361    0.0000 </r>
       <r>   52.2367    0.0000 </r>
       <r>   52.5688    0.0000 </r>
       <r>   52.5695    0.0000 </r>
       <r>   53.5663    0.0000 </r>
       <r>   53.5672    0.0000 </r>
       <r>   54.2402    0.0000 </r>
       <r>   54.2409    0.0000 </r>
       <r>   54.3183    0.0000 </r>
       <r>   54.3194    0.0000 </r>
       <r>   55.0838    0.0000 </r>
       <r>   55.0846    0.0000 </r>
       <r>   55.5688    0.0000 </r>
       <r>   55.5712    0.0000 </r>
       <r>   55.8419    0.0000 </r>
       <r>   55.8425    0.0000 </r>
       <r>   56.0401    0.0000 </r>
       <r>   56.0422    0.0000 </r>
       <r>   57.5572    0.0000 </r>
       <r>   57.5574    0.0000 </r>
       <r>   59.5747    0.0000 </r>
       <r>   59.5755    0.0000 </r>
       <r>   60.0216    0.0000 </r>
       <r>   60.0219    0.0000 </r>
       <r>   60.1464    0.0000 </r>
       <r>   60.1481    0.0000 </r>
       <r>   60.3854    0.0000 </r>
       <r>   60.3863    0.0000 </r>
       <r>   60.9679    0.0000 </r>
       <r>   60.9682    0.0000 </r>
       <r>   61.9036    0.0000 </r>
       <r>   61.9044    0.0000 </r>
       <r>   63.0857    0.0000 </r>
       <r>   63.0859    0.0000 </r>
       <r>   63.1488    0.0000 </r>
       <r>   63.1491    0.0000 </r>
       <r>   64.4475    0.0000 </r>
       <r>   64.4481    0.0000 </r>
       <r>   64.8464    0.0000 </r>
       <r>   64.8477    0.0000 </r>
       <r>   64.9211    0.0000 </r>
       <r>   64.9218    0.0000 </r>
       <r>   66.9946    0.0000 </r>
       <r>   66.9955    0.0000 </r>
       <r>   67.3242    0.0000 </r>
       <r>   67.3263    0.0000 </r>
       <r>   67.5622    0.0000 </r>
       <r>   67.5623    0.0000 </r>
       <r>   68.2253    0.0000 </r>
       <r>   68.2260    0.0000 </r>
       <r>   68.6915    0.0000 </r>
       <r>   68.6929    0.0000 </r>
       <r>   70.0747    0.0000 </r>
       <r>   70.0752    0.0000 </r>
       <r>   70.6529    0.0000 </r>
       <r>   70.6531    0.0000 </r>
       <r>   70.7474    0.0000 </r>
       <r>   70.7493    0.0000 </r>
       <r>   71.8621    0.0000 </r>
       <r>   71.8634    0.0000 </r>
       <r>   71.9232    0.0000 </r>
       <r>   71.9235    0.0000 </r>
       <r>   72.1660    0.0000 </r>
       <r>   72.1662    0.0000 </r>
       <r>   72.2179    0.0000 </r>
       <r>   72.2196    0.0000 </r>
       <r>   72.9820    0.0000 </r>
       <r>   72.9834    0.0000 </r>
       <r>   73.0825    0.0000 </r>
       <r>   73.0837    0.0000 </r>
       <r>   73.6645    0.0000 </r>
       <r>   73.6648    0.0000 </r>
      </set>
      <set comment="kpoint 6">
       <r>  -30.4597    1.0000 </r>
       <r>  -30.4595    1.0000 </r>
       <r>  -30.4590    1.0000 </r>
       <r>  -30.4588    1.0000 </r>
       <r>  -23.7877    1.0000 </r>
       <r>  -23.7871    1.0000 </r>
       <r>  -23.7850    1.0000 </r>
       <r>  -23.7849    1.0000 </r>
       <r>  -23.7835    1.0000 </r>
       <r>  -23.7824    1.0000 </r>
       <r>  -20.1971    1.0000 </r>
       <r>  -20.1963    1.0000 </r>
       <r>   -7.0110    1.0000 </r>
       <r>   -7.0099    1.0000 </r>
       <r>    2.1862    1.0000 </r>
       <r>    2.1893    1.0000 </r>
       <r>    3.7906    1.0000 </r>
       <r>    3.7951    1.0000 </r>
       <r>    5.5263    0.0000 </r>
       <r>    5.5278    0.0000 </r>
       <r>    9.8166    0.0000 </r>
       <r>    9.8178    0.0000 </r>
       <r>   11.0554    0.0000 </r>
       <r>   11.0560    0.0000 </r>
       <r>   11.3794    0.0000 </r>
       <r>   11.3796    0.0000 </r>
       <r>   12.1584    0.0000 </r>
       <r>   12.1589    0.0000 </r>
       <r>   12.5036    0.0000 </r>
       <r>   12.5053    0.0000 </r>
       <r>   12.6751    0.0000 </r>
       <r>   12.6773    0.0000 </r>
       <r>   13.7715    0.0000 </r>
       <r>   13.7733    0.0000 </r>
       <r>   15.8813    0.0000 </r>
       <r>   15.8827    0.0000 </r>
       <r>   16.0308    0.0000 </r>
       <r>   16.0336    0.0000 </r>
       <r>   18.0339    0.0000 </r>
       <r>   18.0342    0.0000 </r>
       <r>   19.8728    0.0000 </r>
       <r>   19.8746    0.0000 </r>
       <r>   20.0029    0.0000 </r>
       <r>   20.0050    0.0000 </r>
       <r>   20.4146    0.0000 </r>
       <r>   20.4151    0.0000 </r>
       <r>   21.7909    0.0000 </r>
       <r>   21.7912    0.0000 </r>
       <r>   24.9958    0.0000 </r>
       <r>   24.9969    0.0000 </r>
       <r>   25.6001    0.0000 </r>
       <r>   25.6024    0.0000 </r>
       <r>   25.8915    0.0000 </r>
       <r>   25.8931    0.0000 </r>
       <r>   27.0983    0.0000 </r>
       <r>   27.0996    0.0000 </r>
       <r>   27.7952    0.0000 </r>
       <r>   27.7955    0.0000 </r>
       <r>   28.6701    0.0000 </r>
       <r>   28.6709    0.0000 </r>
       <r>   30.1875    0.0000 </r>
       <r>   30.1899    0.0000 </r>
       <r>   30.2570    0.0000 </r>
       <r>   30.2581    0.0000 </r>
       <r>   30.9015    0.0000 </r>
       <r>   30.9025    0.0000 </r>
       <r>   30.9965    0.0000 </r>
       <r>   30.9967    0.0000 </r>
       <r>   32.9057    0.0000 </r>
       <r>   32.9077    0.0000 </r>
       <r>   35.3151    0.0000 </r>
       <r>   35.3157    0.0000 </r>
       <r>   35.4458    0.0000 </r>
       <r>   35.4471    0.0000 </r>
       <r>   36.5136    0.0000 </r>
       <r>   36.5149    0.0000 </r>
       <r>   36.5296    0.0000 </r>
       <r>   36.5298    0.0000 </r>
       <r>   36.9437    0.0000 </r>
       <r>   36.9446    0.0000 </r>
       <r>   38.3404    0.0000 </r>
       <r>   38.3411    0.0000 </r>
       <r>   39.1271    0.0000 </r>
       <r>   39.1300    0.0000 </r>
       <r>   39.3124    0.0000 </r>
       <r>   39.3132    0.0000 </r>
       <r>   39.5175    0.0000 </r>
       <r>   39.5178    0.0000 </r>
       <r>   39.5229    0.0000 </r>
       <r>   39.5235    0.0000 </r>
       <r>   40.4062    0.0000 </r>
       <r>   40.4063    0.0000 </r>
       <r>   40.5427    0.0000 </r>
       <r>   40.5438    0.0000 </r>
       <r>   41.3671    0.0000 </r>
[...]
       <r>    46.8435     0.0000     0.0000 </r>
       <r>    47.2313     0.0000     0.0000 </r>
       <r>    47.6190     0.0000     0.0000 </r>
       <r>    48.0068     0.0000     0.0000 </r>
       <r>    48.3945     0.0000     0.0000 </r>
       <r>    48.7823     0.0000     0.0000 </r>
       <r>    49.1700     0.0000     0.0000 </r>
       <r>    49.5578     0.0000     0.0000 </r>
       <r>    49.9455     0.0000     0.0000 </r>
       <r>    50.3333     0.0000     0.0000 </r>
       <r>    50.7210     0.0000     0.0000 </r>
       <r>    51.1088     0.0000     0.0000 </r>
       <r>    51.4965     0.0000     0.0000 </r>
       <r>    51.8843     0.0000     0.0000 </r>
       <r>    52.2721     0.0000     0.0000 </r>
       <r>    52.6598     0.0000     0.0000 </r>
       <r>    53.0476     0.0000     0.0000 </r>
       <r>    53.4353     0.0000     0.0000 </r>
       <r>    53.8231     0.0000     0.0000 </r>
       <r>    54.2108     0.0000     0.0000 </r>
       <r>    54.5986     0.0000     0.0000 </r>
       <r>    54.9863     0.0000     0.0000 </r>
       <r>    55.3741     0.0000     0.0000 </r>
       <r>    55.7618     0.0000     0.0000 </r>
       <r>    56.1496     0.0000     0.0000 </r>
       <r>    56.5373     0.0000     0.0000 </r>
       <r>    56.9251     0.0000     0.0000 </r>
       <r>    57.3128     0.0000     0.0000 </r>
       <r>    57.7006     0.0000     0.0000 </r>
       <r>    58.0883     0.0000     0.0000 </r>
       <r>    58.4761     0.0000     0.0000 </r>
       <r>    58.8638     0.0000     0.0000 </r>
       <r>    59.2516     0.0000     0.0000 </r>
       <r>    59.6393     0.0000     0.0000 </r>
       <r>    60.0271     0.0000     0.0000 </r>
       <r>    60.4149     0.0000     0.0000 </r>
       <r>    60.8026     0.0000     0.0000 </r>
       <r>    61.1904     0.0000     0.0000 </r>
       <r>    61.5781     0.0000     0.0000 </r>
       <r>    61.9659     0.0000     0.0000 </r>
       <r>    62.3536     0.0000     0.0000 </r>
       <r>    62.7414     0.0000     0.0000 </r>
       <r>    63.1291     0.0000     0.0000 </r>
       <r>    63.5169     0.0000     0.0000 </r>
       <r>    63.9046     0.0000     0.0000 </r>
       <r>    64.2924     0.0000     0.0000 </r>
       <r>    64.6801     0.0000     0.0000 </r>
       <r>    65.0679     0.0000     0.0000 </r>
       <r>    65.4556     0.0000     0.0000 </r>
       <r>    65.8434     0.0000     0.0000 </r>
       <r>    66.2311     0.0000     0.0000 </r>
       <r>    66.6189     0.0000     0.0000 </r>
       <r>    67.0066     0.0000     0.0000 </r>
       <r>    67.3944     0.0000     0.0000 </r>
       <r>    67.7822     0.0000     0.0000 </r>
       <r>    68.1699     0.0000     0.0000 </r>
       <r>    68.5577     0.0000     0.0000 </r>
       <r>    68.9454     0.0000     0.0000 </r>
       <r>    69.3332     0.0000     0.0000 </r>
       <r>    69.7209     0.0000     0.0000 </r>
       <r>    70.1087     0.0000     0.0000 </r>
       <r>    70.4964     0.0000     0.0000 </r>
       <r>    70.8842     0.0000     0.0000 </r>
       <r>    71.2719     0.0000     0.0000 </r>
       <r>    71.6597     0.0000     0.0000 </r>
       <r>    72.0474     0.0000     0.0000 </r>
       <r>    72.4352     0.0000     0.0000 </r>
       <r>    72.8229     0.0000     0.0000 </r>
       <r>    73.2107     0.0000     0.0000 </r>
       <r>    73.5984     0.0000     0.0000 </r>
       <r>    73.9862     0.0000     0.0000 </r>
       <r>    74.3739     0.0000     0.0000 </r>
       <r>    74.7617     0.0000     0.0000 </r>
       <r>    75.1494     0.0000     0.0000 </r>
       <r>    75.5372     0.0000     0.0000 </r>
       <r>    75.9250     0.0000     0.0000 </r>
       <r>    76.3127     0.0000     0.0000 </r>
       <r>    76.7005     0.0000     0.0000 </r>
       <r>    77.0882     0.0000     0.0000 </r>
       <r>    77.4760     0.0000     0.0000 </r>
       <r>    77.8637     0.0000     0.0000 </r>
       <r>    78.2515     0.0000     0.0000 </r>
       <r>    78.6392     0.0000     0.0000 </r>
       <r>    79.0270     0.0000     0.0000 </r>
       <r>    79.4147     0.0000     0.0000 </r>
       <r>    79.8025     0.0000     0.0000 </r>
       <r>    80.1902     0.0000     0.0000 </r>
       <r>    80.5780     0.0000     0.0000 </r>
      </set>
      <set comment="spin 4">
       <r>   -35.7477     0.0000     0.0000 </r>
       <r>   -35.3600     0.0000     0.0000 </r>
       <r>   -34.9722     0.0000     0.0000 </r>
       <r>   -34.5845     0.0000     0.0000 </r>
       <r>   -34.1967     0.0000     0.0000 </r>
       <r>   -33.8090     0.0000     0.0000 </r>
       <r>   -33.4212     0.0000     0.0000 </r>
       <r>   -33.0335     0.0000     0.0000 </r>
       <r>   -32.6457     0.0000     0.0000 </r>
       <r>   -32.2580     0.0000     0.0000 </r>
       <r>   -31.8702     0.0000     0.0000 </r>
       <r>   -31.4825     0.0000     0.0000 </r>
       <r>   -31.0947     0.0000     0.0000 </r>
       <r>   -30.7070     0.0000     0.0000 </r>
       <r>   -30.3192     0.0000     0.0000 </r>
       <r>   -29.9315     0.0000     0.0000 </r>
       <r>   -29.5437     0.0000     0.0000 </r>
       <r>   -29.1560     0.0000     0.0000 </r>
       <r>   -28.7682     0.0000     0.0000 </r>
       <r>   -28.3804     0.0000     0.0000 </r>
       <r>   -27.9927     0.0000     0.0000 </r>
       <r>   -27.6049     0.0000     0.0000 </r>
       <r>   -27.2172     0.0000     0.0000 </r>
       <r>   -26.8294     0.0000     0.0000 </r>
       <r>   -26.4417     0.0000     0.0000 </r>
       <r>   -26.0539     0.0000     0.0000 </r>
       <r>   -25.6662     0.0000     0.0000 </r>
       <r>   -25.2784     0.0000     0.0000 </r>
       <r>   -24.8907     0.0000     0.0000 </r>
       <r>   -24.5029     0.0000     0.0000 </r>
       <r>   -24.1152     0.0000     0.0000 </r>
       <r>   -23.7274     0.0000     0.0000 </r>
       <r>   -23.3397     0.0000     0.0000 </r>
       <r>   -22.9519     0.0000     0.0000 </r>
       <r>   -22.5642     0.0000     0.0000 </r>
       <r>   -22.1764     0.0000     0.0000 </r>
       <r>   -21.7887     0.0000     0.0000 </r>
       <r>   -21.4009     0.0000     0.0000 </r>
       <r>   -21.0132     0.0000     0.0000 </r>
       <r>   -20.6254     0.0000     0.0000 </r>
       <r>   -20.2376     0.0000     0.0000 </r>
       <r>   -19.8499     0.0000     0.0000 </r>
       <r>   -19.4621     0.0000     0.0000 </r>
       <r>   -19.0744     0.0000     0.0000 </r>
       <r>   -18.6866     0.0000     0.0000 </r>
       <r>   -18.2989     0.0000     0.0000 </r>
       <r>   -17.9111     0.0000     0.0000 </r>
       <r>   -17.5234     0.0000     0.0000 </r>
       <r>   -17.1356     0.0000     0.0000 </r>
       <r>   -16.7479     0.0000     0.0000 </r>
       <r>   -16.3601     0.0000     0.0000 </r>
       <r>   -15.9724     0.0000     0.0000 </r>
       <r>   -15.5846     0.0000     0.0000 </r>
       <r>   -15.1969     0.0000     0.0000 </r>
       <r>   -14.8091     0.0000     0.0000 </r>
       <r>   -14.4214     0.0000     0.0000 </r>
       <r>   -14.0336     0.0000     0.0000 </r>
       <r>   -13.6459     0.0000     0.0000 </r>
       <r>   -13.2581     0.0000     0.0000 </r>
       <r>   -12.8704     0.0000     0.0000 </r>
       <r>   -12.4826     0.0000     0.0000 </r>
       <r>   -12.0948     0.0000     0.0000 </r>
       <r>   -11.7071     0.0000     0.0000 </r>
       <r>   -11.3193     0.0000     0.0000 </r>
       <r>   -10.9316     0.0000     0.0000 </r>
       <r>   -10.5438     0.0000     0.0000 </r>
       <r>   -10.1561     0.0000     0.0000 </r>
       <r>    -9.7683     0.0000     0.0000 </r>
       <r>    -9.3806     0.0000     0.0000 </r>
       <r>    -8.9928     0.0000     0.0000 </r>
       <r>    -8.6051     0.0000     0.0000 </r>
       <r>    -8.2173     0.0000     0.0000 </r>
       <r>    -7.8296     0.0000     0.0000 </r>
       <r>    -7.4418     0.0000     0.0000 </r>
       <r>    -7.0541     0.0000     0.0000 </r>
       <r>    -6.6663     0.0000     0.0000 </r>
       <r>    -6.2786     0.0000     0.0000 </r>
       <r>    -5.8908     0.0000     0.0000 </r>
       <r>    -5.5031     0.0000     0.0000 </r>
       <r>    -5.1153     0.0000     0.0000 </r>
       <r>    -4.7275     0.0000     0.0000 </r>
       <r>    -4.3398     0.0000     0.0000 </r>
       <r>    -3.9520     0.0000     0.0000 </r>
       <r>    -3.5643     0.0000     0.0000 </r>
       <r>    -3.1765     0.0000     0.0000 </r>
       <r>    -2.7888     0.0000     0.0000 </r>
       <r>    -2.4010     0.0000     0.0000 </r>
       <r>    -2.0133     0.0000     0.0000 </r>
       <r>    -1.6255     0.0000     0.0000 </r>
       <r>    -1.2378     0.0000     0.0000 </r>
       <r>    -0.8500     0.0000     0.0000 </r>
       <r>    -0.4623     0.0000     0.0000 </r>
       <r>    -0.0745     0.0000     0.0000 </r>
       <r>     0.3132     0.0000     0.0000 </r>
       <r>     0.7010     0.0000     0.0000 </r>
       <r>     1.0887     0.0000     0.0000 </r>
       <r>     1.4765     0.0000     0.0000 </r>
       <r>     1.8642     0.0000     0.0000 </r>
       <r>     2.2520     0.0000     0.0000 </r>
       <r>     2.6397     0.0000     0.0000 </r>
       <r>     3.0275     0.0000     0.0000 </r>
       <r>     3.4153     0.0000     0.0000 </r>
       <r>     3.8030     0.0000     0.0000 </r>
       <r>     4.1908     0.0000     0.0000 </r>
       <r>     4.5785     0.0000     0.0000 </r>
       <r>     4.9663     0.0000     0.0000 </r>
       <r>     5.3540     0.0000     0.0000 </r>
       <r>     5.7418     0.0000     0.0000 </r>
       <r>     6.1295     0.0000     0.0000 </r>
       <r>     6.5173     0.0000     0.0000 </r>
       <r>     6.9050     0.0000     0.0000 </r>
       <r>     7.2928     0.0000     0.0000 </r>
       <r>     7.6805     0.0000     0.0000 </r>
       <r>     8.0683     0.0000     0.0000 </r>
       <r>     8.4560     0.0000     0.0000 </r>
       <r>     8.8438     0.0000     0.0000 </r>
       <r>     9.2315     0.0000     0.0000 </r>
       <r>     9.6193     0.0000     0.0000 </r>
       <r>    10.0070     0.0000     0.0000 </r>
       <r>    10.3948     0.0000     0.0000 </r>
       <r>    10.7825     0.0000     0.0000 </r>
       <r>    11.1703     0.0000     0.0000 </r>
       <r>    11.5581     0.0000     0.0000 </r>
       <r>    11.9458     0.0000     0.0000 </r>
       <r>    12.3336     0.0000     0.0000 </r>
       <r>    12.7213     0.0000     0.0000 </r>
       <r>    13.1091     0.0000     0.0000 </r>
       <r>    13.4968     0.0000     0.0000 </r>
       <r>    13.8846     0.0000     0.0000 </r>
       <r>    14.2723     0.0000     0.0000 </r>
       <r>    14.6601     0.0000     0.0000 </r>
       <r>    15.0478     0.0000     0.0000 </r>
       <r>    15.4356     0.0000     0.0000 </r>
       <r>    15.8233     0.0000     0.0000 </r>
       <r>    16.2111     0.0000     0.0000 </r>
       <r>    16.5988     0.0000     0.0000 </r>
       <r>    16.9866     0.0000     0.0000 </r>
       <r>    17.3743     0.0000     0.0000 </r>
       <r>    17.7621     0.0000     0.0000 </r>
       <r>    18.1498     0.0000     0.0000 </r>
       <r>    18.5376     0.0000     0.0000 </r>
       <r>    18.9253     0.0000     0.0000 </r>
       <r>    19.3131     0.0000     0.0000 </r>
       <r>    19.7009     0.0000     0.0000 </r>
       <r>    20.0886     0.0000     0.0000 </r>
       <r>    20.4764     0.0000     0.0000 </r>
       <r>    20.8641     0.0000     0.0000 </r>
       <r>    21.2519     0.0000     0.0000 </r>
       <r>    21.6396     0.0000     0.0000 </r>
       <r>    22.0274     0.0000     0.0000 </r>
       <r>    22.4151     0.0000     0.0000 </r>
       <r>    22.8029     0.0000     0.0000 </r>
       <r>    23.1906     0.0000     0.0000 </r>
       <r>    23.5784     0.0000     0.0000 </r>
       <r>    23.9661     0.0000     0.0000 </r>
       <r>    24.3539     0.0000     0.0000 </r>
       <r>    24.7416     0.0000     0.0000 </r>
       <r>    25.1294     0.0000     0.0000 </r>
       <r>    25.5171     0.0000     0.0000 </r>
       <r>    25.9049     0.0000     0.0000 </r>
       <r>    26.2926     0.0000     0.0000 </r>
       <r>    26.6804     0.0000     0.0000 </r>
       <r>    27.0681     0.0000     0.0000 </r>
       <r>    27.4559     0.0000     0.0000 </r>
       <r>    27.8437     0.0000     0.0000 </r>
       <r>    28.2314     0.0000     0.0000 </r>
       <r>    28.6192     0.0000     0.0000 </r>
       <r>    29.0069     0.0000     0.0000 </r>
       <r>    29.3947     0.0000     0.0000 </r>
       <r>    29.7824     0.0000     0.0000 </r>
       <r>    30.1702     0.0000     0.0000 </r>
       <r>    30.5579     0.0000     0.0000 </r>
       <r>    30.9457     0.0000     0.0000 </r>
       <r>    31.3334     0.0000     0.0000 </r>
       <r>    31.7212     0.0000     0.0000 </r>
       <r>    32.1089     0.0000     0.0000 </r>
       <r>    32.4967     0.0000     0.0000 </r>
       <r>    32.8844     0.0000     0.0000 </r>
       <r>    33.2722     0.0000     0.0000 </r>
       <r>    33.6599     0.0000     0.0000 </r>
       <r>    34.0477     0.0000     0.0000 </r>
       <r>    34.4354     0.0000     0.0000 </r>
       <r>    34.8232     0.0000     0.0000 </r>
       <r>    35.2109     0.0000     0.0000 </r>
       <r>    35.5987     0.0000     0.0000 </r>
       <r>    35.9865     0.0000     0.0000 </r>
       <r>    36.3742     0.0000     0.0000 </r>
       <r>    36.7620     0.0000     0.0000 </r>
       <r>    37.1497     0.0000     0.0000 </r>
       <r>    37.5375     0.0000     0.0000 </r>
       <r>    37.9252     0.0000     0.0000 </r>
       <r>    38.3130     0.0000     0.0000 </r>
       <r>    38.7007     0.0000     0.0000 </r>
       <r>    39.0885     0.0000     0.0000 </r>
       <r>    39.4762     0.0000     0.0000 </r>
       <r>    39.8640     0.0000     0.0000 </r>
       <r>    40.2517     0.0000     0.0000 </r>
       <r>    40.6395     0.0000     0.0000 </r>
       <r>    41.0272     0.0000     0.0000 </r>
       <r>    41.4150     0.0000     0.0000 </r>
       <r>    41.8027     0.0000     0.0000 </r>
       <r>    42.1905     0.0000     0.0000 </r>
       <r>    42.5782     0.0000     0.0000 </r>
       <r>    42.9660     0.0000     0.0000 </r>
       <r>    43.3537     0.0000     0.0000 </r>
       <r>    43.7415     0.0000     0.0000 </r>
       <r>    44.1293     0.0000     0.0000 </r>
       <r>    44.5170     0.0000     0.0000 </r>
       <r>    44.9048     0.0000     0.0000 </r>
       <r>    45.2925     0.0000     0.0000 </r>
       <r>    45.6803     0.0000     0.0000 </r>
       <r>    46.0680     0.0000     0.0000 </r>
       <r>    46.4558     0.0000     0.0000 </r>
       <r>    46.8435     0.0000     0.0000 </r>
       <r>    47.2313     0.0000     0.0000 </r>
       <r>    47.6190     0.0000     0.0000 </r>
       <r>    48.0068     0.0000     0.0000 </r>
       <r>    48.3945     0.0000     0.0000 </r>
       <r>    48.7823     0.0000     0.0000 </r>
       <r>    49.1700     0.0000     0.0000 </r>
       <r>    49.5578     0.0000     0.0000 </r>
       <r>    49.9455     0.0000     0.0000 </r>
       <r>    50.3333     0.0000     0.0000 </r>
       <r>    50.7210     0.0000     0.0000 </r>
       <r>    51.1088     0.0000     0.0000 </r>
       <r>    51.4965     0.0000     0.0000 </r>
       <r>    51.8843     0.0000     0.0000 </r>
       <r>    52.2721     0.0000     0.0000 </r>
       <r>    52.6598     0.0000     0.0000 </r>
       <r>    53.0476     0.0000     0.0000 </r>
       <r>    53.4353     0.0000     0.0000 </r>
       <r>    53.8231     0.0000     0.0000 </r>
       <r>    54.2108     0.0000     0.0000 </r>
       <r>    54.5986     0.0000     0.0000 </r>
       <r>    54.9863     0.0000     0.0000 </r>
       <r>    55.3741     0.0000     0.0000 </r>
       <r>    55.7618     0.0000     0.0000 </r>
       <r>    56.1496     0.0000     0.0000 </r>
       <r>    56.5373     0.0000     0.0000 </r>
       <r>    56.9251     0.0000     0.0000 </r>
       <r>    57.3128     0.0000     0.0000 </r>
       <r>    57.7006     0.0000     0.0000 </r>
       <r>    58.0883     0.0000     0.0000 </r>
       <r>    58.4761     0.0000     0.0000 </r>
       <r>    58.8638     0.0000     0.0000 </r>
       <r>    59.2516     0.0000     0.0000 </r>
       <r>    59.6393     0.0000     0.0000 </r>
       <r>    60.0271     0.0000     0.0000 </r>
       <r>    60.4149     0.0000     0.0000 </r>
       <r>    60.8026     0.0000     0.0000 </r>
       <r>    61.1904     0.0000     0.0000 </r>
       <r>    61.5781     0.0000     0.0000 </r>
       <r>    61.9659     0.0000     0.0000 </r>
       <r>    62.3536     0.0000     0.0000 </r>
       <r>    62.7414     0.0000     0.0000 </r>
       <r>    63.1291     0.0000     0.0000 </r>
       <r>    63.5169     0.0000     0.0000 </r>
       <r>    63.9046     0.0000     0.0000 </r>
       <r>    64.2924     0.0000     0.0000 </r>
       <r>    64.6801     0.0000     0.0000 </r>
       <r>    65.0679     0.0000     0.0000 </r>
       <r>    65.4556     0.0000     0.0000 </r>
       <r>    65.8434     0.0000     0.0000 </r>
       <r>    66.2311     0.0000     0.0000 </r>
       <r>    66.6189     0.0000     0.0000 </r>
       <r>    67.0066     0.0000     0.0000 </r>
       <r>    67.3944     0.0000     0.0000 </r>
       <r>    67.7822     0.0000     0.0000 </r>
       <r>    68.1699     0.0000     0.0000 </r>
       <r>    68.5577     0.0000     0.0000 </r>
       <r>    68.9454     0.0000     0.0000 </r>
       <r>    69.3332     0.0000     0.0000 </r>
       <r>    69.7209     0.0000     0.0000 </r>
       <r>    70.1087     0.0000     0.0000 </r>
       <r>    70.4964     0.0000     0.0000 </r>
       <r>    70.8842     0.0000     0.0000 </r>
       <r>    71.2719     0.0000     0.0000 </r>
       <r>    71.6597     0.0000     0.0000 </r>
       <r>    72.0474     0.0000     0.0000 </r>
       <r>    72.4352     0.0000     0.0000 </r>
       <r>    72.8229     0.0000     0.0000 </r>
       <r>    73.2107     0.0000     0.0000 </r>
       <r>    73.5984     0.0000     0.0000 </r>
       <r>    73.9862     0.0000     0.0000 </r>
       <r>    74.3739     0.0000     0.0000 </r>
       <r>    74.7617     0.0000     0.0000 </r>
       <r>    75.1494     0.0000     0.0000 </r>
       <r>    75.5372     0.0000     0.0000 </r>
       <r>    75.9250     0.0000     0.0000 </r>
       <r>    76.3127     0.0000     0.0000 </r>
       <r>    76.7005     0.0000     0.0000 </r>
       <r>    77.0882     0.0000     0.0000 </r>
       <r>    77.4760     0.0000     0.0000 </r>
       <r>    77.8637     0.0000     0.0000 </r>
       <r>    78.2515     0.0000     0.0000 </r>
       <r>    78.6392     0.0000     0.0000 </r>
       <r>    79.0270     0.0000     0.0000 </r>
       <r>    79.4147     0.0000     0.0000 </r>
       <r>    79.8025     0.0000     0.0000 </r>
       <r>    80.1902     0.0000     0.0000 </r>
       <r>    80.5780     0.0000     0.0000 </r>
      </set>
     </set>
    </array>
   </total>
  </dos>
 </calculation>
 <structure name="finalpos" >
  <crystal>
   <varray name="basis" >
    <v>       4.34234588       0.00000000       0.00000000 </v>
    <v>       2.17117294       3.76058184      -0.00000000 </v>
    <v>       2.17117294       1.25352728       3.54551056 </v>
   </varray>
   <i name="volume">     57.89729060 </i>
   <varray name="rec_basis" >
    <v>       0.23029027      -0.13295815      -0.09401561 </v>
    <v>       0.00000000       0.26591630      -0.09401561 </v>
    <v>      -0.00000000       0.00000000       0.28204683 </v>
   </varray>
  </crystal>
  <varray name="positions" >
   <v>       0.00000000       0.00000000       0.00000000 </v>
  </varray>
  <varray name="velocities" >
   <v>       0.00000000       0.00000000       0.00000000 </v>
  </varray>
 </structure>
</modeling>
