Cn_FCC                                  
           1
     4.115343    0.000000    0.000000
     2.057672    3.563992   -0.000000
     2.057672    1.187997    3.360163
   Kr
   1
Direct configuration=     1
   0.00000000  0.00000000  0.00000000
