Cn_FCC                                  
           1
     4.336701    0.000000    0.000000
     2.168350    3.755693   -0.000000
     2.168350    1.251898    3.540901
   Og
   1
Direct configuration=     1
   0.00000000  0.00000000  0.00000000
Cn_FCC                                  
           1
     4.337710    0.000000    0.000000
     2.168855    3.756567   -0.000000
     2.168855    1.252189    3.541725
   Og
   1
Direct configuration=     2
   0.00000000  0.00000000  0.00000000
Cn_FCC                                  
           1
     4.343932    0.000000    0.000000
     2.171966    3.761956   -0.000000
     2.171966    1.253985    3.546806
   Og
   1
Direct configuration=     3
   0.00000000  0.00000000  0.00000000
Cn_FCC                                  
           1
     4.340784    0.000000    0.000000
     2.170392    3.759229   -0.000000
     2.170392    1.253076    3.544235
   Og
   1
Direct configuration=     4
   0.00000000  0.00000000  0.00000000
Cn_FCC                                  
           1
     4.341911    0.000000    0.000000
     2.170955    3.760205   -0.000000
     2.170955    1.253402    3.545155
   Og
   1
Direct configuration=     5
   0.00000000  0.00000000  0.00000000
