Cn_FCC                                  
           1
     4.885544    0.000000    0.000000
     2.442772    4.231006   -0.000000
     2.442772    1.410335    3.989030
   Og
   1
Direct configuration=     1
   0.00000000  0.00000000  0.00000000
Cn_FCC                                  
           1
     4.857200    0.000000    0.000000
     2.428600    4.206458   -0.000000
     2.428600    1.402153    3.965887
   Og
   1
Direct configuration=     2
   0.00000000  0.00000000  0.00000000
Cn_FCC                                  
           1
     3.535831    0.000000    0.000000
     1.767915    3.062119   -0.000000
     1.767915    1.020706    2.886994
   Og
   1
Direct configuration=     3
   0.00000000  0.00000000  0.00000000
Cn_FCC                                  
           1
     4.715427    0.000000    0.000000
     2.357714    4.083680   -0.000000
     2.357714    1.361227    3.850130
   Og
   1
Direct configuration=     4
   0.00000000  0.00000000  0.00000000
Cn_FCC                                  
           1
     4.603234    0.000000    0.000000
     2.301617    3.986518   -0.000000
     2.301617    1.328839    3.758525
   Og
   1
Direct configuration=     5
   0.00000000  0.00000000  0.00000000
Cn_FCC                                  
           1
     4.041866    0.000000    0.000000
     2.020933    3.500359   -0.000000
     2.020933    1.166786    3.300170
   Og
   1
Direct configuration=     6
   0.00000000  0.00000000  0.00000000
Cn_FCC                                  
           1
     4.436751    0.000000    0.000000
     2.218375    3.842339   -0.000000
     2.218375    1.280780    3.622592
   Og
   1
Direct configuration=     7
   0.00000000  0.00000000  0.00000000
Cn_FCC                                  
           1
     4.369715    0.000000    0.000000
     2.184858    3.784284   -0.000000
     2.184858    1.261428    3.567858
   Og
   1
Direct configuration=     8
   0.00000000  0.00000000  0.00000000
Cn_FCC                                  
           1
     4.330210    0.000000    0.000000
     2.165105    3.750072   -0.000000
     2.165105    1.250024    3.535602
   Og
   1
Direct configuration=     9
   0.00000000  0.00000000  0.00000000
Cn_FCC                                  
           1
     4.336701    0.000000    0.000000
     2.168350    3.755693   -0.000000
     2.168350    1.251898    3.540901
   Og
   1
Direct configuration=    10
   0.00000000  0.00000000  0.00000000
