   1   1   0   0
  0.3721384E+02  0.3747484E-09  0.3747484E-09  0.3747484E-09  0.1000000E-15
  1.000000000000000E-004
  CAR 
 Og_FCC                                  
     85.42471116    -26.20401229  301     -5.55269845      1.00000000
    -26.204  0.0000E+00  0.0000E+00
    -25.832  0.0000E+00  0.0000E+00
    -25.460  0.0000E+00  0.0000E+00
    -25.088  0.0000E+00  0.0000E+00
    -24.716  0.0000E+00  0.0000E+00
    -24.344  0.0000E+00  0.0000E+00
    -23.971  0.0000E+00  0.0000E+00
    -23.599  0.0000E+00  0.0000E+00
    -23.227  0.0000E+00  0.0000E+00
    -22.855  0.0000E+00  0.0000E+00
    -22.483  0.0000E+00  0.0000E+00
    -22.111  0.0000E+00  0.0000E+00
    -21.739  0.0000E+00  0.0000E+00
    -21.367  0.0000E+00  0.0000E+00
    -20.995  0.0000E+00  0.2500E+00
    -20.623  0.0000E+00  0.2000E+01
    -20.250  0.0000E+00  0.2000E+01
    -19.878  0.0000E+00  0.2000E+01
    -19.506  0.0000E+00  0.2000E+01
    -19.134  0.0000E+00  0.2000E+01
    -18.762  0.0000E+00  0.2000E+01
    -18.390  0.0000E+00  0.2000E+01
    -18.018  0.0000E+00  0.2000E+01
    -17.646  0.0000E+00  0.2000E+01
    -17.274  0.0000E+00  0.2000E+01
    -16.902  0.0000E+00  0.2000E+01
    -16.530  0.0000E+00  0.2000E+01
    -16.157  0.0000E+00  0.2000E+01
    -15.785  0.0000E+00  0.2000E+01
    -15.413  0.0000E+00  0.2000E+01
    -15.041  0.0000E+00  0.2000E+01
    -14.669  0.0000E+00  0.2000E+01
    -14.297  0.0000E+00  0.2000E+01
    -13.925  0.0000E+00  0.2000E+01
    -13.553  0.0000E+00  0.2000E+01
    -13.181  0.0000E+00  0.2000E+01
    -12.809  0.0000E+00  0.2000E+01
    -12.436  0.0000E+00  0.2000E+01
    -12.064  0.0000E+00  0.2000E+01
    -11.692  0.0000E+00  0.2000E+01
    -11.320  0.0000E+00  0.2000E+01
    -10.948  0.0000E+00  0.2000E+01
    -10.576  0.0000E+00  0.2000E+01
    -10.204  0.0000E+00  0.2000E+01
     -9.832  0.0000E+00  0.2000E+01
     -9.460  0.0000E+00  0.2000E+01
     -9.088  0.0000E+00  0.2000E+01
     -8.716  0.0000E+00  0.2000E+01
     -8.343  0.0000E+00  0.2000E+01
     -7.971  0.0000E+00  0.2000E+01
     -7.599  0.0000E+00  0.2000E+01
     -7.227  0.0000E+00  0.2000E+01
     -6.855  0.7258E-01  0.2064E+01
     -6.483  0.7184E-10  0.3750E+01
     -6.111  0.0000E+00  0.4889E+01
     -5.739  0.3483E+00  0.7796E+01
     -5.367  0.0000E+00  0.8000E+01
     -4.995  0.0000E+00  0.8000E+01
     -4.622  0.0000E+00  0.8000E+01
     -4.250  0.0000E+00  0.8000E+01
     -3.878  0.0000E+00  0.8000E+01
     -3.506  0.0000E+00  0.8000E+01
     -3.134  0.0000E+00  0.8000E+01
     -2.762  0.0000E+00  0.8000E+01
     -2.390  0.0000E+00  0.8000E+01
     -2.018  0.0000E+00  0.8000E+01
     -1.646  0.0000E+00  0.8000E+01
     -1.274  0.0000E+00  0.8000E+01
     -0.902  0.0000E+00  0.8000E+01
     -0.529  0.0000E+00  0.8000E+01
     -0.157  0.0000E+00  0.8000E+01
      0.215  0.0000E+00  0.8000E+01
      0.587  0.0000E+00  0.8000E+01
      0.959  0.0000E+00  0.8000E+01
      1.331  0.0000E+00  0.8000E+01
      1.703  0.0000E+00  0.8000E+01
      2.075  0.0000E+00  0.8000E+01
      2.447  0.0000E+00  0.8000E+01
      2.819  0.0000E+00  0.8000E+01
      3.192  0.0000E+00  0.8000E+01
      3.564  0.0000E+00  0.8000E+01
      3.936  0.0000E+00  0.8009E+01
      4.308  0.0000E+00  0.8009E+01
      4.680  0.0000E+00  0.8083E+01
      5.052  0.0000E+00  0.8139E+01
      5.424  0.0000E+00  0.8139E+01
      5.796  0.0000E+00  0.8250E+01
      6.168  0.0000E+00  0.8546E+01
      6.540  0.0000E+00  0.8630E+01
      6.913  0.0000E+00  0.8889E+01
      7.285  0.0000E+00  0.9667E+01
      7.657  0.0000E+00  0.9667E+01
      8.029  0.0000E+00  0.1003E+02
      8.401  0.3986E-02  0.1058E+02
      8.773  0.0000E+00  0.1119E+02
      9.145  0.0000E+00  0.1175E+02
      9.517  0.3056E-01  0.1221E+02
      9.889  0.7257E-01  0.1278E+02
     10.261  0.0000E+00  0.1338E+02
     10.633  0.0000E+00  0.1374E+02
     11.006  0.2090E-14  0.1381E+02
     11.378  0.0000E+00  0.1458E+02
     11.750  0.1850E-01  0.1476E+02
     12.122  0.0000E+00  0.1553E+02
     12.494  0.0000E+00  0.1586E+02
     12.866  0.0000E+00  0.1586E+02
     13.238  0.0000E+00  0.1656E+02
     13.610  0.0000E+00  0.1681E+02
     13.982  0.0000E+00  0.1723E+02
     14.354  0.2986E+00  0.1779E+02
     14.727  0.0000E+00  0.1851E+02
     15.099  0.0000E+00  0.1851E+02
     15.471  0.0000E+00  0.1917E+02
     15.843  0.0000E+00  0.2006E+02
     16.215  0.0000E+00  0.2029E+02
     16.587  0.1985E+00  0.2081E+02
     16.959  0.0000E+00  0.2136E+02
     17.331  0.0000E+00  0.2195E+02
     17.703  0.8891E-08  0.2218E+02
     18.075  0.0000E+00  0.2292E+02
     18.447  0.0000E+00  0.2306E+02
     18.820  0.0000E+00  0.2361E+02
     19.192  0.5972E+00  0.2460E+02
     19.564  0.0000E+00  0.2460E+02
     19.936  0.0000E+00  0.2544E+02
     20.308  0.0000E+00  0.2595E+02
     20.680  0.0000E+00  0.2622E+02
     21.052  0.0000E+00  0.2706E+02
     21.424  0.0000E+00  0.2731E+02
     21.796  0.0000E+00  0.2753E+02
     22.168  0.0000E+00  0.2795E+02
     22.541  0.0000E+00  0.2847E+02
     22.913  0.0000E+00  0.2855E+02
     23.285  0.0000E+00  0.2888E+02
     23.657  0.0000E+00  0.2981E+02
     24.029  0.0000E+00  0.3014E+02
     24.401  0.0000E+00  0.3017E+02
     24.773  0.0000E+00  0.3039E+02
     25.145  0.0000E+00  0.3133E+02
     25.517  0.0000E+00  0.3207E+02
     25.889  0.0000E+00  0.3297E+02
     26.261  0.0000E+00  0.3342E+02
     26.634  0.0000E+00  0.3386E+02
     27.006  0.0000E+00  0.3419E+02
     27.378  0.0000E+00  0.3425E+02
     27.750  0.0000E+00  0.3481E+02
     28.122  0.0000E+00  0.3508E+02
     28.494  0.0000E+00  0.3592E+02
     28.866  0.0000E+00  0.3640E+02
     29.238  0.0000E+00  0.3686E+02
     29.610  0.6700E-07  0.3731E+02
     29.982  0.0000E+00  0.3820E+02
     30.355  0.0000E+00  0.3893E+02
     30.727  0.2986E+00  0.3959E+02
     31.099  0.0000E+00  0.3959E+02
     31.471  0.0000E+00  0.4018E+02
     31.843  0.2986E+00  0.4081E+02
     32.215  0.0000E+00  0.4132E+02
     32.587  0.0000E+00  0.4156E+02
     32.959  0.0000E+00  0.4168E+02
     33.331  0.0000E+00  0.4234E+02
     33.703  0.0000E+00  0.4377E+02
     34.075  0.0000E+00  0.4456E+02
     34.448  0.0000E+00  0.4501E+02
     34.820  0.2986E+00  0.4552E+02
     35.192  0.1493E+00  0.4633E+02
     35.564  0.0000E+00  0.4656E+02
     35.936  0.0000E+00  0.4693E+02
     36.308  0.0000E+00  0.4722E+02
     36.680  0.0000E+00  0.4775E+02
     37.052  0.5972E+00  0.4823E+02
     37.424  0.0000E+00  0.4875E+02
     37.796  0.5223E-07  0.4942E+02
     38.169  0.7993E-08  0.5046E+02
     38.541  0.0000E+00  0.5080E+02
     38.913  0.0000E+00  0.5124E+02
     39.285  0.0000E+00  0.5238E+02
     39.657  0.0000E+00  0.5266E+02
     40.029  0.0000E+00  0.5352E+02
     40.401  0.0000E+00  0.5443E+02
     40.773  0.0000E+00  0.5476E+02
     41.145  0.0000E+00  0.5572E+02
     41.517  0.0000E+00  0.5594E+02
     41.890  0.0000E+00  0.5643E+02
     42.262  0.0000E+00  0.5648E+02
     42.634  0.0000E+00  0.5709E+02
     43.006  0.0000E+00  0.5827E+02
     43.378  0.0000E+00  0.5882E+02
     43.750  0.0000E+00  0.5934E+02
     44.122  0.0000E+00  0.6027E+02
     44.494  0.0000E+00  0.6064E+02
     44.866  0.0000E+00  0.6125E+02
     45.238  0.0000E+00  0.6210E+02
     45.610  0.4120E-13  0.6292E+02
     45.983  0.0000E+00  0.6416E+02
     46.355  0.0000E+00  0.6419E+02
     46.727  0.0000E+00  0.6459E+02
     47.099  0.5972E+00  0.6569E+02
     47.471  0.5972E+00  0.6606E+02
     47.843  0.1137E-14  0.6698E+02
     48.215  0.0000E+00  0.6787E+02
     48.587  0.0000E+00  0.6826E+02
     48.959  0.1730E-05  0.6878E+02
     49.331  0.0000E+00  0.6963E+02
     49.704  0.0000E+00  0.6985E+02
     50.076  0.0000E+00  0.7074E+02
     50.448  0.0000E+00  0.7130E+02
     50.820  0.0000E+00  0.7178E+02
     51.192  0.0000E+00  0.7231E+02
     51.564  0.0000E+00  0.7253E+02
     51.936  0.0000E+00  0.7353E+02
     52.308  0.0000E+00  0.7434E+02
     52.680  0.0000E+00  0.7518E+02
     53.052  0.0000E+00  0.7617E+02
     53.424  0.0000E+00  0.7664E+02
     53.797  0.0000E+00  0.7680E+02
     54.169  0.0000E+00  0.7749E+02
     54.541  0.0000E+00  0.7823E+02
     54.913  0.5972E+00  0.7944E+02
     55.285  0.1188E+00  0.7986E+02
     55.657  0.0000E+00  0.8078E+02
     56.029  0.0000E+00  0.8183E+02
     56.401  0.2986E+00  0.8250E+02
     56.773  0.0000E+00  0.8322E+02
     57.145  0.0000E+00  0.8336E+02
     57.518  0.0000E+00  0.8369E+02
     57.890  0.0000E+00  0.8417E+02
     58.262  0.0000E+00  0.8518E+02
     58.634  0.0000E+00  0.8692E+02
     59.006  0.0000E+00  0.8729E+02
     59.378  0.0000E+00  0.8765E+02
     59.750  0.0000E+00  0.8813E+02
     60.122  0.0000E+00  0.8973E+02
     60.494  0.0000E+00  0.9048E+02
     60.866  0.0000E+00  0.9093E+02
     61.238  0.0000E+00  0.9157E+02
     61.611  0.0000E+00  0.9224E+02
     61.983  0.0000E+00  0.9285E+02
     62.355  0.0000E+00  0.9391E+02
     62.727  0.0000E+00  0.9447E+02
     63.099  0.1098E+01  0.9569E+02
     63.471  0.0000E+00  0.9670E+02
     63.843  0.0000E+00  0.9742E+02
     64.215  0.0000E+00  0.9775E+02
     64.587  0.0000E+00  0.9823E+02
     64.959  0.0000E+00  0.9942E+02
     65.332  0.1587E-12  0.9975E+02
     65.704  0.0000E+00  0.1005E+03
     66.076  0.6078E-16  0.1016E+03
     66.448  0.0000E+00  0.1022E+03
     66.820  0.0000E+00  0.1034E+03
     67.192  0.0000E+00  0.1041E+03
     67.564  0.0000E+00  0.1049E+03
     67.936  0.0000E+00  0.1056E+03
     68.308  0.0000E+00  0.1062E+03
     68.680  0.0000E+00  0.1070E+03
     69.052  0.0000E+00  0.1073E+03
     69.425  0.0000E+00  0.1079E+03
     69.797  0.0000E+00  0.1085E+03
     70.169  0.2986E+00  0.1096E+03
     70.541  0.0000E+00  0.1100E+03
     70.913  0.8911E-03  0.1107E+03
     71.285  0.0000E+00  0.1116E+03
     71.657  0.0000E+00  0.1126E+03
     72.029  0.0000E+00  0.1136E+03
     72.401  0.0000E+00  0.1139E+03
     72.773  0.0000E+00  0.1152E+03
     73.146  0.0000E+00  0.1160E+03
     73.518  0.0000E+00  0.1173E+03
     73.890  0.0000E+00  0.1185E+03
     74.262  0.0000E+00  0.1193E+03
     74.634  0.0000E+00  0.1204E+03
     75.006  0.0000E+00  0.1208E+03
     75.378  0.2986E+00  0.1216E+03
     75.750  0.0000E+00  0.1217E+03
     76.122  0.0000E+00  0.1223E+03
     76.494  0.6503E-08  0.1233E+03
     76.867  0.0000E+00  0.1238E+03
     77.239  0.0000E+00  0.1247E+03
     77.611  0.0000E+00  0.1255E+03
     77.983  0.0000E+00  0.1260E+03
     78.355  0.5970E+00  0.1269E+03
     78.727  0.0000E+00  0.1273E+03
     79.099  0.0000E+00  0.1275E+03
     79.471  0.0000E+00  0.1278E+03
     79.843  0.0000E+00  0.1278E+03
     80.215  0.0000E+00  0.1279E+03
     80.587  0.0000E+00  0.1280E+03
     80.960  0.0000E+00  0.1280E+03
     81.332  0.0000E+00  0.1280E+03
     81.704  0.0000E+00  0.1280E+03
     82.076  0.0000E+00  0.1280E+03
     82.448  0.0000E+00  0.1280E+03
     82.820  0.0000E+00  0.1280E+03
     83.192  0.0000E+00  0.1280E+03
     83.564  0.0000E+00  0.1280E+03
     83.936  0.0000E+00  0.1280E+03
     84.308  0.0000E+00  0.1280E+03
     84.681  0.0000E+00  0.1280E+03
     85.053  0.0000E+00  0.1280E+03
     85.425  0.0000E+00  0.1280E+03
