    1    1    1    1
  0.3721384E+02  0.3747484E-09  0.3747484E-09  0.3747484E-09  0.1000000E-15
  1.000000000000000E-004
  CAR 
 Og_FCC                                  
      8    216    128
 
  0.0000000E+00  0.0000000E+00  0.0000000E+00  0.4629630E-02
    1      -21.129979   1.000000
    2      -21.129979   1.000000
    3       -5.823913   1.000000
    4       -5.823912   1.000000
    5       -5.633660   1.000000
    6       -5.633660   1.000000
    7       -5.633654   1.000000
    8       -5.633654   1.000000
    9        3.807620   0.000000
   10        3.807620   0.000000
   11       11.121503   0.000000
   12       11.121503   0.000000
   13       11.121512   0.000000
   14       11.121512   0.000000
   15       11.124113   0.000000
   16       11.124113   0.000000
   17       13.438330   0.000000
   18       13.438330   0.000000
   19       13.438332   0.000000
   20       13.438332   0.000000
   21       15.970907   0.000000
   22       15.970907   0.000000
   23       18.962183   0.000000
   24       18.962183   0.000000
   25       18.974040   0.000000
   26       18.974040   0.000000
   27       18.974074   0.000000
   28       18.974074   0.000000
   29       20.351477   0.000000
   30       20.351478   0.000000
   31       27.965331   0.000000
   32       27.965331   0.000000
   33       27.965351   0.000000
   34       27.965351   0.000000
   35       27.972134   0.000000
   36       27.972134   0.000000
   37       29.626270   0.000000
   38       29.626270   0.000000
   39       29.748723   0.000000
   40       29.748724   0.000000
   41       29.748731   0.000000
   42       29.748732   0.000000
   43       32.492221   0.000000
   44       32.492221   0.000000
   45       32.492255   0.000000
   46       32.492255   0.000000
   47       38.020770   0.000000
   48       38.020770   0.000000
   49       39.688273   0.000000
   50       39.688273   0.000000
   51       39.688335   0.000000
   52       39.688335   0.000000
   53       39.688345   0.000000
   54       39.688345   0.000000
   55       46.457009   0.000000
   56       46.457009   0.000000
   57       46.457022   0.000000
   58       46.457022   0.000000
   59       49.051017   0.000000
   60       49.051017   0.000000
   61       49.099547   0.000000
   62       49.099548   0.000000
   63       49.099569   0.000000
   64       49.099569   0.000000
   65       49.107402   0.000000
   66       49.107402   0.000000
   67       49.107430   0.000000
   68       49.107430   0.000000
   69       49.110064   0.000000
   70       49.110064   0.000000
   71       53.640029   0.000000
   72       53.640029   0.000000
   73       53.870568   0.000000
   74       53.870568   0.000000
   75       53.874822   0.000000
   76       53.874822   0.000000
   77       53.874829   0.000000
   78       53.874830   0.000000
   79       55.190409   0.000000
   80       55.190409   0.000000
   81       56.848842   0.000000
   82       56.848842   0.000000
   83       56.848942   0.000000
   84       56.848942   0.000000
   85       56.848987   0.000000
   86       56.848987   0.000000
   87       58.114565   0.000000
   88       58.114566   0.000000
   89       58.114593   0.000000
   90       58.114593   0.000000
   91       58.114612   0.000000
   92       58.114612   0.000000
   93       59.100081   0.000000
   94       59.100081   0.000000
   95       59.100152   0.000000
   96       59.100152   0.000000
   97       59.100161   0.000000
   98       59.100161   0.000000
   99       59.876127   0.000000
  100       59.876127   0.000000
  101       59.876164   0.000000
  102       59.876164   0.000000
  103       62.523705   0.000000
  104       62.523705   0.000000
  105       62.855144   0.000000
  106       62.855144   0.000000
  107       62.855179   0.000000
  108       62.855179   0.000000
  109       62.855496   0.000000
  110       62.855496   0.000000
  111       63.448758   0.000000
  112       63.448758   0.000000
  113       63.453125   0.000000
  114       63.453125   0.000000
  115       63.453198   0.000000
  116       63.453198   0.000000
  117       63.603843   0.000000
  118       63.603843   0.000000
  119       74.654629   0.000000
  120       74.654629   0.000000
  121       74.654644   0.000000
  122       74.654644   0.000000
  123       78.952725   0.000000
  124       78.952725   0.000000
  125       78.952744   0.000000
  126       78.952744   0.000000
  127       78.960454   0.000000
  128       78.960454   0.000000
 
  0.1666667E+00  0.1576799E-16  0.2775558E-16  0.4629630E-02
    1      -21.082113   1.000000
    2      -21.082113   1.000000
    3       -6.076973   1.000000
    4       -6.076973   1.000000
    5       -5.768720   1.000000
    6       -5.768720   1.000000
    7       -5.669196   1.000000
    8       -5.669196   1.000000
    9        4.527034   0.000000
   10        4.527034   0.000000
   11       10.178112   0.000000
   12       10.178112   0.000000
   13       11.353827   0.000000
   14       11.353827   0.000000
   15       11.355958   0.000000
   16       11.355958   0.000000
   17       13.048501   0.000000
   18       13.048501   0.000000
   19       13.050235   0.000000
   20       13.050235   0.000000
   21       16.585059   0.000000
   22       16.585059   0.000000
   23       18.007639   0.000000
   24       18.007639   0.000000
   25       20.474157   0.000000
   26       20.474157   0.000000
   27       20.482306   0.000000
   28       20.482306   0.000000
   29       22.883695   0.000000
   30       22.883695   0.000000
   31       25.364070   0.000000
   32       25.364070   0.000000
   33       25.715892   0.000000
   34       25.715892   0.000000
   35       25.740016   0.000000
   36       25.740017   0.000000
   37       29.804980   0.000000
   38       29.804980   0.000000
   39       29.831756   0.000000
   40       29.831756   0.000000
   41       31.755983   0.000000
   42       31.755983   0.000000
   43       33.415852   0.000000
   44       33.415852   0.000000
   45       33.438858   0.000000
   46       33.438858   0.000000
   47       39.492915   0.000000
   48       39.492915   0.000000
   49       39.583619   0.000000
   50       39.583619   0.000000
   51       39.586191   0.000000
   52       39.586191   0.000000
   53       40.068988   0.000000
   54       40.068989   0.000000
   55       43.561954   0.000000
   56       43.561954   0.000000
   57       45.465900   0.000000
   58       45.465900   0.000000
   59       45.475313   0.000000
   60       45.475313   0.000000
   61       47.817830   0.000000
   62       47.817830   0.000000
   63       47.822322   0.000000
   64       47.822322   0.000000
   65       49.099524   0.000000
   66       49.099524   0.000000
   67       50.595987   0.000000
   68       50.595987   0.000000
   69       50.600075   0.000000
   70       50.600075   0.000000
   71       52.485603   0.000000
   72       52.485603   0.000000
   73       52.495397   0.000000
   74       52.495397   0.000000
   75       52.531688   0.000000
   76       52.531688   0.000000
   77       52.982067   0.000000
   78       52.982067   0.000000
   79       53.650705   0.000000
   80       53.650706   0.000000
   81       54.570609   0.000000
   82       54.570609   0.000000
   83       54.572921   0.000000
   84       54.572922   0.000000
   85       55.453997   0.000000
   86       55.453997   0.000000
   87       58.202639   0.000000
   88       58.202639   0.000000
   89       58.202877   0.000000
   90       58.202877   0.000000
   91       58.489924   0.000000
   92       58.489924   0.000000
   93       60.026613   0.000000
   94       60.026613   0.000000
   95       60.028671   0.000000
   96       60.028671   0.000000
   97       61.125826   0.000000
   98       61.125826   0.000000
   99       62.418422   0.000000
  100       62.418422   0.000000
  101       62.585426   0.000000
  102       62.585426   0.000000
  103       62.585568   0.000000
  104       62.585568   0.000000
  105       63.441462   0.000000
  106       63.441462   0.000000
  107       67.043257   0.000000
  108       67.043257   0.000000
  109       67.043902   0.000000
  110       67.043903   0.000000
  111       67.256179   0.000000
  112       67.256179   0.000000
  113       67.732508   0.000000
  114       67.732508   0.000000
  115       67.732993   0.000000
  116       67.732993   0.000000
  117       70.914828   0.000000
  118       70.914828   0.000000
  119       70.934007   0.000000
  120       70.934007   0.000000
  121       73.456389   0.000000
  122       73.456389   0.000000
  123       75.090298   0.000000
  124       75.090298   0.000000
  125       76.498234   0.000000
  126       76.498234   0.000000
  127       76.518739   0.000000
  128       76.518739   0.000000
 
  0.3333333E+00  0.3153597E-16  0.5551115E-16  0.4629630E-02
    1      -20.984064   1.000000
    2      -20.984064   1.000000
    3       -6.686662   1.000000
    4       -6.686662   1.000000
    5       -5.858070   1.000000
    6       -5.858069   1.000000
    7       -5.741202   1.000000
    8       -5.741202   1.000000
    9        5.993348   0.000000
   10        5.993349   0.000000
   11        9.107941   0.000000
   12        9.107941   0.000000
   13       11.010967   0.000000
   14       11.010967   0.000000
   15       11.013604   0.000000
   16       11.013604   0.000000
   17       13.915861   0.000000
   18       13.915861   0.000000
   19       13.919474   0.000000
   20       13.919474   0.000000
   21       15.324646   0.000000
   22       15.324647   0.000000
   23       19.146762   0.000000
   24       19.146762   0.000000
   25       21.968328   0.000000
   26       21.968328   0.000000
   27       21.999732   0.000000
   28       21.999732   0.000000
   29       22.519629   0.000000
   30       22.519629   0.000000
   31       23.639848   0.000000
   32       23.639848   0.000000
   33       23.640492   0.000000
   34       23.640492   0.000000
   35       29.226613   0.000000
   36       29.226613   0.000000
   37       29.864077   0.000000
   38       29.864078   0.000000
   39       29.886588   0.000000
   40       29.886588   0.000000
   41       31.954100   0.000000
   42       31.954100   0.000000
   43       34.463383   0.000000
   44       34.463383   0.000000
   45       34.491941   0.000000
   46       34.491941   0.000000
   47       36.882578   0.000000
   48       36.882578   0.000000
   49       36.884664   0.000000
   50       36.884664   0.000000
   51       37.338706   0.000000
   52       37.338706   0.000000
   53       41.049083   0.000000
   54       41.049083   0.000000
   55       42.821473   0.000000
   56       42.821473   0.000000
   57       44.455343   0.000000
   58       44.455343   0.000000
   59       44.456689   0.000000
   60       44.456690   0.000000
   61       44.903509   0.000000
   62       44.903509   0.000000
   63       46.762324   0.000000
   64       46.762324   0.000000
   65       46.762848   0.000000
   66       46.762848   0.000000
   67       48.821827   0.000000
   68       48.821827   0.000000
   69       49.800480   0.000000
   70       49.800481   0.000000
   71       49.929391   0.000000
   72       49.929392   0.000000
   73       49.946655   0.000000
   74       49.946655   0.000000
   75       52.759031   0.000000
   76       52.759031   0.000000
   77       53.016639   0.000000
   78       53.016639   0.000000
   79       53.017755   0.000000
   80       53.017755   0.000000
   81       55.321717   0.000000
   82       55.321717   0.000000
   83       55.329605   0.000000
   84       55.329606   0.000000
   85       55.441221   0.000000
   86       55.441222   0.000000
   87       58.900446   0.000000
   88       58.900447   0.000000
   89       58.901151   0.000000
   90       58.901151   0.000000
   91       59.955810   0.000000
   92       59.955810   0.000000
   93       63.559180   0.000000
   94       63.559180   0.000000
   95       63.560869   0.000000
   96       63.560870   0.000000
   97       65.443960   0.000000
   98       65.443960   0.000000
   99       65.751610   0.000000
  100       65.751610   0.000000
  101       65.776309   0.000000
  102       65.776309   0.000000
  103       66.870505   0.000000
  104       66.870505   0.000000
  105       68.078699   0.000000
  106       68.078699   0.000000
  107       68.084506   0.000000
  108       68.084506   0.000000
  109       70.193351   0.000000
  110       70.193351   0.000000
  111       70.194373   0.000000
  112       70.194373   0.000000
  113       70.270859   0.000000
  114       70.270859   0.000000
  115       70.846816   0.000000
  116       70.846816   0.000000
  117       71.426137   0.000000
  118       71.426137   0.000000
  119       73.274547   0.000000
  120       73.274548   0.000000
  121       73.275486   0.000000
  122       73.275486   0.000000
  123       73.454639   0.000000
  124       73.454639   0.000000
  125       77.150695   0.000000
  126       77.150695   0.000000
  127       77.150936   0.000000
  128       77.150937   0.000000
 
  0.5000000E+00  0.6118174E-16  0.2775558E-16  0.4629630E-02
    1      -20.933797   1.000000
    2      -20.933797   1.000000
    3       -6.970272   1.000000
    4       -6.970272   1.000000
    5       -5.894430   1.000000
    6       -5.894430   1.000000
    7       -5.775952   1.000000
    8       -5.775951   1.000000
    9        6.709497   0.000000
   10        6.709497   0.000000
   11        8.837270   0.000000
   12        8.837270   0.000000
   13       10.704235   0.000000
   14       10.704235   0.000000
   15       10.706847   0.000000
   16       10.706847   0.000000
   17       15.111878   0.000000
   18       15.111878   0.000000
   19       15.114166   0.000000
   20       15.114166   0.000000
   21       15.411610   0.000000
   22       15.411610   0.000000
   23       17.157544   0.000000
   24       17.157544   0.000000
   25       19.952140   0.000000
   26       19.952140   0.000000
   27       19.982016   0.000000
   28       19.982016   0.000000
   29       25.681409   0.000000
   30       25.681409   0.000000
   31       25.686305   0.000000
   32       25.686306   0.000000
   33       25.756555   0.000000
   34       25.756556   0.000000
   35       28.682784   0.000000
   36       28.682784   0.000000
   37       29.704569   0.000000
   38       29.704569   0.000000
   39       29.747161   0.000000
   40       29.747162   0.000000
   41       33.867502   0.000000
   42       33.867502   0.000000
   43       33.870220   0.000000
   44       33.870220   0.000000
   45       35.023156   0.000000
   46       35.023156   0.000000
   47       35.824543   0.000000
   48       35.824543   0.000000
   49       36.259192   0.000000
   50       36.259192   0.000000
   51       36.280753   0.000000
   52       36.280753   0.000000
   53       38.060510   0.000000
   54       38.060510   0.000000
   55       41.798229   0.000000
   56       41.798229   0.000000
   57       42.685553   0.000000
   58       42.685553   0.000000
   59       42.687144   0.000000
   60       42.687144   0.000000
   61       43.857522   0.000000
   62       43.857522   0.000000
   63       45.956266   0.000000
   64       45.956266   0.000000
   65       45.956304   0.000000
   66       45.956304   0.000000
   67       47.162238   0.000000
   68       47.162238   0.000000
   69       52.196794   0.000000
   70       52.196794   0.000000
   71       52.454736   0.000000
   72       52.454736   0.000000
   73       52.455995   0.000000
   74       52.455995   0.000000
   75       52.671230   0.000000
   76       52.671230   0.000000
   77       53.775347   0.000000
   78       53.775347   0.000000
   79       53.777559   0.000000
   80       53.777560   0.000000
   81       54.458764   0.000000
   82       54.458764   0.000000
   83       54.479044   0.000000
   84       54.479044   0.000000
   85       55.198959   0.000000
   86       55.198959   0.000000
   87       59.606685   0.000000
   88       59.606685   0.000000
   89       60.969090   0.000000
   90       60.969090   0.000000
   91       60.997135   0.000000
   92       60.997135   0.000000
   93       63.411240   0.000000
   94       63.411240   0.000000
   95       63.413855   0.000000
   96       63.413855   0.000000
   97       64.237038   0.000000
   98       64.237039   0.000000
   99       64.660665   0.000000
  100       64.660666   0.000000
  101       64.665043   0.000000
  102       64.665043   0.000000
  103       67.428353   0.000000
  104       67.428353   0.000000
  105       70.703125   0.000000
  106       70.703125   0.000000
  107       70.704175   0.000000
  108       70.704175   0.000000
  109       72.164559   0.000000
  110       72.164559   0.000000
  111       72.976461   0.000000
  112       72.976462   0.000000
  113       72.991896   0.000000
  114       72.991896   0.000000
  115       73.987133   0.000000
  116       73.987133   0.000000
  117       73.988045   0.000000
  118       73.988045   0.000000
  119       75.593179   0.000000
  120       75.593179   0.000000
  121       75.596355   0.000000
  122       75.596355   0.000000
  123       76.024458   0.000000
  124       76.024458   0.000000
  125       76.804480   0.000000
  126       76.804480   0.000000
  127       77.715079   0.000000
  128       77.715079   0.000000
 
 -0.3333333E+00 -0.3153597E-16 -0.5551115E-16  0.4629630E-02
    1      -20.984064   1.000000
    2      -20.984064   1.000000
    3       -6.686662   1.000000
    4       -6.686662   1.000000
    5       -5.858070   1.000000
    6       -5.858069   1.000000
    7       -5.741202   1.000000
    8       -5.741202   1.000000
    9        5.993348   0.000000
   10        5.993349   0.000000
   11        9.107941   0.000000
   12        9.107941   0.000000
   13       11.010967   0.000000
   14       11.010967   0.000000
   15       11.013604   0.000000
   16       11.013604   0.000000
   17       13.915861   0.000000
   18       13.915861   0.000000
   19       13.919474   0.000000
   20       13.919474   0.000000
   21       15.324646   0.000000
   22       15.324647   0.000000
   23       19.146762   0.000000
   24       19.146762   0.000000
   25       21.968328   0.000000
   26       21.968328   0.000000
   27       21.999731   0.000000
   28       21.999732   0.000000
   29       22.519629   0.000000
   30       22.519629   0.000000
   31       23.639848   0.000000
   32       23.639848   0.000000
   33       23.640492   0.000000
   34       23.640492   0.000000
   35       29.226613   0.000000
   36       29.226613   0.000000
   37       29.864077   0.000000
   38       29.864077   0.000000
   39       29.886588   0.000000
   40       29.886589   0.000000
   41       31.954100   0.000000
   42       31.954100   0.000000
   43       34.463383   0.000000
   44       34.463383   0.000000
   45       34.491941   0.000000
   46       34.491941   0.000000
   47       36.882578   0.000000
   48       36.882578   0.000000
   49       36.884664   0.000000
   50       36.884664   0.000000
   51       37.338706   0.000000
   52       37.338706   0.000000
   53       41.049083   0.000000
   54       41.049083   0.000000
   55       42.821473   0.000000
   56       42.821473   0.000000
   57       44.455343   0.000000
   58       44.455343   0.000000
   59       44.456689   0.000000
   60       44.456690   0.000000
   61       44.903509   0.000000
   62       44.903509   0.000000
   63       46.762324   0.000000
   64       46.762324   0.000000
   65       46.762848   0.000000
   66       46.762848   0.000000
   67       48.821827   0.000000
   68       48.821827   0.000000
   69       49.800480   0.000000
   70       49.800481   0.000000
   71       49.929391   0.000000
   72       49.929392   0.000000
   73       49.946655   0.000000
   74       49.946655   0.000000
   75       52.759031   0.000000
   76       52.759031   0.000000
   77       53.016639   0.000000
   78       53.016639   0.000000
   79       53.017755   0.000000
   80       53.017755   0.000000
   81       55.321717   0.000000
   82       55.321717   0.000000
   83       55.329605   0.000000
   84       55.329606   0.000000
   85       55.441221   0.000000
   86       55.441222   0.000000
   87       58.900446   0.000000
   88       58.900446   0.000000
   89       58.901151   0.000000
   90       58.901151   0.000000
   91       59.955810   0.000000
   92       59.955810   0.000000
   93       63.559180   0.000000
   94       63.559180   0.000000
   95       63.560869   0.000000
   96       63.560870   0.000000
   97       65.443960   0.000000
   98       65.443960   0.000000
   99       65.751610   0.000000
  100       65.751610   0.000000
  101       65.776309   0.000000
  102       65.776309   0.000000
  103       66.870505   0.000000
  104       66.870505   0.000000
  105       68.078699   0.000000
  106       68.078699   0.000000
  107       68.084506   0.000000
  108       68.084506   0.000000
  109       70.193351   0.000000
  110       70.193351   0.000000
  111       70.194373   0.000000
  112       70.194373   0.000000
  113       70.270859   0.000000
  114       70.270859   0.000000
  115       70.846816   0.000000
  116       70.846816   0.000000
  117       71.426137   0.000000
  118       71.426137   0.000000
  119       73.274547   0.000000
  120       73.274548   0.000000
  121       73.275486   0.000000
  122       73.275486   0.000000
  123       73.454639   0.000000
  124       73.454639   0.000000
  125       77.150695   0.000000
  126       77.150695   0.000000
  127       77.150936   0.000000
  128       77.150936   0.000000
 
 -0.1666667E+00 -0.1576799E-16 -0.2775558E-16  0.4629630E-02
    1      -21.082113   1.000000
    2      -21.082113   1.000000
    3       -6.076973   1.000000
    4       -6.076973   1.000000
    5       -5.768720   1.000000
    6       -5.768720   1.000000
    7       -5.669196   1.000000
    8       -5.669196   1.000000
    9        4.527034   0.000000
   10        4.527034   0.000000
   11       10.178112   0.000000
   12       10.178112   0.000000
   13       11.353827   0.000000
   14       11.353827   0.000000
   15       11.355958   0.000000
   16       11.355958   0.000000
   17       13.048501   0.000000
   18       13.048501   0.000000
   19       13.050235   0.000000
   20       13.050235   0.000000
   21       16.585059   0.000000
   22       16.585059   0.000000
   23       18.007639   0.000000
   24       18.007639   0.000000
   25       20.474157   0.000000
   26       20.474157   0.000000
   27       20.482306   0.000000
   28       20.482306   0.000000
   29       22.883695   0.000000
   30       22.883695   0.000000
   31       25.364070   0.000000
   32       25.364070   0.000000
   33       25.715892   0.000000
   34       25.715892   0.000000
   35       25.740016   0.000000
   36       25.740016   0.000000
   37       29.804980   0.000000
   38       29.804980   0.000000
   39       29.831756   0.000000
   40       29.831756   0.000000
   41       31.755983   0.000000
   42       31.755983   0.000000
   43       33.415852   0.000000
   44       33.415852   0.000000
   45       33.438858   0.000000
   46       33.438858   0.000000
   47       39.492915   0.000000
   48       39.492915   0.000000
   49       39.583619   0.000000
   50       39.583619   0.000000
   51       39.586191   0.000000
   52       39.586191   0.000000
   53       40.068988   0.000000
   54       40.068989   0.000000
   55       43.561954   0.000000
   56       43.561954   0.000000
   57       45.465900   0.000000
   58       45.465900   0.000000
   59       45.475313   0.000000
   60       45.475313   0.000000
   61       47.817830   0.000000
   62       47.817830   0.000000
   63       47.822321   0.000000
   64       47.822322   0.000000
   65       49.099524   0.000000
   66       49.099524   0.000000
   67       50.595987   0.000000
   68       50.595987   0.000000
   69       50.600075   0.000000
   70       50.600075   0.000000
   71       52.485603   0.000000
   72       52.485603   0.000000
   73       52.495397   0.000000
   74       52.495397   0.000000
   75       52.531688   0.000000
   76       52.531688   0.000000
   77       52.982067   0.000000
   78       52.982067   0.000000
   79       53.650705   0.000000
   80       53.650706   0.000000
   81       54.570609   0.000000
   82       54.570609   0.000000
   83       54.572922   0.000000
   84       54.572922   0.000000
   85       55.453997   0.000000
   86       55.453997   0.000000
   87       58.202639   0.000000
   88       58.202639   0.000000
   89       58.202877   0.000000
   90       58.202877   0.000000
   91       58.489924   0.000000
   92       58.489924   0.000000
   93       60.026613   0.000000
   94       60.026613   0.000000
   95       60.028671   0.000000
   96       60.028671   0.000000
   97       61.125826   0.000000
   98       61.125826   0.000000
   99       62.418422   0.000000
  100       62.418422   0.000000
  101       62.585426   0.000000
  102       62.585426   0.000000
  103       62.585568   0.000000
  104       62.585568   0.000000
  105       63.441462   0.000000
  106       63.441462   0.000000
  107       67.043257   0.000000
  108       67.043257   0.000000
  109       67.043902   0.000000
  110       67.043903   0.000000
  111       67.256179   0.000000
  112       67.256179   0.000000
  113       67.732508   0.000000
  114       67.732508   0.000000
  115       67.732993   0.000000
  116       67.732993   0.000000
  117       70.914828   0.000000
  118       70.914828   0.000000
  119       70.934007   0.000000
  120       70.934007   0.000000
  121       73.456389   0.000000
  122       73.456389   0.000000
  123       75.090298   0.000000
  124       75.090298   0.000000
  125       76.498234   0.000000
  126       76.498234   0.000000
  127       76.518739   0.000000
  128       76.518739   0.000000
 
  0.0000000E+00  0.1666667E+00  0.1387779E-16  0.4629630E-02
    1      -21.082113   1.000000
    2      -21.082113   1.000000
    3       -6.076975   1.000000
    4       -6.076975   1.000000
    5       -5.768720   1.000000
    6       -5.768720   1.000000
    7       -5.669195   1.000000
    8       -5.669195   1.000000
    9        4.527034   0.000000
   10        4.527034   0.000000
   11       10.178115   0.000000
   12       10.178115   0.000000
   13       11.353825   0.000000
   14       11.353825   0.000000
   15       11.355956   0.000000
   16       11.355956   0.000000
   17       13.048503   0.000000
   18       13.048503   0.000000
   19       13.050237   0.000000
   20       13.050237   0.000000
   21       16.585047   0.000000
   22       16.585047   0.000000
   23       18.007640   0.000000
   24       18.007640   0.000000
   25       20.474164   0.000000
   26       20.474164   0.000000
   27       20.482313   0.000000
   28       20.482313   0.000000
   29       22.883692   0.000000
   30       22.883692   0.000000
   31       25.364068   0.000000
   32       25.364068   0.000000
   33       25.715904   0.000000
   34       25.715904   0.000000
   35       25.740028   0.000000
   36       25.740028   0.000000
   37       29.804965   0.000000
   38       29.804965   0.000000
   39       29.831740   0.000000
   40       29.831740   0.000000
   41       31.755981   0.000000
   42       31.755981   0.000000
   43       33.415853   0.000000
   44       33.415853   0.000000
   45       33.438859   0.000000
   46       33.438859   0.000000
   47       39.492913   0.000000
   48       39.492913   0.000000
   49       39.583618   0.000000
   50       39.583618   0.000000
   51       39.586189   0.000000
   52       39.586189   0.000000
   53       40.068996   0.000000
   54       40.068996   0.000000
   55       43.561951   0.000000
   56       43.561951   0.000000
   57       45.465902   0.000000
   58       45.465902   0.000000
   59       45.475315   0.000000
   60       45.475315   0.000000
   61       47.817839   0.000000
   62       47.817839   0.000000
   63       47.822330   0.000000
   64       47.822330   0.000000
   65       49.099531   0.000000
   66       49.099531   0.000000
   67       50.595989   0.000000
   68       50.595989   0.000000
   69       50.600078   0.000000
   70       50.600078   0.000000
   71       52.485597   0.000000
   72       52.485597   0.000000
   73       52.495391   0.000000
   74       52.495391   0.000000
   75       52.531708   0.000000
   76       52.531708   0.000000
   77       52.982070   0.000000
   78       52.982070   0.000000
   79       53.650691   0.000000
   80       53.650691   0.000000
   81       54.570598   0.000000
   82       54.570599   0.000000
   83       54.572911   0.000000
   84       54.572911   0.000000
   85       55.453977   0.000000
   86       55.453978   0.000000
   87       58.202622   0.000000
   88       58.202622   0.000000
   89       58.202854   0.000000
   90       58.202854   0.000000
   91       58.489928   0.000000
   92       58.489928   0.000000
   93       60.026619   0.000000
   94       60.026619   0.000000
   95       60.028677   0.000000
   96       60.028677   0.000000
   97       61.125824   0.000000
   98       61.125824   0.000000
   99       62.418460   0.000000
  100       62.418460   0.000000
  101       62.585438   0.000000
  102       62.585438   0.000000
  103       62.585579   0.000000
  104       62.585579   0.000000
  105       63.441474   0.000000
  106       63.441474   0.000000
  107       67.043256   0.000000
  108       67.043256   0.000000
  109       67.043903   0.000000
  110       67.043903   0.000000
  111       67.256182   0.000000
  112       67.256182   0.000000
  113       67.732501   0.000000
  114       67.732502   0.000000
  115       67.732986   0.000000
  116       67.732986   0.000000
  117       70.914834   0.000000
  118       70.914834   0.000000
  119       70.934013   0.000000
  120       70.934013   0.000000
  121       73.456374   0.000000