<?xml version="1.0" encoding="ISO-8859-1"?>
<modeling>
 <generator>
  <i name="program" type="string">vasp </i>
  <i name="version" type="string">5.4.4.18Apr17-6-g9f103f2a35  </i>
  <i name="subversion" type="string">(build Nov 03 2018 10:20:46) complex            parallel </i>
  <i name="platform" type="string">LinuxIFC </i>
  <i name="date" type="string">2018 12 21 </i>
  <i name="time" type="string">07:52:09 </i>
 </generator>
 <incar>
  <i type="string" name="SYSTEM">   Og_FCC</i>
  <i type="string" name="PREC">accurate</i>
  <i type="string" name="ALGO">   EXACT</i>
  <i type="logical" name="ADDGRID"> T  </i>
  <i type="logical" name="LSORBIT"> T  </i>
  <i type="int" name="ISPIN">     1</i>
  <i type="int" name="MAXMIX">    50</i>
  <i type="int" name="NELM">    50</i>
  <i type="int" name="NELMDL">    -5</i>
  <i type="int" name="NELMIN">     2</i>
  <i type="int" name="IBRION">    -1</i>
  <i type="int" name="NFREE">     5</i>
  <i name="EDIFF">      0.00000001</i>
  <i name="EDIFFG">      0.00001000</i>
  <i type="int" name="NSW">     1</i>
  <i type="int" name="ISIF">     3</i>
  <i type="int" name="ISYM">     0</i>
  <i name="SYMPREC">      0.00000010</i>
  <i name="ENCUT">    300.00000000</i>
  <i type="int" name="NBANDS">   128</i>
  <i name="POTIM">      0.10000000</i>
  <i type="logical" name="LREAL"> F  </i>
  <i type="int" name="ISMEAR">     0</i>
  <i name="SIGMA">      0.00100000</i>
  <i type="int" name="NWRITE">     2</i>
  <i type="logical" name="LWAVE"> T  </i>
  <i type="logical" name="LCHARG"> F  </i>
  <i type="logical" name="LVTOT"> F  </i>
  <i type="logical" name="LOPTICS"> T  </i>
  <i type="logical" name="GGA_COMPAT"> F  </i>
  <v type="int" name="KPOINT_BSE">    -1     0     0     0</v>
  <i type="int" name="NELM">    50</i>
  <i type="string" name="METAGGA"> SCAN</i>
 </incar>
 <structure name="primitive_cell" >
  <crystal>
   <varray name="basis" >
    <v>       3.74748430       0.00000000       0.00000000 </v>
    <v>       1.87374215       3.24541660      -0.00000000 </v>
    <v>       1.87374215       1.08180553       3.05980811 </v>
   </varray>
   <i name="volume">     37.21383833 </i>
   <varray name="rec_basis" >
    <v>       0.26684568      -0.15406343      -0.10893929 </v>
    <v>       0.00000000       0.30812685      -0.10893929 </v>
    <v>      -0.00000000       0.00000000       0.32681788 </v>
   </varray>
  </crystal>
  <varray name="positions" >
   <v>       0.00000000       0.00000000       0.00000000 </v>
  </varray>
 </structure>
 <varray name="primitive_index" >
  <v type="int" >        1 </v>
 </varray>
 <kpoints>
  <generation param="Gamma">
   <v type="int" name="divisions">       6        6        6 </v>
   <v name="usershift">      0.00000000       0.00000000       0.00000000 </v>
   <v name="genvec1">      0.16666667       0.00000000       0.00000000 </v>
   <v name="genvec2">      0.00000000       0.16666667       0.00000000 </v>
   <v name="genvec3">      0.00000000      -0.00000000       0.16666667 </v>
   <v name="shift">      0.00000000       0.00000000       0.00000000 </v>
  </generation>
  <varray name="kpointlist" >
   <v>       0.00000000       0.00000000       0.00000000 </v>
   <v>       0.16666667       0.00000000       0.00000000 </v>
   <v>       0.33333333       0.00000000       0.00000000 </v>
   <v>       0.50000000       0.00000000       0.00000000 </v>
   <v>      -0.33333333      -0.00000000      -0.00000000 </v>
   <v>      -0.16666667      -0.00000000      -0.00000000 </v>
   <v>       0.00000000       0.16666667       0.00000000 </v>
   <v>       0.16666667       0.16666667       0.00000000 </v>
   <v>       0.33333333       0.16666667       0.00000000 </v>
   <v>       0.50000000       0.16666667       0.00000000 </v>
   <v>      -0.33333333       0.16666667      -0.00000000 </v>
   <v>      -0.16666667       0.16666667      -0.00000000 </v>
   <v>       0.00000000       0.33333333       0.00000000 </v>
   <v>       0.16666667       0.33333333       0.00000000 </v>
   <v>       0.33333333       0.33333333       0.00000000 </v>
   <v>       0.50000000       0.33333333       0.00000000 </v>
   <v>      -0.33333333       0.33333333      -0.00000000 </v>
   <v>      -0.16666667       0.33333333       0.00000000 </v>
   <v>       0.00000000       0.50000000       0.00000000 </v>
   <v>       0.16666667       0.50000000       0.00000000 </v>
   <v>       0.33333333       0.50000000       0.00000000 </v>
   <v>       0.50000000       0.50000000       0.00000000 </v>
   <v>      -0.33333333       0.50000000       0.00000000 </v>
   <v>      -0.16666667       0.50000000       0.00000000 </v>
   <v>       0.00000000      -0.33333333      -0.00000000 </v>
   <v>       0.16666667      -0.33333333      -0.00000000 </v>
   <v>       0.33333333      -0.33333333       0.00000000 </v>
   <v>       0.50000000      -0.33333333       0.00000000 </v>
   <v>      -0.33333333      -0.33333333       0.00000000 </v>
   <v>      -0.16666667      -0.33333333      -0.00000000 </v>
   <v>       0.00000000      -0.16666667      -0.00000000 </v>
   <v>       0.16666667      -0.16666667       0.00000000 </v>
   <v>       0.33333333      -0.16666667       0.00000000 </v>
   <v>       0.50000000      -0.16666667       0.00000000 </v>
   <v>      -0.33333333      -0.16666667      -0.00000000 </v>
   <v>      -0.16666667      -0.16666667       0.00000000 </v>
   <v>       0.00000000       0.00000000       0.16666667 </v>
   <v>       0.16666667       0.00000000       0.16666667 </v>
   <v>       0.33333333       0.00000000       0.16666667 </v>
   <v>       0.50000000       0.00000000       0.16666667 </v>
   <v>      -0.33333333      -0.00000000       0.16666667 </v>
   <v>      -0.16666667      -0.00000000       0.16666667 </v>
   <v>       0.00000000       0.16666667       0.16666667 </v>
   <v>       0.16666667       0.16666667       0.16666667 </v>
   <v>       0.33333333       0.16666667       0.16666667 </v>
   <v>       0.50000000       0.16666667       0.16666667 </v>
   <v>      -0.33333333       0.16666667       0.16666667 </v>
   <v>      -0.16666667       0.16666667       0.16666667 </v>
   <v>       0.00000000       0.33333333       0.16666667 </v>
   <v>       0.16666667       0.33333333       0.16666667 </v>
   <v>       0.33333333       0.33333333       0.16666667 </v>
   <v>       0.50000000       0.33333333       0.16666667 </v>
   <v>      -0.33333333       0.33333333       0.16666667 </v>
   <v>      -0.16666667       0.33333333       0.16666667 </v>
   <v>      -0.00000000       0.50000000       0.16666667 </v>
   <v>       0.16666667       0.50000000       0.16666667 </v>
   <v>       0.33333333       0.50000000       0.16666667 </v>
   <v>       0.50000000       0.50000000       0.16666667 </v>
   <v>      -0.33333333       0.50000000       0.16666667 </v>
   <v>      -0.16666667       0.50000000       0.16666667 </v>
   <v>      -0.00000000      -0.33333333       0.16666667 </v>
   <v>       0.16666667      -0.33333333       0.16666667 </v>
   <v>       0.33333333      -0.33333333       0.16666667 </v>
   <v>       0.50000000      -0.33333333       0.16666667 </v>
   <v>      -0.33333333      -0.33333333       0.16666667 </v>
   <v>      -0.16666667      -0.33333333       0.16666667 </v>
   <v>      -0.00000000      -0.16666667       0.16666667 </v>
   <v>       0.16666667      -0.16666667       0.16666667 </v>
   <v>       0.33333333      -0.16666667       0.16666667 </v>
   <v>       0.50000000      -0.16666667       0.16666667 </v>
   <v>      -0.33333333      -0.16666667       0.16666667 </v>
   <v>      -0.16666667      -0.16666667       0.16666667 </v>
   <v>       0.00000000       0.00000000       0.33333333 </v>
   <v>       0.16666667       0.00000000       0.33333333 </v>
   <v>       0.33333333       0.00000000       0.33333333 </v>
   <v>       0.50000000       0.00000000       0.33333333 </v>
   <v>      -0.33333333      -0.00000000       0.33333333 </v>
   <v>      -0.16666667       0.00000000       0.33333333 </v>
   <v>      -0.00000000       0.16666667       0.33333333 </v>
   <v>       0.16666667       0.16666667       0.33333333 </v>
   <v>       0.33333333       0.16666667       0.33333333 </v>
   <v>       0.50000000       0.16666667       0.33333333 </v>
   <v>      -0.33333333       0.16666667       0.33333333 </v>
   <v>      -0.16666667       0.16666667       0.33333333 </v>
   <v>       0.00000000       0.33333333       0.33333333 </v>
   <v>       0.16666667       0.33333333       0.33333333 </v>
   <v>       0.33333333       0.33333333       0.33333333 </v>
   <v>       0.50000000       0.33333333       0.33333333 </v>
   <v>      -0.33333333       0.33333333       0.33333333 </v>
   <v>      -0.16666667       0.33333333       0.33333333 </v>
   <v>       0.00000000       0.50000000       0.33333333 </v>
   <v>       0.16666667       0.50000000       0.33333333 </v>
   <v>       0.33333333       0.50000000       0.33333333 </v>
   <v>       0.50000000       0.50000000       0.33333333 </v>
   <v>      -0.33333333       0.50000000       0.33333333 </v>
   <v>      -0.16666667       0.50000000       0.33333333 </v>
   <v>      -0.00000000      -0.33333333       0.33333333 </v>
   <v>       0.16666667      -0.33333333       0.33333333 </v>
   <v>       0.33333333      -0.33333333       0.33333333 </v>
   <v>       0.50000000      -0.33333333       0.33333333 </v>
   <v>      -0.33333333      -0.33333333       0.33333333 </v>
   <v>      -0.16666667      -0.33333333       0.33333333 </v>
   <v>       0.00000000      -0.16666667       0.33333333 </v>
   <v>       0.16666667      -0.16666667       0.33333333 </v>
   <v>       0.33333333      -0.16666667       0.33333333 </v>
   <v>       0.50000000      -0.16666667       0.33333333 </v>
   <v>      -0.33333333      -0.16666667       0.33333333 </v>
   <v>      -0.16666667      -0.16666667       0.33333333 </v>
   <v>      -0.00000000       0.00000000       0.50000000 </v>
   <v>       0.16666667      -0.00000000       0.50000000 </v>
   <v>       0.33333333       0.00000000       0.50000000 </v>
   <v>       0.50000000       0.00000000       0.50000000 </v>
   <v>      -0.33333333      -0.00000000       0.50000000 </v>
   <v>      -0.16666667      -0.00000000       0.50000000 </v>
   <v>       0.00000000       0.16666667       0.50000000 </v>
   <v>       0.16666667       0.16666667       0.50000000 </v>
   <v>       0.33333333       0.16666667       0.50000000 </v>
   <v>       0.50000000       0.16666667       0.50000000 </v>
   <v>      -0.33333333       0.16666667       0.50000000 </v>
   <v>      -0.16666667       0.16666667       0.50000000 </v>
   <v>      -0.00000000       0.33333333       0.50000000 </v>
   <v>       0.16666667       0.33333333       0.50000000 </v>
   <v>       0.33333333       0.33333333       0.50000000 </v>
   <v>       0.50000000       0.33333333       0.50000000 </v>
   <v>      -0.33333333       0.33333333       0.50000000 </v>
   <v>      -0.16666667       0.33333333       0.50000000 </v>
   <v>      -0.00000000       0.50000000       0.50000000 </v>
   <v>       0.16666667       0.50000000       0.50000000 </v>
   <v>       0.33333333       0.50000000       0.50000000 </v>
   <v>       0.50000000       0.50000000       0.50000000 </v>
   <v>      -0.33333333       0.50000000       0.50000000 </v>
   <v>      -0.16666667       0.50000000       0.50000000 </v>
   <v>      -0.00000000      -0.33333333       0.50000000 </v>
   <v>       0.16666667      -0.33333333       0.50000000 </v>
   <v>       0.33333333      -0.33333333       0.50000000 </v>
   <v>       0.50000000      -0.33333333       0.50000000 </v>
   <v>      -0.33333333      -0.33333333       0.50000000 </v>
   <v>      -0.16666667      -0.33333333       0.50000000 </v>
   <v>      -0.00000000      -0.16666667       0.50000000 </v>
   <v>       0.16666667      -0.16666667       0.50000000 </v>
   <v>       0.33333333      -0.16666667       0.50000000 </v>
   <v>       0.50000000      -0.16666667       0.50000000 </v>
   <v>      -0.33333333      -0.16666667       0.50000000 </v>
   <v>      -0.16666667      -0.16666667       0.50000000 </v>
   <v>       0.00000000      -0.00000000      -0.33333333 </v>
   <v>       0.16666667      -0.00000000      -0.33333333 </v>
   <v>       0.33333333       0.00000000      -0.33333333 </v>
   <v>       0.50000000       0.00000000      -0.33333333 </v>
   <v>      -0.33333333      -0.00000000      -0.33333333 </v>
   <v>      -0.16666667      -0.00000000      -0.33333333 </v>
   <v>       0.00000000       0.16666667      -0.33333333 </v>
   <v>       0.16666667       0.16666667      -0.33333333 </v>
   <v>       0.33333333       0.16666667      -0.33333333 </v>
   <v>       0.50000000       0.16666667      -0.33333333 </v>
   <v>      -0.33333333       0.16666667      -0.33333333 </v>
   <v>      -0.16666667       0.16666667      -0.33333333 </v>
   <v>       0.00000000       0.33333333      -0.33333333 </v>
   <v>       0.16666667       0.33333333      -0.33333333 </v>
   <v>       0.33333333       0.33333333      -0.33333333 </v>
   <v>       0.50000000       0.33333333      -0.33333333 </v>
   <v>      -0.33333333       0.33333333      -0.33333333 </v>
   <v>      -0.16666667       0.33333333      -0.33333333 </v>
   <v>       0.00000000       0.50000000      -0.33333333 </v>
   <v>       0.16666667       0.50000000      -0.33333333 </v>
   <v>       0.33333333       0.50000000      -0.33333333 </v>
   <v>       0.50000000       0.50000000      -0.33333333 </v>
   <v>      -0.33333333       0.50000000      -0.33333333 </v>
   <v>      -0.16666667       0.50000000      -0.33333333 </v>
   <v>      -0.00000000      -0.33333333      -0.33333333 </v>
   <v>       0.16666667      -0.33333333      -0.33333333 </v>
   <v>       0.33333333      -0.33333333      -0.33333333 </v>
   <v>       0.50000000      -0.33333333      -0.33333333 </v>
   <v>      -0.33333333      -0.33333333      -0.33333333 </v>
   <v>      -0.16666667      -0.33333333      -0.33333333 </v>
   <v>       0.00000000      -0.16666667      -0.33333333 </v>
   <v>       0.16666667      -0.16666667      -0.33333333 </v>
   <v>       0.33333333      -0.16666667      -0.33333333 </v>
   <v>       0.50000000      -0.16666667      -0.33333333 </v>
   <v>      -0.33333333      -0.16666667      -0.33333333 </v>
   <v>      -0.16666667      -0.16666667      -0.33333333 </v>
   <v>       0.00000000       0.00000000      -0.16666667 </v>
   <v>       0.16666667       0.00000000      -0.16666667 </v>
   <v>       0.33333333       0.00000000      -0.16666667 </v>
   <v>       0.50000000       0.00000000      -0.16666667 </v>
   <v>      -0.33333333      -0.00000000      -0.16666667 </v>
   <v>      -0.16666667      -0.00000000      -0.16666667 </v>
   <v>       0.00000000       0.16666667      -0.16666667 </v>
   <v>       0.16666667       0.16666667      -0.16666667 </v>
   <v>       0.33333333       0.16666667      -0.16666667 </v>
   <v>       0.50000000       0.16666667      -0.16666667 </v>
   <v>      -0.33333333       0.16666667      -0.16666667 </v>
   <v>      -0.16666667       0.16666667      -0.16666667 </v>
   <v>       0.00000000       0.33333333      -0.16666667 </v>
   <v>       0.16666667       0.33333333      -0.16666667 </v>
   <v>       0.33333333       0.33333333      -0.16666667 </v>
   <v>       0.50000000       0.33333333      -0.16666667 </v>
   <v>      -0.33333333       0.33333333      -0.16666667 </v>
   <v>      -0.16666667       0.33333333      -0.16666667 </v>
   <v>       0.00000000       0.50000000      -0.16666667 </v>
   <v>       0.16666667       0.50000000      -0.16666667 </v>
   <v>       0.33333333       0.50000000      -0.16666667 </v>
   <v>       0.50000000       0.50000000      -0.16666667 </v>
   <v>      -0.33333333       0.50000000      -0.16666667 </v>
   <v>      -0.16666667       0.50000000      -0.16666667 </v>
   <v>       0.00000000      -0.33333333      -0.16666667 </v>
   <v>       0.16666667      -0.33333333      -0.16666667 </v>
   <v>       0.33333333      -0.33333333      -0.16666667 </v>
   <v>       0.50000000      -0.33333333      -0.16666667 </v>
   <v>      -0.33333333      -0.33333333      -0.16666667 </v>
   <v>      -0.16666667      -0.33333333      -0.16666667 </v>
   <v>       0.00000000      -0.16666667      -0.16666667 </v>
   <v>       0.16666667      -0.16666667      -0.16666667 </v>
   <v>       0.33333333      -0.16666667      -0.16666667 </v>
   <v>       0.50000000      -0.16666667      -0.16666667 </v>
   <v>      -0.33333333      -0.16666667      -0.16666667 </v>
   <v>      -0.16666667      -0.16666667      -0.16666667 </v>
  </varray>
  <varray name="weights" >
   <v>       0.00462963 </v>
   <v>       0.00462963 </v>
   <v>       0.00462963 </v>
   <v>       0.00462963 </v>
   <v>       0.00462963 </v>
   <v>       0.00462963 </v>
   <v>       0.00462963 </v>
   <v>       0.00462963 </v>
   <v>       0.00462963 </v>
   <v>       0.00462963 </v>
   <v>       0.00462963 </v>
   <v>       0.00462963 </v>
   <v>       0.00462963 </v>
   <v>       0.00462963 </v>
   <v>       0.00462963 </v>
   <v>       0.00462963 </v>
   <v>       0.00462963 </v>
   <v>       0.00462963 </v>
   <v>       0.00462963 </v>
   <v>       0.00462963 </v>
   <v>       0.00462963 </v>
   <v>       0.00462963 </v>
   <v>       0.00462963 </v>
   <v>       0.00462963 </v>
   <v>       0.00462963 </v>
   <v>       0.00462963 </v>
   <v>       0.00462963 </v>
   <v>       0.00462963 </v>
   <v>       0.00462963 </v>
   <v>       0.00462963 </v>
   <v>       0.00462963 </v>
   <v>       0.00462963 </v>
   <v>       0.00462963 </v>
   <v>       0.00462963 </v>
   <v>       0.00462963 </v>
   <v>       0.00462963 </v>
   <v>       0.00462963 </v>
   <v>       0.00462963 </v>
   <v>       0.00462963 </v>
   <v>       0.00462963 </v>
   <v>       0.00462963 </v>
   <v>       0.00462963 </v>
   <v>       0.00462963 </v>
   <v>       0.00462963 </v>
   <v>       0.00462963 </v>
   <v>       0.00462963 </v>
   <v>       0.00462963 </v>
   <v>       0.00462963 </v>
   <v>       0.00462963 </v>
   <v>       0.00462963 </v>
   <v>       0.00462963 </v>
   <v>       0.00462963 </v>
   <v>       0.00462963 </v>
   <v>       0.00462963 </v>
   <v>       0.00462963 </v>
   <v>       0.00462963 </v>
   <v>       0.00462963 </v>
   <v>       0.00462963 </v>
   <v>       0.00462963 </v>
   <v>       0.00462963 </v>
   <v>       0.00462963 </v>
   <v>       0.00462963 </v>
   <v>       0.00462963 </v>
   <v>       0.00462963 </v>
   <v>       0.00462963 </v>
   <v>       0.00462963 </v>
   <v>       0.00462963 </v>
   <v>       0.00462963 </v>
   <v>       0.00462963 </v>
   <v>       0.00462963 </v>
   <v>       0.00462963 </v>
   <v>       0.00462963 </v>
   <v>       0.00462963 </v>
   <v>       0.00462963 </v>
   <v>       0.00462963 </v>
   <v>       0.00462963 </v>
   <v>       0.00462963 </v>
   <v>       0.00462963 </v>
   <v>       0.00462963 </v>
   <v>       0.00462963 </v>
   <v>       0.00462963 </v>
   <v>       0.00462963 </v>
   <v>       0.00462963 </v>
   <v>       0.00462963 </v>
   <v>       0.00462963 </v>
   <v>       0.00462963 </v>
   <v>       0.00462963 </v>
   <v>       0.00462963 </v>
   <v>       0.00462963 </v>
   <v>       0.00462963 </v>
   <v>       0.00462963 </v>
   <v>       0.00462963 </v>
   <v>       0.00462963 </v>
   <v>       0.00462963 </v>
   <v>       0.00462963 </v>
   <v>       0.00462963 </v>
   <v>       0.00462963 </v>
   <v>       0.00462963 </v>
   <v>       0.00462963 </v>
   <v>       0.00462963 </v>
   <v>       0.00462963 </v>
   <v>       0.00462963 </v>
   <v>       0.00462963 </v>
   <v>       0.00462963 </v>
   <v>       0.00462963 </v>
   <v>       0.00462963 </v>
   <v>       0.00462963 </v>
   <v>       0.00462963 </v>
   <v>       0.00462963 </v>
   <v>       0.00462963 </v>
   <v>       0.00462963 </v>
   <v>       0.00462963 </v>
   <v>       0.00462963 </v>
   <v>       0.00462963 </v>
   <v>       0.00462963 </v>
   <v>       0.00462963 </v>
   <v>       0.00462963 </v>
   <v>       0.00462963 </v>
   <v>       0.00462963 </v>
   <v>       0.00462963 </v>
   <v>       0.00462963 </v>
   <v>       0.00462963 </v>
   <v>       0.00462963 </v>
   <v>       0.00462963 </v>
   <v>       0.00462963 </v>
   <v>       0.00462963 </v>
   <v>       0.00462963 </v>
   <v>       0.00462963 </v>
   <v>       0.00462963 </v>
   <v>       0.00462963 </v>
   <v>       0.00462963 </v>
   <v>       0.00462963 </v>
   <v>       0.00462963 </v>
   <v>       0.00462963 </v>
   <v>       0.00462963 </v>
   <v>       0.00462963 </v>
   <v>       0.00462963 </v>
   <v>       0.00462963 </v>
   <v>       0.00462963 </v>
   <v>       0.00462963 </v>
   <v>       0.00462963 </v>
   <v>       0.00462963 </v>
   <v>       0.00462963 </v>
   <v>       0.00462963 </v>
   <v>       0.00462963 </v>
   <v>       0.00462963 </v>
   <v>       0.00462963 </v>
   <v>       0.00462963 </v>
   <v>       0.00462963 </v>
   <v>       0.00462963 </v>
   <v>       0.00462963 </v>
   <v>       0.00462963 </v>
   <v>       0.00462963 </v>
   <v>       0.00462963 </v>
   <v>       0.00462963 </v>
   <v>       0.00462963 </v>
   <v>       0.00462963 </v>
   <v>       0.00462963 </v>
   <v>       0.00462963 </v>
   <v>       0.00462963 </v>
   <v>       0.00462963 </v>
   <v>       0.00462963 </v>
   <v>       0.00462963 </v>
   <v>       0.00462963 </v>
   <v>       0.00462963 </v>
   <v>       0.00462963 </v>
   <v>       0.00462963 </v>
   <v>       0.00462963 </v>
   <v>       0.00462963 </v>
   <v>       0.00462963 </v>
   <v>       0.00462963 </v>
   <v>       0.00462963 </v>
   <v>       0.00462963 </v>
   <v>       0.00462963 </v>
   <v>       0.00462963 </v>
   <v>       0.00462963 </v>
   <v>       0.00462963 </v>
   <v>       0.00462963 </v>
   <v>       0.00462963 </v>
   <v>       0.00462963 </v>
   <v>       0.00462963 </v>
   <v>       0.00462963 </v>
   <v>       0.00462963 </v>
   <v>       0.00462963 </v>
   <v>       0.00462963 </v>
   <v>       0.00462963 </v>
   <v>       0.00462963 </v>
   <v>       0.00462963 </v>
   <v>       0.00462963 </v>
   <v>       0.00462963 </v>
   <v>       0.00462963 </v>
   <v>       0.00462963 </v>
   <v>       0.00462963 </v>
   <v>       0.00462963 </v>
   <v>       0.00462963 </v>
   <v>       0.00462963 </v>
   <v>       0.00462963 </v>
   <v>       0.00462963 </v>
   <v>       0.00462963 </v>
   <v>       0.00462963 </v>
   <v>       0.00462963 </v>
   <v>       0.00462963 </v>
   <v>       0.00462963 </v>
   <v>       0.00462963 </v>
   <v>       0.00462963 </v>
   <v>       0.00462963 </v>
   <v>       0.00462963 </v>
   <v>       0.00462963 </v>
   <v>       0.00462963 </v>
   <v>       0.00462963 </v>
   <v>       0.00462963 </v>
   <v>       0.00462963 </v>
   <v>       0.00462963 </v>
   <v>       0.00462963 </v>
   <v>       0.00462963 </v>
   <v>       0.00462963 </v>
  </varray>
 </kpoints>
 <parameters>
  <separator name="general" >
   <i type="string" name="SYSTEM">Og_FCC</i>
   <i type="logical" name="LCOMPAT"> F  </i>
  </separator>
  <separator name="electronic" >
   <i type="string" name="PREC">accura</i>
   <i name="ENMAX">    300.00000000</i>
   <i name="ENAUG">    799.85900000</i>
   <i name="EDIFF">      0.00000001</i>
   <i type="int" name="IALGO">    90</i>
   <i type="int" name="IWAVPR">    10</i>
   <i type="int" name="NBANDS">   128</i>
   <i name="NELECT">      8.00000000</i>
   <i type="int" name="TURBO">     0</i>
   <i type="int" name="IRESTART">     0</i>
   <i type="int" name="NREBOOT">     0</i>
   <i type="int" name="NMIN">     0</i>
   <i name="EREF">      0.00000000</i>
   <separator name="electronic smearing" >
    <i type="int" name="ISMEAR">     0</i>
    <i name="SIGMA">      0.00100000</i>
    <i name="KSPACING">      0.50000000</i>
    <i type="logical" name="KGAMMA"> T  </i>
   </separator>
   <separator name="electronic projectors" >
    <i type="logical" name="LREAL"> F  </i>
    <v name="ROPT">      0.00000000</v>
    <i type="int" name="LMAXPAW">  -100</i>
    <i type="int" name="LMAXMIX">     2</i>
    <i type="logical" name="NLSPLINE"> F  </i>
   </separator>
   <separator name="electronic startup" >
    <i type="int" name="ISTART">     1</i>
    <i type="int" name="ICHARG">     0</i>
    <i type="int" name="INIWAV">     1</i>
   </separator>
   <separator name="electronic spin" >
    <i type="int" name="ISPIN">     1</i>
    <i type="logical" name="LNONCOLLINEAR"> T  </i>
    <v name="MAGMOM">      1.00000000      1.00000000      1.00000000</v>
    <i name="NUPDOWN">     -1.00000000</i>
    <i type="logical" name="LSORBIT"> T  </i>
    <v name="SAXIS">      0.00000000      0.00000000      1.00000000</v>
    <i type="logical" name="LSPIRAL"> F  </i>
    <v name="QSPIRAL">      0.00000000      0.00000000      0.00000000</v>
    <i type="logical" name="LZEROZ"> F  </i>
   </separator>
   <separator name="electronic exchange-correlation" >
    <i type="logical" name="LASPH"> F  </i>
    <i type="logical" name="LMETAGGA"> F  </i>
   </separator>
   <separator name="electronic convergence" >
    <i type="int" name="NELM">    50</i>
    <i type="int" name="NELMDL">    -5</i>
    <i type="int" name="NELMIN">     2</i>
    <i name="ENINI">    300.00000000</i>
    <separator name="electronic convergence detail" >
     <i type="logical" name="LDIAG"> T  </i>
     <i type="logical" name="LSUBROT"> F  </i>
     <i name="WEIMIN">      0.00000000</i>
     <i name="EBREAK">      0.00000000</i>
     <i name="DEPER">      0.30000000</i>
     <i type="int" name="NRMM">     4</i>
     <i name="TIME">      0.40000000</i>
    </separator>
   </separator>
   <separator name="electronic mixer" >
    <i name="AMIX">      0.40000000</i>
    <i name="BMIX">      1.00000000</i>
    <i name="AMIN">      0.10000000</i>
    <i name="AMIX_MAG">      1.60000000</i>
    <i name="BMIX_MAG">      1.00000000</i>
    <separator name="electronic mixer details" >
     <i type="int" name="IMIX">     4</i>
     <i type="logical" name="MIXFIRST"> F  </i>
     <i type="int" name="MAXMIX">    50</i>
     <i name="WC">    100.00000000</i>
     <i type="int" name="INIMIX">     1</i>
     <i type="int" name="MIXPRE">     1</i>
     <i type="int" name="MREMOVE">     5</i>
    </separator>
   </separator>
   <separator name="electronic dipolcorrection" >
    <i type="logical" name="LDIPOL"> F  </i>
    <i type="logical" name="LMONO"> F  </i>
    <i type="int" name="IDIPOL">     0</i>
    <i name="EPSILON">      1.00000000</i>
    <v name="DIPOL">   -100.00000000   -100.00000000   -100.00000000</v>
    <i name="EFIELD">      0.00000000</i>
   </separator>
  </separator>
  <separator name="grids" >
   <i type="int" name="NGX">    24</i>
   <i type="int" name="NGY">    24</i>
   <i type="int" name="NGZ">    24</i>
   <i type="int" name="NGXF">    48</i>
   <i type="int" name="NGYF">    48</i>
   <i type="int" name="NGZF">    48</i>
   <i type="logical" name="ADDGRID"> T  </i>
  </separator>
  <separator name="ionic" >
   <i type="int" name="NSW">     1</i>
   <i type="int" name="IBRION">    -1</i>
   <i type="int" name="MDALGO">     0</i>
   <i type="int" name="ISIF">     3</i>
   <i name="PSTRESS">      0.00000000</i>
   <i name="EDIFFG">      0.00001000</i>
   <i type="int" name="NFREE">     5</i>
   <i name="POTIM">      0.10000000</i>
   <i name="SMASS">     -3.00000000</i>
   <i name="SCALEE">      1.00000000</i>
  </separator>
  <separator name="ionic md" >
   <i name="TEBEG">      0.00010000</i>
   <i name="TEEND">      0.00010000</i>
   <i type="int" name="NBLOCK">     1</i>
   <i type="int" name="KBLOCK">     1</i>
   <i type="int" name="NPACO">   256</i>
   <i name="APACO">     16.00000000</i>
  </separator>
  <separator name="symmetry" >
   <i type="int" name="ISYM">     0</i>
   <i name="SYMPREC">      0.00000010</i>
  </separator>
  <separator name="dos" >
   <i type="int" name="LORBIT">     0</i>
   <v name="RWIGS">     -1.00000000</v>
   <i type="int" name="NEDOS">   301</i>
   <i name="EMIN">     10.00000000</i>
   <i name="EMAX">    -10.00000000</i>
   <i name="EFERMI">      0.00000000</i>
  </separator>
  <separator name="writing" >
   <i type="int" name="NWRITE">     2</i>
   <i type="logical" name="LWAVE"> T  </i>
   <i type="logical" name="LDOWNSAMPLE"> F  </i>
   <i type="logical" name="LCHARG"> F  </i>
   <i type="logical" name="LPARD"> F  </i>
   <i type="logical" name="LVTOT"> F  </i>
   <i type="logical" name="LVHAR"> F  </i>
   <i type="logical" name="LELF"> F  </i>
   <i type="logical" name="LOPTICS"> T  </i>
   <v name="STM">      0.00000000      0.00000000      0.00000000      0.00000000      0.00000000      0.00000000      0.00000000</v>
  </separator>
  <separator name="performance" >
   <i type="int" name="NPAR">     4</i>
   <i type="int" name="NSIM">     4</i>
   <i type="int" name="NBLK">    -1</i>
   <i type="logical" name="LPLANE"> T  </i>
   <i type="logical" name="LSCALAPACK"> T  </i>
   <i type="logical" name="LSCAAWARE"> T  </i>
   <i type="logical" name="LSCALU"> F  </i>
   <i type="logical" name="LASYNC"> F  </i>
   <i type="logical" name="LORBITALREAL"> F  </i>
  </separator>
  <separator name="miscellaneous" >
   <i type="int" name="IDIOT">     3</i>
   <i type="int" name="ISPECIAL">     0</i>
   <i type="logical" name="LMUSIC"> F  </i>
   <v name="POMASS">     39.94900000</v>
   <v name="DARWINR">      0.00000000</v>
   <v name="DARWINV">      1.00000000</v>
   <i type="logical" name="LCORR"> T  </i>
  </separator>
  <i type="logical" name="GGA_COMPAT"> F  </i>
  <i type="logical" name="LBERRY"> F  </i>
  <i type="int" name="ICORELEVEL">     0</i>
  <i type="logical" name="LDAU"> F  </i>
  <i type="int" name="I_CONSTRAINED_M">     0</i>
  <separator name="electronic exchange-correlation" >
   <i type="string" name="GGA">--</i>
   <i type="int" name="VOSKOWN">     0</i>
   <i type="logical" name="LHFCALC"> F  </i>
   <i type="string" name="PRECFOCK"></i>
   <i type="logical" name="LSYMGRAD"> F  </i>
   <i type="logical" name="LHFONE"> F  </i>
   <i type="logical" name="LRHFCALC"> F  </i>
   <i type="logical" name="LTHOMAS"> F  </i>
   <i type="logical" name="LMODELHF"> F  </i>
   <i name="ENCUT4O">     -1.00000000</i>
   <i type="int" name="EXXOEP">     0</i>
   <i type="int" name="FOURORBIT">     0</i>
   <i name="AEXX">      0.00000000</i>
   <i name="HFALPHA">      0.00000000</i>
   <i name="MCALPHA">      0.00000000</i>
   <i name="ALDAX">      1.00000000</i>
   <i name="AGGAX">      1.00000000</i>
   <i name="ALDAC">      1.00000000</i>
   <i name="AGGAC">      1.00000000</i>
   <i type="int" name="NKREDX">     1</i>
   <i type="int" name="NKREDY">     1</i>
   <i type="int" name="NKREDZ">     1</i>
   <i type="logical" name="SHIFTRED"> F  </i>
   <i type="logical" name="ODDONLY"> F  </i>
   <i type="logical" name="EVENONLY"> F  </i>
   <i type="int" name="LMAXFOCK">     0</i>
   <i type="int" name="NMAXFOCKAE">     0</i>
   <i type="logical" name="LFOCKAEDFT"> F  </i>
   <i name="HFSCREEN">      0.00000000</i>
   <i name="HFSCREENC">      0.00000000</i>
   <i type="int" name="NBANDSGWLOW">     0</i>
  </separator>
  <separator name="vdW DFT" >
   <i type="logical" name="LUSE_VDW"> F  </i>
   <i name="Zab_VDW">     -0.84910000</i>
   <i name="PARAM1">      0.12340000</i>
   <i name="PARAM2">      1.00000000</i>
   <i name="PARAM3">      0.00000000</i>
  </separator>
  <separator name="model GW" >
   <i type="int" name="MODEL_GW">     0</i>
   <i name="MODEL_EPS0">     22.32830300</i>
   <i name="MODEL_ALPHA">      1.00000000</i>
  </separator>
  <separator name="linear response parameters" >
   <i type="logical" name="LEPSILON"> F  </i>
   <i type="logical" name="LRPA"> F  </i>
   <i type="logical" name="LNABLA"> F  </i>
   <i type="logical" name="LVEL"> F  </i>
   <i type="int" name="KINTER">     0</i>
   <i name="CSHIFT">      0.10000000</i>
   <i name="OMEGAMAX">     -1.00000000</i>
   <i name="DEG_THRESHOLD">      0.00200000</i>
   <i name="RTIME">     -0.10000000</i>
   <i name="WPLASMAI">      0.00000000</i>
   <v name="DFIELD">      0.00000000      0.00000000      0.00000000</v>
   <v name="WPLASMA">      0.00000000      0.00000000      0.00000000      0.00000000      0.00000000      0.00000000      0.00000000      0.00000000      0.00000000</v>
  </separator>
  <separator name="orbital magnetization" >
   <i type="logical" name="NUCIND"> F  </i>
   <v name="MAGPOS">      0.00000000      0.00000000      0.00000000</v>
   <i type="logical" name="LNICSALL"> T  </i>
   <i type="logical" name="ORBITALMAG"> F  </i>
   <i type="logical" name="LMAGBLOCH"> F  </i>
   <i type="logical" name="LCHIMAG"> F  </i>
   <i type="logical" name="LGAUGE"> T  </i>
   <i type="int" name="MAGATOM">     0</i>
   <v name="MAGDIPOL">      0.00000000      0.00000000      0.00000000</v>
   <v name="AVECCONST">      0.00000000      0.00000000      0.00000000</v>
  </separator>
  <separator name="response functions" >
   <i type="logical" name="LADDER"> F  </i>
   <i type="logical" name="LRPAFORCE"> F  </i>
   <i type="logical" name="LFXC"> F  </i>
   <i type="logical" name="LHARTREE"> T  </i>
   <i type="int" name="IBSE">     0</i>
   <v type="int" name="KPOINT">    -1     0     0     0</v>
   <i type="logical" name="LTCTE"> F  </i>
   <i type="logical" name="LTETE"> F  </i>
   <i type="logical" name="LTRIPLET"> F  </i>
   <i type="logical" name="LFXCEPS"> F  </i>
   <i type="logical" name="LFXHEG"> F  </i>
   <i type="int" name="NATURALO">     2</i>
   <i type="logical" name="L2ORDER"> F  </i>
   <i type="logical" name="LMP2LT"> F  </i>
   <i type="logical" name="LUSEW"> F  </i>
   <i name="ENCUTGW">     -2.00000000</i>
   <i name="ENCUTGWSOFT">     -2.00000000</i>
   <i name="ENCUTLF">     -1.00000000</i>
   <i type="int" name="LMAXMP2">    -1</i>
   <i name="SCISSOR">      0.00000000</i>
   <i type="int" name="NOMEGA">     0</i>
   <i type="int" name="NOMEGAR">     0</i>
   <i type="int" name="NBANDSGW">    -1</i>
   <i type="int" name="NBANDSO">    -1</i>
   <i type="int" name="NBANDSV">    -1</i>
   <i type="int" name="NELM">    50</i>
   <i type="int" name="NELMHF">     1</i>
   <i type="int" name="DIM">     3</i>
   <i type="int" name="ANTIRES">     0</i>
   <i name="OMEGAMAX">    -30.00000000</i>
   <i name="OMEGAMIN">    -30.00000000</i>
   <i name="OMEGATL">   -200.00000000</i>
   <i type="int" name="OMEGAGRID">   140</i>
   <i name="CSHIFT">     -0.10000000</i>
   <i type="logical" name="SELFENERGY"> F  </i>
   <i type="logical" name="LSPECTRAL"> F  </i>
   <i type="logical" name="LSPECTRALGW"> F  </i>
   <i type="logical" name="LSINGLES"> F  </i>
   <i type="logical" name="LFERMIGW"> F  </i>
   <i type="logical" name="ODDONLYGW"> F  </i>
   <i type="logical" name="EVENONLYGW"> F  </i>
   <i type="int" name="NKREDLFX">     1</i>
   <i type="int" name="NKREDLFY">     1</i>
   <i type="int" name="NKREDLFZ">     1</i>
   <i type="int" name="MAXMEM">  2800</i>
   <i type="int" name="TELESCOPE">     0</i>
   <i type="int" name="TAUPAR">     1</i>
   <i type="int" name="OMEGAPAR">    -1</i>
   <i name="LAMBDA">      1.00000000</i>
  </separator>
  <separator name="External order field" >
   <i name="OFIELD_KAPPA">      0.00000000</i>
   <v name="OFIELD_K">      0.00000000      0.00000000      0.00000000</v>
   <i name="OFIELD_Q6_NEAR">      0.00000000</i>
   <i name="OFIELD_Q6_FAR">      0.00000000</i>
   <i name="OFIELD_A">      0.00000000</i>
  </separator>
 </parameters>
 <atominfo>
  <atoms>       1 </atoms>
  <types>       1 </types>
  <array name="atoms" >
   <dimension dim="1">ion</dimension>
   <field type="string">element</field>
   <field type="int">atomtype</field>
   <set>
    <rc><c>Ar</c><c>   1</c></rc>
   </set>
  </array>
  <array name="atomtypes" >
   <dimension dim="1">type</dimension>
   <field type="int">atomspertype</field>
   <field type="string">element</field>
   <field>mass</field>
   <field>valence</field>
   <field type="string">pseudopotential</field>
   <set>
    <rc><c>   1</c><c>Ar</c><c>     39.94900000</c><c>      8.00000000</c><c>  PAW_PBE Ar_GW 21Aug2013               </c></rc>
   </set>
  </array>
 </atominfo>
 <structure name="initialpos" >
  <crystal>
   <varray name="basis" >
    <v>       3.74748430       0.00000000       0.00000000 </v>
    <v>       1.87374215       3.24541660      -0.00000000 </v>
    <v>       1.87374215       1.08180553       3.05980811 </v>
   </varray>
   <i name="volume">     37.21383833 </i>
   <varray name="rec_basis" >
    <v>       0.26684568      -0.15406343      -0.10893929 </v>
    <v>       0.00000000       0.30812685      -0.10893929 </v>
    <v>      -0.00000000       0.00000000       0.32681788 </v>
   </varray>
  </crystal>
  <varray name="positions" >
   <v>       0.00000000       0.00000000       0.00000000 </v>
  </varray>
  <varray name="velocities" >
   <v>       0.00000000       0.00000000       0.00000000 </v>
  </varray>
 </structure>
 <calculation>
  <scstep>
   <time name="diag">   60.67   60.62</time>
   <time name="total">   60.76   60.71</time>
   <energy>
    <i name="alphaZ">      8.07484950 </i>
    <i name="ewald">   -398.63690970 </i>
    <i name="hartreedc">   -139.94108891 </i>
    <i name="XCdc">     34.25718865 </i>
    <i name="pawpsdc">    463.95108361 </i>
    <i name="pawaedc">   -474.46486828 </i>
    <i name="eentropy">      0.00000000 </i>
    <i name="bandstr">    -79.17700444 </i>
    <i name="atom">    579.01336654 </i>
    <i name="e_fr_energy">     -6.92338302 </i>
    <i name="e_wo_entrp">     -6.92338302 </i>
    <i name="e_0_energy">     -6.92338302 </i>
   </energy>
  </scstep>
  <scstep>
   <time name="diag">   60.67   60.62</time>
   <time name="total">   60.67   60.63</time>
   <energy>
    <i name="e_fr_energy">     -6.92338302 </i>
    <i name="e_wo_entrp">     -6.92338302 </i>
    <i name="e_0_energy">     -6.92338302 </i>
   </energy>
  </scstep>
  <scstep>
   <time name="diag">   60.70   60.66</time>
   <time name="total">   60.71   60.67</time>
   <energy>
    <i name="e_fr_energy">     -6.92338302 </i>
    <i name="e_wo_entrp">     -6.92338302 </i>
    <i name="e_0_energy">     -6.92338302 </i>
   </energy>
  </scstep>
  <scstep>
   <time name="diag">   60.68   60.64</time>
   <time name="total">   60.69   60.64</time>
   <energy>
    <i name="e_fr_energy">     -6.92338302 </i>
    <i name="e_wo_entrp">     -6.92338302 </i>
    <i name="e_0_energy">     -6.92338302 </i>
   </energy>
  </scstep>
  <scstep>
   <time name="diag">   60.66   60.61</time>
   <time name="total">   63.70   63.66</time>
   <energy>
    <i name="e_fr_energy">     -6.92338302 </i>
    <i name="e_wo_entrp">     -6.92338302 </i>
    <i name="e_0_energy">     -6.92338302 </i>
   </energy>
  </scstep>
  <scstep>
   <time name="diag">   60.68   60.64</time>
   <time name="total">   60.76   60.73</time>
   <energy>
    <i name="alphaZ">      8.07484950 </i>
    <i name="ewald">   -398.63690970 </i>
    <i name="hartreedc">   -139.94109870 </i>
    <i name="XCdc">     34.25718978 </i>
    <i name="pawpsdc">    463.95111336 </i>
    <i name="pawaedc">   -474.46489819 </i>
    <i name="eentropy">      0.00000000 </i>
    <i name="bandstr">    -79.17699563 </i>
    <i name="atom">    579.01336654 </i>
    <i name="e_fr_energy">     -6.92338303 </i>
    <i name="e_wo_entrp">     -6.92338303 </i>
    <i name="e_0_energy">     -6.92338303 </i>
   </energy>
  </scstep>
  <structure>
   <crystal>
    <varray name="basis" >
     <v>       3.74748430       0.00000000       0.00000000 </v>
     <v>       1.87374215       3.24541660      -0.00000000 </v>
     <v>       1.87374215       1.08180553       3.05980811 </v>
    </varray>
    <i name="volume">     37.21383833 </i>
    <varray name="rec_basis" >
     <v>       0.26684568      -0.15406343      -0.10893929 </v>
     <v>       0.00000000       0.30812685      -0.10893929 </v>
     <v>      -0.00000000       0.00000000       0.32681788 </v>
    </varray>
   </crystal>
   <varray name="positions" >
    <v>       0.00000000       0.00000000       0.00000000 </v>
   </varray>
  </structure>
  <varray name="forces" >
   <v>      -0.00000001       0.00000002       0.00000001 </v>
  </varray>
  <varray name="stress" >
   <v>      -3.61648501       0.00040733       0.00023520 </v>
   <v>       0.00040736      -3.61700915       0.00027252 </v>
   <v>       0.00023510       0.00027235      -3.61714185 </v>
  </varray>
  <energy>
   <i name="e_fr_energy">     -6.92338303 </i>
   <i name="e_wo_entrp">     -6.92338303 </i>
   <i name="e_0_energy">      0.00000000 </i>
  </energy>
  <time name="totalsc">  426.08  426.04</time>
  <eigenvalues>
   <array>
    <dimension dim="1">band</dimension>
    <dimension dim="2">kpoint</dimension>
    <dimension dim="3">spin</dimension>
    <field>eigene</field>
    <field>occ</field>
    <set>
     <set comment="spin 1">
      <set comment="kpoint 1">
       <r>  -21.1300    1.0000 </r>
       <r>  -21.1300    1.0000 </r>
       <r>   -5.8239    1.0000 </r>
       <r>   -5.8239    1.0000 </r>
       <r>   -5.6337    1.0000 </r>
       <r>   -5.6337    1.0000 </r>
       <r>   -5.6337    1.0000 </r>
       <r>   -5.6337    1.0000 </r>
       <r>    3.8076    0.0000 </r>
       <r>    3.8076    0.0000 </r>
       <r>   11.1215    0.0000 </r>
       <r>   11.1215    0.0000 </r>
       <r>   11.1215    0.0000 </r>
       <r>   11.1215    0.0000 </r>
       <r>   11.1241    0.0000 </r>
       <r>   11.1241    0.0000 </r>
       <r>   13.4383    0.0000 </r>
       <r>   13.4383    0.0000 </r>
       <r>   13.4383    0.0000 </r>
       <r>   13.4383    0.0000 </r>
       <r>   15.9709    0.0000 </r>
       <r>   15.9709    0.0000 </r>
       <r>   18.9622    0.0000 </r>
       <r>   18.9622    0.0000 </r>
       <r>   18.9740    0.0000 </r>
       <r>   18.9740    0.0000 </r>
       <r>   18.9741    0.0000 </r>
       <r>   18.9741    0.0000 </r>
       <r>   20.3515    0.0000 </r>
       <r>   20.3515    0.0000 </r>
       <r>   27.9653    0.0000 </r>
       <r>   27.9653    0.0000 </r>
       <r>   27.9654    0.0000 </r>
       <r>   27.9654    0.0000 </r>
       <r>   27.9721    0.0000 </r>
       <r>   27.9721    0.0000 </r>
       <r>   29.6263    0.0000 </r>
       <r>   29.6263    0.0000 </r>
       <r>   29.7487    0.0000 </r>
       <r>   29.7487    0.0000 </r>
       <r>   29.7487    0.0000 </r>
       <r>   29.7487    0.0000 </r>
       <r>   32.4922    0.0000 </r>
       <r>   32.4922    0.0000 </r>
       <r>   32.4923    0.0000 </r>
       <r>   32.4923    0.0000 </r>
       <r>   38.0208    0.0000 </r>
       <r>   38.0208    0.0000 </r>
       <r>   39.6883    0.0000 </r>
       <r>   39.6883    0.0000 </r>
       <r>   39.6883    0.0000 </r>
       <r>   39.6883    0.0000 </r>
       <r>   39.6883    0.0000 </r>
       <r>   39.6883    0.0000 </r>
       <r>   46.4570    0.0000 </r>
       <r>   46.4570    0.0000 </r>
       <r>   46.4570    0.0000 </r>
       <r>   46.4570    0.0000 </r>
       <r>   49.0510    0.0000 </r>
       <r>   49.0510    0.0000 </r>
       <r>   49.0995    0.0000 </r>
       <r>   49.0995    0.0000 </r>
       <r>   49.0996    0.0000 </r>
       <r>   49.0996    0.0000 </r>
       <r>   49.1074    0.0000 </r>
       <r>   49.1074    0.0000 </r>
       <r>   49.1074    0.0000 </r>
       <r>   49.1074    0.0000 </r>
       <r>   49.1101    0.0000 </r>
       <r>   49.1101    0.0000 </r>
       <r>   53.6400    0.0000 </r>
       <r>   53.6400    0.0000 </r>
       <r>   53.8706    0.0000 </r>
       <r>   53.8706    0.0000 </r>
       <r>   53.8748    0.0000 </r>
       <r>   53.8748    0.0000 </r>
       <r>   53.8748    0.0000 </r>
       <r>   53.8748    0.0000 </r>
       <r>   55.1904    0.0000 </r>
       <r>   55.1904    0.0000 </r>
       <r>   56.8488    0.0000 </r>
       <r>   56.8488    0.0000 </r>
       <r>   56.8489    0.0000 </r>
       <r>   56.8489    0.0000 </r>
       <r>   56.8490    0.0000 </r>
       <r>   56.8490    0.0000 </r>
       <r>   58.1146    0.0000 </r>
       <r>   58.1146    0.0000 </r>
       <r>   58.1146    0.0000 </r>
       <r>   58.1146    0.0000 </r>
       <r>   58.1146    0.0000 </r>
       <r>   58.1146    0.0000 </r>
       <r>   59.1001    0.0000 </r>
       <r>   59.1001    0.0000 </r>
       <r>   59.1002    0.0000 </r>
       <r>   59.1002    0.0000 </r>
       <r>   59.1002    0.0000 </r>
       <r>   59.1002    0.0000 </r>
       <r>   59.8761    0.0000 </r>
       <r>   59.8761    0.0000 </r>
       <r>   59.8762    0.0000 </r>
       <r>   59.8762    0.0000 </r>
       <r>   62.5237    0.0000 </r>
       <r>   62.5237    0.0000 </r>
       <r>   62.8551    0.0000 </r>
       <r>   62.8551    0.0000 </r>
       <r>   62.8552    0.0000 </r>
       <r>   62.8552    0.0000 </r>
       <r>   62.8555    0.0000 </r>
       <r>   62.8555    0.0000 </r>
       <r>   63.4488    0.0000 </r>
       <r>   63.4488    0.0000 </r>
       <r>   63.4531    0.0000 </r>
       <r>   63.4531    0.0000 </r>
       <r>   63.4532    0.0000 </r>
       <r>   63.4532    0.0000 </r>
       <r>   63.6038    0.0000 </r>
       <r>   63.6038    0.0000 </r>
       <r>   74.6546    0.0000 </r>
       <r>   74.6546    0.0000 </r>
       <r>   74.6546    0.0000 </r>
       <r>   74.6546    0.0000 </r>
       <r>   78.9527    0.0000 </r>
       <r>   78.9527    0.0000 </r>
       <r>   78.9527    0.0000 </r>
       <r>   78.9527    0.0000 </r>
       <r>   78.9605    0.0000 </r>
       <r>   78.9605    0.0000 </r>
      </set>
      <set comment="kpoint 2">
       <r>  -21.0821    1.0000 </r>
       <r>  -21.0821    1.0000 </r>
       <r>   -6.0770    1.0000 </r>
       <r>   -6.0770    1.0000 </r>
       <r>   -5.7687    1.0000 </r>
       <r>   -5.7687    1.0000 </r>
       <r>   -5.6692    1.0000 </r>
       <r>   -5.6692    1.0000 </r>
       <r>    4.5270    0.0000 </r>
       <r>    4.5270    0.0000 </r>
       <r>   10.1781    0.0000 </r>
       <r>   10.1781    0.0000 </r>
       <r>   11.3538    0.0000 </r>
       <r>   11.3538    0.0000 </r>
       <r>   11.3560    0.0000 </r>
       <r>   11.3560    0.0000 </r>
       <r>   13.0485    0.0000 </r>
       <r>   13.0485    0.0000 </r>
       <r>   13.0502    0.0000 </r>
       <r>   13.0502    0.0000 </r>
       <r>   16.5851    0.0000 </r>
       <r>   16.5851    0.0000 </r>
       <r>   18.0076    0.0000 </r>
       <r>   18.0076    0.0000 </r>
       <r>   20.4742    0.0000 </r>
       <r>   20.4742    0.0000 </r>
       <r>   20.4823    0.0000 </r>
       <r>   20.4823    0.0000 </r>
       <r>   22.8837    0.0000 </r>
       <r>   22.8837    0.0000 </r>
       <r>   25.3641    0.0000 </r>
       <r>   25.3641    0.0000 </r>
       <r>   25.7159    0.0000 </r>
       <r>   25.7159    0.0000 </r>
       <r>   25.7400    0.0000 </r>
       <r>   25.7400    0.0000 </r>
       <r>   29.8050    0.0000 </r>
       <r>   29.8050    0.0000 </r>
       <r>   29.8318    0.0000 </r>
       <r>   29.8318    0.0000 </r>
       <r>   31.7560    0.0000 </r>
       <r>   31.7560    0.0000 </r>
       <r>   33.4159    0.0000 </r>
       <r>   33.4159    0.0000 </r>
       <r>   33.4389    0.0000 </r>
       <r>   33.4389    0.0000 </r>
       <r>   39.4929    0.0000 </r>
       <r>   39.4929    0.0000 </r>
       <r>   39.5836    0.0000 </r>
       <r>   39.5836    0.0000 </r>
       <r>   39.5862    0.0000 </r>
       <r>   39.5862    0.0000 </r>
       <r>   40.0690    0.0000 </r>
       <r>   40.0690    0.0000 </r>
       <r>   43.5620    0.0000 </r>
       <r>   43.5620    0.0000 </r>
       <r>   45.4659    0.0000 </r>
       <r>   45.4659    0.0000 </r>
       <r>   45.4753    0.0000 </r>
       <r>   45.4753    0.0000 </r>
       <r>   47.8178    0.0000 </r>
       <r>   47.8178    0.0000 </r>
       <r>   47.8223    0.0000 </r>
       <r>   47.8223    0.0000 </r>
       <r>   49.0995    0.0000 </r>
       <r>   49.0995    0.0000 </r>
       <r>   50.5960    0.0000 </r>
       <r>   50.5960    0.0000 </r>
       <r>   50.6001    0.0000 </r>
       <r>   50.6001    0.0000 </r>
       <r>   52.4856    0.0000 </r>
       <r>   52.4856    0.0000 </r>
       <r>   52.4954    0.0000 </r>
       <r>   52.4954    0.0000 </r>
       <r>   52.5317    0.0000 </r>
       <r>   52.5317    0.0000 </r>
       <r>   52.9821    0.0000 </r>
       <r>   52.9821    0.0000 </r>
       <r>   53.6507    0.0000 </r>
       <r>   53.6507    0.0000 </r>
       <r>   54.5706    0.0000 </r>
       <r>   54.5706    0.0000 </r>
       <r>   54.5729    0.0000 </r>
       <r>   54.5729    0.0000 </r>
       <r>   55.4540    0.0000 </r>
       <r>   55.4540    0.0000 </r>
       <r>   58.2026    0.0000 </r>
       <r>   58.2026    0.0000 </r>
       <r>   58.2029    0.0000 </r>
       <r>   58.2029    0.0000 </r>
       <r>   58.4899    0.0000 </r>
       <r>   58.4899    0.0000 </r>
       <r>   60.0266    0.0000 </r>
       <r>   60.0266    0.0000 </r>
       <r>   60.0287    0.0000 </r>
       <r>   60.0287    0.0000 </r>
       <r>   61.1258    0.0000 </r>
       <r>   61.1258    0.0000 </r>
       <r>   62.4184    0.0000 </r>
       <r>   62.4184    0.0000 </r>
       <r>   62.5854    0.0000 </r>
       <r>   62.5854    0.0000 </r>
       <r>   62.5856    0.0000 </r>
       <r>   62.5856    0.0000 </r>
       <r>   63.4415    0.0000 </r>
       <r>   63.4415    0.0000 </r>
       <r>   67.0433    0.0000 </r>
       <r>   67.0433    0.0000 </r>
       <r>   67.0439    0.0000 </r>
       <r>   67.0439    0.0000 </r>
       <r>   67.2562    0.0000 </r>
       <r>   67.2562    0.0000 </r>
       <r>   67.7325    0.0000 </r>
       <r>   67.7325    0.0000 </r>
       <r>   67.7330    0.0000 </r>
       <r>   67.7330    0.0000 </r>
       <r>   70.9148    0.0000 </r>
       <r>   70.9148    0.0000 </r>
       <r>   70.9340    0.0000 </r>
       <r>   70.9340    0.0000 </r>
       <r>   73.4564    0.0000 </r>
       <r>   73.4564    0.0000 </r>
       <r>   75.0903    0.0000 </r>
       <r>   75.0903    0.0000 </r>
       <r>   76.4982    0.0000 </r>
       <r>   76.4982    0.0000 </r>
       <r>   76.5187    0.0000 </r>
       <r>   76.5187    0.0000 </r>
      </set>
      <set comment="kpoint 3">
       <r>  -20.9841    1.0000 </r>
       <r>  -20.9841    1.0000 </r>
       <r>   -6.6867    1.0000 </r>
       <r>   -6.6867    1.0000 </r>
       <r>   -5.8581    1.0000 </r>
       <r>   -5.8581    1.0000 </r>
       <r>   -5.7412    1.0000 </r>
       <r>   -5.7412    1.0000 </r>
       <r>    5.9933    0.0000 </r>
       <r>    5.9933    0.0000 </r>
       <r>    9.1079    0.0000 </r>
       <r>    9.1079    0.0000 </r>
       <r>   11.0110    0.0000 </r>
       <r>   11.0110    0.0000 </r>
       <r>   11.0136    0.0000 </r>
       <r>   11.0136    0.0000 </r>
       <r>   13.9159    0.0000 </r>
       <r>   13.9159    0.0000 </r>
       <r>   13.9195    0.0000 </r>
       <r>   13.9195    0.0000 </r>
       <r>   15.3246    0.0000 </r>
       <r>   15.3246    0.0000 </r>
       <r>   19.1468    0.0000 </r>
       <r>   19.1468    0.0000 </r>
       <r>   21.9683    0.0000 </r>
       <r>   21.9683    0.0000 </r>
       <r>   21.9997    0.0000 </r>
       <r>   21.9997    0.0000 </r>
       <r>   22.5196    0.0000 </r>
       <r>   22.5196    0.0000 </r>
       <r>   23.6398    0.0000 </r>
       <r>   23.6398    0.0000 </r>
       <r>   23.6405    0.0000 </r>
       <r>   23.6405    0.0000 </r>
       <r>   29.2266    0.0000 </r>
       <r>   29.2266    0.0000 </r>
       <r>   29.8641    0.0000 </r>
       <r>   29.8641    0.0000 </r>
       <r>   29.8866    0.0000 </r>
       <r>   29.8866    0.0000 </r>
       <r>   31.9541    0.0000 </r>
       <r>   31.9541    0.0000 </r>
       <r>   34.4634    0.0000 </r>
       <r>   34.4634    0.0000 </r>
       <r>   34.4919    0.0000 </r>
       <r>   34.4919    0.0000 </r>
       <r>   36.8826    0.0000 </r>
       <r>   36.8826    0.0000 </r>
       <r>   36.8847    0.0000 </r>
       <r>   36.8847    0.0000 </r>
       <r>   37.3387    0.0000 </r>
       <r>   37.3387    0.0000 </r>
       <r>   41.0491    0.0000 </r>
       <r>   41.0491    0.0000 </r>
       <r>   42.8215    0.0000 </r>
       <r>   42.8215    0.0000 </r>
       <r>   44.4553    0.0000 </r>
       <r>   44.4553    0.0000 </r>
       <r>   44.4567    0.0000 </r>
       <r>   44.4567    0.0000 </r>
       <r>   44.9035    0.0000 </r>
       <r>   44.9035    0.0000 </r>
       <r>   46.7623    0.0000 </r>
       <r>   46.7623    0.0000 </r>
       <r>   46.7628    0.0000 </r>
       <r>   46.7628    0.0000 </r>
       <r>   48.8218    0.0000 </r>
       <r>   48.8218    0.0000 </r>
       <r>   49.8005    0.0000 </r>
       <r>   49.8005    0.0000 </r>
       <r>   49.9294    0.0000 </r>
       <r>   49.9294    0.0000 </r>
       <r>   49.9467    0.0000 </r>
       <r>   49.9467    0.0000 </r>
       <r>   52.7590    0.0000 </r>
       <r>   52.7590    0.0000 </r>
       <r>   53.0166    0.0000 </r>
       <r>   53.0166    0.0000 </r>
       <r>   53.0178    0.0000 </r>
       <r>   53.0178    0.0000 </r>
       <r>   55.3217    0.0000 </r>
       <r>   55.3217    0.0000 </r>
       <r>   55.3296    0.0000 </r>
       <r>   55.3296    0.0000 </r>
       <r>   55.4412    0.0000 </r>
       <r>   55.4412    0.0000 </r>
       <r>   58.9004    0.0000 </r>
       <r>   58.9004    0.0000 </r>
       <r>   58.9012    0.0000 </r>
       <r>   58.9012    0.0000 </r>
       <r>   59.9558    0.0000 </r>
       <r>   59.9558    0.0000 </r>
       <r>   63.5592    0.0000 </r>
       <r>   63.5592    0.0000 </r>
       <r>   63.5609    0.0000 </r>
       <r>   63.5609    0.0000 </r>
       <r>   65.4440    0.0000 </r>
       <r>   65.4440    0.0000 </r>
       <r>   65.7516    0.0000 </r>
       <r>   65.7516    0.0000 </r>
       <r>   65.7763    0.0000 </r>
       <r>   65.7763    0.0000 </r>
       <r>   66.8705    0.0000 </r>
       <r>   66.8705    0.0000 </r>
       <r>   68.0787    0.0000 </r>
       <r>   68.0787    0.0000 </r>
       <r>   68.0845    0.0000 </r>
       <r>   68.0845    0.0000 </r>
       <r>   70.1934    0.0000 </r>
       <r>   70.1934    0.0000 </r>
       <r>   70.1944    0.0000 </r>
       <r>   70.1944    0.0000 </r>
       <r>   70.2709    0.0000 </r>
       <r>   70.2709    0.0000 </r>
       <r>   70.8468    0.0000 </r>
       <r>   70.8468    0.0000 </r>
       <r>   71.4261    0.0000 </r>
       <r>   71.4261    0.0000 </r>
       <r>   73.2745    0.0000 </r>
       <r>   73.2745    0.0000 </r>
       <r>   73.2755    0.0000 </r>
       <r>   73.2755    0.0000 </r>
       <r>   73.4546    0.0000 </r>
       <r>   73.4546    0.0000 </r>
       <r>   77.1507    0.0000 </r>
       <r>   77.1507    0.0000 </r>
       <r>   77.1509    0.0000 </r>
       <r>   77.1509    0.0000 </r>
      </set>
      <set comment="kpoint 4">
       <r>  -20.9338    1.0000 </r>
       <r>  -20.9338    1.0000 </r>
       <r>   -6.9703    1.0000 </r>
       <r>   -6.9703    1.0000 </r>
       <r>   -5.8944    1.0000 </r>
       <r>   -5.8944    1.0000 </r>
       <r>   -5.7760    1.0000 </r>
       <r>   -5.7760    1.0000 </r>
       <r>    6.7095    0.0000 </r>
       <r>    6.7095    0.0000 </r>
       <r>    8.8373    0.0000 </r>
       <r>    8.8373    0.0000 </r>
       <r>   10.7042    0.0000 </r>
       <r>   10.7042    0.0000 </r>
       <r>   10.7068    0.0000 </r>
       <r>   10.7068    0.0000 </r>
       <r>   15.1119    0.0000 </r>
       <r>   15.1119    0.0000 </r>
       <r>   15.1142    0.0000 </r>
       <r>   15.1142    0.0000 </r>
       <r>   15.4116    0.0000 </r>
       <r>   15.4116    0.0000 </r>
       <r>   17.1575    0.0000 </r>
       <r>   17.1575    0.0000 </r>
       <r>   19.9521    0.0000 </r>
       <r>   19.9521    0.0000 </r>
       <r>   19.9820    0.0000 </r>
       <r>   19.9820    0.0000 </r>
       <r>   25.6814    0.0000 </r>
       <r>   25.6814    0.0000 </r>
       <r>   25.6863    0.0000 </r>
       <r>   25.6863    0.0000 </r>
       <r>   25.7566    0.0000 </r>
       <r>   25.7566    0.0000 </r>
       <r>   28.6828    0.0000 </r>
       <r>   28.6828    0.0000 </r>
       <r>   29.7046    0.0000 </r>
       <r>   29.7046    0.0000 </r>
       <r>   29.7472    0.0000 </r>
       <r>   29.7472    0.0000 </r>
       <r>   33.8675    0.0000 </r>
       <r>   33.8675    0.0000 </r>
       <r>   33.8702    0.0000 </r>
       <r>   33.8702    0.0000 </r>
       <r>   35.0232    0.0000 </r>
       <r>   35.0232    0.0000 </r>
       <r>   35.8245    0.0000 </r>
       <r>   35.8245    0.0000 </r>
       <r>   36.2592    0.0000 </r>
       <r>   36.2592    0.0000 </r>
       <r>   36.2808    0.0000 </r>
       <r>   36.2808    0.0000 </r>
       <r>   38.0605    0.0000 </r>
       <r>   38.0605    0.0000 </r>
       <r>   41.7982    0.0000 </r>
       <r>   41.7982    0.0000 </r>
       <r>   42.6856    0.0000 </r>
       <r>   42.6856    0.0000 </r>
       <r>   42.6871    0.0000 </r>
       <r>   42.6871    0.0000 </r>
       <r>   43.8575    0.0000 </r>
       <r>   43.8575    0.0000 </r>
       <r>   45.9563    0.0000 </r>
       <r>   45.9563    0.0000 </r>
       <r>   45.9563    0.0000 </r>
       <r>   45.9563    0.0000 </r>
       <r>   47.1622    0.0000 </r>
       <r>   47.1622    0.0000 </r>
       <r>   52.1968    0.0000 </r>
       <r>   52.1968    0.0000 </r>
       <r>   52.4547    0.0000 </r>
       <r>   52.4547    0.0000 </r>
       <r>   52.4560    0.0000 </r>
       <r>   52.4560    0.0000 </r>
       <r>   52.6712    0.0000 </r>
       <r>   52.6712    0.0000 </r>
       <r>   53.7753    0.0000 </r>
       <r>   53.7753    0.0000 </r>
       <r>   53.7776    0.0000 </r>
       <r>   53.7776    0.0000 </r>
       <r>   54.4588    0.0000 </r>
       <r>   54.4588    0.0000 </r>
       <r>   54.4790    0.0000 </r>
       <r>   54.4790    0.0000 </r>
       <r>   55.1990    0.0000 </r>
       <r>   55.1990    0.0000 </r>
       <r>   59.6067    0.0000 </r>
       <r>   59.6067    0.0000 </r>
       <r>   60.9691    0.0000 </r>
       <r>   60.9691    0.0000 </r>
       <r>   60.9971    0.0000 </r>
       <r>   60.9971    0.0000 </r>
       <r>   63.4112    0.0000 </r>
       <r>   63.4112    0.0000 </r>
       <r>   63.4139    0.0000 </r>
       <r>   63.4139    0.0000 </r>
       <r>   64.2370    0.0000 </r>
       <r>   64.2370    0.0000 </r>
       <r>   64.6607    0.0000 </r>
       <r>   64.6607    0.0000 </r>
       <r>   64.6650    0.0000 </r>
       <r>   64.6650    0.0000 </r>
       <r>   67.4284    0.0000 </r>
       <r>   67.4284    0.0000 </r>
       <r>   70.7031    0.0000 </r>
       <r>   70.7031    0.0000 </r>
       <r>   70.7042    0.0000 </r>
       <r>   70.7042    0.0000 </r>
       <r>   72.1646    0.0000 </r>
       <r>   72.1646    0.0000 </r>
       <r>   72.9765    0.0000 </r>
       <r>   72.9765    0.0000 </r>
       <r>   72.9919    0.0000 </r>
       <r>   72.9919    0.0000 </r>
       <r>   73.9871    0.0000 </r>
       <r>   73.9871    0.0000 </r>
       <r>   73.9880    0.0000 </r>
       <r>   73.9880    0.0000 </r>
       <r>   75.5932    0.0000 </r>
       <r>   75.5932    0.0000 </r>
       <r>   75.5964    0.0000 </r>
       <r>   75.5964    0.0000 </r>
       <r>   76.0245    0.0000 </r>
       <r>   76.0245    0.0000 </r>
       <r>   76.8045    0.0000 </r>
       <r>   76.8045    0.0000 </r>
       <r>   77.7151    0.0000 </r>
       <r>   77.7151    0.0000 </r>
      </set>
      <set comment="kpoint 5">
       <r>  -20.9841    1.0000 </r>
       <r>  -20.9841    1.0000 </r>
       <r>   -6.6867    1.0000 </r>
       <r>   -6.6867    1.0000 </r>
       <r>   -5.8581    1.0000 </r>
       <r>   -5.8581    1.0000 </r>
       <r>   -5.7412    1.0000 </r>
       <r>   -5.7412    1.0000 </r>
       <r>    5.9933    0.0000 </r>
       <r>    5.9933    0.0000 </r>
       <r>    9.1079    0.0000 </r>
       <r>    9.1079    0.0000 </r>
       <r>   11.0110    0.0000 </r>
       <r>   11.0110    0.0000 </r>
       <r>   11.0136    0.0000 </r>
       <r>   11.0136    0.0000 </r>
       <r>   13.9159    0.0000 </r>
       <r>   13.9159    0.0000 </r>
       <r>   13.9195    0.0000 </r>
       <r>   13.9195    0.0000 </r>
       <r>   15.3246    0.0000 </r>
       <r>   15.3246    0.0000 </r>
       <r>   19.1468    0.0000 </r>
       <r>   19.1468    0.0000 </r>
       <r>   21.9683    0.0000 </r>
       <r>   21.9683    0.0000 </r>
       <r>   21.9997    0.0000 </r>
       <r>   21.9997    0.0000 </r>
       <r>   22.5196    0.0000 </r>
       <r>   22.5196    0.0000 </r>
       <r>   23.6398    0.0000 </r>
       <r>   23.6398    0.0000 </r>
       <r>   23.6405    0.0000 </r>
       <r>   23.6405    0.0000 </r>
       <r>   29.2266    0.0000 </r>
       <r>   29.2266    0.0000 </r>
       <r>   29.8641    0.0000 </r>
       <r>   29.8641    0.0000 </r>
       <r>   29.8866    0.0000 </r>
       <r>   29.8866    0.0000 </r>
       <r>   31.9541    0.0000 </r>
       <r>   31.9541    0.0000 </r>
       <r>   34.4634    0.0000 </r>
       <r>   34.4634    0.0000 </r>
       <r>   34.4919    0.0000 </r>
       <r>   34.4919    0.0000 </r>
       <r>   36.8826    0.0000 </r>
       <r>   36.8826    0.0000 </r>
       <r>   36.8847    0.0000 </r>
       <r>   36.8847    0.0000 </r>
       <r>   37.3387    0.0000 </r>
       <r>   37.3387    0.0000 </r>
       <r>   41.0491    0.0000 </r>
       <r>   41.0491    0.0000 </r>
       <r>   42.8215    0.0000 </r>
       <r>   42.8215    0.0000 </r>
       <r>   44.4553    0.0000 </r>
       <r>   44.4553    0.0000 </r>
       <r>   44.4567    0.0000 </r>
       <r>   44.4567    0.0000 </r>
       <r>   44.9035    0.0000 </r>
       <r>   44.9035    0.0000 </r>
       <r>   46.7623    0.0000 </r>
       <r>   46.7623    0.0000 </r>
       <r>   46.7628    0.0000 </r>
       <r>   46.7628    0.0000 </r>
       <r>   48.8218    0.0000 </r>
       <r>   48.8218    0.0000 </r>
       <r>   49.8005    0.0000 </r>
       <r>   49.8005    0.0000 </r>
       <r>   49.9294    0.0000 </r>
       <r>   49.9294    0.0000 </r>
       <r>   49.9467    0.0000 </r>
       <r>   49.9467    0.0000 </r>
       <r>   52.7590    0.0000 </r>
       <r>   52.7590    0.0000 </r>
       <r>   53.0166    0.0000 </r>
       <r>   53.0166    0.0000 </r>
       <r>   53.0178    0.0000 </r>
       <r>   53.0178    0.0000 </r>
       <r>   55.3217    0.0000 </r>
       <r>   55.3217    0.0000 </r>
       <r>   55.3296    0.0000 </r>
       <r>   55.3296    0.0000 </r>
       <r>   55.4412    0.0000 </r>
       <r>   55.4412    0.0000 </r>
       <r>   58.9004    0.0000 </r>
       <r>   58.9004    0.0000 </r>
       <r>   58.9012    0.0000 </r>
       <r>   58.9012    0.0000 </r>
       <r>   59.9558    0.0000 </r>
       <r>   59.9558    0.0000 </r>
       <r>   63.5592    0.0000 </r>
       <r>   63.5592    0.0000 </r>
       <r>   63.5609    0.0000 </r>
       <r>   63.5609    0.0000 </r>
       <r>   65.4440    0.0000 </r>
       <r>   65.4440    0.0000 </r>
       <r>   65.7516    0.0000 </r>
       <r>   65.7516    0.0000 </r>
       <r>   65.7763    0.0000 </r>
       <r>   65.7763    0.0000 </r>
       <r>   66.8705    0.0000 </r>
       <r>   66.8705    0.0000 </r>
       <r>   68.0787    0.0000 </r>
       <r>   68.0787    0.0000 </r>
       <r>   68.0845    0.0000 </r>
       <r>   68.0845    0.0000 </r>
       <r>   70.1934    0.0000 </r>
       <r>   70.1934    0.0000 </r>
       <r>   70.1944    0.0000 </r>
       <r>   70.1944    0.0000 </r>
       <r>   70.2709    0.0000 </r>
       <r>   70.2709    0.0000 </r>
       <r>   70.8468    0.0000 </r>
       <r>   70.8468    0.0000 </r>
       <r>   71.4261    0.0000 </r>
       <r>   71.4261    0.0000 </r>
       <r>   73.2745    0.0000 </r>
       <r>   73.2745    0.0000 </r>
       <r>   73.2755    0.0000 </r>
       <r>   73.2755    0.0000 </r>
       <r>   73.4546    0.0000 </r>
       <r>   73.4546    0.0000 </r>
       <r>   77.1507    0.0000 </r>
       <r>   77.1507    0.0000 </r>
       <r>   77.1509    0.0000 </r>
       <r>   77.1509    0.0000 </r>
      </set>
      <set comment="kpoint 6">
       <r>  -21.0821    1.0000 </r>
       <r>  -21.0821    1.0000 </r>
       <r>   -6.0770    1.0000 </r>
       <r>   -6.0770    1.0000 </r>
       <r>   -5.7687    1.0000 </r>
       <r>   -5.7687    1.0000 </r>
       <r>   -5.6692    1.0000 </r>
       <r>   -5.6692    1.0000 </r>
       <r>    4.5270    0.0000 </r>
       <r>    4.5270    0.0000 </r>
       <r>   10.1781    0.0000 </r>
       <r>   10.1781    0.0000 </r>
       <r>   11.3538    0.0000 </r>
       <r>   11.3538    0.0000 </r>
       <r>   11.3560    0.0000 </r>
       <r>   11.3560    0.0000 </r>
       <r>   13.0485    0.0000 </r>
       <r>   13.0485    0.0000 </r>
       <r>   13.0502    0.0000 </r>
       <r>   13.0502    0.0000 </r>
       <r>   16.5851    0.0000 </r>
       <r>   16.5851    0.0000 </r>
       <r>   18.0076    0.0000 </r>
       <r>   18.0076    0.0000 </r>
       <r>   20.4742    0.0000 </r>
       <r>   20.4742    0.0000 </r>
       <r>   20.4823    0.0000 </r>
       <r>   20.4823    0.0000 </r>
       <r>   22.8837    0.0000 </r>
       <r>   22.8837    0.0000 </r>
       <r>   25.3641    0.0000 </r>
       <r>   25.3641    0.0000 </r>
       <r>   25.7159    0.0000 </r>
       <r>   25.7159    0.0000 </r>
       <r>   25.7400    0.0000 </r>
       <r>   25.7400    0.0000 </r>
       <r>   29.8050    0.0000 </r>
       <r>   29.8050    0.0000 </r>
       <r>   29.8318    0.0000 </r>
       <r>   29.8318    0.0000 </r>
       <r>   31.7560    0.0000 </r>
       <r>   31.7560    0.0000 </r>
       <r>   33.4159    0.0000 </r>
       <r>   33.4159    0.0000 </r>
       <r>   33.4389    0.0000 </r>
       <r>   33.4389    0.0000 </r>
       <r>   39.4929    0.0000 </r>
       <r>   39.4929    0.0000 </r>
       <r>   39.5836    0.0000 </r>
       <r>   39.5836    0.0000 </r>
       <r>   39.5862    0.0000 </r>
       <r>   39.5862    0.0000 </r>
       <r>   40.0690    0.0000 </r>
       <r>   40.0690    0.0000 </r>
       <r>   43.5620    0.0000 </r>
       <r>   43.5620    0.0000 </r>
       <r>   45.4659    0.0000 </r>
       <r>   45.4659    0.0000 </r>
       <r>   45.4753    0.0000 </r>
       <r>   45.4753    0.0000 </r>
       <r>   47.8178    0.0000 </r>
       <r>   47.8178    0.0000 </r>
       <r>   47.8223    0.0000 </r>
       <r>   47.8223    0.0000 </r>
       <r>   49.0995    0.0000 </r>
       <r>   49.0995    0.0000 </r>
       <r>   50.5960    0.0000 </r>
       <r>   50.5960    0.0000 </r>
       <r>   50.6001    0.0000 </r>
       <r>   50.6001    0.0000 </r>
       <r>   52.4856    0.0000 </r>
       <r>   52.4856    0.0000 </r>
       <r>   52.4954    0.0000 </r>
       <r>   52.4954    0.0000 </r>
       <r>   52.5317    0.0000 </r>
       <r>   52.5317    0.0000 </r>
       <r>   52.9821    0.0000 </r>
       <r>   52.9821    0.0000 </r>
       <r>   53.6507    0.0000 </r>
       <r>   53.6507    0.0000 </r>
       <r>   54.5706    0.0000 </r>
       <r>   54.5706    0.0000 </r>
       <r>   54.5729    0.0000 </r>
       <r>   54.5729    0.0000 </r>
       <r>   55.4540    0.0000 </r>
       <r>   55.4540    0.0000 </r>
       <r>   58.2026    0.0000 </r>
       <r>   58.2026    0.0000 </r>
       <r>   58.2029    0.0000 </r>
       <r>   58.2029    0.0000 </r>
       <r>   58.4899    0.0000 </r>
       <r>   58.4899    0.0000 </r>
       <r>   60.0266    0.0000 </r>
       <r>   60.0266    0.0000 </r>
       <r>   60.0287    0.0000 </r>
       <r>   60.0287    0.0000 </r>
       <r>   61.1258    0.0000 </r>
       <r>   61.1258    0.0000 </r>
       <r>   62.4184    0.0000 </r>
       <r>   62.4184    0.0000 </r>
       <r>   62.5854    0.0000 </r>
       <r>   62.5854    0.0000 </r>
       <r>   62.5856    0.0000 </r>
       <r>   62.5856    0.0000 </r>
       <r>   63.4415    0.0000 </r>
       <r>   63.4415    0.0000 </r>
       <r>   67.0433    0.0000 </r>
       <r>   67.0433    0.0000 </r>
       <r>   67.0439    0.0000 </r>
       <r>   67.0439    0.0000 </r>
       <r>   67.2562    0.0000 </r>
       <r>   67.2562    0.0000 </r>
       <r>   67.7325    0.0000 </r>
       <r>   67.7325    0.0000 </r>
       <r>   67.7330    0.0000 </r>
       <r>   67.7330    0.0000 </r>
       <r>   70.9148    0.0000 </r>
       <r>   70.9148    0.0000 </r>
       <r>   70.9340    0.0000 </r>
       <r>   70.9340    0.0000 </r>
       <r>   73.4564    0.0000 </r>
       <r>   73.4564    0.0000 </r>
       <r>   75.0903    0.0000 </r>
       <r>   75.0903    0.0000 </r>
       <r>   76.4982    0.0000 </r>
       <r>   76.4982    0.0000 </r>
       <r>   76.5187    0.0000 </r>
       <r>   76.5187    0.0000 </r>
      </set>
      <set comment="kpoint 7">
       <r>  -21.0821    1.0000 </r>
       <r>  -21.0821    1.0000 </r>
       <r>   -6.0770    1.0000 </r>
       <r>   -6.0770    1.0000 </r>
       <r>   -5.7687    1.0000 </r>
       <r>   -5.7687    1.0000 </r>
       <r>   -5.6692    1.0000 </r>
       <r>   -5.6692    1.0000 </r>
       <r>    4.5270    0.0000 </r>
       <r>    4.5270    0.0000 </r>
       <r>   10.1781    0.0000 </r>
       <r>   10.1781    0.0000 </r>
       <r>   11.3538    0.0000 </r>
       <r>   11.3538    0.0000 </r>
       <r>   11.3560    0.0000 </r>
       <r>   11.3560    0.0000 </r>
       <r>   13.0485    0.0000 </r>
       <r>   13.0485    0.0000 </r>
       <r>   13.0502    0.0000 </r>
       <r>   13.0502    0.0000 </r>
       <r>   16.5850    0.0000 </r>
       <r>   16.5850    0.0000 </r>
       <r>   18.0076    0.0000 </r>
       <r>   18.0076    0.0000 </r>
       <r>   20.4742    0.0000 </r>
       <r>   20.4742    0.0000 </r>
       <r>   20.4823    0.0000 </r>
       <r>   20.4823    0.0000 </r>
       <r>   22.8837    0.0000 </r>
       <r>   22.8837    0.0000 </r>
       <r>   25.3641    0.0000 </r>
       <r>   25.3641    0.0000 </r>
       <r>   25.7159    0.0000 </r>
       <r>   25.7159    0.0000 </r>
       <r>   25.7400    0.0000 </r>
       <r>   25.7400    0.0000 </r>
       <r>   29.8050    0.0000 </r>
       <r>   29.8050    0.0000 </r>
       <r>   29.8317    0.0000 </r>
       <r>   29.8317    0.0000 </r>
       <r>   31.7560    0.0000 </r>
       <r>   31.7560    0.0000 </r>
       <r>   33.4159    0.0000 </r>
       <r>   33.4159    0.0000 </r>
       <r>   33.4389    0.0000 </r>
       <r>   33.4389    0.0000 </r>
       <r>   39.4929    0.0000 </r>
       <r>   39.4929    0.0000 </r>
       <r>   39.5836    0.0000 </r>
       <r>   39.5836    0.0000 </r>
       <r>   39.5862    0.0000 </r>
       <r>   39.5862    0.0000 </r>
       <r>   40.0690    0.0000 </r>
       <r>   40.0690    0.0000 </r>
       <r>   43.5620    0.0000 </r>
       <r>   43.5620    0.0000 </r>
       <r>   45.4659    0.0000 </r>
       <r>   45.4659    0.0000 </r>
       <r>   45.4753    0.0000 </r>
       <r>   45.4753    0.0000 </r>
       <r>   47.8178    0.0000 </r>
       <r>   47.8178    0.0000 </r>
       <r>   47.8223    0.0000 </r>
       <r>   47.8223    0.0000 </r>
       <r>   49.0995    0.0000 </r>
       <r>   49.0995    0.0000 </r>
       <r>   50.5960    0.0000 </r>
       <r>   50.5960    0.0000 </r>
       <r>   50.6001    0.0000 </r>
       <r>   50.6001    0.0000 </r>
       <r>   52.4856    0.0000 </r>
       <r>   52.4856    0.0000 </r>
       <r>   52.4954    0.0000 </r>
       <r>   52.4954    0.0000 </r>
       <r>   52.5317    0.0000 </r>
       <r>   52.5317    0.0000 </r>
       <r>   52.9821    0.0000 </r>
       <r>   52.9821    0.0000 </r>
       <r>   53.6507    0.0000 </r>
       <r>   53.6507    0.0000 </r>
       <r>   54.5706    0.0000 </r>
       <r>   54.5706    0.0000 </r>
       <r>   54.5729    0.0000 </r>
       <r>   54.5729    0.0000 </r>
       <r>   55.4540    0.0000 </r>
       <r>   55.4540    0.0000 </r>
       <r>   58.2026    0.0000 </r>
       <r>   58.2026    0.0000 </r>
       <r>   58.2029    0.0000 </r>
       <r>   58.2029    0.0000 </r>
       <r>   58.4899    0.0000 </r>
       <r>   58.4899    0.0000 </r>
       <r>   60.0266    0.0000 </r>
       <r>   60.0266    0.0000 </r>
       <r>   60.0287    0.0000 </r>
       <r>   60.0287    0.0000 </r>
       <r>   61.1258    0.0000 </r>
       <r>   61.1258    0.0000 </r>
       <r>   62.4185    0.0000 </r>
       <r>   62.4185    0.0000 </r>
       <r>   62.5854    0.0000 </r>
       <r>   62.5854    0.0000 </r>
       <r>   62.5856    0.0000 </r>
       <r>   62.5856    0.0000 </r>
       <r>   63.4415    0.0000 </r>
       <r>   63.4415    0.0000 </r>
       <r>   67.0433    0.0000 </r>
       <r>   67.0433    0.0000 </r>
       <r>   67.0439    0.0000 </r>
       <r>   67.0439    0.0000 </r>
       <r>   67.2562    0.0000 </r>
       <r>   67.2562    0.0000 </r>
       <r>   67.7325    0.0000 </r>
       <r>   67.7325    0.0000 </r>
       <r>   67.7330    0.0000 </r>
       <r>   67.7330    0.0000 </r>
       <r>   70.9148    0.0000 </r>
       <r>   70.9148    0.0000 </r>
       <r>   70.9340    0.0000 </r>
       <r>   70.9340    0.0000 </r>
       <r>   73.4564    0.0000 </r>
       <r>   73.4564    0.0000 </r>
       <r>   75.0903    0.0000 </r>
       <r>   75.0903    0.0000 </r>
       <r>   76.4982    0.0000 </r>
       <r>   76.4982    0.0000 </r>
       <r>   76.5187    0.0000 </r>
       <r>   76.5187    0.0000 </r>
      </set>
      <set comment="kpoint 8">
       <r>  -21.0663    1.0000 </r>
       <r>  -21.0663    1.0000 </r>
       <r>   -6.0775    1.0000 </r>
       <r>   -6.0775    1.0000 </r>
       <r>   -5.8318    1.0000 </r>
       <r>   -5.8318    1.0000 </r>
       <r>   -5.7423    1.0000 </r>
       <r>   -5.7423    1.0000 </r>
       <r>    4.7490    0.0000 </r>
       <r>    4.7490    0.0000 </r>
       <r>    9.8893    0.0000 </r>
       <r>    9.8893    0.0000 </r>
       <r>   11.6211    0.0000 </r>
       <r>   11.6211    0.0000 </r>
       <r>   11.6271    0.0000 </r>
       <r>   11.6271    0.0000 </r>
       <r>   11.6602    0.0000 </r>
       <r>   11.6602    0.0000 </r>
       <r>   13.7889    0.0000 </r>
       <r>   13.7889    0.0000 </r>
       <r>   18.1871    0.0000 </r>
       <r>   18.1871    0.0000 </r>
       <r>   18.2648    0.0000 </r>
       <r>   18.2648    0.0000 </r>
       <r>   19.6400    0.0000 </r>
       <r>   19.6400    0.0000 </r>
       <r>   19.6523    0.0000 </r>
       <r>   19.6523    0.0000 </r>
       <r>   24.7792    0.0000 </r>
       <r>   24.7792    0.0000 </r>
       <r>   24.8127    0.0000 </r>
       <r>   24.8127    0.0000 </r>
       <r>   24.8129    0.0000 </r>
       <r>   24.8129    0.0000 </r>
       <r>   25.7139    0.0000 </r>
       <r>   25.7139    0.0000 </r>
       <r>   28.2682    0.0000 </r>
       <r>   28.2682    0.0000 </r>
       <r>   30.3459    0.0000 </r>
       <r>   30.3459    0.0000 </r>
       <r>   32.6664    0.0000 </r>
       <r>   32.6664    0.0000 </r>
       <r>   32.7208    0.0000 </r>
       <r>   32.7208    0.0000 </r>
       <r>   33.8646    0.0000 </r>
       <r>   33.8646    0.0000 </r>
       <r>   39.7808    0.0000 </r>
       <r>   39.7808    0.0000 </r>
       <r>   40.1618    0.0000 </r>
       <r>   40.1618    0.0000 </r>
       <r>   40.2579    0.0000 </r>
       <r>   40.2579    0.0000 </r>
       <r>   40.2598    0.0000 </r>
       <r>   40.2598    0.0000 </r>
       <r>   42.2120    0.0000 </r>
       <r>   42.2120    0.0000 </r>
       <r>   44.7898    0.0000 </r>
       <r>   44.7898    0.0000 </r>
       <r>   44.8038    0.0000 </r>
       <r>   44.8038    0.0000 </r>
       <r>   46.4829    0.0000 </r>
       <r>   46.4829    0.0000 </r>
       <r>   48.4923    0.0000 </r>
       <r>   48.4923    0.0000 </r>
       <r>   48.5044    0.0000 </r>
       <r>   48.5044    0.0000 </r>
       <r>   49.3130    0.0000 </r>
       <r>   49.3130    0.0000 </r>
       <r>   50.3140    0.0000 </r>
       <r>   50.3140    0.0000 </r>
       <r>   50.3770    0.0000 </r>
       <r>   50.3770    0.0000 </r>
       <r>   53.1516    0.0000 </r>
       <r>   53.1516    0.0000 </r>
       <r>   53.1518    0.0000 </r>
       <r>   53.1518    0.0000 </r>
       <r>   54.8038    0.0000 </r>
       <r>   54.8038    0.0000 </r>
       <r>   55.2844    0.0000 </r>
       <r>   55.2844    0.0000 </r>
       <r>   55.2898    0.0000 </r>
       <r>   55.2898    0.0000 </r>
       <r>   55.8107    0.0000 </r>
       <r>   55.8107    0.0000 </r>
       <r>   56.4216    0.0000 </r>
       <r>   56.4216    0.0000 </r>
       <r>   57.9719    0.0000 </r>
       <r>   57.9719    0.0000 </r>
       <r>   57.9762    0.0000 </r>
       <r>   57.9762    0.0000 </r>
       <r>   57.9923    0.0000 </r>
       <r>   57.9923    0.0000 </r>
       <r>   58.4098    0.0000 </r>
       <r>   58.4098    0.0000 </r>
       <r>   58.5535    0.0000 </r>
       <r>   58.5535    0.0000 </r>
       <r>   60.2614    0.0000 </r>
       <r>   60.2614    0.0000 </r>
       <r>   61.7884    0.0000 </r>
       <r>   61.7884    0.0000 </r>
       <r>   61.7885    0.0000 </r>
       <r>   61.7885    0.0000 </r>
       <r>   63.4109    0.0000 </r>
       <r>   63.4109    0.0000 </r>
       <r>   65.8417    0.0000 </r>
       <r>   65.8417    0.0000 </r>
       <r>   65.8422    0.0000 </r>
       <r>   65.8422    0.0000 </r>
       <r>   66.5022    0.0000 </r>
       <r>   66.5022    0.0000 </r>
       <r>   68.2682    0.0000 </r>
       <r>   68.2682    0.0000 </r>
       <r>   71.0863    0.0000 </r>
       <r>   71.0863    0.0000 </r>
       <r>   71.4513    0.0000 </r>
       <r>   71.4513    0.0000 </r>
       <r>   71.4516    0.0000 </r>
       <r>   71.4516    0.0000 </r>
       <r>   71.5526    0.0000 </r>
       <r>   71.5526    0.0000 </r>
       <r>   73.7830    0.0000 </r>
       <r>   73.7830    0.0000 </r>
       <r>   73.9542    0.0000 </r>
       <r>   73.9542    0.0000 </r>
       <r>   73.9890    0.0000 </r>
       <r>   73.9890    0.0000 </r>
       <r>   78.4173    0.0000 </r>
       <r>   78.4173    0.0000 </r>
      </set>
      <set comment="kpoint 9">
       <r>  -20.9851    1.0000 </r>
       <r>  -20.9851    1.0000 </r>
       <r>   -6.5106    1.0000 </r>
       <r>   -6.5106    1.0000 </r>
       <r>   -5.9471    1.0000 </r>
       <r>   -5.9471    1.0000 </r>
       <r>   -5.8358    1.0000 </r>
       <r>   -5.8358    1.0000 </r>
       <r>    5.9626    0.0000 </r>
       <r>    5.9626    0.0000 </r>
       <r>    9.0673    0.0000 </r>
       <r>    9.0673    0.0000 </r>
       <r>   10.2818    0.0000 </r>
       <r>   10.2818    0.0000 </r>
       <r>   11.7590    0.0000 </r>
       <r>   11.7590    0.0000 </r>
       <r>   12.8782    0.0000 </r>
       <r>   12.8782    0.0000 </r>
       <r>   14.4192    0.0000 </r>
       <r>   14.4192    0.0000 </r>
       <r>   17.1841    0.0000 </r>
       <r>   17.1841    0.0000 </r>
       <r>   19.6731    0.0000 </r>
       <r>   19.6731    0.0000 </r>
       <r>   20.2999    0.0000 </r>
       <r>   20.2999    0.0000 </r>
       <r>   20.8037    0.0000 </r>
       <r>   20.8037    0.0000 </r>
       <r>   23.4221    0.0000 </r>
       <r>   23.4221    0.0000 </r>
       <r>   23.4333    0.0000 </r>
       <r>   23.4333    0.0000 </r>
       <r>   24.7885    0.0000 </r>
       <r>   24.7885    0.0000 </r>
       <r>   27.5157    0.0000 </r>
       <r>   27.5157    0.0000 </r>
       <r>   29.0379    0.0000 </r>
       <r>   29.0379    0.0000 </r>
       <r>   29.8010    0.0000 </r>
       <r>   29.8010    0.0000 </r>
       <r>   32.2609    0.0000 </r>
       <r>   32.2609    0.0000 </r>
       <r>   33.5837    0.0000 </r>
       <r>   33.5837    0.0000 </r>
       <r>   35.1128    0.0000 </r>
       <r>   35.1128    0.0000 </r>
       <r>   37.0448    0.0000 </r>
[...]
       <r>    53.0524     0.0000     0.0000 </r>
       <r>    53.4245     0.0000     0.0000 </r>
       <r>    53.7966     0.0000     0.0000 </r>
       <r>    54.1687     0.0000     0.0000 </r>
       <r>    54.5408     0.0000     0.0000 </r>
       <r>    54.9129     0.0000     0.0000 </r>
       <r>    55.2850     0.0000     0.0000 </r>
       <r>    55.6571     0.0000     0.0000 </r>
       <r>    56.0291     0.0000     0.0000 </r>
       <r>    56.4012     0.0000     0.0000 </r>
       <r>    56.7733     0.0000     0.0000 </r>
       <r>    57.1454     0.0000     0.0000 </r>
       <r>    57.5175     0.0000     0.0000 </r>
       <r>    57.8896     0.0000     0.0000 </r>
       <r>    58.2617     0.0000     0.0000 </r>
       <r>    58.6338     0.0000     0.0000 </r>
       <r>    59.0059     0.0000     0.0000 </r>
       <r>    59.3780     0.0000     0.0000 </r>
       <r>    59.7501     0.0000     0.0000 </r>
       <r>    60.1222     0.0000     0.0000 </r>
       <r>    60.4943     0.0000     0.0000 </r>
       <r>    60.8664     0.0000     0.0000 </r>
       <r>    61.2385     0.0000     0.0000 </r>
       <r>    61.6106     0.0000     0.0000 </r>
       <r>    61.9827     0.0000     0.0000 </r>
       <r>    62.3548     0.0000     0.0000 </r>
       <r>    62.7269     0.0000     0.0000 </r>
       <r>    63.0990     0.0000     0.0000 </r>
       <r>    63.4711     0.0000     0.0000 </r>
       <r>    63.8432     0.0000     0.0000 </r>
       <r>    64.2153     0.0000     0.0000 </r>
       <r>    64.5873     0.0000     0.0000 </r>
       <r>    64.9594     0.0000     0.0000 </r>
       <r>    65.3315     0.0000     0.0000 </r>
       <r>    65.7036     0.0000     0.0000 </r>
       <r>    66.0757     0.0000     0.0000 </r>
       <r>    66.4478     0.0000     0.0000 </r>
       <r>    66.8199     0.0000     0.0000 </r>
       <r>    67.1920     0.0000     0.0000 </r>
       <r>    67.5641     0.0000     0.0000 </r>
       <r>    67.9362     0.0000     0.0000 </r>
       <r>    68.3083     0.0000     0.0000 </r>
       <r>    68.6804     0.0000     0.0000 </r>
       <r>    69.0525     0.0000     0.0000 </r>
       <r>    69.4246     0.0000     0.0000 </r>
       <r>    69.7967     0.0000     0.0000 </r>
       <r>    70.1688     0.0000     0.0000 </r>
       <r>    70.5409     0.0000     0.0000 </r>
       <r>    70.9130     0.0000     0.0000 </r>
       <r>    71.2851     0.0000     0.0000 </r>
       <r>    71.6572     0.0000     0.0000 </r>
       <r>    72.0293     0.0000     0.0000 </r>
       <r>    72.4014     0.0000     0.0000 </r>
       <r>    72.7735     0.0000     0.0000 </r>
       <r>    73.1456     0.0000     0.0000 </r>
       <r>    73.5176     0.0000     0.0000 </r>
       <r>    73.8897     0.0000     0.0000 </r>
       <r>    74.2618     0.0000     0.0000 </r>
       <r>    74.6339     0.0000     0.0000 </r>
       <r>    75.0060     0.0000     0.0000 </r>
       <r>    75.3781     0.0000     0.0000 </r>
       <r>    75.7502     0.0000     0.0000 </r>
       <r>    76.1223     0.0000     0.0000 </r>
       <r>    76.4944     0.0000     0.0000 </r>
       <r>    76.8665     0.0000     0.0000 </r>
       <r>    77.2386     0.0000     0.0000 </r>
       <r>    77.6107     0.0000     0.0000 </r>
       <r>    77.9828     0.0000     0.0000 </r>
       <r>    78.3549     0.0000     0.0000 </r>
       <r>    78.7270     0.0000     0.0000 </r>
       <r>    79.0991     0.0000     0.0000 </r>
       <r>    79.4712     0.0000     0.0000 </r>
       <r>    79.8433     0.0000     0.0000 </r>
       <r>    80.2154     0.0000     0.0000 </r>
       <r>    80.5875     0.0000     0.0000 </r>
       <r>    80.9596     0.0000     0.0000 </r>
       <r>    81.3317     0.0000     0.0000 </r>
       <r>    81.7038     0.0000     0.0000 </r>
       <r>    82.0758     0.0000     0.0000 </r>
       <r>    82.4479     0.0000     0.0000 </r>
       <r>    82.8200     0.0000     0.0000 </r>
       <r>    83.1921     0.0000     0.0000 </r>
       <r>    83.5642     0.0000     0.0000 </r>
       <r>    83.9363     0.0000     0.0000 </r>
       <r>    84.3084     0.0000     0.0000 </r>
       <r>    84.6805     0.0000     0.0000 </r>
       <r>    85.0526     0.0000     0.0000 </r>
       <r>    85.4247     0.0000     0.0000 </r>
      </set>
      <set comment="spin 4">
       <r>   -26.2040     0.0000     0.0000 </r>
       <r>   -25.8319     0.0000     0.0000 </r>
       <r>   -25.4598     0.0000     0.0000 </r>
       <r>   -25.0877     0.0000     0.0000 </r>
       <r>   -24.7156     0.0000     0.0000 </r>
       <r>   -24.3435     0.0000     0.0000 </r>
       <r>   -23.9714     0.0000     0.0000 </r>
       <r>   -23.5993     0.0000     0.0000 </r>
       <r>   -23.2272     0.0000     0.0000 </r>
       <r>   -22.8552     0.0000     0.0000 </r>
       <r>   -22.4831     0.0000     0.0000 </r>
       <r>   -22.1110     0.0000     0.0000 </r>
       <r>   -21.7389     0.0000     0.0000 </r>
       <r>   -21.3668     0.0000     0.0000 </r>
       <r>   -20.9947     0.0000     0.0000 </r>
       <r>   -20.6226     0.0000     0.0000 </r>
       <r>   -20.2505     0.0000     0.0000 </r>
       <r>   -19.8784     0.0000     0.0000 </r>
       <r>   -19.5063     0.0000     0.0000 </r>
       <r>   -19.1342     0.0000     0.0000 </r>
       <r>   -18.7621     0.0000     0.0000 </r>
       <r>   -18.3900     0.0000     0.0000 </r>
       <r>   -18.0179     0.0000     0.0000 </r>
       <r>   -17.6458     0.0000     0.0000 </r>
       <r>   -17.2737     0.0000     0.0000 </r>
       <r>   -16.9016     0.0000     0.0000 </r>
       <r>   -16.5295     0.0000     0.0000 </r>
       <r>   -16.1574     0.0000     0.0000 </r>
       <r>   -15.7853     0.0000     0.0000 </r>
       <r>   -15.4132     0.0000     0.0000 </r>
       <r>   -15.0411     0.0000     0.0000 </r>
       <r>   -14.6690     0.0000     0.0000 </r>
       <r>   -14.2969     0.0000     0.0000 </r>
       <r>   -13.9249     0.0000     0.0000 </r>
       <r>   -13.5528     0.0000     0.0000 </r>
       <r>   -13.1807     0.0000     0.0000 </r>
       <r>   -12.8086     0.0000     0.0000 </r>
       <r>   -12.4365     0.0000     0.0000 </r>
       <r>   -12.0644     0.0000     0.0000 </r>
       <r>   -11.6923     0.0000     0.0000 </r>
       <r>   -11.3202     0.0000     0.0000 </r>
       <r>   -10.9481     0.0000     0.0000 </r>
       <r>   -10.5760     0.0000     0.0000 </r>
       <r>   -10.2039     0.0000     0.0000 </r>
       <r>    -9.8318     0.0000     0.0000 </r>
       <r>    -9.4597     0.0000     0.0000 </r>
       <r>    -9.0876     0.0000     0.0000 </r>
       <r>    -8.7155     0.0000     0.0000 </r>
       <r>    -8.3434     0.0000     0.0000 </r>
       <r>    -7.9713     0.0000     0.0000 </r>
       <r>    -7.5992     0.0000     0.0000 </r>
       <r>    -7.2271     0.0000     0.0000 </r>
       <r>    -6.8550     0.0000     0.0000 </r>
       <r>    -6.4829     0.0000     0.0000 </r>
       <r>    -6.1108     0.0000     0.0000 </r>
       <r>    -5.7387     0.0000     0.0000 </r>
       <r>    -5.3667     0.0000     0.0000 </r>
       <r>    -4.9946     0.0000     0.0000 </r>
       <r>    -4.6225     0.0000     0.0000 </r>
       <r>    -4.2504     0.0000     0.0000 </r>
       <r>    -3.8783     0.0000     0.0000 </r>
       <r>    -3.5062     0.0000     0.0000 </r>
       <r>    -3.1341     0.0000     0.0000 </r>
       <r>    -2.7620     0.0000     0.0000 </r>
       <r>    -2.3899     0.0000     0.0000 </r>
       <r>    -2.0178     0.0000     0.0000 </r>
       <r>    -1.6457     0.0000     0.0000 </r>
       <r>    -1.2736     0.0000     0.0000 </r>
       <r>    -0.9015     0.0000     0.0000 </r>
       <r>    -0.5294     0.0000     0.0000 </r>
       <r>    -0.1573     0.0000     0.0000 </r>
       <r>     0.2148     0.0000     0.0000 </r>
       <r>     0.5869     0.0000     0.0000 </r>
       <r>     0.9590     0.0000     0.0000 </r>
       <r>     1.3311     0.0000     0.0000 </r>
       <r>     1.7032     0.0000     0.0000 </r>
       <r>     2.0753     0.0000     0.0000 </r>
       <r>     2.4474     0.0000     0.0000 </r>
       <r>     2.8195     0.0000     0.0000 </r>
       <r>     3.1916     0.0000     0.0000 </r>
       <r>     3.5636     0.0000     0.0000 </r>
       <r>     3.9357     0.0000     0.0000 </r>
       <r>     4.3078     0.0000     0.0000 </r>
       <r>     4.6799     0.0000     0.0000 </r>
       <r>     5.0520     0.0000     0.0000 </r>
       <r>     5.4241     0.0000     0.0000 </r>
       <r>     5.7962     0.0000     0.0000 </r>
       <r>     6.1683     0.0000     0.0000 </r>
       <r>     6.5404     0.0000     0.0000 </r>
       <r>     6.9125     0.0000     0.0000 </r>
       <r>     7.2846     0.0000     0.0000 </r>
       <r>     7.6567     0.0000     0.0000 </r>
       <r>     8.0288     0.0000     0.0000 </r>
       <r>     8.4009     0.0000     0.0000 </r>
       <r>     8.7730     0.0000     0.0000 </r>
       <r>     9.1451     0.0000     0.0000 </r>
       <r>     9.5172     0.0000     0.0000 </r>
       <r>     9.8893     0.0000     0.0000 </r>
       <r>    10.2614     0.0000     0.0000 </r>
       <r>    10.6335     0.0000     0.0000 </r>
       <r>    11.0056     0.0000     0.0000 </r>
       <r>    11.3777     0.0000     0.0000 </r>
       <r>    11.7498     0.0000     0.0000 </r>
       <r>    12.1218     0.0000     0.0000 </r>
       <r>    12.4939     0.0000     0.0000 </r>
       <r>    12.8660     0.0000     0.0000 </r>
       <r>    13.2381     0.0000     0.0000 </r>
       <r>    13.6102     0.0000     0.0000 </r>
       <r>    13.9823     0.0000     0.0000 </r>
       <r>    14.3544     0.0000     0.0000 </r>
       <r>    14.7265     0.0000     0.0000 </r>
       <r>    15.0986     0.0000     0.0000 </r>
       <r>    15.4707     0.0000     0.0000 </r>
       <r>    15.8428     0.0000     0.0000 </r>
       <r>    16.2149     0.0000     0.0000 </r>
       <r>    16.5870     0.0000     0.0000 </r>
       <r>    16.9591     0.0000     0.0000 </r>
       <r>    17.3312     0.0000     0.0000 </r>
       <r>    17.7033     0.0000     0.0000 </r>
       <r>    18.0754     0.0000     0.0000 </r>
       <r>    18.4475     0.0000     0.0000 </r>
       <r>    18.8196     0.0000     0.0000 </r>
       <r>    19.1917     0.0000     0.0000 </r>
       <r>    19.5638     0.0000     0.0000 </r>
       <r>    19.9359     0.0000     0.0000 </r>
       <r>    20.3080     0.0000     0.0000 </r>
       <r>    20.6801     0.0000     0.0000 </r>
       <r>    21.0521     0.0000     0.0000 </r>
       <r>    21.4242     0.0000     0.0000 </r>
       <r>    21.7963     0.0000     0.0000 </r>
       <r>    22.1684     0.0000     0.0000 </r>
       <r>    22.5405     0.0000     0.0000 </r>
       <r>    22.9126     0.0000     0.0000 </r>
       <r>    23.2847     0.0000     0.0000 </r>
       <r>    23.6568     0.0000     0.0000 </r>
       <r>    24.0289     0.0000     0.0000 </r>
       <r>    24.4010     0.0000     0.0000 </r>
       <r>    24.7731     0.0000     0.0000 </r>
       <r>    25.1452     0.0000     0.0000 </r>
       <r>    25.5173     0.0000     0.0000 </r>
       <r>    25.8894     0.0000     0.0000 </r>
       <r>    26.2615     0.0000     0.0000 </r>
       <r>    26.6336     0.0000     0.0000 </r>
       <r>    27.0057     0.0000     0.0000 </r>
       <r>    27.3778     0.0000     0.0000 </r>
       <r>    27.7499     0.0000     0.0000 </r>
       <r>    28.1220     0.0000     0.0000 </r>
       <r>    28.4941     0.0000     0.0000 </r>
       <r>    28.8662     0.0000     0.0000 </r>
       <r>    29.2383     0.0000     0.0000 </r>
       <r>    29.6103     0.0000     0.0000 </r>
       <r>    29.9824     0.0000     0.0000 </r>
       <r>    30.3545     0.0000     0.0000 </r>
       <r>    30.7266     0.0000     0.0000 </r>
       <r>    31.0987     0.0000     0.0000 </r>
       <r>    31.4708     0.0000     0.0000 </r>
       <r>    31.8429     0.0000     0.0000 </r>
       <r>    32.2150     0.0000     0.0000 </r>
       <r>    32.5871     0.0000     0.0000 </r>
       <r>    32.9592     0.0000     0.0000 </r>
       <r>    33.3313     0.0000     0.0000 </r>
       <r>    33.7034     0.0000     0.0000 </r>
       <r>    34.0755     0.0000     0.0000 </r>
       <r>    34.4476     0.0000     0.0000 </r>
       <r>    34.8197     0.0000     0.0000 </r>
       <r>    35.1918     0.0000     0.0000 </r>
       <r>    35.5639     0.0000     0.0000 </r>
       <r>    35.9360     0.0000     0.0000 </r>
       <r>    36.3081     0.0000     0.0000 </r>
       <r>    36.6802     0.0000     0.0000 </r>
       <r>    37.0523     0.0000     0.0000 </r>
       <r>    37.4244     0.0000     0.0000 </r>
       <r>    37.7965     0.0000     0.0000 </r>
       <r>    38.1686     0.0000     0.0000 </r>
       <r>    38.5406     0.0000     0.0000 </r>
       <r>    38.9127     0.0000     0.0000 </r>
       <r>    39.2848     0.0000     0.0000 </r>
       <r>    39.6569     0.0000     0.0000 </r>
       <r>    40.0290     0.0000     0.0000 </r>
       <r>    40.4011     0.0000     0.0000 </r>
       <r>    40.7732     0.0000     0.0000 </r>
       <r>    41.1453     0.0000     0.0000 </r>
       <r>    41.5174     0.0000     0.0000 </r>
       <r>    41.8895     0.0000     0.0000 </r>
       <r>    42.2616     0.0000     0.0000 </r>
       <r>    42.6337     0.0000     0.0000 </r>
       <r>    43.0058     0.0000     0.0000 </r>
       <r>    43.3779     0.0000     0.0000 </r>
       <r>    43.7500     0.0000     0.0000 </r>
       <r>    44.1221     0.0000     0.0000 </r>
       <r>    44.4942     0.0000     0.0000 </r>
       <r>    44.8663     0.0000     0.0000 </r>
       <r>    45.2384     0.0000     0.0000 </r>
       <r>    45.6105     0.0000     0.0000 </r>
       <r>    45.9826     0.0000     0.0000 </r>
       <r>    46.3547     0.0000     0.0000 </r>
       <r>    46.7268     0.0000     0.0000 </r>
       <r>    47.0988     0.0000     0.0000 </r>
       <r>    47.4709     0.0000     0.0000 </r>
       <r>    47.8430     0.0000     0.0000 </r>
       <r>    48.2151     0.0000     0.0000 </r>
       <r>    48.5872     0.0000     0.0000 </r>
       <r>    48.9593     0.0000     0.0000 </r>
       <r>    49.3314     0.0000     0.0000 </r>
       <r>    49.7035     0.0000     0.0000 </r>
       <r>    50.0756     0.0000     0.0000 </r>
       <r>    50.4477     0.0000     0.0000 </r>
       <r>    50.8198     0.0000     0.0000 </r>
       <r>    51.1919     0.0000     0.0000 </r>
       <r>    51.5640     0.0000     0.0000 </r>
       <r>    51.9361     0.0000     0.0000 </r>
       <r>    52.3082     0.0000     0.0000 </r>
       <r>    52.6803     0.0000     0.0000 </r>
       <r>    53.0524     0.0000     0.0000 </r>
       <r>    53.4245     0.0000     0.0000 </r>
       <r>    53.7966     0.0000     0.0000 </r>
       <r>    54.1687     0.0000     0.0000 </r>
       <r>    54.5408     0.0000     0.0000 </r>
       <r>    54.9129     0.0000     0.0000 </r>
       <r>    55.2850     0.0000     0.0000 </r>
       <r>    55.6571     0.0000     0.0000 </r>
       <r>    56.0291     0.0000     0.0000 </r>
       <r>    56.4012     0.0000     0.0000 </r>
       <r>    56.7733     0.0000     0.0000 </r>
       <r>    57.1454     0.0000     0.0000 </r>
       <r>    57.5175     0.0000     0.0000 </r>
       <r>    57.8896     0.0000     0.0000 </r>
       <r>    58.2617     0.0000     0.0000 </r>
       <r>    58.6338     0.0000     0.0000 </r>
       <r>    59.0059     0.0000     0.0000 </r>
       <r>    59.3780     0.0000     0.0000 </r>
       <r>    59.7501     0.0000     0.0000 </r>
       <r>    60.1222     0.0000     0.0000 </r>
       <r>    60.4943     0.0000     0.0000 </r>
       <r>    60.8664     0.0000     0.0000 </r>
       <r>    61.2385     0.0000     0.0000 </r>
       <r>    61.6106     0.0000     0.0000 </r>
       <r>    61.9827     0.0000     0.0000 </r>
       <r>    62.3548     0.0000     0.0000 </r>
       <r>    62.7269     0.0000     0.0000 </r>
       <r>    63.0990     0.0000     0.0000 </r>
       <r>    63.4711     0.0000     0.0000 </r>
       <r>    63.8432     0.0000     0.0000 </r>
       <r>    64.2153     0.0000     0.0000 </r>
       <r>    64.5873     0.0000     0.0000 </r>
       <r>    64.9594     0.0000     0.0000 </r>
       <r>    65.3315     0.0000     0.0000 </r>
       <r>    65.7036     0.0000     0.0000 </r>
       <r>    66.0757     0.0000     0.0000 </r>
       <r>    66.4478     0.0000     0.0000 </r>
       <r>    66.8199     0.0000     0.0000 </r>
       <r>    67.1920     0.0000     0.0000 </r>
       <r>    67.5641     0.0000     0.0000 </r>
       <r>    67.9362     0.0000     0.0000 </r>
       <r>    68.3083     0.0000     0.0000 </r>
       <r>    68.6804     0.0000     0.0000 </r>
       <r>    69.0525     0.0000     0.0000 </r>
       <r>    69.4246     0.0000     0.0000 </r>
       <r>    69.7967     0.0000     0.0000 </r>
       <r>    70.1688     0.0000     0.0000 </r>
       <r>    70.5409     0.0000     0.0000 </r>
       <r>    70.9130     0.0000     0.0000 </r>
       <r>    71.2851     0.0000     0.0000 </r>
       <r>    71.6572     0.0000     0.0000 </r>
       <r>    72.0293     0.0000     0.0000 </r>
       <r>    72.4014     0.0000     0.0000 </r>
       <r>    72.7735     0.0000     0.0000 </r>
       <r>    73.1456     0.0000     0.0000 </r>
       <r>    73.5176     0.0000     0.0000 </r>
       <r>    73.8897     0.0000     0.0000 </r>
       <r>    74.2618     0.0000     0.0000 </r>
       <r>    74.6339     0.0000     0.0000 </r>
       <r>    75.0060     0.0000     0.0000 </r>
       <r>    75.3781     0.0000     0.0000 </r>
       <r>    75.7502     0.0000     0.0000 </r>
       <r>    76.1223     0.0000     0.0000 </r>
       <r>    76.4944     0.0000     0.0000 </r>
       <r>    76.8665     0.0000     0.0000 </r>
       <r>    77.2386     0.0000     0.0000 </r>
       <r>    77.6107     0.0000     0.0000 </r>
       <r>    77.9828     0.0000     0.0000 </r>
       <r>    78.3549     0.0000     0.0000 </r>
       <r>    78.7270     0.0000     0.0000 </r>
       <r>    79.0991     0.0000     0.0000 </r>
       <r>    79.4712     0.0000     0.0000 </r>
       <r>    79.8433     0.0000     0.0000 </r>
       <r>    80.2154     0.0000     0.0000 </r>
       <r>    80.5875     0.0000     0.0000 </r>
       <r>    80.9596     0.0000     0.0000 </r>
       <r>    81.3317     0.0000     0.0000 </r>
       <r>    81.7038     0.0000     0.0000 </r>
       <r>    82.0758     0.0000     0.0000 </r>
       <r>    82.4479     0.0000     0.0000 </r>
       <r>    82.8200     0.0000     0.0000 </r>
       <r>    83.1921     0.0000     0.0000 </r>
       <r>    83.5642     0.0000     0.0000 </r>
       <r>    83.9363     0.0000     0.0000 </r>
       <r>    84.3084     0.0000     0.0000 </r>
       <r>    84.6805     0.0000     0.0000 </r>
       <r>    85.0526     0.0000     0.0000 </r>
       <r>    85.4247     0.0000     0.0000 </r>
      </set>
     </set>
    </array>
   </total>
  </dos>
 </calculation>
 <structure name="finalpos" >
  <crystal>
   <varray name="basis" >
    <v>       3.74748430       0.00000000       0.00000000 </v>
    <v>       1.87374215       3.24541660      -0.00000000 </v>
    <v>       1.87374215       1.08180553       3.05980811 </v>
   </varray>
   <i name="volume">     37.21383833 </i>
   <varray name="rec_basis" >
    <v>       0.26684568      -0.15406343      -0.10893929 </v>
    <v>       0.00000000       0.30812685      -0.10893929 </v>
    <v>      -0.00000000       0.00000000       0.32681788 </v>
   </varray>
  </crystal>
  <varray name="positions" >
   <v>       0.00000000       0.00000000       0.00000000 </v>
  </varray>
  <varray name="velocities" >
   <v>       0.00000000       0.00000000       0.00000000 </v>
  </varray>
 </structure>
</modeling>
