   1   1   0   0
  0.4928368E+02  0.4115343E-09  0.4115343E-09  0.4115343E-09  0.1000000E-15
  1.000000000000000E-004
  CAR 
 Og_FCC                                  
     55.65280614    -22.17991872  301     -3.88922838      1.00000000
    -22.180  0.0000E+00  0.0000E+00
    -21.920  0.0000E+00  0.0000E+00
    -21.661  0.0000E+00  0.0000E+00
    -21.402  0.0000E+00  0.0000E+00
    -21.142  0.0000E+00  0.0000E+00
    -20.883  0.0000E+00  0.0000E+00
    -20.623  0.0000E+00  0.0000E+00
    -20.364  0.0000E+00  0.0000E+00
    -20.104  0.0000E+00  0.0000E+00
    -19.845  0.0000E+00  0.0000E+00
    -19.585  0.0000E+00  0.0000E+00
    -19.326  0.0000E+00  0.0000E+00
    -19.067  0.0000E+00  0.0000E+00
    -18.807  0.0000E+00  0.0000E+00
    -18.548  0.7227E+00  0.4687E+00
    -18.288  0.0000E+00  0.2000E+01
    -18.029  0.0000E+00  0.2000E+01
    -17.769  0.0000E+00  0.2000E+01
    -17.510  0.0000E+00  0.2000E+01
    -17.251  0.0000E+00  0.2000E+01
    -16.991  0.0000E+00  0.2000E+01
    -16.732  0.0000E+00  0.2000E+01
    -16.472  0.0000E+00  0.2000E+01
    -16.213  0.0000E+00  0.2000E+01
    -15.953  0.0000E+00  0.2000E+01
    -15.694  0.0000E+00  0.2000E+01
    -15.434  0.0000E+00  0.2000E+01
    -15.175  0.0000E+00  0.2000E+01
    -14.916  0.0000E+00  0.2000E+01
    -14.656  0.0000E+00  0.2000E+01
    -14.397  0.0000E+00  0.2000E+01
    -14.137  0.0000E+00  0.2000E+01
    -13.878  0.0000E+00  0.2000E+01
    -13.618  0.0000E+00  0.2000E+01
    -13.359  0.0000E+00  0.2000E+01
    -13.099  0.0000E+00  0.2000E+01
    -12.840  0.0000E+00  0.2000E+01
    -12.581  0.0000E+00  0.2000E+01
    -12.321  0.0000E+00  0.2000E+01
    -12.062  0.0000E+00  0.2000E+01
    -11.802  0.0000E+00  0.2000E+01
    -11.543  0.0000E+00  0.2000E+01
    -11.283  0.0000E+00  0.2000E+01
    -11.024  0.0000E+00  0.2000E+01
    -10.764  0.0000E+00  0.2000E+01
    -10.505  0.0000E+00  0.2000E+01
    -10.246  0.0000E+00  0.2000E+01
     -9.986  0.0000E+00  0.2000E+01
     -9.727  0.0000E+00  0.2000E+01
     -9.467  0.0000E+00  0.2000E+01
     -9.208  0.0000E+00  0.2000E+01
     -8.948  0.0000E+00  0.2000E+01
     -8.689  0.0000E+00  0.2000E+01
     -8.429  0.0000E+00  0.2000E+01
     -8.170  0.0000E+00  0.2000E+01
     -7.911  0.0000E+00  0.2000E+01
     -7.651  0.0000E+00  0.2000E+01
     -7.392  0.0000E+00  0.2000E+01
     -7.132  0.0000E+00  0.2000E+01
     -6.873  0.0000E+00  0.2000E+01
     -6.613  0.0000E+00  0.2000E+01
     -6.354  0.0000E+00  0.2000E+01
     -6.094  0.0000E+00  0.2000E+01
     -5.835  0.0000E+00  0.2000E+01
     -5.576  0.0000E+00  0.2000E+01
     -5.316  0.0000E+00  0.3156E+01
     -5.057  0.9249E+00  0.3959E+01
     -4.797  0.0000E+00  0.4156E+01
     -4.538  0.0000E+00  0.5594E+01
     -4.278  0.0000E+00  0.7000E+01
     -4.019  0.0000E+00  0.7938E+01
     -3.760  0.0000E+00  0.8000E+01
     -3.500  0.0000E+00  0.8000E+01
     -3.241  0.0000E+00  0.8000E+01
     -2.981  0.0000E+00  0.8000E+01
     -2.722  0.0000E+00  0.8000E+01
     -2.462  0.0000E+00  0.8000E+01
     -2.203  0.0000E+00  0.8000E+01
     -1.943  0.0000E+00  0.8000E+01
     -1.684  0.0000E+00  0.8000E+01
     -1.425  0.0000E+00  0.8000E+01
     -1.165  0.0000E+00  0.8000E+01
     -0.906  0.0000E+00  0.8000E+01
     -0.646  0.0000E+00  0.8000E+01
     -0.387  0.0000E+00  0.8000E+01
     -0.127  0.0000E+00  0.8000E+01
      0.132  0.0000E+00  0.8000E+01
      0.392  0.0000E+00  0.8000E+01
      0.651  0.0000E+00  0.8000E+01
      0.910  0.0000E+00  0.8000E+01
      1.170  0.0000E+00  0.8000E+01
      1.429  0.0000E+00  0.8000E+01
      1.689  0.0000E+00  0.8000E+01
      1.948  0.0000E+00  0.8000E+01
      2.208  0.0000E+00  0.8000E+01
      2.467  0.0000E+00  0.8000E+01
      2.727  0.0000E+00  0.8000E+01
      2.986  0.0000E+00  0.8000E+01
      3.245  0.0000E+00  0.8031E+01
      3.505  0.0000E+00  0.8031E+01
      3.764  0.0000E+00  0.8031E+01
      4.024  0.0000E+00  0.8031E+01
      4.283  0.0000E+00  0.8031E+01
      4.543  0.0000E+00  0.8281E+01
      4.802  0.0000E+00  0.8469E+01
      5.062  0.0000E+00  0.8469E+01
      5.321  0.2006E-02  0.8469E+01
      5.580  0.0000E+00  0.8688E+01
      5.840  0.0000E+00  0.8688E+01
      6.099  0.0000E+00  0.9812E+01
      6.359  0.0000E+00  0.9812E+01
      6.618  0.0000E+00  0.1009E+02
      6.878  0.0000E+00  0.1009E+02
      7.137  0.0000E+00  0.1084E+02
      7.397  0.0000E+00  0.1084E+02
      7.656  0.8622E+00  0.1125E+02
      7.915  0.4818E+00  0.1228E+02
      8.175  0.0000E+00  0.1253E+02
      8.434  0.0000E+00  0.1328E+02
      8.694  0.0000E+00  0.1328E+02
      8.953  0.0000E+00  0.1347E+02
      9.213  0.0000E+00  0.1372E+02
      9.472  0.0000E+00  0.1409E+02
      9.731  0.0000E+00  0.1459E+02
      9.991  0.0000E+00  0.1497E+02
     10.250  0.0000E+00  0.1572E+02
     10.510  0.0000E+00  0.1609E+02
     10.769  0.0000E+00  0.1609E+02
     11.029  0.0000E+00  0.1609E+02
     11.288  0.0000E+00  0.1647E+02
     11.548  0.0000E+00  0.1697E+02
     11.807  0.0000E+00  0.1703E+02
     12.066  0.0000E+00  0.1778E+02
     12.326  0.0000E+00  0.1778E+02
     12.585  0.0000E+00  0.1797E+02
     12.845  0.0000E+00  0.1819E+02
     13.104  0.0000E+00  0.1856E+02
     13.364  0.0000E+00  0.1856E+02
     13.623  0.0000E+00  0.1891E+02
     13.883  0.0000E+00  0.2041E+02
     14.142  0.0000E+00  0.2041E+02
     14.401  0.0000E+00  0.2078E+02
     14.661  0.0000E+00  0.2209E+02
     14.920  0.0000E+00  0.2222E+02
     15.180  0.0000E+00  0.2231E+02
     15.439  0.0000E+00  0.2241E+02
     15.699  0.0000E+00  0.2278E+02
     15.958  0.0000E+00  0.2353E+02
     16.218  0.0000E+00  0.2472E+02
     16.477  0.0000E+00  0.2497E+02
     16.736  0.0000E+00  0.2553E+02
     16.996  0.0000E+00  0.2591E+02
     17.255  0.0000E+00  0.2594E+02
     17.515  0.0000E+00  0.2612E+02
     17.774  0.0000E+00  0.2612E+02
     18.034  0.0000E+00  0.2612E+02
     18.293  0.0000E+00  0.2675E+02
     18.553  0.0000E+00  0.2775E+02
     18.812  0.0000E+00  0.2800E+02
     19.071  0.0000E+00  0.2800E+02
     19.331  0.0000E+00  0.2809E+02
     19.590  0.0000E+00  0.2828E+02
     19.850  0.3614E+00  0.2856E+02
     20.109  0.0000E+00  0.2931E+02
     20.369  0.0000E+00  0.2994E+02
     20.628  0.0000E+00  0.3094E+02
     20.888  0.0000E+00  0.3169E+02
     21.147  0.0000E+00  0.3169E+02
     21.406  0.0000E+00  0.3169E+02
     21.666  0.0000E+00  0.3169E+02
     21.925  0.0000E+00  0.3206E+02
     22.185  0.0000E+00  0.3306E+02
     22.444  0.0000E+00  0.3353E+02
     22.704  0.0000E+00  0.3431E+02
     22.963  0.0000E+00  0.3469E+02
     23.223  0.3609E+00  0.3622E+02
     23.482  0.4818E+00  0.3656E+02
     23.741  0.0000E+00  0.3731E+02
     24.001  0.0000E+00  0.3781E+02
     24.260  0.0000E+00  0.3812E+02
     24.520  0.0000E+00  0.3897E+02
     24.779  0.0000E+00  0.3900E+02
     25.039  0.0000E+00  0.3906E+02
     25.298  0.0000E+00  0.3906E+02
     25.557  0.0000E+00  0.3906E+02
     25.817  0.0000E+00  0.3906E+02
     26.076  0.2409E+00  0.3912E+02
     26.336  0.1063E-09  0.3916E+02
     26.595  0.0000E+00  0.4022E+02
     26.855  0.0000E+00  0.4022E+02
     27.114  0.0000E+00  0.4059E+02
     27.374  0.0000E+00  0.4059E+02
     27.633  0.0000E+00  0.4116E+02
     27.892  0.2891E+01  0.4284E+02
     28.152  0.9636E+00  0.4347E+02
     28.411  0.0000E+00  0.4434E+02
     28.671  0.0000E+00  0.4478E+02
     28.930  0.2726E-08  0.4656E+02
     29.190  0.0000E+00  0.4781E+02
     29.449  0.0000E+00  0.4844E+02
     29.709  0.0000E+00  0.4862E+02
     29.968  0.0000E+00  0.4938E+02
     30.227  0.0000E+00  0.4947E+02
     30.487  0.0000E+00  0.5022E+02
     30.746  0.0000E+00  0.5047E+02
     31.006  0.0000E+00  0.5122E+02
     31.265  0.0000E+00  0.5172E+02
     31.525  0.0000E+00  0.5231E+02
     31.784  0.0000E+00  0.5234E+02
     32.044  0.0000E+00  0.5234E+02
     32.303  0.0000E+00  0.5347E+02
     32.562  0.0000E+00  0.5366E+02
     32.822  0.0000E+00  0.5366E+02
     33.081  0.0000E+00  0.5441E+02
     33.341  0.0000E+00  0.5441E+02
     33.600  0.0000E+00  0.5441E+02
     33.860  0.4012E-16  0.5516E+02
     34.119  0.0000E+00  0.5609E+02
     34.379  0.0000E+00  0.5609E+02
     34.638  0.0000E+00  0.5609E+02
     34.897  0.0000E+00  0.5628E+02
     35.157  0.9636E+00  0.5728E+02
     35.416  0.0000E+00  0.5728E+02
     35.676  0.0000E+00  0.5784E+02
     35.935  0.0000E+00  0.5841E+02
     36.195  0.0000E+00  0.5916E+02
     36.454  0.0000E+00  0.5991E+02
     36.714  0.0000E+00  0.6159E+02
     36.973  0.0000E+00  0.6188E+02
     37.232  0.0000E+00  0.6225E+02
     37.492  0.0000E+00  0.6350E+02
     37.751  0.0000E+00  0.6444E+02
     38.011  0.0000E+00  0.6556E+02
     38.270  0.0000E+00  0.6644E+02
     38.530  0.0000E+00  0.6750E+02
     38.789  0.0000E+00  0.6750E+02
     39.048  0.0000E+00  0.6825E+02
     39.308  0.0000E+00  0.6844E+02
     39.567  0.2889E+01  0.6972E+02
     39.827  0.0000E+00  0.7059E+02
     40.086  0.0000E+00  0.7153E+02
     40.346  0.0000E+00  0.7166E+02
     40.605  0.0000E+00  0.7266E+02
     40.865  0.0000E+00  0.7294E+02
     41.124  0.3144E+00  0.7302E+02
     41.383  0.0000E+00  0.7331E+02
     41.643  0.0000E+00  0.7331E+02
     41.902  0.0000E+00  0.7350E+02
     42.162  0.4501E-04  0.7359E+02
     42.421  0.0000E+00  0.7394E+02
     42.681  0.0000E+00  0.7444E+02
     42.940  0.2891E+01  0.7519E+02
     43.200  0.0000E+00  0.7556E+02
     43.459  0.0000E+00  0.7650E+02
     43.718  0.0000E+00  0.7678E+02
     43.978  0.0000E+00  0.7678E+02
     44.237  0.4705E+00  0.7690E+02
     44.497  0.0000E+00  0.7753E+02
     44.756  0.0000E+00  0.7916E+02
     45.016  0.0000E+00  0.7925E+02
     45.275  0.0000E+00  0.8028E+02
     45.535  0.0000E+00  0.8028E+02
     45.794  0.3611E+00  0.8275E+02
     46.053  0.9636E+00  0.8300E+02
     46.313  0.0000E+00  0.8375E+02
     46.572  0.4563E-08  0.8406E+02
     46.832  0.0000E+00  0.8469E+02
     47.091  0.0000E+00  0.8556E+02
     47.351  0.0000E+00  0.8572E+02
     47.610  0.0000E+00  0.8691E+02
     47.870  0.0000E+00  0.8831E+02
     48.129  0.0000E+00  0.8988E+02
     48.388  0.0000E+00  0.9025E+02
     48.648  0.0000E+00  0.9081E+02
     48.907  0.0000E+00  0.9175E+02
     49.167  0.0000E+00  0.9212E+02
     49.426  0.0000E+00  0.9212E+02
     49.686  0.0000E+00  0.9275E+02
     49.945  0.0000E+00  0.9397E+02
     50.205  0.0000E+00  0.9434E+02
     50.464  0.0000E+00  0.9509E+02
     50.723  0.0000E+00  0.9572E+02
     50.983  0.0000E+00  0.9591E+02
     51.242  0.0000E+00  0.9591E+02
     51.502  0.0000E+00  0.9591E+02
     51.761  0.0000E+00  0.9591E+02
     52.021  0.0000E+00  0.9591E+02
     52.280  0.0000E+00  0.9600E+02
     52.539  0.0000E+00  0.9600E+02
     52.799  0.0000E+00  0.9600E+02
     53.058  0.0000E+00  0.9600E+02
     53.318  0.0000E+00  0.9600E+02
     53.577  0.0000E+00  0.9600E+02
     53.837  0.0000E+00  0.9600E+02
     54.096  0.0000E+00  0.9600E+02
     54.356  0.0000E+00  0.9600E+02
     54.615  0.0000E+00  0.9600E+02
     54.874  0.0000E+00  0.9600E+02
     55.134  0.0000E+00  0.9600E+02
     55.393  0.0000E+00  0.9600E+02
     55.653  0.0000E+00  0.9600E+02
