    1    1    1    1
  0.4928368E+02  0.4115343E-09  0.4115343E-09  0.4115343E-09  0.1000000E-15
  1.000000000000000E-004
  CAR 
 Og_FCC                                  
      8     64     96
 
  0.0000000E+00  0.0000000E+00  0.0000000E+00  0.1562500E-01
    1      -18.642068   1.000000
    2      -18.642068   1.000000
    3       -4.682038   1.000000
    4       -4.682038   1.000000
    5       -3.990336   1.000000
    6       -3.990336   1.000000
    7       -3.990336   1.000000
    8       -3.990336   1.000000
    9        3.022320   0.000000
   10        3.022320   0.000000
   11        9.358277   0.000000
   12        9.358277   0.000000
   13        9.358277   0.000000
   14        9.358277   0.000000
   15        9.374834   0.000000
   16        9.374834   0.000000
   17       11.696764   0.000000
   18       11.696764   0.000000
   19       11.696764   0.000000
   20       11.696764   0.000000
   21       12.919360   0.000000
   22       12.919360   0.000000
   23       15.266868   0.000000
   24       15.266868   0.000000
   25       15.303868   0.000000
   26       15.303868   0.000000
   27       15.303868   0.000000
   28       15.303868   0.000000
   29       17.220843   0.000000
   30       17.220850   0.000000
   31       24.544099   0.000000
   32       24.544099   0.000000
   33       24.996401   0.000000
   34       24.996401   0.000000
   35       24.996401   0.000000
   36       24.996401   0.000000
   37       26.070913   0.000000
   38       26.070913   0.000000
   39       26.070913   0.000000
   40       26.070913   0.000000
   41       26.126116   0.000000
   42       26.126116   0.000000
   43       28.943838   0.000000
   44       28.943838   0.000000
   45       28.943838   0.000000
   46       28.943838   0.000000
   47       30.002290   0.000000
   48       30.002290   0.000000
   49       30.002290   0.000000
   50       30.002290   0.000000
   51       30.002290   0.000000
   52       30.002290   0.000000
   53       31.534097   0.000000
   54       31.534099   0.000000
   55       38.511523   0.000000
   56       38.511523   0.000000
   57       38.511523   0.000000
   58       38.511524   0.000000
   59       39.499882   0.000000
   60       39.499883   0.000000
   61       39.601616   0.000000
   62       39.601616   0.000000
   63       39.601617   0.000000
   64       39.601617   0.000000
   65       40.682790   0.000000
   66       40.682790   0.000000
   67       41.343819   0.000000
   68       41.343819   0.000000
   69       41.343819   0.000000
   70       41.343819   0.000000
   71       41.371649   0.000000
   72       41.371649   0.000000
   73       42.164185   0.000000
   74       42.164185   0.000000
   75       42.271836   0.000000
   76       42.271836   0.000000
   77       42.271836   0.000000
   78       42.271837   0.000000
   79       44.829642   0.000000
   80       44.829642   0.000000
   81       44.829642   0.000000
   82       44.829642   0.000000
   83       44.829642   0.000000
   84       44.829642   0.000000
   85       45.079407   0.000000
   86       45.079407   0.000000
   87       45.079407   0.000000
   88       45.079407   0.000000
   89       45.079407   0.000000
   90       45.079407   0.000000
   91       45.727155   0.000000
   92       45.727164   0.000000
   93       47.317483   0.000000
   94       47.317483   0.000000
   95       47.317483   0.000000
   96       47.317483   0.000000
 
  0.2500000E+00  0.2480038E-17 -0.2775558E-16  0.1562500E-01
    1      -18.574858   1.000000
    2      -18.574858   1.000000
    3       -5.057956   1.000000
    4       -5.057956   1.000000
    5       -4.352037   1.000000
    6       -4.352037   1.000000
    7       -4.064751   1.000000
    8       -4.064751   1.000000
    9        4.344440   0.000000
   10        4.344441   0.000000
   11        8.067251   0.000000
   12        8.067251   0.000000
   13        9.500429   0.000000
   14        9.500429   0.000000
   15        9.518318   0.000000
   16        9.518318   0.000000
   17       11.392676   0.000000
   18       11.392676   0.000000
   19       11.410721   0.000000
   20       11.410721   0.000000
   21       12.959930   0.000000
   22       12.959932   0.000000
   23       16.429282   0.000000
   24       16.429283   0.000000
   25       18.261699   0.000000
   26       18.261700   0.000000
   27       18.301249   0.000000
   28       18.301249   0.000000
   29       18.717917   0.000000
   30       18.717917   0.000000
   31       20.302279   0.000000
   32       20.302279   0.000000
   33       20.392284   0.000000
   34       20.392284   0.000000
   35       21.969842   0.000000
   36       21.969846   0.000000
   37       26.355192   0.000000
   38       26.355192   0.000000
   39       26.495879   0.000000
   40       26.495879   0.000000
   41       28.148326   0.000000
   42       28.148326   0.000000
   43       28.159404   0.000000
   44       28.159404   0.000000
   45       28.462856   0.000000
   46       28.462857   0.000000
   47       30.516599   0.000000
   48       30.516599   0.000000
   49       32.224324   0.000000
   50       32.224324   0.000000
   51       32.244245   0.000000
   52       32.244245   0.000000
   53       32.272131   0.000000
   54       32.272132   0.000000
   55       35.152449   0.000000
   56       35.152452   0.000000
   57       36.638715   0.000000
   58       36.638715   0.000000
   59       36.656968   0.000000
   60       36.656968   0.000000
   61       38.082831   0.000000
   62       38.082831   0.000000
   63       38.110759   0.000000
   64       38.110759   0.000000
   65       38.340729   0.000000
   66       38.340730   0.000000
   67       39.344972   0.000000
   68       39.344972   0.000000
   69       39.362754   0.000000
   70       39.362754   0.000000
   71       39.666484   0.000000
   72       39.666484   0.000000
   73       40.439498   0.000000
   74       40.439498   0.000000
   75       40.651885   0.000000
   76       40.651885   0.000000
   77       42.602230   0.000000
   78       42.602230   0.000000
   79       42.616220   0.000000
   80       42.616220   0.000000
   81       44.349005   0.000000
   82       44.349005   0.000000
   83       44.403206   0.000000
   84       44.403206   0.000000
   85       46.049760   0.000000
   86       46.049761   0.000000
   87       46.987694   0.000000
   88       46.987694   0.000000
   89       46.992728   0.000000
   90       46.992728   0.000000
   91       48.030116   0.000000
   92       48.030122   0.000000
   93       49.632886   0.000000
   94       49.632886   0.000000
   95       49.644199   0.000000
   96       49.644199   0.000000
 
  0.5000000E+00  0.4960076E-17 -0.5551115E-16  0.1562500E-01
    1      -18.505839   1.000000
    2      -18.505839   1.000000
    3       -5.527467   1.000000
    4       -5.527467   1.000000
    5       -4.502416   1.000000
    6       -4.502416   1.000000
    7       -4.136308   1.000000
    8       -4.136308   1.000000
    9        5.405675   0.000000
   10        5.405675   0.000000
   11        7.911039   0.000000
   12        7.911041   0.000000
   13        8.983783   0.000000
   14        8.983783   0.000000
   15        9.000686   0.000000
   16        9.000686   0.000000
   17       12.641124   0.000000
   18       12.641125   0.000000
   19       13.564227   0.000000
   20       13.564227   0.000000
   21       13.579898   0.000000
   22       13.579898   0.000000
   23       14.775203   0.000000
   24       14.775203   0.000000
   25       16.064860   0.000000
   26       16.064860   0.000000
   27       16.157755   0.000000
   28       16.157755   0.000000
   29       22.592073   0.000000
   30       22.592073   0.000000
   31       23.126793   0.000000
   32       23.126796   0.000000
   33       23.448230   0.000000
   34       23.448230   0.000000
   35       23.475414   0.000000
   36       23.475414   0.000000
   37       23.885870   0.000000
   38       23.885870   0.000000
   39       24.016104   0.000000
   40       24.016104   0.000000
   41       28.207951   0.000000
   42       28.207951   0.000000
   43       28.322652   0.000000
   44       28.322652   0.000000
   45       28.934272   0.000000
   46       28.934278   0.000000
   47       29.045692   0.000000
   48       29.045693   0.000000
   49       29.371964   0.000000
   50       29.371964   0.000000
   51       29.411982   0.000000
   52       29.411982   0.000000
   53       31.217750   0.000000
   54       31.217750   0.000000
   55       31.430980   0.000000
   56       31.430980   0.000000
   57       35.467730   0.000000
   58       35.467732   0.000000
   59       35.554993   0.000000
   60       35.554993   0.000000
   61       35.566827   0.000000
   62       35.566827   0.000000
   63       36.547804   0.000000
   64       36.547804   0.000000
   65       36.548104   0.000000
   66       36.548104   0.000000
   67       37.358978   0.000000
   68       37.358978   0.000000
   69       40.336969   0.000000
   70       40.336970   0.000000
   71       42.375328   0.000000
   72       42.375328   0.000000
   73       42.394743   0.000000
   74       42.394743   0.000000
   75       44.235935   0.000000
   76       44.235935   0.000000
   77       44.279353   0.000000
   78       44.279353   0.000000
   79       44.549824   0.000000
   80       44.549824   0.000000
   81       46.506002   0.000000
   82       46.506002   0.000000
   83       46.576296   0.000000
   84       46.576296   0.000000
   85       46.613928   0.000000
   86       46.613928   0.000000
   87       47.383738   0.000000
   88       47.383738   0.000000
   89       47.452797   0.000000
   90       47.452797   0.000000
   91       49.665847   0.000000
   92       49.665847   0.000000
   93       50.641260   0.000000
   94       50.641260   0.000000
   95       50.685215   0.000000
   96       50.685215   0.000000
 
 -0.2500000E+00 -0.2480038E-17  0.2775558E-16  0.1562500E-01
    1      -18.574858   1.000000
    2      -18.574858   1.000000
    3       -5.057956   1.000000
    4       -5.057956   1.000000
    5       -4.352037   1.000000
    6       -4.352037   1.000000
    7       -4.064751   1.000000
    8       -4.064751   1.000000
    9        4.344440   0.000000
   10        4.344441   0.000000
   11        8.067251   0.000000
   12        8.067251   0.000000
   13        9.500429   0.000000
   14        9.500429   0.000000
   15        9.518318   0.000000
   16        9.518318   0.000000
   17       11.392676   0.000000
   18       11.392676   0.000000
   19       11.410721   0.000000
   20       11.410721   0.000000
   21       12.959930   0.000000
   22       12.959932   0.000000
   23       16.429282   0.000000
   24       16.429283   0.000000
   25       18.261699   0.000000
   26       18.261700   0.000000
   27       18.301249   0.000000
   28       18.301249   0.000000
   29       18.717917   0.000000
   30       18.717917   0.000000
   31       20.302279   0.000000
   32       20.302279   0.000000
   33       20.392284   0.000000
   34       20.392284   0.000000
   35       21.969842   0.000000
   36       21.969846   0.000000
   37       26.355192   0.000000
   38       26.355192   0.000000
   39       26.495879   0.000000
   40       26.495879   0.000000
   41       28.148326   0.000000
   42       28.148326   0.000000
   43       28.159404   0.000000
   44       28.159404   0.000000
   45       28.462856   0.000000
   46       28.462857   0.000000
   47       30.516599   0.000000
   48       30.516599   0.000000
   49       32.224324   0.000000
   50       32.224324   0.000000
   51       32.244245   0.000000
   52       32.244245   0.000000
   53       32.272132   0.000000
   54       32.272132   0.000000
   55       35.152449   0.000000
   56       35.152452   0.000000
   57       36.638715   0.000000
   58       36.638715   0.000000
   59       36.656968   0.000000
   60       36.656968   0.000000
   61       38.082831   0.000000
   62       38.082831   0.000000
   63       38.110759   0.000000
   64       38.110759   0.000000
   65       38.340729   0.000000
   66       38.340730   0.000000
   67       39.344972   0.000000
   68       39.344972   0.000000
   69       39.362754   0.000000
   70       39.362754   0.000000
   71       39.666484   0.000000
   72       39.666484   0.000000
   73       40.439498   0.000000
   74       40.439498   0.000000
   75       40.651885   0.000000
   76       40.651885   0.000000
   77       42.602230   0.000000
   78       42.602230   0.000000
   79       42.616220   0.000000
   80       42.616220   0.000000
   81       44.349005   0.000000
   82       44.349005   0.000000
   83       44.403206   0.000000
   84       44.403206   0.000000
   85       46.049760   0.000000
   86       46.049761   0.000000
   87       46.987694   0.000000
   88       46.987694   0.000000
   89       46.992728   0.000000
   90       46.992728   0.000000
   91       48.030116   0.000000
   92       48.030122   0.000000
   93       49.632886   0.000000
   94       49.632886   0.000000
   95       49.644199   0.000000
   96       49.644199   0.000000
 
 -0.7703720E-33  0.2500000E+00  0.2775558E-16  0.1562500E-01
    1      -18.574858   1.000000
    2      -18.574858   1.000000
    3       -5.057956   1.000000
    4       -5.057956   1.000000
    5       -4.352037   1.000000
    6       -4.352037   1.000000
    7       -4.064751   1.000000
    8       -4.064751   1.000000
    9        4.344440   0.000000
   10        4.344441   0.000000
   11        8.067251   0.000000
   12        8.067251   0.000000
   13        9.500429   0.000000
   14        9.500429   0.000000
   15        9.518318   0.000000
   16        9.518318   0.000000
   17       11.392676   0.000000
   18       11.392676   0.000000
   19       11.410721   0.000000
   20       11.410721   0.000000
   21       12.959930   0.000000
   22       12.959932   0.000000
   23       16.429282   0.000000
   24       16.429283   0.000000
   25       18.261699   0.000000
   26       18.261700   0.000000
   27       18.301249   0.000000
   28       18.301249   0.000000
   29       18.717917   0.000000
   30       18.717917   0.000000
   31       20.302279   0.000000
   32       20.302279   0.000000
   33       20.392284   0.000000
   34       20.392284   0.000000
   35       21.969842   0.000000
   36       21.969846   0.000000
   37       26.355192   0.000000
   38       26.355192   0.000000
   39       26.495879   0.000000
   40       26.495879   0.000000
   41       28.148326   0.000000
   42       28.148326   0.000000
   43       28.159404   0.000000
   44       28.159404   0.000000
   45       28.462856   0.000000
   46       28.462857   0.000000
   47       30.516599   0.000000
   48       30.516599   0.000000
   49       32.224324   0.000000
   50       32.224324   0.000000
   51       32.244245   0.000000
   52       32.244245   0.000000
   53       32.272132   0.000000
   54       32.272132   0.000000
   55       35.152449   0.000000
   56       35.152452   0.000000
   57       36.638715   0.000000
   58       36.638715   0.000000
   59       36.656968   0.000000
   60       36.656968   0.000000
   61       38.082831   0.000000
   62       38.082831   0.000000
   63       38.110759   0.000000
   64       38.110759   0.000000
   65       38.340729   0.000000
   66       38.340731   0.000000
   67       39.344972   0.000000
   68       39.344972   0.000000
   69       39.362754   0.000000
   70       39.362754   0.000000
   71       39.666484   0.000000
   72       39.666484   0.000000
   73       40.439498   0.000000
   74       40.439498   0.000000
   75       40.651885   0.000000
   76       40.651885   0.000000
   77       42.602230   0.000000
   78       42.602230   0.000000
   79       42.616220   0.000000
   80       42.616220   0.000000
   81       44.349005   0.000000
   82       44.349005   0.000000
   83       44.403206   0.000000
   84       44.403206   0.000000
   85       46.049760   0.000000
   86       46.049761   0.000000
   87       46.987694   0.000000
   88       46.987694   0.000000
   89       46.992727   0.000000
   90       46.992728   0.000000
   91       48.030116   0.000000
   92       48.030122   0.000000
   93       49.632886   0.000000
   94       49.632886   0.000000
   95       49.644199   0.000000
   96       49.644199   0.000000
 
  0.2500000E+00  0.2500000E+00  0.0000000E+00  0.1562500E-01
    1      -18.552825   1.000000
    2      -18.552825   1.000000
    3       -5.072400   1.000000
    4       -5.072400   1.000000
    5       -4.441242   1.000000
    6       -4.441242   1.000000
    7       -4.210349   1.000000
    8       -4.210349   1.000000
    9        4.732169   0.000000
   10        4.732170   0.000000
   11        7.539223   0.000000
   12        7.539223   0.000000
   13        8.820051   0.000000
   14        8.820052   0.000000
   15       10.398688   0.000000
   16       10.398688   0.000000
   17       10.447194   0.000000
   18       10.447194   0.000000
   19       12.463744   0.000000
   20       12.463744   0.000000
   21       16.206392   0.000000
   22       16.206396   0.000000
   23       16.718807   0.000000
   24       16.718807   0.000000
   25       16.771663   0.000000
   26       16.771663   0.000000
   27       16.782643   0.000000
   28       16.782643   0.000000
   29       19.347337   0.000000
   30       19.347337   0.000000
   31       19.840476   0.000000
   32       19.840476   0.000000
   33       19.906747   0.000000
   34       19.906747   0.000000
   35       22.971522   0.000000
   36       22.971522   0.000000
   37       23.837137   0.000000
   38       23.837139   0.000000
   39       26.424641   0.000000
   40       26.424641   0.000000
   41       27.869403   0.000000
   42       27.869404   0.000000
   43       27.991618   0.000000
   44       27.991618   0.000000
   45       28.143300   0.000000
   46       28.143300   0.000000
   47       32.164575   0.000000
   48       32.164575   0.000000
   49       32.174100   0.000000
   50       32.174100   0.000000
   51       32.365783   0.000000
   52       32.365783   0.000000
   53       33.865563   0.000000
   54       33.865563   0.000000
   55       35.076258   0.000000
   56       35.076259   0.000000
   57       35.715498   0.000000
   58       35.715498   0.000000
   59       35.777260   0.000000
   60       35.777260   0.000000
   61       36.106032   0.000000
   62       36.106033   0.000000
   63       37.691023   0.000000
   64       37.691024   0.000000
   65       37.768515   0.000000
   66       37.768516   0.000000
   67       39.266761   0.000000
   68       39.266761   0.000000
   69       39.981926   0.000000
   70       39.981926   0.000000
   71       40.516316   0.000000
   72       40.516316   0.000000
   73       40.520285   0.000000
   74       40.520285   0.000000
   75       41.222240   0.000000
   76       41.222240   0.000000
   77       42.960173   0.000000
   78       42.960173   0.000000
   79       43.309217   0.000000
   80       43.309223   0.000000
   81       44.687459   0.000000
   82       44.687459   0.000000
   83       44.690181   0.000000
   84       44.690181   0.000000
   85       45.156574   0.000000
   86       45.156575   0.000000
   87       47.774675   0.000000
   88       47.774675   0.000000
   89       48.088711   0.000000
   90       48.088712   0.000000
   91       48.510967   0.000000
   92       48.510967   0.000000
   93       48.550627   0.000000
   94       48.550627   0.000000
   95       48.692369   0.000000
   96       48.692370   0.000000
 
  0.5000000E+00  0.2500000E+00 -0.2775558E-16  0.1562500E-01
    1      -18.484092   1.000000
    2      -18.484092   1.000000
    3       -5.377302   1.000000
    4       -5.377302   1.000000
    5       -4.697487   1.000000
    6       -4.697487   1.000000
    7       -4.357781   1.000000
    8       -4.357781   1.000000
    9        6.043276   0.000000
   10        6.043277   0.000000
   11        7.109758   0.000000
   12        7.109758   0.000000
   13        8.217139   0.000000
   14        8.217139   0.000000
   15       10.238513   0.000000
   16       10.238513   0.000000
   17       12.028033   0.000000
   18       12.028033   0.000000
   19       13.754448   0.000000
   20       13.754448   0.000000
   21       14.473172   0.000000
   22       14.473172   0.000000
   23       15.924758   0.000000
   24       15.924760   0.000000
   25       15.997095   0.000000
   26       15.997095   0.000000
   27       18.448956   0.000000
   28       18.448956   0.000000
   29       20.507806   0.000000
   30       20.507806   0.000000
   31       20.691723   0.000000
   32       20.691725   0.000000
   33       22.146203   0.000000
   34       22.146205   0.000000
   35       23.061818   0.000000
   36       23.061818   0.000000
   37       23.642812   0.000000
   38       23.642812   0.000000
   39       24.279426   0.000000
   40       24.279427   0.000000
   41       27.744762   0.000000
   42       27.744763   0.000000
   43       27.886428   0.000000
   44       27.886428   0.000000
   45       28.789616   0.000000
   46       28.789617   0.000000
   47       29.010355   0.000000
   48       29.010355   0.000000
   49       29.734912   0.000000
   50       29.734912   0.000000
   51       30.431330   0.000000
   52       30.431332   0.000000
   53       30.914203   0.000000
   54       30.914203   0.000000
   55       32.906572   0.000000
   56       32.906573   0.000000
   57       33.979715   0.000000
   58       33.979718   0.000000
   59       36.286194   0.000000
   60       36.286194   0.000000
   61       36.563002   0.000000
   62       36.563002   0.000000
   63       37.242756   0.000000
   64       37.242756   0.000000
   65       37.686917   0.000000
   66       37.686917   0.000000
   67       38.502146   0.000000
   68       38.502147   0.000000
   69       39.565115   0.000000
   70       39.565115   0.000000
   71       39.835160   0.000000
   72       39.835160   0.000000
   73       42.933441   0.000000
   74       42.933444   0.000000
   75       43.390476   0.000000
   76       43.390477   0.000000
   77       44.520346   0.000000
   78       44.520348   0.000000
   79       45.214280   0.000000
   80       45.214280   0.000000
   81       45.728765   0.000000
   82       45.728766   0.000000
   83       45.744336   0.000000
   84       45.744336   0.000000
   85       47.591344   0.000000
   86       47.591344   0.000000
   87       47.793393   0.000000
   88       47.793393   0.000000
   89       48.117564   0.000000
   90       48.117564   0.000000
   91       48.697737   0.000000
   92       48.697737   0.000000
   93       49.729809   0.000000
   94       49.729809   0.000000
   95       50.383283   0.000000
   96       50.383283   0.000000
 
 -0.2500000E+00  0.2500000E+00  0.2003563E-16  0.1562500E-01
    1      -18.506719   1.000000
    2      -18.506719   1.000000
    3       -5.290269   1.000000
    4       -5.290268   1.000000
    5       -4.678012   1.000000
    6       -4.678012   1.000000
    7       -4.249779   1.000000
    8       -4.249779   1.000000
    9        5.961468   0.000000
   10        5.961469   0.000000
   11        7.655786   0.000000
   12        7.655787   0.000000
   13        7.812563   0.000000
   14        7.812563   0.000000
   15        9.865620   0.000000
   16        9.865620   0.000000
   17       11.176473   0.000000
   18       11.176473   0.000000
   19       13.843337   0.000000
   20       13.843337   0.000000
   21       14.547386   0.000000
   22       14.547386   0.000000
   23       15.605915   0.000000
   24       15.605917   0.000000
   25       16.569648   0.000000
   26       16.569648   0.000000
   27       18.066793   0.000000
   28       18.066793   0.000000
   29       19.869083   0.000000
   30       19.869083   0.000000
   31       21.863615   0.000000
   32       21.863615   0.000000
   33       22.199132   0.000000
   34       22.199132   0.000000
   35       22.913130   0.000000
   36       22.913130   0.000000
   37       22.986822   0.000000
   38       22.986822   0.000000
   39       26.340342   0.000000
   40       26.340347   0.000000
   41       27.080723   0.000000
   42       27.080725   0.000000
   43       27.458584   0.000000
   44       27.458584   0.000000
   45       28.317624   0.000000
   46       28.317624   0.000000
   47       28.740498   0.000000
   48       28.740498   0.000000
   49       29.283478   0.000000
   50       29.283478   0.000000
   51       31.462162   0.000000
   52       31.462162   0.000000
   53       33.711275   0.000000
   54       33.711275   0.000000
   55       33.793764   0.000000
   56       33.793764   0.000000
   57       34.961054   0.000000
   58       34.961054   0.000000
   59       36.133595   0.000000
   60       36.133595   0.000000
   61       37.177836   0.000000
   62       37.177836   0.000000
   63       37.278737   0.000000
   64       37.278737   0.000000
   65       37.821738   0.000000
   66       37.821743   0.000000
   67       38.213619   0.000000
   68       38.213619   0.000000
   69       38.862811   0.000000
   70       38.862811   0.000000
   71       38.990303   0.000000
   72       38.990304   0.000000
   73       39.788693   0.000000
   74       39.788693   0.000000
   75       40.413984   0.000000
   76       40.413984   0.000000
   77       44.510127   0.000000
   78       44.510127   0.000000
   79       46.225850   0.000000
   80       46.225850   0.000000
   81       46.296777   0.000000
   82       46.296777   0.000000
   83       46.805235   0.000000
   84       46.805235   0.000000
   85       47.702292   0.000000
   86       47.702292   0.000000
   87       48.019103   0.000000
   88       48.019103   0.000000
   89       49.058326   0.000000
   90       49.058327   0.000000
   91       49.712088   0.000000
   92       49.712088   0.000000
   93       50.151711   0.000000
   94       50.151713   0.000000
   95       50.640717   0.000000
   96       50.640717   0.000000
 
 -0.1540744E-32  0.5000000E+00  0.5551115E-16  0.1562500E-01
    1      -18.505839   1.000000
    2      -18.505839   1.000000
    3       -5.527467   1.000000
    4       -5.527467   1.000000
    5       -4.502416   1.000000
    6       -4.502416   1.000000
    7       -4.136308   1.000000
    8       -4.136308   1.000000
    9        5.405675   0.000000
   10        5.405675   0.000000
   11        7.911039   0.000000
   12        7.911041   0.000000
   13        8.983783   0.000000
   14        8.983783   0.000000
   15        9.000686   0.000000
   16        9.000686   0.000000
   17       12.641124   0.000000
   18       12.641125   0.000000
   19       13.564227   0.000000
   20       13.564227   0.000000
   21       13.579898   0.000000
   22       13.579898   0.000000
   23       14.775203   0.000000
   24       14.775203   0.000000
   25       16.064860   0.000000
   26       16.064860   0.000000
   27       16.157755   0.000000
   28       16.157755   0.000000
   29       22.592073   0.000000
   30       22.592073   0.000000
   31       23.126793   0.000000
   32       23.126796   0.000000
   33       23.448230   0.000000
   34       23.448230   0.000000
   35       23.475414   0.000000
   36       23.475414   0.000000
   37       23.885870   0.000000
   38       23.885871   0.000000
   39       24.016104   0.000000
   40       24.016104   0.000000
   41       28.207951   0.000000
   42       28.207951   0.000000
   43       28.322652   0.000000
   44       28.322652   0.000000
   45       28.934272   0.000000
   46       28.934278   0.000000
   47       29.045692   0.000000
   48       29.045693   0.000000
   49       29.371964   0.000000
   50       29.371964   0.000000
   51       29.411982   0.000000
   52       29.411982   0.000000
   53       31.217750   0.000000
   54       31.217750   0.000000
   55       31.430980   0.000000
   56       31.430980   0.000000
   57       35.467730   0.000000
   58       35.467732   0.000000
   59       35.554993   0.000000
   60       35.554993   0.000000
   61       35.566827   0.000000
   62       35.566827   0.000000
   63       36.547804   0.000000
   64       36.547804   0.000000
   65       36.548104   0.000000
   66       36.548104   0.000000
   67       37.358978   0.000000
   68       37.358978   0.000000
   69       40.336969   0.000000
   70       40.336970   0.000000
   71       42.375328   0.000000
   72       42.375328   0.000000
   73       42.394743   0.000000
   74       42.394743   0.000000
   75       44.235935   0.000000
   76       44.235935   0.000000
   77       44.279353   0.000000
   78       44.279353   0.000000
   79       44.549824   0.000000
   80       44.549824   0.000000
   81       46.506002   0.000000
   82       46.506002   0.000000
   83       46.576296   0.000000
   84       46.576297   0.000000
   85       46.613928   0.000000
   86       46.613928   0.000000
   87       47.383738   0.000000
   88       47.383738   0.000000
   89       47.452797   0.000000
   90       47.452797   0.000000
   91       49.665847   0.000000
   92       49.665847   0.000000
   93       50.641260   0.000000
   94       50.641261   0.000000
   95       50.685215   0.000000
   96       50.685215   0.000000
 
  0.2500000E+00  0.5000000E+00  0.2775558E-16  0.1562500E-01
    1      -18.484092   1.000000
    2      -18.484092   1.000000
    3       -5.377302   1.000000
    4       -5.377302   1.000000
    5       -4.697487   1.000000
    6       -4.697487   1.000000
    7       -4.357781   1.000000
    8       -4.357781   1.000000
    9        6.043276   0.000000
   10        6.043277   0.000000
   11        7.109758   0.000000
   12        7.109758   0.000000
   13        8.217139   0.000000
   14        8.217139   0.000000
   15       10.238513   0.000000
   16       10.238513   0.000000
   17       12.028033   0.000000
   18       12.028033   0.000000
   19       13.754448   0.000000
   20       13.754448   0.000000