   1   1   0   0
  0.6008441E+02  0.4396350E-09  0.4396350E-09  0.4396350E-09  0.1000000E-15
  1.000000000000000E-004
  CAR 
 Og_FCC                                  
     79.01761776    -46.43723186  301      2.17652237      1.00000000
    -46.437  0.0000E+00  0.0000E+00
    -46.019  0.0000E+00  0.0000E+00
    -45.601  0.0000E+00  0.0000E+00
    -45.183  0.0000E+00  0.0000E+00
    -44.765  0.0000E+00  0.0000E+00
    -44.346  0.0000E+00  0.0000E+00
    -43.928  0.0000E+00  0.0000E+00
    -43.510  0.0000E+00  0.0000E+00
    -43.092  0.0000E+00  0.0000E+00
    -42.674  0.0000E+00  0.0000E+00
    -42.255  0.0000E+00  0.0000E+00
    -41.837  0.0000E+00  0.0000E+00
    -41.419  0.0000E+00  0.0000E+00
    -41.001  0.0000E+00  0.0000E+00
    -40.583  0.0000E+00  0.4000E+01
    -40.164  0.0000E+00  0.4000E+01
    -39.746  0.0000E+00  0.4000E+01
    -39.328  0.0000E+00  0.4000E+01
    -38.910  0.0000E+00  0.4000E+01
    -38.492  0.0000E+00  0.4000E+01
    -38.074  0.0000E+00  0.4000E+01
    -37.655  0.0000E+00  0.4000E+01
    -37.237  0.0000E+00  0.4000E+01
    -36.819  0.0000E+00  0.4000E+01
    -36.401  0.0000E+00  0.4000E+01
    -35.983  0.0000E+00  0.4000E+01
    -35.564  0.0000E+00  0.4000E+01
    -35.146  0.0000E+00  0.4000E+01
    -34.728  0.0000E+00  0.4000E+01
    -34.310  0.0000E+00  0.4000E+01
    -33.892  0.0000E+00  0.4000E+01
    -33.474  0.0000E+00  0.4000E+01
    -33.055  0.0000E+00  0.1000E+02
    -32.637  0.0000E+00  0.1000E+02
    -32.219  0.0000E+00  0.1000E+02
    -31.801  0.0000E+00  0.1000E+02
    -31.383  0.0000E+00  0.1000E+02
    -30.964  0.0000E+00  0.1000E+02
    -30.546  0.0000E+00  0.1000E+02
    -30.128  0.0000E+00  0.1000E+02
    -29.710  0.0000E+00  0.1000E+02
    -29.292  0.0000E+00  0.1000E+02
    -28.874  0.0000E+00  0.1000E+02
    -28.455  0.0000E+00  0.1000E+02
    -28.037  0.0000E+00  0.1000E+02
    -27.619  0.0000E+00  0.1000E+02
    -27.201  0.0000E+00  0.1000E+02
    -26.783  0.0000E+00  0.1000E+02
    -26.364  0.0000E+00  0.1000E+02
    -25.946  0.0000E+00  0.1000E+02
    -25.528  0.0000E+00  0.1000E+02
    -25.110  0.0000E+00  0.1200E+02
    -24.692  0.0000E+00  0.1200E+02
    -24.274  0.0000E+00  0.1200E+02
    -23.855  0.0000E+00  0.1200E+02
    -23.437  0.0000E+00  0.1200E+02
    -23.019  0.0000E+00  0.1200E+02
    -22.601  0.0000E+00  0.1200E+02
    -22.183  0.0000E+00  0.1200E+02
    -21.764  0.0000E+00  0.1200E+02
    -21.346  0.0000E+00  0.1200E+02
    -20.928  0.0000E+00  0.1200E+02
    -20.510  0.0000E+00  0.1200E+02
    -20.092  0.0000E+00  0.1200E+02
    -19.674  0.0000E+00  0.1200E+02
    -19.255  0.0000E+00  0.1200E+02
    -18.837  0.0000E+00  0.1200E+02
    -18.419  0.0000E+00  0.1200E+02
    -18.001  0.0000E+00  0.1200E+02
    -17.583  0.0000E+00  0.1200E+02
    -17.164  0.0000E+00  0.1200E+02
    -16.746  0.0000E+00  0.1200E+02
    -16.328  0.0000E+00  0.1200E+02
    -15.910  0.0000E+00  0.1200E+02
    -15.492  0.0000E+00  0.1200E+02
    -15.074  0.0000E+00  0.1200E+02
    -14.655  0.0000E+00  0.1200E+02
    -14.237  0.0000E+00  0.1200E+02
    -13.819  0.0000E+00  0.1200E+02
    -13.401  0.0000E+00  0.1200E+02
    -12.983  0.0000E+00  0.1200E+02
    -12.564  0.0000E+00  0.1200E+02
    -12.146  0.0000E+00  0.1200E+02
    -11.728  0.0000E+00  0.1200E+02
    -11.310  0.0000E+00  0.1200E+02
    -10.892  0.0000E+00  0.1200E+02
    -10.474  0.8366E-01  0.1366E+02
    -10.055  0.0000E+00  0.1400E+02
     -9.637  0.0000E+00  0.1400E+02
     -9.219  0.0000E+00  0.1400E+02
     -8.801  0.0000E+00  0.1400E+02
     -8.383  0.0000E+00  0.1400E+02
     -7.964  0.0000E+00  0.1400E+02
     -7.546  0.0000E+00  0.1400E+02
     -7.128  0.0000E+00  0.1400E+02
     -6.710  0.0000E+00  0.1400E+02
     -6.292  0.0000E+00  0.1400E+02
     -5.873  0.0000E+00  0.1400E+02
     -5.455  0.0000E+00  0.1400E+02
     -5.037  0.0000E+00  0.1400E+02
     -4.619  0.0000E+00  0.1400E+02
     -4.201  0.0000E+00  0.1400E+02
     -3.783  0.0000E+00  0.1400E+02
     -3.364  0.0000E+00  0.1400E+02
     -2.946  0.0000E+00  0.1400E+02
     -2.528  0.0000E+00  0.1400E+02
     -2.110  0.0000E+00  0.1400E+02
     -1.692  0.0000E+00  0.1400E+02
     -1.273  0.2706E-10  0.1414E+02
     -0.855  0.0000E+00  0.1562E+02
     -0.437  0.5604E-10  0.1570E+02
     -0.019  0.0000E+00  0.1605E+02
      0.399  0.0000E+00  0.1679E+02
      0.817  0.9288E-17  0.1715E+02
      1.236  0.3346E+00  0.1774E+02
      1.654  0.0000E+00  0.1794E+02
      2.072  0.0000E+00  0.1800E+02
      2.490  0.0000E+00  0.1800E+02
      2.908  0.0000E+00  0.1800E+02
      3.327  0.0000E+00  0.1801E+02
      3.745  0.0000E+00  0.1801E+02
      4.163  0.0000E+00  0.1801E+02
      4.581  0.0000E+00  0.1805E+02
      4.999  0.0000E+00  0.1809E+02
      5.417  0.0000E+00  0.1809E+02
      5.836  0.0000E+00  0.1820E+02
      6.254  0.0000E+00  0.1843E+02
      6.672  0.0000E+00  0.1881E+02
      7.090  0.0000E+00  0.1937E+02
      7.508  0.0000E+00  0.1993E+02
      7.927  0.0000E+00  0.2003E+02
      8.345  0.0000E+00  0.2028E+02
      8.763  0.0000E+00  0.2091E+02
      9.181  0.0000E+00  0.2161E+02
      9.599  0.0000E+00  0.2199E+02
     10.017  0.0000E+00  0.2240E+02
     10.436  0.0000E+00  0.2320E+02
     10.854  0.0000E+00  0.2395E+02
     11.272  0.3346E+00  0.2457E+02
     11.690  0.1673E+00  0.2507E+02
     12.108  0.0000E+00  0.2578E+02
     12.527  0.0000E+00  0.2610E+02
     12.945  0.6691E+00  0.2680E+02
     13.363  0.0000E+00  0.2762E+02
     13.781  0.1115E+00  0.2827E+02
     14.199  0.0000E+00  0.2882E+02
     14.617  0.3238E+00  0.2966E+02
     15.036  0.0000E+00  0.3035E+02
     15.454  0.0000E+00  0.3094E+02
     15.872  0.4313E-03  0.3142E+02
     16.290  0.8366E-01  0.3227E+02
     16.708  0.0000E+00  0.3261E+02
     17.127  0.0000E+00  0.3324E+02
     17.545  0.0000E+00  0.3417E+02
     17.963  0.3346E+00  0.3576E+02
     18.381  0.0000E+00  0.3802E+02
     18.799  0.0000E+00  0.4008E+02
     19.217  0.5883E-16  0.4150E+02
     19.636  0.3346E+00  0.4321E+02
     20.054  0.0000E+00  0.4581E+02
     20.472  0.0000E+00  0.4619E+02
     20.890  0.0000E+00  0.4629E+02
     21.308  0.0000E+00  0.4700E+02
     21.727  0.0000E+00  0.4781E+02
     22.145  0.1808E-02  0.4792E+02
     22.563  0.0000E+00  0.4852E+02
     22.981  0.1844E+00  0.4979E+02
     23.399  0.3345E+00  0.5072E+02
     23.817  0.1124E-02  0.5156E+02
     24.236  0.3346E+00  0.5324E+02
     24.654  0.6345E-01  0.5452E+02
     25.072  0.0000E+00  0.5620E+02
     25.490  0.0000E+00  0.5690E+02
     25.908  0.0000E+00  0.5720E+02
     26.327  0.1115E+00  0.5816E+02
     26.745  0.0000E+00  0.5946E+02
     27.163  0.0000E+00  0.6028E+02
     27.581  0.0000E+00  0.6071E+02
     27.999  0.0000E+00  0.6139E+02
     28.417  0.3034E+00  0.6247E+02
     28.836  0.0000E+00  0.6334E+02
     29.254  0.0000E+00  0.6415E+02
     29.672  0.0000E+00  0.6532E+02
     30.090  0.1115E+00  0.6597E+02
     30.508  0.1673E+00  0.6692E+02
     30.927  0.3185E+00  0.6830E+02
     31.345  0.3346E+00  0.6949E+02
     31.763  0.5638E-12  0.7075E+02
     32.181  0.3346E+00  0.7203E+02
     32.599  0.0000E+00  0.7299E+02
     33.018  0.0000E+00  0.7383E+02
     33.436  0.0000E+00  0.7501E+02
     33.854  0.0000E+00  0.7621E+02
     34.272  0.0000E+00  0.7662E+02
     34.690  0.0000E+00  0.7869E+02
     35.108  0.0000E+00  0.7963E+02
     35.527  0.0000E+00  0.8063E+02
     35.945  0.3346E+00  0.8247E+02
     36.363  0.0000E+00  0.8349E+02
     36.781  0.0000E+00  0.8384E+02
     37.199  0.0000E+00  0.8553E+02
     37.618  0.0000E+00  0.8582E+02
     38.036  0.0000E+00  0.8700E+02
     38.454  0.1114E+00  0.8791E+02
     38.872  0.0000E+00  0.8920E+02
     39.290  0.0000E+00  0.8983E+02
     39.708  0.1671E+00  0.9099E+02
     40.127  0.0000E+00  0.9239E+02
     40.545  0.0000E+00  0.9388E+02
     40.963  0.0000E+00  0.9457E+02
     41.381  0.4694E-04  0.9622E+02
     41.799  0.2362E+00  0.9725E+02
     42.218  0.0000E+00  0.9876E+02
     42.636  0.0000E+00  0.9957E+02
     43.054  0.7874E-09  0.1000E+03
     43.472  0.0000E+00  0.1014E+03
     43.890  0.0000E+00  0.1028E+03
     44.308  0.0000E+00  0.1037E+03
     44.727  0.0000E+00  0.1054E+03
     45.145  0.0000E+00  0.1066E+03
     45.563  0.0000E+00  0.1081E+03
     45.981  0.0000E+00  0.1093E+03
     46.399  0.6681E+00  0.1104E+03
     46.818  0.0000E+00  0.1116E+03
     47.236  0.5379E-01  0.1126E+03
     47.654  0.1115E+00  0.1138E+03
     48.072  0.0000E+00  0.1153E+03
     48.490  0.1006E-16  0.1163E+03
     48.908  0.2524E-01  0.1176E+03
     49.327  0.0000E+00  0.1190E+03
     49.745  0.6463E-16  0.1203E+03
     50.163  0.8366E-01  0.1216E+03
     50.581  0.1115E+00  0.1227E+03
     50.999  0.0000E+00  0.1247E+03
     51.418  0.5020E+00  0.1256E+03
     51.836  0.0000E+00  0.1275E+03
     52.254  0.0000E+00  0.1280E+03
     52.672  0.3346E+00  0.1299E+03
     53.090  0.0000E+00  0.1311E+03
     53.508  0.6611E+00  0.1325E+03
     53.927  0.3345E+00  0.1333E+03
     54.345  0.0000E+00  0.1354E+03
     54.763  0.0000E+00  0.1365E+03
     55.181  0.0000E+00  0.1373E+03
     55.599  0.9395E-01  0.1389E+03
     56.018  0.0000E+00  0.1400E+03
     56.436  0.0000E+00  0.1412E+03
     56.854  0.0000E+00  0.1423E+03
     57.272  0.0000E+00  0.1434E+03
     57.690  0.0000E+00  0.1451E+03
     58.108  0.8776E-04  0.1464E+03
     58.527  0.3096E-17  0.1482E+03
     58.945  0.0000E+00  0.1496E+03
     59.363  0.0000E+00  0.1507E+03
     59.781  0.5766E-02  0.1526E+03
     60.199  0.0000E+00  0.1533E+03
     60.618  0.3346E+00  0.1550E+03
     61.036  0.0000E+00  0.1562E+03
     61.454  0.0000E+00  0.1576E+03
     61.872  0.0000E+00  0.1587E+03
     62.290  0.8858E-03  0.1602E+03
     62.708  0.8422E-02  0.1615E+03
     63.127  0.3346E+00  0.1633E+03
     63.545  0.0000E+00  0.1649E+03
     63.963  0.0000E+00  0.1669E+03
     64.381  0.0000E+00  0.1677E+03
     64.799  0.7268E-01  0.1688E+03
     65.218  0.1672E+00  0.1710E+03
     65.636  0.0000E+00  0.1725E+03
     66.054  0.8366E-01  0.1738E+03
     66.472  0.1521E-07  0.1751E+03
     66.890  0.1663E+00  0.1766E+03
     67.308  0.0000E+00  0.1781E+03
     67.727  0.0000E+00  0.1793E+03
     68.145  0.0000E+00  0.1804E+03
     68.563  0.3346E+00  0.1823E+03
     68.981  0.0000E+00  0.1837E+03
     69.399  0.0000E+00  0.1851E+03
     69.818  0.1117E+00  0.1863E+03
     70.236  0.0000E+00  0.1879E+03
     70.654  0.0000E+00  0.1894E+03
     71.072  0.1168E+00  0.1909E+03
     71.490  0.0000E+00  0.1927E+03
     71.909  0.0000E+00  0.1937E+03
     72.327  0.0000E+00  0.1945E+03
     72.745  0.0000E+00  0.1950E+03
     73.163  0.0000E+00  0.1956E+03
     73.581  0.0000E+00  0.1960E+03
     73.999  0.0000E+00  0.1960E+03
     74.418  0.0000E+00  0.1960E+03
     74.836  0.0000E+00  0.1960E+03
     75.254  0.0000E+00  0.1960E+03
     75.672  0.0000E+00  0.1960E+03
     76.090  0.0000E+00  0.1960E+03
     76.509  0.0000E+00  0.1960E+03
     76.927  0.0000E+00  0.1960E+03
     77.345  0.0000E+00  0.1960E+03
     77.763  0.0000E+00  0.1960E+03
     78.181  0.0000E+00  0.1960E+03
     78.599  0.0000E+00  0.1960E+03
     79.018  0.0000E+00  0.1960E+03
