    1    1  999    1
  0.2623385E+02  0.3242103E-09  0.3242103E-09  0.3242103E-09  0.1000000E-15
  1.000000000000000E-004
  CAR 
 Cn_BCC                                  
     12    868     24
 
  0.0000000E+00  0.0000000E+00  0.0000000E+00  0.5787037E-03
    1       -5.751579   1.000000
    2       -5.751575   1.000000
    3       -2.020793   1.000000
    4       -2.020789   1.000000
    5       -2.020771   1.000000
    6       -2.020769   1.000000
    7        0.658520   1.000000
    8        0.658522   1.000000
    9        1.584018   1.000000
   10        1.584021   1.000000
   11        1.584072   1.000000
   12        1.584073   1.000000
   13       13.713182   0.000000
   14       13.713182   0.000000
   15       18.265329   0.000000
   16       18.265330   0.000000
   17       18.265338   0.000000
   18       18.265338   0.000000
   19       18.265479   0.000000
   20       18.265487   0.000000
   21       22.940390   0.000000
   22       22.985316   0.000000
   23       23.383503   0.000000
   24       23.384953   0.000000
 
  0.8333333E-01 -0.3469447E-17  0.6938894E-17  0.1157407E-02
    1       -5.570573   1.000000
    2       -5.570569   1.000000
    3       -2.020843   1.000000
    4       -2.020839   1.000000
    5       -1.992398   1.000000
    6       -1.992396   1.000000
    7        0.691024   1.000000
    8        0.691026   1.000000
    9        1.525384   1.000000
   10        1.525386   1.000000
   11        1.613176   1.000000
   12        1.613177   1.000000
   13       13.232975   0.000000
   14       13.232976   0.000000
   15       18.186024   0.000000
   16       18.186031   0.000000
   17       18.295341   0.000000
   18       18.295349   0.000000
   19       18.485824   0.000000
   20       18.485832   0.000000
   21       20.522577   0.000000
   22       20.522577   0.000000
   23       22.324365   0.000000
   24       22.324731   0.000000
 
  0.1666667E+00  0.0000000E+00  0.0000000E+00  0.1157407E-02
    1       -5.050097   1.000000
    2       -5.050093   1.000000
    3       -2.025391   1.000000
    4       -2.025387   1.000000
    5       -1.916541   1.000000
    6       -1.916540   1.000000
    7        0.808944   1.000000
    8        0.808947   1.000000
    9        1.386541   1.000000
   10        1.386542   1.000000
   11        1.705723   1.000000
   12        1.705724   1.000000
   13       11.830346   0.000000
   14       11.830347   0.000000
   15       17.200880   0.000000
   16       17.200881   0.000000
   17       18.283249   0.000000
   18       18.283253   0.000000
   19       18.974743   0.000000
   20       18.974746   0.000000
   21       19.181181   0.000000
   22       19.181189   0.000000
   23       21.229061   0.000000
   24       21.229069   0.000000
 
  0.2500000E+00  0.0000000E+00  0.0000000E+00  0.1157407E-02
    1       -4.285232   1.000000
    2       -4.285228   1.000000
    3       -2.048062   1.000000
    4       -2.048057   1.000000
    5       -1.764727   1.000000
    6       -1.764726   1.000000
    7        0.999949   1.000000
    8        0.999953   1.000000
    9        1.282620   1.000000
   10        1.282621   1.000000
   11        1.877011   1.000000
   12        1.877013   1.000000
   13        9.748917   0.000000
   14        9.748920   0.000000
   15       15.340663   0.000000
   16       15.340665   0.000000
   17       17.630458   0.000000
   18       17.630462   0.000000
   19       18.881970   0.000000
   20       18.881976   0.000000
   21       20.021792   0.000000
   22       20.021800   0.000000
   23       21.387607   0.000000
   24       21.387620   0.000000
 
  0.3333333E+00  0.2775558E-16 -0.2775558E-16  0.1157407E-02
    1       -3.542825   1.000000
    2       -3.542821   1.000000
    3       -2.093405   1.000000
    4       -2.093401   1.000000
    5       -1.347733   1.000000
    6       -1.347732   1.000000
    7        1.013006   1.000000
    8        1.013009   1.000000
    9        1.499864   1.000000
   10        1.499865   1.000000
   11        2.142406   1.000000
   12        2.142409   1.000000
   13        7.378701   0.000000
   14        7.378705   0.000000
   15       13.824507   0.000000
   16       13.824511   0.000000
   17       16.433094   0.000000
   18       16.433098   0.000000
   19       19.154969   0.000000
   20       19.154974   0.000000
   21       20.978135   0.000000
   22       20.978147   0.000000
   23       22.472017   0.000000
   24       22.473087   0.000000
 
  0.4166667E+00  0.0000000E+00  0.2775558E-16  0.1157407E-02
    1       -3.161050   1.000000
    2       -3.161046   1.000000
    3       -2.137312   1.000000
    4       -2.137308   1.000000
    5       -0.549028   1.000000
    6       -0.549027   1.000000
    7        0.963059   1.000000
    8        0.963062   1.000000
    9        2.001905   1.000000
   10        2.001907   1.000000
   11        2.441184   1.000000
   12        2.441187   1.000000
   13        5.071581  -0.000000
   14        5.071586  -0.000000
   15       12.810546   0.000000
   16       12.810551   0.000000
   17       15.552904   0.000000
   18       15.552907   0.000000
   19       19.428265   0.000000
   20       19.428270   0.000000
   21       21.724563   0.000000
   22       21.724774   0.000000
   23       22.808845   0.000000
   24       22.828961   0.000000
 
  0.5000000E+00  0.0000000E+00  0.0000000E+00  0.5787037E-03
    1       -3.073701   1.000000
    2       -3.073697   1.000000
    3       -2.154607   1.000000
    4       -2.154603   1.000000
    5       -0.082274   1.000000
    6       -0.082272   1.000000
    7        0.951060   1.000000
    8        0.951063   1.000000
    9        2.569809   1.000000
   10        2.569812   1.000000
   11        3.017464   1.003987
   12        3.017467   1.003988
   13        3.282849   0.155835
   14        3.282855   0.155801
   15       12.442094   0.000000
   16       12.442100   0.000000
   17       15.241233   0.000000
   18       15.241236   0.000000
   19       19.545714   0.000000
   20       19.545719   0.000000
   21       22.010737   0.000000
   22       22.010753   0.000000
   23       22.575564   0.000000
   24       22.576295   0.000000
 
  0.0000000E+00  0.8333333E-01  0.6938894E-17  0.1157407E-02
    1       -5.570573   1.000000
    2       -5.570569   1.000000
    3       -2.020843   1.000000
    4       -2.020840   1.000000
    5       -1.992398   1.000000
    6       -1.992396   1.000000
    7        0.691024   1.000000
    8        0.691026   1.000000
    9        1.525384   1.000000
   10        1.525386   1.000000
   11        1.613176   1.000000
   12        1.613177   1.000000
   13       13.232975   0.000000
   14       13.232976   0.000000
   15       18.186023   0.000000
   16       18.186031   0.000000
   17       18.295341   0.000000
   18       18.295349   0.000000
   19       18.485824   0.000000
   20       18.485832   0.000000
   21       20.522577   0.000000
   22       20.522579   0.000000
   23       22.324392   0.000000
   24       22.324442   0.000000
 
  0.8333333E-01  0.8333333E-01  0.4163336E-16  0.1157407E-02
    1       -5.218573   1.000000
    2       -5.218569   1.000000
    3       -2.020702   1.000000
    4       -2.020698   1.000000
    5       -1.945003   1.000000
    6       -1.945001   1.000000
    7        0.767390   1.000000
    8        0.767392   1.000000
    9        1.425373   1.000000
   10        1.425376   1.000000
   11        1.675509   1.000000
   12        1.675510   1.000000
   13       12.308280   0.000000
   14       12.308280   0.000000
   15       17.595613   0.000000
   16       17.595617   0.000000
   17       18.273798   0.000000
   18       18.273803   0.000000
   19       18.724339   0.000000
   20       18.724347   0.000000
   21       19.339900   0.000000
   22       19.339903   0.000000
   23       21.812248   0.000000
   24       21.812280   0.000000
 
  0.1666667E+00  0.8333333E-01  0.1387779E-16  0.1157407E-02
    1       -4.563449   1.000000
    2       -4.563445   1.000000
    3       -2.026599   1.000000
    4       -2.026594   1.000000
    5       -1.858799   1.000000
    6       -1.858797   1.000000
    7        0.936611   1.000000
    8        0.936614   1.000000
    9        1.290266   1.000000
   10        1.290267   1.000000
   11        1.814654   1.000000
   12        1.814655   1.000000
   13       10.628686   0.000000
   14       10.628688   0.000000
   15       15.804833   0.000000
   16       15.804835   0.000000
   17       17.557212   0.000000
   18       17.557216   0.000000
   19       19.172134   0.000000
   20       19.172141   0.000000
   21       19.715720   0.000000
   22       19.715727   0.000000
   23       21.690843   0.000000
   24       21.690831   0.000000
 
  0.2500000E+00  0.8333333E-01  0.0000000E+00  0.1157407E-02
    1       -3.765301   1.000000
    2       -3.765297   1.000000
    3       -2.054687   1.000000
    4       -2.054683   1.000000
    5       -1.637460   1.000000
    6       -1.637458   1.000000
    7        1.049721   1.000000
    8        1.049724   1.000000
    9        1.318640   1.000000
   10        1.318642   1.000000
   11        2.062196   1.000000
   12        2.062197   1.000000
   13        8.481391   0.000000
   14        8.481394   0.000000
   15       14.112423   0.000000
   16       14.112427   0.000000
   17       16.536816   0.000000
   18       16.536820   0.000000
   19       19.591029   0.000000
   20       19.591035   0.000000
   21       20.466724   0.000000
   22       20.466726   0.000000
   23       22.174886   0.000000
   24       22.174931   0.000000
 
  0.3333333E+00  0.8333333E-01  0.0000000E+00  0.1157407E-02
    1       -3.185574   1.000000
    2       -3.185570   1.000000
    3       -2.098605   1.000000
    4       -2.098600   1.000000
    5       -1.030555   1.000000
    6       -1.030553   1.000000
    7        0.988449   1.000000
    8        0.988452   1.000000
    9        1.615239   1.000000
   10        1.615242   1.000000
   11        2.415452   1.000000
   12        2.415455   1.000000
   13        6.234076   0.000000
   14        6.234081   0.000000
   15       12.858270   0.000000
   16       12.858275   0.000000
   17       15.591934   0.000000
   18       15.591937   0.000000
   19       19.847751   0.000000
   20       19.847757   0.000000
   21       21.284871   0.000000
   22       21.284879   0.000000
   23       22.702140   0.000000
   24       22.702083   0.000000
 
  0.4166667E+00  0.8333333E-01  0.1110223E-15  0.1157407E-02
    1       -2.985306   1.000000
    2       -2.985302   1.000000
    3       -2.128964   1.000000
    4       -2.128960   1.000000
    5       -0.267949   1.000000
    6       -0.267947   1.000000
    7        0.939454   1.000000
    8        0.939456   1.000000
    9        2.078313   1.000000
   10        2.078316   1.000000
   11        2.755874   1.000000
   12        2.755876   1.000000
   13        4.330980  -0.000000
   14        4.330985  -0.000000
   15       12.156604   0.000000
   16       12.156609   0.000000
   17       15.051403   0.000000
   18       15.051406   0.000000
   19       20.001469   0.000000
   20       20.001474   0.000000
   21       21.834064   0.000000
   22       21.834073   0.000000
   23       22.597290   0.000000
   24       22.597393   0.000000
 
  0.5000000E+00  0.8333333E-01  0.0000000E+00  0.1157407E-02
    1       -2.985305   1.000000
    2       -2.985301   1.000000
    3       -2.128964   1.000000
    4       -2.128960   1.000000
    5       -0.267948   1.000000
    6       -0.267947   1.000000
    7        0.939453   1.000000
    8        0.939456   1.000000
    9        2.078305   1.000000
   10        2.078307   1.000000
   11        2.755953   1.000000
   12        2.755957   1.000000
   13        4.330908  -0.000000
   14        4.330913  -0.000000
   15       12.156611   0.000000
   16       12.156616   0.000000
   17       15.051407   0.000000
   18       15.051410   0.000000
   19       20.001459   0.000000
   20       20.001464   0.000000
   21       21.834049   0.000000
   22       21.834060   0.000000
   23       22.597645   0.000000
   24       22.597493   0.000000
 
 -0.4166667E+00  0.8333333E-01  0.2775558E-16  0.1157407E-02
    1       -3.185568   1.000000
    2       -3.185564   1.000000
    3       -2.098605   1.000000
    4       -2.098601   1.000000
    5       -1.030544   1.000000
    6       -1.030544   1.000000
    7        0.988446   1.000000
    8        0.988448   1.000000
    9        1.615255   1.000000
   10        1.615257   1.000000
   11        2.415480   1.000000
   12        2.415483   1.000000
   13        6.234023   0.000000
   14        6.234028   0.000000
   15       12.858293   0.000000
   16       12.858297   0.000000
   17       15.591951   0.000000
   18       15.591953   0.000000
   19       19.847718   0.000000
   20       19.847721   0.000000
   21       21.284819   0.000000
   22       21.284824   0.000000
   23       22.701929   0.000000
   24       22.702038   0.000000
 
 -0.3333333E+00  0.8333333E-01  0.1387779E-16  0.1157407E-02
    1       -3.765287   1.000000
    2       -3.765283   1.000000
    3       -2.054686   1.000000
    4       -2.054682   1.000000
    5       -1.637449   1.000000
    6       -1.637448   1.000000
    7        1.049720   1.000000
    8        1.049723   1.000000
    9        1.318651   1.000000
   10        1.318651   1.000000
   11        2.062191   1.000000
   12        2.062194   1.000000
   13        8.481372   0.000000
   14        8.481376   0.000000
   15       14.112464   0.000000
   16       14.112468   0.000000
   17       16.536861   0.000000
   18       16.536864   0.000000
   19       19.590978   0.000000
   20       19.590982   0.000000
   21       20.466645   0.000000
   22       20.466659   0.000000
   23       22.174918   0.000000
   24       22.174935   0.000000
 
 -0.2500000E+00  0.8333333E-01 -0.2775558E-16  0.1157407E-02
    1       -4.563432   1.000000
    2       -4.563428   1.000000
    3       -2.026593   1.000000
    4       -2.026590   1.000000
    5       -1.858792   1.000000
    6       -1.858791   1.000000
    7        0.936615   1.000000
    8        0.936617   1.000000
    9        1.290266   1.000000
   10        1.290266   1.000000
   11        1.814635   1.000000
   12        1.814637   1.000000
   13       10.628705   0.000000
   14       10.628708   0.000000
   15       15.804896   0.000000
   16       15.804899   0.000000
   17       17.557298   0.000000
   18       17.557301   0.000000
   19       19.172084   0.000000
   20       19.172090   0.000000
   21       19.715638   0.000000
   22       19.715643   0.000000
   23       21.690773   0.000000
   24       21.690768   0.000000
 
 -0.1666667E+00  0.8333333E-01 -0.6938894E-17  0.1157407E-02
    1       -5.218560   1.000000
    2       -5.218556   1.000000
    3       -2.020690   1.000000
    4       -2.020687   1.000000
    5       -1.945005   1.000000
    6       -1.945003   1.000000
    7        0.767387   1.000000
    8        0.767389   1.000000
    9        1.425385   1.000000
   10        1.425386   1.000000
   11        1.675481   1.000000
   12        1.675483   1.000000
   13       12.308326   0.000000
   14       12.308327   0.000000
   15       17.595702   0.000000
   16       17.595706   0.000000
   17       18.273909   0.000000
   18       18.273910   0.000000
   19       18.724246   0.000000
   20       18.724254   0.000000
   21       19.339851   0.000000
   22       19.339854   0.000000
   23       21.812112   0.000000
   24       21.812128   0.000000
 
 -0.8333333E-01  0.8333333E-01  0.3372211E-17  0.1157407E-02
    1       -5.570568   1.000000
    2       -5.570564   1.000000
    3       -2.020829   1.000000
    4       -2.020828   1.000000
    5       -1.992408   1.000000
    6       -1.992405   1.000000
    7        0.691022   1.000000
    8        0.691024   1.000000
    9        1.525406   1.000000
   10        1.525407   1.000000
   11        1.613148   1.000000
   12        1.613150   1.000000
   13       13.233004   0.000000
   14       13.233004   0.000000
   15       18.186127   0.000000
   16       18.186134   0.000000
   17       18.295256   0.000000
   18       18.295263   0.000000
   19       18.485825   0.000000
   20       18.485833   0.000000
   21       20.522590   0.000000
   22       20.522592   0.000000
   23       22.324289   0.000000
   24       22.324511   0.000000
 
  0.0000000E+00  0.1666667E+00  0.1387779E-16  0.1157407E-02
    1       -5.050097   1.000000
    2       -5.050093   1.000000
    3       -2.025391   1.000000
    4       -2.025387   1.000000
    5       -1.916541   1.000000
    6       -1.916539   1.000000
    7        0.808944   1.000000
    8        0.808947   1.000000
    9        1.386541   1.000000
   10        1.386542   1.000000
   11        1.705723   1.000000
   12        1.705724   1.000000
   13       11.830346   0.000000
   14       11.830347   0.000000
   15       17.200880   0.000000
   16       17.200881   0.000000
   17       18.283248   0.000000
   18       18.283253   0.000000
   19       18.974743   0.000000
   20       18.974747   0.000000
   21       19.181182   0.000000
   22       19.181188   0.000000
   23       21.229062   0.000000
   24       21.229070   0.000000
 
  0.8333333E-01  0.1666667E+00  0.4163336E-16  0.1157407E-02
    1       -4.563449   1.000000
    2       -4.563445   1.000000
    3       -2.026598   1.000000
    4       -2.026595   1.000000
    5       -1.858799   1.000000
    6       -1.858797   1.000000
    7        0.936611   1.000000
    8        0.936614   1.000000
    9        1.290266   1.000000
   10        1.290267   1.000000
   11        1.814654   1.000000
   12        1.814655   1.000000
   13       10.628686   0.000000
   14       10.628688   0.000000
   15       15.804833   0.000000
   16       15.804835   0.000000
   17       17.557212   0.000000
   18       17.557216   0.000000
   19       19.172134   0.000000
   20       19.172141   0.000000
   21       19.715721   0.000000
   22       19.715728   0.000000
   23       21.690836   0.000000
   24       21.690866   0.000000
 
  0.1666667E+00  0.1666667E+00  0.2775558E-16  0.1157407E-02
    1       -3.838595   1.000000
    2       -3.838591   1.000000
    3       -2.018999   1.000000
    4       -2.018995   1.000000
    5       -1.771229   1.000000
    6       -1.771228   1.000000
    7        1.079088   1.000000
    8        1.079091   1.000000
    9        1.232230   1.000000
   10        1.232232   1.000000
   11        2.047430   1.000000
   12        2.047431   1.000000
   13        8.992905   0.000000
   14        8.992908   0.000000
   15       13.984196   0.000000
   16       13.984198   0.000000
   17       16.581615   0.000000
   18       16.581618   0.000000
   19       19.416330   0.000000
   20       19.416336   0.000000
   21       20.673506   0.000000
   22       20.673511   0.000000
   23       22.611640   0.000000
   24       22.613727   0.000000
 
  0.2500000E+00  0.1666667E+00  0.0000000E+00  0.1157407E-02
    1       -3.124212   1.000000
    2       -3.124208   1.000000
    3       -2.024639   1.000000
    4       -2.024635   1.000000
    5       -1.461765   1.000000
    6       -1.461764   1.000000
    7        1.037165   1.000000
    8        1.037167   1.000000
    9        1.374618   1.000000
   10        1.374620   1.000000
   11        2.420138   1.000000
   12        2.420140   1.000000
   13        7.164148   0.000000
   14        7.164152   0.000000
   15       12.412427   0.000000
   16       12.412431   0.000000
   17       15.685946   0.000000
   18       15.685949   0.000000
   19       19.853536   0.000000
   20       19.853542   0.000000
   21       21.307843   0.000000
   22       21.307865   0.000000
   23       23.166688   0.000000
   24       23.166729   0.000000
 
  0.3333333E+00  0.1666667E+00  0.2775558E-16  0.1157407E-02
    1       -2.778417   1.000000
    2       -2.778413   1.000000
    3       -2.048303   1.000000
    4       -2.048300   1.000000
    5       -0.726849   1.000000
    6       -0.726847   1.000000
    7        0.939650   1.000000
    8        0.939652   1.000000
    9        1.603923   1.000000
   10        1.603926   1.000000
   11        2.709669   1.000000
   12        2.709672   1.000000
   13        5.562590  -0.000000
   14        5.562594  -0.000000
   15       11.318481   0.000000
   16       11.318485   0.000000
   17       15.057449   0.000000
   18       15.057452   0.000000
   19       20.286814   0.000000
   20       20.286817   0.000000
   21       21.672831   0.000000
   22       21.672834   0.000000
   23       22.944283   0.000000
   24       22.944350   0.000000
 
  0.4166667E+00  0.1666667E+00  0.5551115E-16  0.1157407E-02
    1       -2.707786   1.000000
    2       -2.707783   1.000000
    3       -2.059895   1.000000
    4       -2.059891   1.000000
    5       -0.229139   1.000000
    6       -0.229137   1.000000
    7        0.852689   1.000000
    8        0.852691   1.000000
    9        1.853182   1.000000
   10        1.853184   1.000000
   11        2.638239   1.000000
   12        2.638242   1.000000
   13        4.907379  -0.000000
   14        4.907383  -0.000000
   15       10.908721   0.000000
   16       10.908726   0.000000
   17       14.834160   0.000000
   18       14.834162   0.000000
   19       20.469965   0.000000
   20       20.469971   0.000000
   21       21.915256   0.000000
   22       21.915259   0.000000
   23       22.576762   0.000000
   24       22.576810   0.000000
 
  0.5000000E+00  0.1666667E+00  0.5551115E-16  0.1157407E-02
    1       -2.778413   1.000000
    2       -2.778409   1.000000
    3       -2.048305   1.000000
    4       -2.048301   1.000000
    5       -0.726834   1.000000
    6       -0.726834   1.000000
    7        0.939647   1.000000
    8        0.939650   1.000000
    9        1.603940   1.000000
   10        1.603942   1.000000
   11        2.709751   1.000000
   12        2.709755   1.000000
   13        5.562480  -0.000000
   14        5.562485  -0.000000
   15       11.318501   0.000000
   16       11.318506   0.000000
   17       15.057456   0.000000
   18       15.057458   0.000000
   19       20.286777   0.000000
   20       20.286781   0.000000
   21       21.672804   0.000000
   22       21.672814   0.000000
   23       22.944317   0.000000
   24       22.944623   0.000000
 
 -0.4166667E+00  0.1666667E+00 -0.2775558E-16  0.1157407E-02
    1       -3.124193   1.000000
    2       -3.124189   1.000000
    3       -2.024638   1.000000
    4       -2.024634   1.000000
    5       -1.461743   1.000000
    6       -1.461742   1.000000
    7        1.037156   1.000000
    8        1.037159   1.000000
    9        1.374641   1.000000
   10        1.374642   1.000000
   11        2.420168   1.000000
   12        2.420171   1.000000
   13        7.164086   0.000000
   14        7.164091   0.000000
   15       12.412456   0.000000
   16       12.412460   0.000000
   17       15.685974   0.000000
   18       15.685976   0.000000
   19       19.853482   0.000000
   20       19.853488   0.000000
   21       21.307791   0.000000
   22       21.307793   0.000000
   23       23.166779   0.000000
   24       23.166677   0.000000
 
 -0.3333333E+00  0.1666667E+00 -0.1387779E-16  0.1157407E-02
    1       -3.838560   1.000000
    2       -3.838556   1.000000
    3       -2.018989   1.000000
    4       -2.018987   1.000000
    5       -1.771219   1.000000
    6       -1.771218   1.000000
    7        1.079093   1.000000
    8        1.079095   1.000000
    9        1.232232   1.000000
   10        1.232233   1.000000
   11        2.047416   1.000000
   12        2.047418   1.000000
   13        8.992922   0.000000
   14        8.992925   0.000000
   15       13.984226   0.000000
   16       13.984229   0.000000
   17       16.581680   0.000000
   18       16.581682   0.000000
   19       19.416270   0.000000
   20       19.416278   0.000000
   21       20.673436   0.000000
   22       20.673450   0.000000
   23       22.611543   0.000000
   24       22.612061   0.000000
 
 -0.2500000E+00  0.1666667E+00  0.0000000E+00  0.1157407E-02
    1       -4.563416   1.000000
    2       -4.563412   1.000000
    3       -2.026582   1.000000
    4       -2.026580   1.000000
    5       -1.858798   1.000000
    6       -1.858796   1.000000
    7        0.936614   1.000000
    8        0.936616   1.000000
    9        1.290264   1.000000
   10        1.290265   1.000000
   11        1.814621   1.000000
   12        1.814623   1.000000
   13       10.628764   0.000000
   14       10.628766   0.000000
   15       15.804886   0.000000
   16       15.804888   0.000000
   17       17.557290   0.000000
   18       17.557292   0.000000
   19       19.172106   0.000000
   20       19.172113   0.000000
   21       19.715590   0.000000
   22       19.715596   0.000000
   23       21.690691   0.000000
   24       21.690690   0.000000
 
 -0.1666667E+00  0.1666667E+00 -0.1743022E-17  0.1157407E-02
    1       -5.050078   1.000000
    2       -5.050074   1.000000
    3       -2.025374   1.000000
    4       -2.025372   1.000000
    5       -1.916547   1.000000
    6       -1.916545   1.000000
    7        0.808941   1.000000
    8        0.808943   1.000000
    9        1.386549   1.000000
   10        1.386551   1.000000
   11        1.705692   1.000000
   12        1.705694   1.000000
   13       11.830427   0.000000
   14       11.830428   0.000000
   15       17.200979   0.000000
   16       17.200982   0.000000
   17       18.283200   0.000000
   18       18.283206   0.000000
   19       18.974709   0.000000
   20       18.974711   0.000000
   21       19.181164   0.000000
   22       19.181167   0.000000
   23       21.228913   0.000000
   24       21.228914   0.000000
 
 -0.8333333E-01  0.1666667E+00  0.2775558E-16  0.1157407E-02
    1       -5.218560   1.000000
    2       -5.218556   1.000000
    3       -2.020690   1.000000
    4       -2.020688   1.000000
    5       -1.945005   1.000000
    6       -1.945004   1.000000
    7        0.767387   1.000000
    8        0.767389   1.000000
    9        1.425385   1.000000
   10        1.425386   1.000000
   11        1.675481   1.000000
   12        1.675483   1.000000
   13       12.308326   0.000000
   14       12.308327   0.000000
   15       17.595702   0.000000
   16       17.595706   0.000000
   17       18.273909   0.000000
   18       18.273910   0.000000
   19       18.724247   0.000000
   20       18.724254   0.000000
   21       19.339851   0.000000
   22       19.339854   0.000000
   23       21.812115   0.000000
   24       21.812119   0.000000
 
  0.0000000E+00  0.2500000E+00 -0.1387779E-16  0.1157407E-02
    1       -4.285232   1.000000
    2       -4.285228   1.000000
    3       -2.048061   1.000000
    4       -2.048058   1.000000
    5       -1.764727   1.000000
    6       -1.764725   1.000000
    7        0.999950   1.000000
    8        0.999952   1.000000
    9        1.282619   1.000000
   10        1.282621   1.000000
   11        1.877012   1.000000
   12        1.877013   1.000000
   13        9.748917   0.000000
   14        9.748920   0.000000
   15       15.340663   0.000000
   16       15.340664   0.000000
   17       17.630458   0.000000
   18       17.630462   0.000000
   19       18.881970   0.000000
   20       18.881976   0.000000
   21       20.021792   0.000000
   22       20.021809   0.000000
   23       21.387604   0.000000
   24       21.387694   0.000000
 
  0.8333333E-01  0.2500000E+00 -0.5551115E-16  0.1157407E-02
    1       -3.765301   1.000000
    2       -3.765297   1.000000
    3       -2.054687   1.000000
    4       -2.054683   1.000000
    5       -1.637461   1.000000
    6       -1.637458   1.000000
    7        1.049721   1.000000
    8        1.049724   1.000000
    9        1.318640   1.000000
   10        1.318642   1.000000
   11        2.062196   1.000000
   12        2.062197   1.000000
   13        8.481391   0.000000
   14        8.481394   0.000000
   15       14.112424   0.000000
   16       14.112426   0.000000
   17       16.536817   0.000000
   18       16.536820   0.000000
   19       19.591028   0.000000
   20       19.591035   0.000000
   21       20.466718   0.000000
   22       20.466725   0.000000
   23       22.174888   0.000000
   24       22.174897   0.000000
 
  0.1666667E+00  0.2500000E+00  0.0000000E+00  0.1157407E-02
    1       -3.124212   1.000000
    2       -3.124208   1.000000
    3       -2.024638   1.000000
    4       -2.024635   1.000000
    5       -1.461765   1.000000
    6       -1.461763   1.000000
    7        1.037165   1.000000
    8        1.037167   1.000000
    9        1.374618   1.000000
   10        1.374621   1.000000
   11        2.420138   1.000000
   12        2.420140   1.000000
   13        7.164148   0.000000
   14        7.164151   0.000000
   15       12.412427   0.000000
   16       12.412431   0.000000
   17       15.685947   0.000000
   18       15.685949   0.000000
   19       19.853536   0.000000
   20       19.853542   0.000000
   21       21.307841   0.000000
   22       21.307867   0.000000
   23       23.166679   0.000000
   24       23.166765   0.000000
 
  0.2500000E+00  0.2500000E+00 -0.2775558E-16  0.1157407E-02
    1       -2.656258   1.000000
    2       -2.656254   1.000000
    3       -1.962813   1.000000
    4       -1.962812   1.000000
    5       -1.025704   1.000000
    6       -1.025703   1.000000
    7        0.954149   1.000000
    8        0.954150   1.000000
    9        1.448076   1.000000
   10        1.448078   1.000000
   11        2.693338   1.000000
   12        2.693340   1.000000
   13        6.184123   0.000000
   14        6.184127   0.000000
   15       10.762229   0.000000
   16       10.762233   0.000000
   17       15.182762   0.000000
   18       15.182764   0.000000
   19       20.091626   0.000000
   20       20.091632   0.000000