 vasp.5.4.4.18Apr17-6-g9f103f2a35 (build Jul 09 2018 16:43:14) complex          
  
 executed on             LinuxIFC date 2018.11.21  23:04:56
 running on   32 total cores
 distrk:  each k-point on   16 cores,    2 groups
 distr:  one band on NCORES_PER_BAND=   4 cores,    4 groups


--------------------------------------------------------------------------------------------------------


 INCAR:
 POTCAR:    Cn-PAW, fit to 4c-PBE, JanMewes Oct18 

 ----------------------------------------------------------------------------- 
|                                                                             |
|           W    W    AA    RRRRR   N    N  II  N    N   GGGG   !!!           |
|           W    W   A  A   R    R  NN   N  II  NN   N  G    G  !!!           |
|           W    W  A    A  R    R  N N  N  II  N N  N  G       !!!           |
|           W WW W  AAAAAA  RRRRR   N  N N  II  N  N N  G  GGG   !            |
|           WW  WW  A    A  R   R   N   NN  II  N   NN  G    G                |
|           W    W  A    A  R    R  N    N  II  N    N   GGGG   !!!           |
|                                                                             |
|      You have enabled k-point parallelism (KPAR>1).                         |
|      This developmental code was originally  written by Paul Kent at ORNL,  |
|      and carefully double checked in Vienna.                                |
|      GW as well as linear response parallelism added by Martijn Marsman     |
|      and Georg Kresse.                                                      |
|      Carefully verify results versus KPAR=1.                                |
|      Report problems to Paul Kent and Vienna.                               |
|                                                                             |
 ----------------------------------------------------------------------------- 

 POTCAR:    Cn-PAW, fit to 4c-PBE, JanMewes Oct18 
   VRHFIN =Cn : 10d 2s                                                          
   LEXCH  = PE                                                                  
   EATOM  =  1021.7933 eV,   75.0997 Ry                                         
                                                                                
   TITEL  = Cn-PAW, fit to 4c-PBE, JanMewes Oct18                               
   LULTRA =        F    use ultrasoft PP ?                                      
   IUNSCR =        1    unscreen: 0-lin 1-nonlin 2-no                           
   RPACOR =    1.900    partial core radius                                     
   POMASS =    0.010; ZVAL   =   12.000    mass and valenz                      
   RCORE  =    2.700    outmost cutoff radius                                   
   RWIGS  =    2.800; RWIGS  =    1.482    wigner-seitz radius (au A)           
   ENMAX  =  273.073; ENMIN  =  204.805 eV                                      
   ICORE  =        3    local potential                                         
   LCOR   =        T    correct aug charges                                     
   LPAW   =        T    paw PP                                                  
   EAUG   =  361.025                                                            
   DEXC   =   -0.000                                                            
   RMAX   =    2.790    core radius for proj-oper                               
   RAUG   =    1.300    factor for augmentation sphere                          
   RDEP   =    2.775    radius for radial grids                                 
   RDEPT  =    2.135    core radius for aug-charge                              
   QCUT   =   -4.480; QGAM   =    8.960    optimization parameters              
                                                                                
   Atomic configuration                                                         
   21 entries                                                                   
     n  l   j            E        occ.                                          
     1  0  0.50   -193593.9187   2.0000                                         
     2  0  0.50    -39412.0693   2.0000                                         
     2  1  1.50    -29335.4582   6.0000                                         
     3  0  0.50    -10546.4577   2.0000                                         
     3  1  1.50     -7865.5022   6.0000                                         
     3  2  2.50     -6292.8271  10.0000                                         
     4  0  0.50     -3004.9901   2.0000                                         
     4  1  1.50     -2140.4665   6.0000                                         
     4  2  2.50     -1542.0671  10.0000                                         
     4  3  3.50      -986.2983  14.0000                                         
     5  0  0.50      -773.9725   2.0000                                         
     5  1  1.50      -487.4947   6.0000                                         
     5  2  2.50      -269.9971  10.0000                                         
     5  3  3.50       -71.2530  14.0000                                         
     6  0  0.50      -136.5695   2.0000                                         
     6  1  0.50       -97.1736   2.0000                                         
     6  1  1.50       -52.5109   4.0000                                         
     6  2  2.50        -7.9997  10.0000                                         
     7  0  0.50        -9.4823   2.0000                                         
     7  1  1.50        -2.1674   0.0000                                         
     6  3  3.50        -0.0014   0.0000                                         
   Description                                                                  
     l       E           TYP  RCUT    TYP  RCUT                                 
     2     -7.9996624     23  2.300                                             
     2     40.8174780     23  2.600                                             
     0     -9.4822916     23  1.900                                             
     0     68.0291300     23  2.400                                             
     1     -2.1674081     23  2.500                                             
     1     98.6422385     23  2.300                                             
     3     10.8846608      7  2.700                                             
  local pseudopotential read in
  partial core-charges read in
  partial kinetic energy density read in
  kinetic energy density of atom read in
  atomic valenz-charges read in
  non local Contribution for L=           2  read in
    real space projection operators read in
  non local Contribution for L=           2  read in
    real space projection operators read in
  non local Contribution for L=           0  read in
    real space projection operators read in
  non local Contribution for L=           0  read in
    real space projection operators read in
  non local Contribution for L=           1  read in
    real space projection operators read in
  non local Contribution for L=           1  read in
    real space projection operators read in
    PAW grid and wavefunctions read in
 
   number of l-projection  operators is LMAX  =           6
   number of lm-projection operators is LMMAX =          18
 

 ----------------------------------------------------------------------------- 
|                                                                             |
|  ADVICE TO THIS USER RUNNING 'VASP/VAMP'   (HEAR YOUR MASTER'S VOICE ...):  |
|                                                                             |
|      You enforced a specific xc-type in the INCAR file,                     |
|      a different type was found on the POTCAR file                          |
|          I HOPE YOU KNOW, WHAT YOU ARE  DOING                               |
|                                                                             |
 ----------------------------------------------------------------------------- 

  Cn-PAW, fit to 4c-PBE, JanMewes Oct18 :
 energy of atom  1       EATOM=-1021.7933
 kinetic energy error for atom=    0.0069 (will be added to EATOM!!)
 
 
 POSCAR: Cn BCC                                  
  positions in direct lattice
  velocities in cartesian coordinates
 exchange correlation table for  LEXCH =       14
   RHO(1)=    0.500       N(1)  =     2000
   RHO(2)=  100.500       N(2)  =     4000
 


--------------------------------------------------------------------------------------------------------


 ion  position               nearest neighbor table
   1  0.000  0.000  0.000-
 
  LATTYP: Found a trigonal (rhomboedric) cell.
 ALAT       =     3.2421028036
 COS(alpha) =    -0.3333297138
  
  Lattice vectors:
  
 A1 = (   3.2421028035,   0.0000000000,   0.0000000000)
 A2 = (  -1.0806891996,   3.0566879858,   0.0000000000)
 A3 = (  -1.0806891996,  -1.5283190996,   2.6471838191)


Analysis of symmetry for initial positions (statically):
=====================================================================
 Subroutine PRICEL returns:
 Original cell was already a primitive cell.
 

 Routine SETGRP: Setting up the symmetry group for a 
 trigonal (rhombohedral) supercell.


 Subroutine GETGRP returns: Found 12 space group operations
 (whereof 12 operations were pure point group operations)
 out of a pool of 12 trial point group operations.


The static configuration has the point symmetry D_3d.


Analysis of symmetry for dynamics (positions and initial velocities):
=====================================================================
 Subroutine PRICEL returns:
 Original cell was already a primitive cell.
 

 Routine SETGRP: Setting up the symmetry group for a 
 trigonal (rhombohedral) supercell.


 Subroutine GETGRP returns: Found 12 space group operations
 (whereof 12 operations were pure point group operations)
 out of a pool of 12 trial point group operations.


The dynamic configuration has the point symmetry D_3d.


Analysis of structural, dynamic, and magnetic symmetry:
=====================================================================
 Subroutine PRICEL returns:
 Original cell was already a primitive cell.
 

 Routine SETGRP: Setting up the symmetry group for a 
 trigonal (rhombohedral) supercell.


 Subroutine GETGRP returns: Found  2 space group operations
 (whereof  2 operations were pure point group operations)
 out of a pool of 12 trial point group operations.


The (compounded) configuration has the point symmetry S_2 .


 Subroutine INISYM returns: Found  2 space group operations
 (whereof  2 operations are pure point group operations),
 and found     1 'primitive' translations

 
 

Automatic generation of k-mesh.
 generate k-points for:   12   12   12
Space group operators:
 irot       det(A)        alpha          n_x          n_y          n_z        tau_x        tau_y        tau_z
    1     1.000000     0.000001     1.000000     0.000000     0.000000     0.000000     0.000000     0.000000
    2    -1.000000     0.000001     1.000000     0.000000     0.000000     0.000000     0.000000     0.000000
 
 Subroutine IBZKPT returns following result:
 ===========================================
 
 Found    868 irreducible k-points:
 
 Following reciprocal coordinates:
            Coordinates               Weight
  0.000000  0.000000  0.000000      1.000000
  0.083333 -0.000000  0.000000      2.000000
  0.166667  0.000000  0.000000      2.000000
  0.250000  0.000000  0.000000      2.000000
  0.333333  0.000000 -0.000000      2.000000
  0.416667  0.000000  0.000000      2.000000
  0.500000  0.000000  0.000000      1.000000
  0.000000  0.083333  0.000000      2.000000
  0.083333  0.083333  0.000000      2.000000
  0.166667  0.083333  0.000000      2.000000
  0.250000  0.083333  0.000000      2.000000
  0.333333  0.083333  0.000000      2.000000
  0.416667  0.083333  0.000000      2.000000
  0.500000  0.083333  0.000000      2.000000
 -0.416667  0.083333  0.000000      2.000000
 -0.333333  0.083333  0.000000      2.000000
 -0.250000  0.083333 -0.000000      2.000000
 -0.166667  0.083333 -0.000000      2.000000
 -0.083333  0.083333  0.000000      2.000000
  0.000000  0.166667  0.000000      2.000000
  0.083333  0.166667  0.000000      2.000000
  0.166667  0.166667  0.000000      2.000000
  0.250000  0.166667  0.000000      2.000000
  0.333333  0.166667  0.000000      2.000000
  0.416667  0.166667  0.000000      2.000000
  0.500000  0.166667  0.000000      2.000000
 -0.416667  0.166667 -0.000000      2.000000
 -0.333333  0.166667 -0.000000      2.000000
 -0.250000  0.166667  0.000000      2.000000
 -0.166667  0.166667 -0.000000      2.000000
 -0.083333  0.166667  0.000000      2.000000
  0.000000  0.250000 -0.000000      2.000000
  0.083333  0.250000 -0.000000      2.000000
  0.166667  0.250000  0.000000      2.000000
  0.250000  0.250000 -0.000000      2.000000
  0.333333  0.250000  0.000000      2.000000
  0.416667  0.250000 -0.000000      2.000000
  0.500000  0.250000  0.000000      2.000000
 -0.416667  0.250000 -0.000000      2.000000
 -0.333333  0.250000 -0.000000      2.000000
 -0.250000  0.250000 -0.000000      2.000000
 -0.166667  0.250000 -0.000000      2.000000
 -0.083333  0.250000  0.000000      2.000000
  0.000000  0.333333  0.000000      2.000000
  0.083333  0.333333 -0.000000      2.000000
  0.166667  0.333333  0.000000      2.000000
  0.250000  0.333333  0.000000      2.000000
  0.333333  0.333333  0.000000      2.000000
  0.416667  0.333333  0.000000      2.000000
  0.500000  0.333333  0.000000      2.000000
 -0.416667  0.333333  0.000000      2.000000
 -0.333333  0.333333  0.000000      2.000000
 -0.250000  0.333333  0.000000      2.000000
 -0.166667  0.333333  0.000000      2.000000
 -0.083333  0.333333  0.000000      2.000000
  0.000000  0.416667  0.000000      2.000000
  0.083333  0.416667  0.000000      2.000000
  0.166667  0.416667  0.000000      2.000000
  0.250000  0.416667  0.000000      2.000000
  0.333333  0.416667  0.000000      2.000000
  0.416667  0.416667  0.000000      2.000000
  0.500000  0.416667 -0.000000      2.000000
 -0.416667  0.416667 -0.000000      2.000000
 -0.333333  0.416667  0.000000      2.000000
 -0.250000  0.416667  0.000000      2.000000
 -0.166667  0.416667  0.000000      2.000000
 -0.083333  0.416667  0.000000      2.000000
  0.000000  0.500000 -0.000000      1.000000
  0.083333  0.500000 -0.000000      2.000000
  0.166667  0.500000  0.000000      2.000000
  0.250000  0.500000  0.000000      2.000000
  0.333333  0.500000  0.000000      2.000000
  0.416667  0.500000  0.000000      2.000000
  0.500000  0.500000 -0.000000      1.000000
  0.000000  0.000000  0.083333      2.000000
  0.083333 -0.000000  0.083333      2.000000
  0.166667  0.000000  0.083333      2.000000
  0.250000  0.000000  0.083333      2.000000
  0.333333  0.000000  0.083333      2.000000
  0.416667  0.000000  0.083333      2.000000
  0.500000  0.000000  0.083333      2.000000
 -0.416667  0.000000  0.083333      2.000000
 -0.333333 -0.000000  0.083333      2.000000
 -0.250000  0.000000  0.083333      2.000000
 -0.166667  0.000000  0.083333      2.000000
 -0.083333  0.000000  0.083333      2.000000
  0.000000  0.083333  0.083333      2.000000
  0.083333  0.083333  0.083333      2.000000
  0.166667  0.083333  0.083333      2.000000
  0.250000  0.083333  0.083333      2.000000
  0.333333  0.083333  0.083333      2.000000
  0.416667  0.083333  0.083333      2.000000
  0.500000  0.083333  0.083333      2.000000
 -0.416667  0.083333  0.083333      2.000000
 -0.333333  0.083333  0.083333      2.000000
 -0.250000  0.083333  0.083333      2.000000
 -0.166667  0.083333  0.083333      2.000000
 -0.083333  0.083333  0.083333      2.000000
  0.000000  0.166667  0.083333      2.000000
  0.083333  0.166667  0.083333      2.000000
  0.166667  0.166667  0.083333      2.000000
  0.250000  0.166667  0.083333      2.000000
  0.333333  0.166667  0.083333      2.000000
  0.416667  0.166667  0.083333      2.000000
  0.500000  0.166667  0.083333      2.000000
 -0.416667  0.166667  0.083333      2.000000
 -0.333333  0.166667  0.083333      2.000000
 -0.250000  0.166667  0.083333      2.000000
 -0.166667  0.166667  0.083333      2.000000
 -0.083333  0.166667  0.083333      2.000000
  0.000000  0.250000  0.083333      2.000000
  0.083333  0.250000  0.083333      2.000000
  0.166667  0.250000  0.083333      2.000000
  0.250000  0.250000  0.083333      2.000000
  0.333333  0.250000  0.083333      2.000000
  0.416667  0.250000  0.083333      2.000000
  0.500000  0.250000  0.083333      2.000000
 -0.416667  0.250000  0.083333      2.000000
 -0.333333  0.250000  0.083333      2.000000
 -0.250000  0.250000  0.083333      2.000000
 -0.166667  0.250000  0.083333      2.000000
 -0.083333  0.250000  0.083333      2.000000
  0.000000  0.333333  0.083333      2.000000
  0.083333  0.333333  0.083333      2.000000
  0.166667  0.333333  0.083333      2.000000
  0.250000  0.333333  0.083333      2.000000
  0.333333  0.333333  0.083333      2.000000
  0.416667  0.333333  0.083333      2.000000
  0.500000  0.333333  0.083333      2.000000
 -0.416667  0.333333  0.083333      2.000000
 -0.333333  0.333333  0.083333      2.000000
 -0.250000  0.333333  0.083333      2.000000
 -0.166667  0.333333  0.083333      2.000000
 -0.083333  0.333333  0.083333      2.000000
  0.000000  0.416667  0.083333      2.000000
  0.083333  0.416667  0.083333      2.000000
  0.166667  0.416667  0.083333      2.000000
  0.250000  0.416667  0.083333      2.000000
  0.333333  0.416667  0.083333      2.000000
  0.416667  0.416667  0.083333      2.000000
  0.500000  0.416667  0.083333      2.000000
 -0.416667  0.416667  0.083333      2.000000
 -0.333333  0.416667  0.083333      2.000000
 -0.250000  0.416667  0.083333      2.000000
 -0.166667  0.416667  0.083333      2.000000
 -0.083333  0.416667  0.083333      2.000000
  0.000000  0.500000  0.083333      2.000000
  0.083333  0.500000  0.083333      2.000000
  0.166667  0.500000  0.083333      2.000000
  0.250000  0.500000  0.083333      2.000000
  0.333333  0.500000  0.083333      2.000000
  0.416667  0.500000  0.083333      2.000000
  0.500000  0.500000  0.083333      2.000000
 -0.416667  0.500000  0.083333      2.000000
 -0.333333  0.500000  0.083333      2.000000
 -0.250000  0.500000  0.083333      2.000000
 -0.166667  0.500000  0.083333      2.000000
 -0.083333  0.500000  0.083333      2.000000
  0.000000 -0.416667  0.083333      2.000000
  0.083333 -0.416667  0.083333      2.000000
  0.166667 -0.416667  0.083333      2.000000
  0.250000 -0.416667  0.083333      2.000000
  0.333333 -0.416667  0.083333      2.000000
  0.416667 -0.416667  0.083333      2.000000
  0.500000 -0.416667  0.083333      2.000000
 -0.416667 -0.416667  0.083333      2.000000
 -0.333333 -0.416667  0.083333      2.000000
 -0.250000 -0.416667  0.083333      2.000000
 -0.166667 -0.416667  0.083333      2.000000
 -0.083333 -0.416667  0.083333      2.000000
  0.000000 -0.333333  0.083333      2.000000
  0.083333 -0.333333  0.083333      2.000000
  0.166667 -0.333333  0.083333      2.000000
  0.250000 -0.333333  0.083333      2.000000
  0.333333 -0.333333  0.083333      2.000000
  0.416667 -0.333333  0.083333      2.000000
  0.500000 -0.333333  0.083333      2.000000
 -0.416667 -0.333333  0.083333      2.000000
 -0.333333 -0.333333  0.083333      2.000000
 -0.250000 -0.333333  0.083333      2.000000
 -0.166667 -0.333333  0.083333      2.000000
 -0.083333 -0.333333  0.083333      2.000000
  0.000000 -0.250000  0.083333      2.000000
  0.083333 -0.250000  0.083333      2.000000
  0.166667 -0.250000  0.083333      2.000000
  0.250000 -0.250000  0.083333      2.000000
  0.333333 -0.250000  0.083333      2.000000
  0.416667 -0.250000  0.083333      2.000000
  0.500000 -0.250000  0.083333      2.000000
 -0.416667 -0.250000  0.083333      2.000000
 -0.333333 -0.250000  0.083333      2.000000
 -0.250000 -0.250000  0.083333      2.000000
 -0.166667 -0.250000  0.083333      2.000000
 -0.083333 -0.250000  0.083333      2.000000
  0.000000 -0.166667  0.083333      2.000000
  0.083333 -0.166667  0.083333      2.000000
  0.166667 -0.166667  0.083333      2.000000
  0.250000 -0.166667  0.083333      2.000000
  0.333333 -0.166667  0.083333      2.000000
  0.416667 -0.166667  0.083333      2.000000
  0.500000 -0.166667  0.083333      2.000000
 -0.416667 -0.166667  0.083333      2.000000
 -0.333333 -0.166667  0.083333      2.000000
 -0.250000 -0.166667  0.083333      2.000000
 -0.166667 -0.166667  0.083333      2.000000
 -0.083333 -0.166667  0.083333      2.000000
  0.000000 -0.083333  0.083333      2.000000
  0.083333 -0.083333  0.083333      2.000000
  0.166667 -0.083333  0.083333      2.000000
  0.250000 -0.083333  0.083333      2.000000
  0.333333 -0.083333  0.083333      2.000000
  0.416667 -0.083333  0.083333      2.000000
  0.500000 -0.083333  0.083333      2.000000
 -0.416667 -0.083333  0.083333      2.000000
 -0.333333 -0.083333  0.083333      2.000000
 -0.250000 -0.083333  0.083333      2.000000
 -0.166667 -0.083333  0.083333      2.000000
 -0.083333 -0.083333  0.083333      2.000000
  0.000000  0.000000  0.166667      2.000000
  0.083333 -0.000000  0.166667      2.000000
  0.166667  0.000000  0.166667      2.000000
  0.250000  0.000000  0.166667      2.000000
  0.333333  0.000000  0.166667      2.000000
  0.416667  0.000000  0.166667      2.000000
  0.500000  0.000000  0.166667      2.000000
 -0.416667  0.000000  0.166667      2.000000
 -0.333333 -0.000000  0.166667      2.000000
 -0.250000  0.000000  0.166667      2.000000
 -0.166667  0.000000  0.166667      2.000000
 -0.083333  0.000000  0.166667      2.000000
  0.000000  0.083333  0.166667      2.000000
  0.083333  0.083333  0.166667      2.000000
  0.166667  0.083333  0.166667      2.000000
  0.250000  0.083333  0.166667      2.000000
  0.333333  0.083333  0.166667      2.000000
  0.416667  0.083333  0.166667      2.000000
  0.500000  0.083333  0.166667      2.000000
 -0.416667  0.083333  0.166667      2.000000
 -0.333333  0.083333  0.166667      2.000000
 -0.250000  0.083333  0.166667      2.000000
 -0.166667  0.083333  0.166667      2.000000
 -0.083333  0.083333  0.166667      2.000000
  0.000000  0.166667  0.166667      2.000000
  0.083333  0.166667  0.166667      2.000000
  0.166667  0.166667  0.166667      2.000000
  0.250000  0.166667  0.166667      2.000000
  0.333333  0.166667  0.166667      2.000000
  0.416667  0.166667  0.166667      2.000000
  0.500000  0.166667  0.166667      2.000000
 -0.416667  0.166667  0.166667      2.000000
 -0.333333  0.166667  0.166667      2.000000
 -0.250000  0.166667  0.166667      2.000000
 -0.166667  0.166667  0.166667      2.000000
 -0.083333  0.166667  0.166667      2.000000
  0.000000  0.250000  0.166667      2.000000
  0.083333  0.250000  0.166667      2.000000
  0.166667  0.250000  0.166667      2.000000
  0.250000  0.250000  0.166667      2.000000
  0.333333  0.250000  0.166667      2.000000
  0.416667  0.250000  0.166667      2.000000
  0.500000  0.250000  0.166667      2.000000
 -0.416667  0.250000  0.166667      2.000000
 -0.333333  0.250000  0.166667      2.000000
 -0.250000  0.250000  0.166667      2.000000
 -0.166667  0.250000  0.166667      2.000000
 -0.083333  0.250000  0.166667      2.000000
  0.000000  0.333333  0.166667      2.000000
  0.083333  0.333333  0.166667      2.000000
  0.166667  0.333333  0.166667      2.000000
  0.250000  0.333333  0.166667      2.000000
  0.333333  0.333333  0.166667      2.000000
  0.416667  0.333333  0.166667      2.000000
  0.500000  0.333333  0.166667      2.000000
 -0.416667  0.333333  0.166667      2.000000
 -0.333333  0.333333  0.166667      2.000000
 -0.250000  0.333333  0.166667      2.000000
 -0.166667  0.333333  0.166667      2.000000
 -0.083333  0.333333  0.166667      2.000000
  0.000000  0.416667  0.166667      2.000000
  0.083333  0.416667  0.166667      2.000000
  0.166667  0.416667  0.166667      2.000000
  0.250000  0.416667  0.166667      2.000000
  0.333333  0.416667  0.166667      2.000000
  0.416667  0.416667  0.166667      2.000000
  0.500000  0.416667  0.166667      2.000000
 -0.416667  0.416667  0.166667      2.000000
 -0.333333  0.416667  0.166667      2.000000
 -0.250000  0.416667  0.166667      2.000000
 -0.166667  0.416667  0.166667      2.000000
 -0.083333  0.416667  0.166667      2.000000
  0.000000  0.500000  0.166667      2.000000
  0.083333  0.500000  0.166667      2.000000
  0.166667  0.500000  0.166667      2.000000
  0.250000  0.500000  0.166667      2.000000
  0.333333  0.500000  0.166667      2.000000
  0.416667  0.500000  0.166667      2.000000
  0.500000  0.500000  0.166667      2.000000
 -0.416667  0.500000  0.166667      2.000000
 -0.333333  0.500000  0.166667      2.000000
 -0.250000  0.500000  0.166667      2.000000
 -0.166667  0.500000  0.166667      2.000000
 -0.083333  0.500000  0.166667      2.000000
  0.000000 -0.416667  0.166667      2.000000
  0.083333 -0.416667  0.166667      2.000000
  0.166667 -0.416667  0.166667      2.000000
  0.250000 -0.416667  0.166667      2.000000
  0.333333 -0.416667  0.166667      2.000000
  0.416667 -0.416667  0.166667      2.000000
  0.500000 -0.416667  0.166667      2.000000
 -0.416667 -0.416667  0.166667      2.000000
 -0.333333 -0.416667  0.166667      2.000000
 -0.250000 -0.416667  0.166667      2.000000
 -0.166667 -0.416667  0.166667      2.000000
 -0.083333 -0.416667  0.166667      2.000000
  0.000000 -0.333333  0.166667      2.000000
  0.083333 -0.333333  0.166667      2.000000
  0.166667 -0.333333  0.166667      2.000000
  0.250000 -0.333333  0.166667      2.000000
  0.333333 -0.333333  0.166667      2.000000
  0.416667 -0.333333  0.166667      2.000000
  0.500000 -0.333333  0.166667      2.000000
 -0.416667 -0.333333  0.166667      2.000000
 -0.333333 -0.333333  0.166667      2.000000
 -0.250000 -0.333333  0.166667      2.000000
 -0.166667 -0.333333  0.166667      2.000000
 -0.083333 -0.333333  0.166667      2.000000
  0.000000 -0.250000  0.166667      2.000000
  0.083333 -0.250000  0.166667      2.000000
  0.166667 -0.250000  0.166667      2.000000
  0.250000 -0.250000  0.166667      2.000000
  0.333333 -0.250000  0.166667      2.000000
  0.416667 -0.250000  0.166667      2.000000
  0.500000 -0.250000  0.166667      2.000000
 -0.416667 -0.250000  0.166667      2.000000
 -0.333333 -0.250000  0.166667      2.000000
 -0.250000 -0.250000  0.166667      2.000000
 -0.166667 -0.250000  0.166667      2.000000
 -0.083333 -0.250000  0.166667      2.000000
  0.000000 -0.166667  0.166667      2.000000
  0.083333 -0.166667  0.166667      2.000000
  0.166667 -0.166667  0.166667      2.000000
  0.250000 -0.166667  0.166667      2.000000
  0.333333 -0.166667  0.166667      2.000000
  0.416667 -0.166667  0.166667      2.000000
  0.500000 -0.166667  0.166667      2.000000
 -0.416667 -0.166667  0.166667      2.000000
 -0.333333 -0.166667  0.166667      2.000000
 -0.250000 -0.166667  0.166667      2.000000
 -0.166667 -0.166667  0.166667      2.000000
 -0.083333 -0.166667  0.166667      2.000000
  0.000000 -0.083333  0.166667      2.000000
  0.083333 -0.083333  0.166667      2.000000
  0.166667 -0.083333  0.166667      2.000000
  0.250000 -0.083333  0.166667      2.000000
  0.333333 -0.083333  0.166667      2.000000
  0.416667 -0.083333  0.166667      2.000000
  0.500000 -0.083333  0.166667      2.000000
 -0.416667 -0.083333  0.166667      2.000000
 -0.333333 -0.083333  0.166667      2.000000
 -0.250000 -0.083333  0.166667      2.000000
 -0.166667 -0.083333  0.166667      2.000000
 -0.083333 -0.083333  0.166667      2.000000
  0.000000  0.000000  0.250000      2.000000
  0.083333 -0.000000  0.250000      2.000000
  0.166667  0.000000  0.250000      2.000000
  0.250000  0.000000  0.250000      2.000000
  0.333333  0.000000  0.250000      2.000000
  0.416667  0.000000  0.250000      2.000000
  0.500000  0.000000  0.250000      2.000000
 -0.416667  0.000000  0.250000      2.000000
 -0.333333 -0.000000  0.250000      2.000000
 -0.250000  0.000000  0.250000      2.000000
 -0.166667  0.000000  0.250000      2.000000
 -0.083333  0.000000  0.250000      2.000000
  0.000000  0.083333  0.250000      2.000000
  0.083333  0.083333  0.250000      2.000000
  0.166667  0.083333  0.250000      2.000000
  0.250000  0.083333  0.250000      2.000000
  0.333333  0.083333  0.250000      2.000000
  0.416667  0.083333  0.250000      2.000000
  0.500000  0.083333  0.250000      2.000000
 -0.416667  0.083333  0.250000      2.000000
 -0.333333  0.083333  0.250000      2.000000
 -0.250000  0.083333  0.250000      2.000000
 -0.166667  0.083333  0.250000      2.000000
 -0.083333  0.083333  0.250000      2.000000
  0.000000  0.166667  0.250000      2.000000
  0.083333  0.166667  0.250000      2.000000
  0.166667  0.166667  0.250000      2.000000
  0.250000  0.166667  0.250000      2.000000
  0.333333  0.166667  0.250000      2.000000
  0.416667  0.166667  0.250000      2.000000
  0.500000  0.166667  0.250000      2.000000
 -0.416667  0.166667  0.250000      2.000000
 -0.333333  0.166667  0.250000      2.000000
 -0.250000  0.166667  0.250000      2.000000
 -0.166667  0.166667  0.250000      2.000000
 -0.083333  0.166667  0.250000      2.000000
  0.000000  0.250000  0.250000      2.000000
  0.083333  0.250000  0.250000      2.000000
  0.166667  0.250000  0.250000      2.000000
  0.250000  0.250000  0.250000      2.000000
  0.333333  0.250000  0.250000      2.000000
  0.416667  0.250000  0.250000      2.000000
  0.500000  0.250000  0.250000      2.000000
 -0.416667  0.250000  0.250000      2.000000
 -0.333333  0.250000  0.250000      2.000000
 -0.250000  0.250000  0.250000      2.000000
 -0.166667  0.250000  0.250000      2.000000
 -0.083333  0.250000  0.250000      2.000000
  0.000000  0.333333  0.250000      2.000000
  0.083333  0.333333  0.250000      2.000000
  0.166667  0.333333  0.250000      2.000000
  0.250000  0.333333  0.250000      2.000000
  0.333333  0.333333  0.250000      2.000000
  0.416667  0.333333  0.250000      2.000000
  0.500000  0.333333  0.250000      2.000000
 -0.416667  0.333333  0.250000      2.000000
 -0.333333  0.333333  0.250000      2.000000
 -0.250000  0.333333  0.250000      2.000000
 -0.166667  0.333333  0.250000      2.000000
 -0.083333  0.333333  0.250000      2.000000
  0.000000  0.416667  0.250000      2.000000
  0.083333  0.416667  0.250000      2.000000
  0.166667  0.416667  0.250000      2.000000
  0.250000  0.416667  0.250000      2.000000
  0.333333  0.416667  0.250000      2.000000
  0.416667  0.416667  0.250000      2.000000
  0.500000  0.416667  0.250000      2.000000
 -0.416667  0.416667  0.250000      2.000000
 -0.333333  0.416667  0.250000      2.000000
 -0.250000  0.416667  0.250000      2.000000
 -0.166667  0.416667  0.250000      2.000000
 -0.083333  0.416667  0.250000      2.000000
  0.000000  0.500000  0.250000      2.000000
  0.083333  0.500000  0.250000      2.000000
  0.166667  0.500000  0.250000      2.000000
  0.250000  0.500000  0.250000      2.000000
  0.333333  0.500000  0.250000      2.000000
  0.416667  0.500000  0.250000      2.000000
  0.500000  0.500000  0.250000      2.000000
 -0.416667  0.500000  0.250000      2.000000
 -0.333333  0.500000  0.250000      2.000000
 -0.250000  0.500000  0.250000      2.000000
 -0.166667  0.500000  0.250000      2.000000
 -0.083333  0.500000  0.250000      2.000000
  0.000000 -0.416667  0.250000      2.000000
  0.083333 -0.416667  0.250000      2.000000
  0.166667 -0.416667  0.250000      2.000000
  0.250000 -0.416667  0.250000      2.000000
  0.333333 -0.416667  0.250000      2.000000
  0.416667 -0.416667  0.250000      2.000000
  0.500000 -0.416667  0.250000      2.000000
 -0.416667 -0.416667  0.250000      2.000000
 -0.333333 -0.416667  0.250000      2.000000
 -0.250000 -0.416667  0.250000      2.000000
 -0.166667 -0.416667  0.250000      2.000000
 -0.083333 -0.416667  0.250000      2.000000
  0.000000 -0.333333  0.250000      2.000000
  0.083333 -0.333333  0.250000      2.000000
  0.166667 -0.333333  0.250000      2.000000
  0.250000 -0.333333  0.250000      2.000000
  0.333333 -0.333333  0.250000      2.000000
  0.416667 -0.333333  0.250000      2.000000
  0.500000 -0.333333  0.250000      2.000000
 -0.416667 -0.333333  0.250000      2.000000
 -0.333333 -0.333333  0.250000      2.000000
 -0.250000 -0.333333  0.250000      2.000000
 -0.166667 -0.333333  0.250000      2.000000
 -0.083333 -0.333333  0.250000      2.000000
  0.000000 -0.250000  0.250000      2.000000
  0.083333 -0.250000  0.250000      2.000000
  0.166667 -0.250000  0.250000      2.000000
  0.250000 -0.250000  0.250000      2.000000
  0.333333 -0.250000  0.250000      2.000000
  0.416667 -0.250000  0.250000      2.000000
  0.500000 -0.250000  0.250000      2.000000
 -0.416667 -0.250000  0.250000      2.000000
 -0.333333 -0.250000  0.250000      2.000000
 -0.250000 -0.250000  0.250000      2.000000
 -0.166667 -0.250000  0.250000      2.000000
 -0.083333 -0.250000  0.250000      2.000000
  0.000000 -0.166667  0.250000      2.000000
  0.083333 -0.166667  0.250000      2.000000
  0.166667 -0.166667  0.250000      2.000000
  0.250000 -0.166667  0.250000      2.000000
  0.333333 -0.166667  0.250000      2.000000
  0.416667 -0.166667  0.250000      2.000000
  0.500000 -0.166667  0.250000      2.000000
 -0.416667 -0.166667  0.250000      2.000000
 -0.333333 -0.166667  0.250000      2.000000
 -0.250000 -0.166667  0.250000      2.000000
 -0.166667 -0.166667  0.250000      2.000000
 -0.083333 -0.166667  0.250000      2.000000
  0.000000 -0.083333  0.250000      2.000000
  0.083333 -0.083333  0.250000      2.000000
  0.166667 -0.083333  0.250000      2.000000
  0.250000 -0.083333  0.250000      2.000000
  0.333333 -0.083333  0.250000      2.000000
  0.416667 -0.083333  0.250000      2.000000
  0.500000 -0.083333  0.250000      2.000000
 -0.416667 -0.083333  0.250000      2.000000
 -0.333333 -0.083333  0.250000      2.000000
 -0.250000 -0.083333  0.250000      2.000000
 -0.166667 -0.083333  0.250000      2.000000
 -0.083333 -0.083333  0.250000      2.000000
  0.000000  0.000000  0.333333      2.000000
  0.083333 -0.000000  0.333333      2.000000
  0.166667  0.000000  0.333333      2.000000
  0.250000  0.000000  0.333333      2.000000
  0.333333  0.000000  0.333333      2.000000
  0.416667  0.000000  0.333333      2.000000
  0.500000  0.000000  0.333333      2.000000
 -0.416667  0.000000  0.333333      2.000000
 -0.333333 -0.000000  0.333333      2.000000
 -0.250000  0.000000  0.333333      2.000000
 -0.166667  0.000000  0.333333      2.000000
 -0.083333  0.000000  0.333333      2.000000
  0.000000  0.083333  0.333333      2.000000
  0.083333  0.083333  0.333333      2.000000
  0.166667  0.083333  0.333333      2.000000
  0.250000  0.083333  0.333333      2.000000
  0.333333  0.083333  0.333333      2.000000
  0.416667  0.083333  0.333333      2.000000
  0.500000  0.083333  0.333333      2.000000
 -0.416667  0.083333  0.333333      2.000000
 -0.333333  0.083333  0.333333      2.000000
 -0.250000  0.083333  0.333333      2.000000
 -0.166667  0.083333  0.333333      2.000000
 -0.083333  0.083333  0.333333      2.000000
  0.000000  0.166667  0.333333      2.000000
  0.083333  0.166667  0.333333      2.000000
  0.166667  0.166667  0.333333      2.000000
  0.250000  0.166667  0.333333      2.000000
  0.333333  0.166667  0.333333      2.000000
  0.416667  0.166667  0.333333      2.000000
  0.500000  0.166667  0.333333      2.000000
 -0.416667  0.166667  0.333333      2.000000
 -0.333333  0.166667  0.333333      2.000000
 -0.250000  0.166667  0.333333      2.000000
 -0.166667  0.166667  0.333333      2.000000
 -0.083333  0.166667  0.333333      2.000000
  0.000000  0.250000  0.333333      2.000000
  0.083333  0.250000  0.333333      2.000000
  0.166667  0.250000  0.333333      2.000000
  0.250000  0.250000  0.333333      2.000000
  0.333333  0.250000  0.333333      2.000000
  0.416667  0.250000  0.333333      2.000000
  0.500000  0.250000  0.333333      2.000000
 -0.416667  0.250000  0.333333      2.000000
 -0.333333  0.250000  0.333333      2.000000
 -0.250000  0.250000  0.333333      2.000000
 -0.166667  0.250000  0.333333      2.000000
 -0.083333  0.250000  0.333333      2.000000
  0.000000  0.333333  0.333333      2.000000
  0.083333  0.333333  0.333333      2.000000
  0.166667  0.333333  0.333333      2.000000
  0.250000  0.333333  0.333333      2.000000
  0.333333  0.333333  0.333333      2.000000
  0.416667  0.333333  0.333333      2.000000
  0.500000  0.333333  0.333333      2.000000
 -0.416667  0.333333  0.333333      2.000000
 -0.333333  0.333333  0.333333      2.000000
 -0.250000  0.333333  0.333333      2.000000
 -0.166667  0.333333  0.333333      2.000000
 -0.083333  0.333333  0.333333      2.000000
  0.000000  0.416667  0.333333      2.000000
  0.083333  0.416667  0.333333      2.000000
  0.166667  0.416667  0.333333      2.000000
  0.250000  0.416667  0.333333      2.000000
  0.333333  0.416667  0.333333      2.000000
  0.416667  0.416667  0.333333      2.000000
  0.500000  0.416667  0.333333      2.000000
 -0.416667  0.416667  0.333333      2.000000
 -0.333333  0.416667  0.333333      2.000000
 -0.250000  0.416667  0.333333      2.000000
 -0.166667  0.416667  0.333333      2.000000
 -0.083333  0.416667  0.333333      2.000000
  0.000000  0.500000  0.333333      2.000000
  0.083333  0.500000  0.333333      2.000000
  0.166667  0.500000  0.333333      2.000000
  0.250000  0.500000  0.333333      2.000000
  0.333333  0.500000  0.333333      2.000000
  0.416667  0.500000  0.333333      2.000000
  0.500000  0.500000  0.333333      2.000000
 -0.416667  0.500000  0.333333      2.000000
 -0.333333  0.500000  0.333333      2.000000
 -0.250000  0.500000  0.333333      2.000000
 -0.166667  0.500000  0.333333      2.000000
 -0.083333  0.500000  0.333333      2.000000
  0.000000 -0.416667  0.333333      2.000000
  0.083333 -0.416667  0.333333      2.000000
  0.166667 -0.416667  0.333333      2.000000
  0.250000 -0.416667  0.333333      2.000000
  0.333333 -0.416667  0.333333      2.000000
  0.416667 -0.416667  0.333333      2.000000
  0.500000 -0.416667  0.333333      2.000000
 -0.416667 -0.416667  0.333333      2.000000
 -0.333333 -0.416667  0.333333      2.000000
 -0.250000 -0.416667  0.333333      2.000000
 -0.166667 -0.416667  0.333333      2.000000
 -0.083333 -0.416667  0.333333      2.000000
  0.000000 -0.333333  0.333333      2.000000
  0.083333 -0.333333  0.333333      2.000000
  0.166667 -0.333333  0.333333      2.000000
  0.250000 -0.333333  0.333333      2.000000
  0.333333 -0.333333  0.333333      2.000000
  0.416667 -0.333333  0.333333      2.000000
  0.500000 -0.333333  0.333333      2.000000
 -0.416667 -0.333333  0.333333      2.000000
 -0.333333 -0.333333  0.333333      2.000000
 -0.250000 -0.333333  0.333333      2.000000
 -0.166667 -0.333333  0.333333      2.000000
 -0.083333 -0.333333  0.333333      2.000000
  0.000000 -0.250000  0.333333      2.000000
  0.083333 -0.250000  0.333333      2.000000
  0.166667 -0.250000  0.333333      2.000000
  0.250000 -0.250000  0.333333      2.000000
  0.333333 -0.250000  0.333333      2.000000
  0.416667 -0.250000  0.333333      2.000000
  0.500000 -0.250000  0.333333      2.000000
 -0.416667 -0.250000  0.333333      2.000000
 -0.333333 -0.250000  0.333333      2.000000
 -0.250000 -0.250000  0.333333      2.000000
 -0.166667 -0.250000  0.333333      2.000000
 -0.083333 -0.250000  0.333333      2.000000
  0.000000 -0.166667  0.333333      2.000000
  0.083333 -0.166667  0.333333      2.000000
  0.166667 -0.166667  0.333333      2.000000
  0.250000 -0.166667  0.333333      2.000000
  0.333333 -0.166667  0.333333      2.000000
  0.416667 -0.166667  0.333333      2.000000
  0.500000 -0.166667  0.333333      2.000000
 -0.416667 -0.166667  0.333333      2.000000
 -0.333333 -0.166667  0.333333      2.000000
 -0.250000 -0.166667  0.333333      2.000000
 -0.166667 -0.166667  0.333333      2.000000
 -0.083333 -0.166667  0.333333      2.000000
  0.000000 -0.083333  0.333333      2.000000
  0.083333 -0.083333  0.333333      2.000000
  0.166667 -0.083333  0.333333      2.000000
  0.250000 -0.083333  0.333333      2.000000
  0.333333 -0.083333  0.333333      2.000000
  0.416667 -0.083333  0.333333      2.000000
  0.500000 -0.083333  0.333333      2.000000
 -0.416667 -0.083333  0.333333      2.000000
 -0.333333 -0.083333  0.333333      2.000000
 -0.250000 -0.083333  0.333333      2.000000
 -0.166667 -0.083333  0.333333      2.000000
 -0.083333 -0.083333  0.333333      2.000000
  0.000000  0.000000  0.416667      2.000000
  0.083333 -0.000000  0.416667      2.000000
  0.166667  0.000000  0.416667      2.000000
  0.250000  0.000000  0.416667      2.000000
  0.333333  0.000000  0.416667      2.000000
  0.416667  0.000000  0.416667      2.000000
  0.500000  0.000000  0.416667      2.000000
 -0.416667  0.000000  0.416667      2.000000
 -0.333333 -0.000000  0.416667      2.000000
 -0.250000  0.000000  0.416667      2.000000
 -0.166667  0.000000  0.416667      2.000000
 -0.083333  0.000000  0.416667      2.000000
  0.000000  0.083333  0.416667      2.000000
  0.083333  0.083333  0.416667      2.000000
  0.166667  0.083333  0.416667      2.000000
  0.250000  0.083333  0.416667      2.000000
  0.333333  0.083333  0.416667      2.000000
  0.416667  0.083333  0.416667      2.000000
  0.500000  0.083333  0.416667      2.000000
 -0.416667  0.083333  0.416667      2.000000
 -0.333333  0.083333  0.416667      2.000000
 -0.250000  0.083333  0.416667      2.000000
 -0.166667  0.083333  0.416667      2.000000
 -0.083333  0.083333  0.416667      2.000000
  0.000000  0.166667  0.416667      2.000000
  0.083333  0.166667  0.416667      2.000000
  0.166667  0.166667  0.416667      2.000000
  0.250000  0.166667  0.416667      2.000000
  0.333333  0.166667  0.416667      2.000000
  0.416667  0.166667  0.416667      2.000000
  0.500000  0.166667  0.416667      2.000000
 -0.416667  0.166667  0.416667      2.000000
 -0.333333  0.166667  0.416667      2.000000
 -0.250000  0.166667  0.416667      2.000000
 -0.166667  0.166667  0.416667      2.000000
 -0.083333  0.166667  0.416667      2.000000
  0.000000  0.250000  0.416667      2.000000
  0.083333  0.250000  0.416667      2.000000
  0.166667  0.250000  0.416667      2.000000
  0.250000  0.250000  0.416667      2.000000
  0.333333  0.250000  0.416667      2.000000
  0.416667  0.250000  0.416667      2.000000
  0.500000  0.250000  0.416667      2.000000
 -0.416667  0.250000  0.416667      2.000000
 -0.333333  0.250000  0.416667      2.000000
 -0.250000  0.250000  0.416667      2.000000
 -0.166667  0.250000  0.416667      2.000000
 -0.083333  0.250000  0.416667      2.000000
  0.000000  0.333333  0.416667      2.000000
  0.083333  0.333333  0.416667      2.000000
  0.166667  0.333333  0.416667      2.000000
  0.250000  0.333333  0.416667      2.000000
  0.333333  0.333333  0.416667      2.000000
  0.416667  0.333333  0.416667      2.000000
  0.500000  0.333333  0.416667      2.000000
 -0.416667  0.333333  0.416667      2.000000
 -0.333333  0.333333  0.416667      2.000000
 -0.250000  0.333333  0.416667      2.000000
 -0.166667  0.333333  0.416667      2.000000
 -0.083333  0.333333  0.416667      2.000000
  0.000000  0.416667  0.416667      2.000000
  0.083333  0.416667  0.416667      2.000000
  0.166667  0.416667  0.416667      2.000000
  0.250000  0.416667  0.416667      2.000000
  0.333333  0.416667  0.416667      2.000000
  0.416667  0.416667  0.416667      2.000000
  0.500000  0.416667  0.416667      2.000000
 -0.416667  0.416667  0.416667      2.000000
 -0.333333  0.416667  0.416667      2.000000
 -0.250000  0.416667  0.416667      2.000000
 -0.166667  0.416667  0.416667      2.000000
 -0.083333  0.416667  0.416667      2.000000
  0.000000  0.500000  0.416667      2.000000
  0.083333  0.500000  0.416667      2.000000
  0.166667  0.500000  0.416667      2.000000
  0.250000  0.500000  0.416667      2.000000
  0.333333  0.500000  0.416667      2.000000
  0.416667  0.500000  0.416667      2.000000
  0.500000  0.500000  0.416667      2.000000
 -0.416667  0.500000  0.416667      2.000000
 -0.333333  0.500000  0.416667      2.000000
 -0.250000  0.500000  0.416667      2.000000
 -0.166667  0.500000  0.416667      2.000000
 -0.083333  0.500000  0.416667      2.000000
  0.000000 -0.416667  0.416667      2.000000
  0.083333 -0.416667  0.416667      2.000000
  0.166667 -0.416667  0.416667      2.000000
  0.250000 -0.416667  0.416667      2.000000
  0.333333 -0.416667  0.416667      2.000000
  0.416667 -0.416667  0.416667      2.000000
  0.500000 -0.416667  0.416667      2.000000
 -0.416667 -0.416667  0.416667      2.000000
 -0.333333 -0.416667  0.416667      2.000000
 -0.250000 -0.416667  0.416667      2.000000
 -0.166667 -0.416667  0.416667      2.000000
 -0.083333 -0.416667  0.416667      2.000000
  0.000000 -0.333333  0.416667      2.000000
  0.083333 -0.333333  0.416667      2.000000
  0.166667 -0.333333  0.416667      2.000000
  0.250000 -0.333333  0.416667      2.000000
  0.333333 -0.333333  0.416667      2.000000
  0.416667 -0.333333  0.416667      2.000000
  0.500000 -0.333333  0.416667      2.000000
 -0.416667 -0.333333  0.416667      2.000000
 -0.333333 -0.333333  0.416667      2.000000
 -0.250000 -0.333333  0.416667      2.000000
 -0.166667 -0.333333  0.416667      2.000000
 -0.083333 -0.333333  0.416667      2.000000
  0.000000 -0.250000  0.416667      2.000000
  0.083333 -0.250000  0.416667      2.000000
  0.166667 -0.250000  0.416667      2.000000
  0.250000 -0.250000  0.416667      2.000000
  0.333333 -0.250000  0.416667      2.000000
  0.416667 -0.250000  0.416667      2.000000
  0.500000 -0.250000  0.416667      2.000000
 -0.416667 -0.250000  0.416667      2.000000
 -0.333333 -0.250000  0.416667      2.000000
 -0.250000 -0.250000  0.416667      2.000000
 -0.166667 -0.250000  0.416667      2.000000
 -0.083333 -0.250000  0.416667      2.000000
  0.000000 -0.166667  0.416667      2.000000
  0.083333 -0.166667  0.416667      2.000000
  0.166667 -0.166667  0.416667      2.000000
  0.250000 -0.166667  0.416667      2.000000
  0.333333 -0.166667  0.416667      2.000000
  0.416667 -0.166667  0.416667      2.000000
  0.500000 -0.166667  0.416667      2.000000
 -0.416667 -0.166667  0.416667      2.000000
 -0.333333 -0.166667  0.416667      2.000000
 -0.250000 -0.166667  0.416667      2.000000
 -0.166667 -0.166667  0.416667      2.000000
 -0.083333 -0.166667  0.416667      2.000000
  0.000000 -0.083333  0.416667      2.000000
  0.083333 -0.083333  0.416667      2.000000
  0.166667 -0.083333  0.416667      2.000000
  0.250000 -0.083333  0.416667      2.000000
  0.333333 -0.083333  0.416667      2.000000
  0.416667 -0.083333  0.416667      2.000000
  0.500000 -0.083333  0.416667      2.000000
 -0.416667 -0.083333  0.416667      2.000000
 -0.333333 -0.083333  0.416667      2.000000
 -0.250000 -0.083333  0.416667      2.000000
 -0.166667 -0.083333  0.416667      2.000000
 -0.083333 -0.083333  0.416667      2.000000
  0.000000  0.000000  0.500000      1.000000
  0.083333 -0.000000  0.500000      2.000000
  0.166667  0.000000  0.500000      2.000000
  0.250000  0.000000  0.500000      2.000000
  0.333333  0.000000  0.500000      2.000000
  0.416667  0.000000  0.500000      2.000000
  0.500000  0.000000  0.500000      1.000000
  0.000000  0.083333  0.500000      2.000000
  0.083333  0.083333  0.500000      2.000000
  0.166667  0.083333  0.500000      2.000000
  0.250000  0.083333  0.500000      2.000000
  0.333333  0.083333  0.500000      2.000000
  0.416667  0.083333  0.500000      2.000000
  0.500000  0.083333  0.500000      2.000000
 -0.416667  0.083333  0.500000      2.000000
 -0.333333  0.083333  0.500000      2.000000
 -0.250000  0.083333  0.500000      2.000000
 -0.166667  0.083333  0.500000      2.000000
 -0.083333  0.083333  0.500000      2.000000
  0.000000  0.166667  0.500000      2.000000
  0.083333  0.166667  0.500000      2.000000
  0.166667  0.166667  0.500000      2.000000
  0.250000  0.166667  0.500000      2.000000
  0.333333  0.166667  0.500000      2.000000
  0.416667  0.166667  0.500000      2.000000
  0.500000  0.166667  0.500000      2.000000
 -0.416667  0.166667  0.500000      2.000000
 -0.333333  0.166667  0.500000      2.000000
 -0.250000  0.166667  0.500000      2.000000
 -0.166667  0.166667  0.500000      2.000000
 -0.083333  0.166667  0.500000      2.000000
  0.000000  0.250000  0.500000      2.000000
  0.083333  0.250000  0.500000      2.000000
  0.166667  0.250000  0.500000      2.000000
  0.250000  0.250000  0.500000      2.000000
  0.333333  0.250000  0.500000      2.000000
  0.416667  0.250000  0.500000      2.000000
  0.500000  0.250000  0.500000      2.000000
 -0.416667  0.250000  0.500000      2.000000
 -0.333333  0.250000  0.500000      2.000000
 -0.250000  0.250000  0.500000      2.000000
 -0.166667  0.250000  0.500000      2.000000
 -0.083333  0.250000  0.500000      2.000000
  0.000000  0.333333  0.500000      2.000000
  0.083333  0.333333  0.500000      2.000000
  0.166667  0.333333  0.500000      2.000000
  0.250000  0.333333  0.500000      2.000000
  0.333333  0.333333  0.500000      2.000000
  0.416667  0.333333  0.500000      2.000000
  0.500000  0.333333  0.500000      2.000000
 -0.416667  0.333333  0.500000      2.000000
 -0.333333  0.333333  0.500000      2.000000
 -0.250000  0.333333  0.500000      2.000000
 -0.166667  0.333333  0.500000      2.000000
 -0.083333  0.333333  0.500000      2.000000
  0.000000  0.416667  0.500000      2.000000
  0.083333  0.416667  0.500000      2.000000
  0.166667  0.416667  0.500000      2.000000
  0.250000  0.416667  0.500000      2.000000
  0.333333  0.416667  0.500000      2.000000
  0.416667  0.416667  0.500000      2.000000
  0.500000  0.416667  0.500000      2.000000
 -0.416667  0.416667  0.500000      2.000000
 -0.333333  0.416667  0.500000      2.000000
 -0.250000  0.416667  0.500000      2.000000
 -0.166667  0.416667  0.500000      2.000000
 -0.083333  0.416667  0.500000      2.000000
  0.000000  0.500000  0.500000      1.000000
  0.083333  0.500000  0.500000      2.000000
  0.166667  0.500000  0.500000      2.000000
  0.250000  0.500000  0.500000      2.000000
  0.333333  0.500000  0.500000      2.000000
  0.416667  0.500000  0.500000      2.000000
  0.500000  0.500000  0.500000      1.000000
 
 Following cartesian coordinates:
            Coordinates               Weight
  0.000000  0.000000  0.000000      1.000000
  0.025703  0.009087  0.015740      2.000000
  0.051407  0.018175  0.031479      2.000000
  0.077110  0.027262  0.047219      2.000000
  0.102814  0.036350  0.062959      2.000000
  0.128517  0.045437  0.078699      2.000000
  0.154221  0.054525  0.094438      1.000000
  0.000000  0.027263  0.015740      2.000000
  0.025703  0.036350  0.031479      2.000000
  0.051407  0.045438  0.047219      2.000000
  0.077110  0.054525  0.062959      2.000000
  0.102814  0.063612  0.078699      2.000000
  0.128517  0.072700  0.094438      2.000000
  0.154221  0.081787  0.110178      2.000000
 -0.128517 -0.018175 -0.062959      2.000000
 -0.102814 -0.009087 -0.047219      2.000000
 -0.077110  0.000000 -0.031479      2.000000
 -0.051407  0.009088 -0.015740      2.000000
 -0.025703  0.018175  0.000000      2.000000
  0.000000  0.054525  0.031479      2.000000
  0.025703  0.063613  0.047219      2.000000
  0.051407  0.072700  0.062959      2.000000
  0.077110  0.081788  0.078699      2.000000
  0.102814  0.090875  0.094438      2.000000
  0.128517  0.099962  0.110178      2.000000
  0.154221  0.109050  0.125918      2.000000
 -0.128517  0.009088 -0.047219      2.000000
 -0.102814  0.018175 -0.031479      2.000000
 -0.077110  0.027263 -0.015740      2.000000
 -0.051407  0.036350  0.000000      2.000000
 -0.025703  0.045438  0.015740      2.000000
  0.000000  0.081788  0.047219      2.000000
  0.025703  0.090875  0.062959      2.000000
  0.051407  0.099963  0.078699      2.000000
  0.077110  0.109050  0.094438      2.000000
  0.102814  0.118138  0.110178      2.000000
  0.128517  0.127225  0.125918      2.000000
  0.154221  0.136313  0.141658      2.000000
 -0.128517  0.036351 -0.031479      2.000000
 -0.102814  0.045438 -0.015740      2.000000
 -0.077110  0.054526  0.000000      2.000000
 -0.051407  0.063613  0.015740      2.000000
 -0.025703  0.072700  0.031479      2.000000
  0.000000  0.109050  0.062959      2.000000
  0.025703  0.118138  0.078699      2.000000
  0.051407  0.127225  0.094438      2.000000
  0.077110  0.136313  0.110178      2.000000
  0.102814  0.145400  0.125918      2.000000
  0.128517  0.154488  0.141658      2.000000
  0.154221  0.163575  0.157397      2.000000
 -0.128517  0.063613 -0.015740      2.000000
 -0.102814  0.072701  0.000000      2.000000
 -0.077110  0.081788  0.015740      2.000000
 -0.051407  0.090876  0.031479      2.000000
 -0.025703  0.099963  0.047219      2.000000
  0.000000  0.136313  0.078699      2.000000
  0.025703  0.145401  0.094438      2.000000
  0.051407  0.154488  0.110178      2.000000
  0.077110  0.163575  0.125918      2.000000
  0.102814  0.172663  0.141658      2.000000
  0.128517  0.181750  0.157397      2.000000
  0.154221  0.190838  0.173137      2.000000
 -0.128517  0.090876  0.000000      2.000000
 -0.102814  0.099963  0.015740      2.000000
 -0.077110  0.109051  0.031479      2.000000
 -0.051407  0.118138  0.047219      2.000000
 -0.025703  0.127226  0.062959      2.000000
  0.000000  0.163576  0.094438      1.000000
  0.025703  0.172663  0.110178      2.000000
  0.051407  0.181751  0.125918      2.000000
  0.077110  0.190838  0.141658      2.000000
  0.102814  0.199926  0.157397      2.000000
  0.128517  0.209013  0.173137      2.000000
  0.154221  0.218100  0.188877      1.000000
  0.000000  0.000000  0.031480      2.000000
  0.025703  0.009087  0.047220      2.000000
  0.051407  0.018175  0.062959      2.000000
  0.077110  0.027262  0.078699      2.000000
  0.102814  0.036350  0.094439      2.000000
  0.128517  0.045437  0.110179      2.000000
  0.154221  0.054525  0.125918      2.000000
 -0.128517 -0.045437 -0.047219      2.000000
 -0.102814 -0.036350 -0.031479      2.000000
 -0.077110 -0.027262 -0.015739      2.000000
 -0.051407 -0.018175  0.000001      2.000000
 -0.025703 -0.009087  0.015740      2.000000
  0.000000  0.027263  0.047220      2.000000
  0.025703  0.036350  0.062959      2.000000
  0.051407  0.045438  0.078699      2.000000
  0.077110  0.054525  0.094439      2.000000
  0.102814  0.063612  0.110179      2.000000
  0.128517  0.072700  0.125918      2.000000
  0.154221  0.081787  0.141658      2.000000
 -0.128517 -0.018175 -0.031479      2.000000
 -0.102814 -0.009087 -0.015739      2.000000
 -0.077110  0.000000  0.000001      2.000000
 -0.051407  0.009088  0.015740      2.000000
 -0.025703  0.018175  0.031480      2.000000
  0.000000  0.054525  0.062959      2.000000
  0.025703  0.063613  0.078699      2.000000
  0.051407  0.072700  0.094439      2.000000
  0.077110  0.081788  0.110179      2.000000
  0.102814  0.090875  0.125918      2.000000
  0.128517  0.099962  0.141658      2.000000
  0.154221  0.109050  0.157398      2.000000
 -0.128517  0.009088 -0.015739      2.000000
 -0.102814  0.018175  0.000001      2.000000
 -0.077110  0.027263  0.015740      2.000000
 -0.051407  0.036350  0.031480      2.000000
 -0.025703  0.045438  0.047220      2.000000
  0.000000  0.081788  0.078699      2.000000
  0.025703  0.090875  0.094439      2.000000
  0.051407  0.099963  0.110179      2.000000
  0.077110  0.109050  0.125918      2.000000
  0.102814  0.118138  0.141658      2.000000
  0.128517  0.127225  0.157398      2.000000
  0.154221  0.136313  0.173138      2.000000
 -0.128517  0.036351  0.000001      2.000000
 -0.102814  0.045438  0.015740      2.000000
 -0.077110  0.054526  0.031480      2.000000
 -0.051407  0.063613  0.047220      2.000000
 -0.025703  0.072700  0.062959      2.000000
  0.000000  0.109050  0.094439      2.000000
  0.025703  0.118138  0.110179      2.000000
  0.051407  0.127225  0.125918      2.000000
  0.077110  0.136313  0.141658      2.000000
  0.102814  0.145400  0.157398      2.000000
  0.128517  0.154488  0.173138      2.000000
  0.154221  0.163575  0.188877      2.000000
 -0.128517  0.063613  0.015740      2.000000
 -0.102814  0.072701  0.031480      2.000000
 -0.077110  0.081788  0.047220      2.000000
 -0.051407  0.090876  0.062959      2.000000
 -0.025703  0.099963  0.078699      2.000000
  0.000000  0.136313  0.110179      2.000000
  0.025703  0.145401  0.125918      2.000000
  0.051407  0.154488  0.141658      2.000000
  0.077110  0.163575  0.157398      2.000000
  0.102814  0.172663  0.173138      2.000000
  0.128517  0.181750  0.188877      2.000000
  0.154221  0.190838  0.204617      2.000000
 -0.128517  0.090876  0.031480      2.000000
 -0.102814  0.099963  0.047220      2.000000
 -0.077110  0.109051  0.062959      2.000000
 -0.051407  0.118138  0.078699      2.000000
 -0.025703  0.127226  0.094439      2.000000
  0.000000  0.163576  0.125918      2.000000
  0.025703  0.172663  0.141658      2.000000
  0.051407  0.181751  0.157398      2.000000
  0.077110  0.190838  0.173138      2.000000
  0.102814  0.199926  0.188877      2.000000
  0.128517  0.209013  0.204617      2.000000
  0.154221  0.218100  0.220357      2.000000
 -0.128517  0.118139  0.047220      2.000000
 -0.102814  0.127226  0.062959      2.000000
 -0.077110  0.136313  0.078699      2.000000
 -0.051407  0.145401  0.094439      2.000000
 -0.025703  0.154488  0.110179      2.000000
  0.000000 -0.136313 -0.047219      2.000000
  0.025703 -0.127226 -0.031479      2.000000
  0.051407 -0.118138 -0.015739      2.000000
  0.077110 -0.109051  0.000001      2.000000
  0.102814 -0.099963  0.015740      2.000000
  0.128517 -0.090876  0.031480      2.000000
  0.154221 -0.081788  0.047220      2.000000
 -0.128517 -0.181750 -0.125917      2.000000
 -0.102814 -0.172663 -0.110178      2.000000
 -0.077110 -0.163575 -0.094438      2.000000
 -0.051407 -0.154488 -0.078698      2.000000
 -0.025703 -0.145401 -0.062958      2.000000
  0.000000 -0.109050 -0.031479      2.000000
  0.025703 -0.099963 -0.015739      2.000000
  0.051407 -0.090876  0.000001      2.000000
  0.077110 -0.081788  0.015740      2.000000
  0.102814 -0.072701  0.031480      2.000000
  0.128517 -0.063613  0.047220      2.000000
  0.154221 -0.054526  0.062959      2.000000
 -0.128517 -0.154488 -0.110178      2.000000
 -0.102814 -0.145400 -0.094438      2.000000
 -0.077110 -0.136313 -0.078698      2.000000
 -0.051407 -0.127225 -0.062958      2.000000
 -0.025703 -0.118138 -0.047219      2.000000
  0.000000 -0.081788 -0.015739      2.000000
  0.025703 -0.072700  0.000001      2.000000
  0.051407 -0.063613  0.015740      2.000000
  0.077110 -0.054526  0.031480      2.000000
  0.102814 -0.045438  0.047220      2.000000
  0.128517 -0.036351  0.062959      2.000000
  0.154221 -0.027263  0.078699      2.000000
 -0.128517 -0.127225 -0.094438      2.000000
 -0.102814 -0.118138 -0.078698      2.000000
 -0.077110 -0.109050 -0.062958      2.000000
 -0.051407 -0.099963 -0.047219      2.000000
 -0.025703 -0.090875 -0.031479      2.000000
  0.000000 -0.054525  0.000001      2.000000
  0.025703 -0.045438  0.015740      2.000000
  0.051407 -0.036350  0.031480      2.000000
  0.077110 -0.027263  0.047220      2.000000
  0.102814 -0.018175  0.062959      2.000000
  0.128517 -0.009088  0.078699      2.000000
  0.154221 -0.000001  0.094439      2.000000
 -0.128517 -0.099962 -0.078698      2.000000
 -0.102814 -0.090875 -0.062958      2.000000
 -0.077110 -0.081788 -0.047219      2.000000
 -0.051407 -0.072700 -0.031479      2.000000
 -0.025703 -0.063613 -0.015739      2.000000
  0.000000 -0.027263  0.015740      2.000000
  0.025703 -0.018175  0.031480      2.000000
  0.051407 -0.009088  0.047220      2.000000
  0.077110 -0.000000  0.062959      2.000000
  0.102814  0.009087  0.078699      2.000000
  0.128517  0.018175  0.094439      2.000000
  0.154221  0.027262  0.110179      2.000000
 -0.128517 -0.072700 -0.062958      2.000000
 -0.102814 -0.063612 -0.047219      2.000000
 -0.077110 -0.054525 -0.031479      2.000000
 -0.051407 -0.045438 -0.015739      2.000000
 -0.025703 -0.036350  0.000001      2.000000
  0.000000  0.000000  0.062960      2.000000
  0.025703  0.009087  0.078700      2.000000
  0.051407  0.018175  0.094439      2.000000
  0.077110  0.027262  0.110179      2.000000
  0.102814  0.036350  0.125919      2.000000
  0.128517  0.045437  0.141659      2.000000
  0.154221  0.054525  0.157398      2.000000
 -0.128517 -0.045437 -0.015739      2.000000
 -0.102814 -0.036350  0.000001      2.000000
 -0.077110 -0.027262  0.015741      2.000000
 -0.051407 -0.018175  0.031481      2.000000
 -0.025703 -0.009087  0.047220      2.000000
  0.000000  0.027263  0.078700      2.000000
  0.025703  0.036350  0.094439      2.000000
  0.051407  0.045438  0.110179      2.000000
  0.077110  0.054525  0.125919      2.000000
  0.102814  0.063612  0.141659      2.000000
  0.128517  0.072700  0.157398      2.000000
  0.154221  0.081787  0.173138      2.000000
 -0.128517 -0.018175  0.000001      2.000000
 -0.102814 -0.009087  0.015741      2.000000
 -0.077110  0.000000  0.031481      2.000000
 -0.051407  0.009088  0.047220      2.000000
 -0.025703  0.018175  0.062960      2.000000
  0.000000  0.054525  0.094439      2.000000
  0.025703  0.063613  0.110179      2.000000
  0.051407  0.072700  0.125919      2.000000
  0.077110  0.081788  0.141659      2.000000
  0.102814  0.090875  0.157398      2.000000
  0.128517  0.099962  0.173138      2.000000
  0.154221  0.109050  0.188878      2.000000
 -0.128517  0.009088  0.015741      2.000000
 -0.102814  0.018175  0.031481      2.000000
 -0.077110  0.027263  0.047220      2.000000
 -0.051407  0.036350  0.062960      2.000000
 -0.025703  0.045438  0.078700      2.000000
  0.000000  0.081788  0.110179      2.000000
  0.025703  0.090875  0.125919      2.000000
  0.051407  0.099963  0.141659      2.000000
  0.077110  0.109050  0.157398      2.000000
  0.102814  0.118138  0.173138      2.000000
  0.128517  0.127225  0.188878      2.000000
  0.154221  0.136313  0.204618      2.000000
 -0.128517  0.036351  0.031481      2.000000
 -0.102814  0.045438  0.047220      2.000000
 -0.077110  0.054526  0.062960      2.000000
 -0.051407  0.063613  0.078700      2.000000
 -0.025703  0.072700  0.094439      2.000000
  0.000000  0.109050  0.125919      2.000000
  0.025703  0.118138  0.141659      2.000000
  0.051407  0.127225  0.157398      2.000000
  0.077110  0.136313  0.173138      2.000000
  0.102814  0.145400  0.188878      2.000000
  0.128517  0.154488  0.204618      2.000000
  0.154221  0.163575  0.220357      2.000000
 -0.128517  0.063613  0.047220      2.000000
 -0.102814  0.072701  0.062960      2.000000
 -0.077110  0.081788  0.078700      2.000000
 -0.051407  0.090876  0.094439      2.000000
 -0.025703  0.099963  0.110179      2.000000
  0.000000  0.136313  0.141659      2.000000
  0.025703  0.145401  0.157398      2.000000
  0.051407  0.154488  0.173138      2.000000
  0.077110  0.163575  0.188878      2.000000
  0.102814  0.172663  0.204618      2.000000
  0.128517  0.181750  0.220357      2.000000
  0.154221  0.190838  0.236097      2.000000
 -0.128517  0.090876  0.062960      2.000000
 -0.102814  0.099963  0.078700      2.000000
 -0.077110  0.109051  0.094439      2.000000
 -0.051407  0.118138  0.110179      2.000000
 -0.025703  0.127226  0.125919      2.000000
  0.000000  0.163576  0.157398      2.000000
  0.025703  0.172663  0.173138      2.000000
  0.051407  0.181751  0.188878      2.000000
  0.077110  0.190838  0.204618      2.000000
  0.102814  0.199926  0.220357      2.000000
  0.128517  0.209013  0.236097      2.000000
  0.154221  0.218100  0.251837      2.000000
 -0.128517  0.118139  0.078700      2.000000
 -0.102814  0.127226  0.094439      2.000000
 -0.077110  0.136313  0.110179      2.000000
 -0.051407  0.145401  0.125919      2.000000
 -0.025703  0.154488  0.141659      2.000000
  0.000000 -0.136313 -0.015739      2.000000
  0.025703 -0.127226  0.000001      2.000000
  0.051407 -0.118138  0.015741      2.000000
  0.077110 -0.109051  0.031481      2.000000
  0.102814 -0.099963  0.047220      2.000000
  0.128517 -0.090876  0.062960      2.000000
  0.154221 -0.081788  0.078700      2.000000
 -0.128517 -0.181750 -0.094437      2.000000
 -0.102814 -0.172663 -0.078698      2.000000
 -0.077110 -0.163575 -0.062958      2.000000
 -0.051407 -0.154488 -0.047218      2.000000
 -0.025703 -0.145401 -0.031478      2.000000
  0.000000 -0.109050  0.000001      2.000000
  0.025703 -0.099963  0.015741      2.000000
  0.051407 -0.090876  0.031481      2.000000
  0.077110 -0.081788  0.047220      2.000000
  0.102814 -0.072701  0.062960      2.000000
  0.128517 -0.063613  0.078700      2.000000
  0.154221 -0.054526  0.094439      2.000000
 -0.128517 -0.154488 -0.078698      2.000000
 -0.102814 -0.145400 -0.062958      2.000000
 -0.077110 -0.136313 -0.047218      2.000000
 -0.051407 -0.127225 -0.031478      2.000000
 -0.025703 -0.118138 -0.015739      2.000000
  0.000000 -0.081788  0.015741      2.000000
  0.025703 -0.072700  0.031481      2.000000
  0.051407 -0.063613  0.047220      2.000000
  0.077110 -0.054526  0.062960      2.000000
  0.102814 -0.045438  0.078700      2.000000
  0.128517 -0.036351  0.094439      2.000000
  0.154221 -0.027263  0.110179      2.000000
 -0.128517 -0.127225 -0.062958      2.000000
 -0.102814 -0.118138 -0.047218      2.000000
 -0.077110 -0.109050 -0.031478      2.000000
 -0.051407 -0.099963 -0.015739      2.000000
 -0.025703 -0.090875  0.000001      2.000000
  0.000000 -0.054525  0.031481      2.000000
  0.025703 -0.045438  0.047220      2.000000
  0.051407 -0.036350  0.062960      2.000000
  0.077110 -0.027263  0.078700      2.000000
  0.102814 -0.018175  0.094439      2.000000
  0.128517 -0.009088  0.110179      2.000000
  0.154221 -0.000001  0.125919      2.000000
 -0.128517 -0.099962 -0.047218      2.000000
 -0.102814 -0.090875 -0.031478      2.000000
 -0.077110 -0.081788 -0.015739      2.000000
 -0.051407 -0.072700  0.000001      2.000000
 -0.025703 -0.063613  0.015741      2.000000
  0.000000 -0.027263  0.047220      2.000000
  0.025703 -0.018175  0.062960      2.000000
  0.051407 -0.009088  0.078700      2.000000
  0.077110 -0.000000  0.094439      2.000000
  0.102814  0.009087  0.110179      2.000000
  0.128517  0.018175  0.125919      2.000000
  0.154221  0.027262  0.141659      2.000000
 -0.128517 -0.072700 -0.031478      2.000000
 -0.102814 -0.063612 -0.015739      2.000000
 -0.077110 -0.054525  0.000001      2.000000
 -0.051407 -0.045438  0.015741      2.000000
 -0.025703 -0.036350  0.031481      2.000000
  0.000000  0.000000  0.094440      2.000000
  0.025703  0.009087  0.110180      2.000000
  0.051407  0.018175  0.125919      2.000000
  0.077110  0.027262  0.141659      2.000000
  0.102814  0.036350  0.157399      2.000000
  0.128517  0.045437  0.173139      2.000000
  0.154221  0.054525  0.188878      2.000000
 -0.128517 -0.045437  0.015741      2.000000
 -0.102814 -0.036350  0.031481      2.000000
 -0.077110 -0.027262  0.047221      2.000000
 -0.051407 -0.018175  0.062961      2.000000
 -0.025703 -0.009087  0.078700      2.000000
  0.000000  0.027263  0.110180      2.000000
  0.025703  0.036350  0.125919      2.000000
  0.051407  0.045438  0.141659      2.000000
  0.077110  0.054525  0.157399      2.000000
  0.102814  0.063612  0.173139      2.000000
  0.128517  0.072700  0.188878      2.000000
  0.154221  0.081787  0.204618      2.000000
 -0.128517 -0.018175  0.031481      2.000000
 -0.102814 -0.009087  0.047221      2.000000
 -0.077110  0.000000  0.062961      2.000000
 -0.051407  0.009088  0.078700      2.000000
 -0.025703  0.018175  0.094440      2.000000
  0.000000  0.054525  0.125919      2.000000
  0.025703  0.063613  0.141659      2.000000
  0.051407  0.072700  0.157399      2.000000
  0.077110  0.081788  0.173139      2.000000
  0.102814  0.090875  0.188878      2.000000
  0.128517  0.099962  0.204618      2.000000
  0.154221  0.109050  0.220358      2.000000
 -0.128517  0.009088  0.047221      2.000000
 -0.102814  0.018175  0.062961      2.000000
 -0.077110  0.027263  0.078700      2.000000
 -0.051407  0.036350  0.094440      2.000000
 -0.025703  0.045438  0.110180      2.000000
  0.000000  0.081788  0.141659      2.000000
  0.025703  0.090875  0.157399      2.000000
  0.051407  0.099963  0.173139      2.000000
  0.077110  0.109050  0.188878      2.000000
  0.102814  0.118138  0.204618      2.000000
  0.128517  0.127225  0.220358      2.000000
  0.154221  0.136313  0.236098      2.000000
 -0.128517  0.036351  0.062961      2.000000
 -0.102814  0.045438  0.078700      2.000000
 -0.077110  0.054526  0.094440      2.000000
 -0.051407  0.063613  0.110180      2.000000
 -0.025703  0.072700  0.125919      2.000000
  0.000000  0.109050  0.157399      2.000000
  0.025703  0.118138  0.173139      2.000000
  0.051407  0.127225  0.188878      2.000000
  0.077110  0.136313  0.204618      2.000000
  0.102814  0.145400  0.220358      2.000000
  0.128517  0.154488  0.236098      2.000000
  0.154221  0.163575  0.251837      2.000000
 -0.128517  0.063613  0.078700      2.000000
 -0.102814  0.072701  0.094440      2.000000
 -0.077110  0.081788  0.110180      2.000000
 -0.051407  0.090876  0.125919      2.000000
 -0.025703  0.099963  0.141659      2.000000
  0.000000  0.136313  0.173139      2.000000
  0.025703  0.145401  0.188878      2.000000
  0.051407  0.154488  0.204618      2.000000
  0.077110  0.163575  0.220358      2.000000
  0.102814  0.172663  0.236098      2.000000
  0.128517  0.181750  0.251837      2.000000
  0.154221  0.190838  0.267577      2.000000
 -0.128517  0.090876  0.094440      2.000000
 -0.102814  0.099963  0.110180      2.000000
 -0.077110  0.109051  0.125919      2.000000
 -0.051407  0.118138  0.141659      2.000000
 -0.025703  0.127226  0.157399      2.000000
  0.000000  0.163576  0.188878      2.000000
  0.025703  0.172663  0.204618      2.000000
  0.051407  0.181751  0.220358      2.000000
  0.077110  0.190838  0.236098      2.000000
  0.102814  0.199926  0.251837      2.000000
  0.128517  0.209013  0.267577      2.000000
  0.154221  0.218100  0.283317      2.000000
 -0.128517  0.118139  0.110180      2.000000
 -0.102814  0.127226  0.125919      2.000000
 -0.077110  0.136313  0.141659      2.000000
 -0.051407  0.145401  0.157399      2.000000
 -0.025703  0.154488  0.173139      2.000000
  0.000000 -0.136313  0.015741      2.000000
  0.025703 -0.127226  0.031481      2.000000
  0.051407 -0.118138  0.047221      2.000000
  0.077110 -0.109051  0.062961      2.000000
  0.102814 -0.099963  0.078700      2.000000
  0.128517 -0.090876  0.094440      2.000000
  0.154221 -0.081788  0.110180      2.000000
 -0.128517 -0.181750 -0.062957      2.000000
 -0.102814 -0.172663 -0.047218      2.000000
 -0.077110 -0.163575 -0.031478      2.000000
 -0.051407 -0.154488 -0.015738      2.000000
 -0.025703 -0.145401  0.000002      2.000000
  0.000000 -0.109050  0.031481      2.000000
  0.025703 -0.099963  0.047221      2.000000
  0.051407 -0.090876  0.062961      2.000000
  0.077110 -0.081788  0.078700      2.000000
  0.102814 -0.072701  0.094440      2.000000
  0.128517 -0.063613  0.110180      2.000000
  0.154221 -0.054526  0.125919      2.000000
 -0.128517 -0.154488 -0.047218      2.000000
 -0.102814 -0.145400 -0.031478      2.000000
 -0.077110 -0.136313 -0.015738      2.000000
 -0.051407 -0.127225  0.000002      2.000000
 -0.025703 -0.118138  0.015741      2.000000
  0.000000 -0.081788  0.047221      2.000000
  0.025703 -0.072700  0.062961      2.000000
  0.051407 -0.063613  0.078700      2.000000
  0.077110 -0.054526  0.094440      2.000000
  0.102814 -0.045438  0.110180      2.000000
  0.128517 -0.036351  0.125919      2.000000
  0.154221 -0.027263  0.141659      2.000000
 -0.128517 -0.127225 -0.031478      2.000000
 -0.102814 -0.118138 -0.015738      2.000000
 -0.077110 -0.109050  0.000002      2.000000
 -0.051407 -0.099963  0.015741      2.000000
 -0.025703 -0.090875  0.031481      2.000000
  0.000000 -0.054525  0.062961      2.000000
  0.025703 -0.045438  0.078700      2.000000
  0.051407 -0.036350  0.094440      2.000000
  0.077110 -0.027263  0.110180      2.000000
  0.102814 -0.018175  0.125919      2.000000
  0.128517 -0.009088  0.141659      2.000000
  0.154221 -0.000001  0.157399      2.000000
 -0.128517 -0.099962 -0.015738      2.000000
 -0.102814 -0.090875  0.000002      2.000000
 -0.077110 -0.081788  0.015741      2.000000
 -0.051407 -0.072700  0.031481      2.000000
 -0.025703 -0.063613  0.047221      2.000000
  0.000000 -0.027263  0.078700      2.000000
  0.025703 -0.018175  0.094440      2.000000
  0.051407 -0.009088  0.110180      2.000000
  0.077110 -0.000000  0.125919      2.000000
  0.102814  0.009087  0.141659      2.000000
  0.128517  0.018175  0.157399      2.000000
  0.154221  0.027262  0.173139      2.000000
 -0.128517 -0.072700  0.000002      2.000000
 -0.102814 -0.063612  0.015741      2.000000
 -0.077110 -0.054525  0.031481      2.000000
 -0.051407 -0.045438  0.047221      2.000000
 -0.025703 -0.036350  0.062961      2.000000
  0.000000  0.000000  0.125920      2.000000
  0.025703  0.009087  0.141660      2.000000
  0.051407  0.018175  0.157399      2.000000
  0.077110  0.027262  0.173139      2.000000
  0.102814  0.036350  0.188879      2.000000
  0.128517  0.045437  0.204619      2.000000
  0.154221  0.054525  0.220358      2.000000
 -0.128517 -0.045437  0.047221      2.000000
 -0.102814 -0.036350  0.062961      2.000000
 -0.077110 -0.027262  0.078701      2.000000
 -0.051407 -0.018175  0.094440      2.000000
 -0.025703 -0.009087  0.110180      2.000000
  0.000000  0.027263  0.141660      2.000000
  0.025703  0.036350  0.157399      2.000000
  0.051407  0.045438  0.173139      2.000000
  0.077110  0.054525  0.188879      2.000000
  0.102814  0.063612  0.204619      2.000000
  0.128517  0.072700  0.220358      2.000000
  0.154221  0.081787  0.236098      2.000000
 -0.128517 -0.018175  0.062961      2.000000
 -0.102814 -0.009087  0.078701      2.000000
 -0.077110  0.000000  0.094440      2.000000
 -0.051407  0.009088  0.110180      2.000000
 -0.025703  0.018175  0.125920      2.000000
  0.000000  0.054525  0.157399      2.000000
  0.025703  0.063613  0.173139      2.000000
  0.051407  0.072700  0.188879      2.000000
  0.077110  0.081788  0.204619      2.000000
  0.102814  0.090875  0.220358      2.000000
  0.128517  0.099962  0.236098      2.000000
  0.154221  0.109050  0.251838      2.000000
 -0.128517  0.009088  0.078701      2.000000
 -0.102814  0.018175  0.094440      2.000000
 -0.077110  0.027263  0.110180      2.000000
 -0.051407  0.036350  0.125920      2.000000
 -0.025703  0.045438  0.141660      2.000000
  0.000000  0.081788  0.173139      2.000000
  0.025703  0.090875  0.188879      2.000000
  0.051407  0.099963  0.204619      2.000000
  0.077110  0.109050  0.220358      2.000000
  0.102814  0.118138  0.236098      2.000000
  0.128517  0.127225  0.251838      2.000000
  0.154221  0.136313  0.267578      2.000000
 -0.128517  0.036351  0.094440      2.000000
 -0.102814  0.045438  0.110180      2.000000
 -0.077110  0.054526  0.125920      2.000000
 -0.051407  0.063613  0.141660      2.000000
 -0.025703  0.072700  0.157399      2.000000
  0.000000  0.109050  0.188879      2.000000
  0.025703  0.118138  0.204619      2.000000
  0.051407  0.127225  0.220358      2.000000
  0.077110  0.136313  0.236098      2.000000
  0.102814  0.145400  0.251838      2.000000
  0.128517  0.154488  0.267578      2.000000
  0.154221  0.163575  0.283317      2.000000
 -0.128517  0.063613  0.110180      2.000000
 -0.102814  0.072701  0.125920      2.000000
 -0.077110  0.081788  0.141660      2.000000
 -0.051407  0.090876  0.157399      2.000000
 -0.025703  0.099963  0.173139      2.000000
  0.000000  0.136313  0.204619      2.000000
  0.025703  0.145401  0.220358      2.000000
  0.051407  0.154488  0.236098      2.000000
  0.077110  0.163575  0.251838      2.000000
  0.102814  0.172663  0.267578      2.000000
  0.128517  0.181750  0.283317      2.000000
  0.154221  0.190838  0.299057      2.000000
 -0.128517  0.090876  0.125920      2.000000
 -0.102814  0.099963  0.141660      2.000000
 -0.077110  0.109051  0.157399      2.000000
 -0.051407  0.118138  0.173139      2.000000
 -0.025703  0.127226  0.188879      2.000000
  0.000000  0.163576  0.220358      2.000000
  0.025703  0.172663  0.236098      2.000000
  0.051407  0.181751  0.251838      2.000000
  0.077110  0.190838  0.267578      2.000000
  0.102814  0.199926  0.283317      2.000000
  0.128517  0.209013  0.299057      2.000000
  0.154221  0.218100  0.314797      2.000000
 -0.128517  0.118139  0.141660      2.000000
 -0.102814  0.127226  0.157399      2.000000
 -0.077110  0.136313  0.173139      2.000000
 -0.051407  0.145401  0.188879      2.000000
 -0.025703  0.154488  0.204619      2.000000
  0.000000 -0.136313  0.047221      2.000000
  0.025703 -0.127226  0.062961      2.000000
  0.051407 -0.118138  0.078701      2.000000
  0.077110 -0.109051  0.094440      2.000000
  0.102814 -0.099963  0.110180      2.000000
  0.128517 -0.090876  0.125920      2.000000
  0.154221 -0.081788  0.141660      2.000000
 -0.128517 -0.181750 -0.031477      2.000000
 -0.102814 -0.172663 -0.015738      2.000000
 -0.077110 -0.163575  0.000002      2.000000
 -0.051407 -0.154488  0.015742      2.000000
 -0.025703 -0.145401  0.031482      2.000000
  0.000000 -0.109050  0.062961      2.000000
  0.025703 -0.099963  0.078701      2.000000
  0.051407 -0.090876  0.094440      2.000000
  0.077110 -0.081788  0.110180      2.000000
  0.102814 -0.072701  0.125920      2.000000
  0.128517 -0.063613  0.141660      2.000000
  0.154221 -0.054526  0.157399      2.000000
 -0.128517 -0.154488 -0.015738      2.000000
 -0.102814 -0.145400  0.000002      2.000000
 -0.077110 -0.136313  0.015742      2.000000
 -0.051407 -0.127225  0.031482      2.000000
 -0.025703 -0.118138  0.047221      2.000000
  0.000000 -0.081788  0.078701      2.000000
  0.025703 -0.072700  0.094440      2.000000
  0.051407 -0.063613  0.110180      2.000000
  0.077110 -0.054526  0.125920      2.000000
  0.102814 -0.045438  0.141660      2.000000
  0.128517 -0.036351  0.157399      2.000000
  0.154221 -0.027263  0.173139      2.000000
 -0.128517 -0.127225  0.000002      2.000000
 -0.102814 -0.118138  0.015742      2.000000
 -0.077110 -0.109050  0.031482      2.000000
 -0.051407 -0.099963  0.047221      2.000000
 -0.025703 -0.090875  0.062961      2.000000
  0.000000 -0.054525  0.094440      2.000000
  0.025703 -0.045438  0.110180      2.000000
  0.051407 -0.036350  0.125920      2.000000
  0.077110 -0.027263  0.141660      2.000000
  0.102814 -0.018175  0.157399      2.000000
  0.128517 -0.009088  0.173139      2.000000
  0.154221 -0.000001  0.188879      2.000000
 -0.128517 -0.099962  0.015742      2.000000
 -0.102814 -0.090875  0.031482      2.000000
 -0.077110 -0.081788  0.047221      2.000000
 -0.051407 -0.072700  0.062961      2.000000
 -0.025703 -0.063613  0.078701      2.000000
  0.000000 -0.027263  0.110180      2.000000
  0.025703 -0.018175  0.125920      2.000000
  0.051407 -0.009088  0.141660      2.000000
  0.077110 -0.000000  0.157399      2.000000
  0.102814  0.009087  0.173139      2.000000
  0.128517  0.018175  0.188879      2.000000
  0.154221  0.027262  0.204619      2.000000
 -0.128517 -0.072700  0.031482      2.000000
 -0.102814 -0.063612  0.047221      2.000000
 -0.077110 -0.054525  0.062961      2.000000
 -0.051407 -0.045438  0.078701      2.000000
 -0.025703 -0.036350  0.094440      2.000000
  0.000000  0.000000  0.157400      2.000000
  0.025703  0.009087  0.173140      2.000000
  0.051407  0.018175  0.188879      2.000000
  0.077110  0.027262  0.204619      2.000000
[...]
 -0.000  -0.612   0.000   0.000   1.059  -0.000  -0.000  -0.000  -0.612  -0.000   0.000   0.614  -0.000   0.000  -1.063   0.000
 -0.000   0.000   0.000  -0.612  -0.000   0.000   0.612  -0.000  -0.000  -0.000   0.000  -0.000  -0.000   0.614   0.000  -0.000
  0.000  -0.000  -0.000  -0.000  -0.000  -0.000  -0.000  -0.000   0.000  -0.000   0.000  -0.000  -0.000  -0.000  -0.000  -0.000
  0.000  -0.000  -0.000  -0.000  -0.000  -0.000  -0.000  -0.000   0.000  -0.000  -0.000   0.000   0.000   0.000   0.000   0.000
  0.000   0.000   0.000   0.000  -0.000  -0.000  -0.000  -0.000  -0.000   0.000   0.000   0.000   0.000   0.000  -0.000  -0.000
 -0.000  -0.000  -0.000  -0.000  -0.000  -0.000   0.000   0.000  -0.000   0.000  -0.000  -0.000  -0.000  -0.000  -0.000  -0.000
  0.000   0.000  -0.000  -0.000  -0.000   0.000   0.000   0.000  -0.000  -0.000   0.000   0.000  -0.000  -0.000   0.000   0.000
 -0.000  -0.000  -0.000  -0.000   0.000   0.000   0.000   0.000   0.000  -0.000  -0.000  -0.000  -0.000  -0.000   0.000   0.000
  0.000   0.000   0.000   0.000   0.000  -0.000  -0.000   0.000   0.000  -0.000   0.000   0.000   0.000   0.000   0.000   0.000
 -0.000  -0.000   0.000   0.000   0.000  -0.000  -0.000  -0.000  -0.000   0.000  -0.000  -0.000   0.000   0.000  -0.000  -0.000
 pseudopotential strength for first ion, spin component:           4
-10.062   0.000   0.000   0.000  -0.001   0.000   0.000   0.000  -0.001  -1.219  -0.097   0.000  -0.000   0.000   0.002   0.000
  0.000   0.000 -10.063   0.000   0.000   0.000  -0.001  -0.610  -0.000   0.000  -0.000   0.000  -0.095   0.000  -0.000   0.000
 -0.001   0.000   0.000   0.000 -10.063   0.000   0.000   0.000   0.000   0.000   0.002   0.000  -0.000   0.000  -0.095   0.000
  0.000   0.000  -0.001   0.610   0.000   0.000 -10.062   0.000   0.000   0.000  -0.000   0.000   0.002  -0.612  -0.000   0.000
 -0.001   1.219  -0.000   0.000   0.000   0.000   0.000   0.000 -10.063   0.000   0.001  -1.223   0.000   0.000  -0.001   0.000
 -0.097   0.000  -0.000   0.000   0.002   0.000  -0.000   0.000   0.001   1.223  18.001   0.000   0.000   0.000  -0.001   0.000
 -0.000   0.000  -0.095   0.000  -0.000   0.000   0.002   0.612   0.000   0.000   0.000   0.000  18.000   0.000   0.000   0.000
  0.002   0.000  -0.000   0.000  -0.095   0.000  -0.000   0.000  -0.001   0.000  -0.001   0.000   0.000   0.000  18.000   0.000
 -0.000   0.000   0.002  -0.612  -0.000   0.000  -0.097   0.000  -0.000   0.000   0.000   0.000  -0.001   0.614   0.000   0.000
  0.001  -1.223   0.000   0.000  -0.001   0.000  -0.000   0.000  -0.094   0.000  -0.001   1.227  -0.000   0.000   0.000   0.000
 -0.000   0.000  -0.000   0.000  -0.000   0.000  -0.000   0.000   0.000   0.000  -0.000   0.000  -0.000   0.000  -0.000   0.000
  0.000   0.000   0.000   0.000   0.000   0.000   0.000   0.000  -0.000   0.000   0.000   0.000   0.000   0.000   0.000   0.000
  0.000   0.000   0.000   0.000   0.000   0.000   0.000   0.000   0.000   0.000   0.000   0.000   0.000   0.000  -0.000   0.000
  0.000   0.000  -0.000   0.000  -0.000   0.000   0.000   0.000  -0.000   0.000   0.000   0.000   0.000   0.000  -0.000   0.000
 -0.000   0.000   0.000   0.000  -0.000   0.000  -0.000   0.000  -0.000   0.000   0.000   0.000   0.000   0.000   0.000   0.000
 -0.000   0.000  -0.000   0.000  -0.000   0.000  -0.000   0.000  -0.000   0.000  -0.000   0.000  -0.000   0.000  -0.000   0.000
 -0.000   0.000   0.000   0.000   0.000   0.000  -0.000   0.000   0.000   0.000  -0.000   0.000   0.000   0.000   0.000   0.000
  0.000   0.000  -0.000   0.000   0.000   0.000   0.000   0.000  -0.000   0.000   0.000   0.000  -0.000   0.000  -0.000   0.000
 total augmentation occupancy for first ion, spin component:           1
  1.955   0.000  -0.010   0.000  -0.006  -0.011  -0.000   0.001  -0.000   0.000   0.000  -0.000   0.000   0.000   0.000   0.000
  0.000   1.946   0.000  -0.012  -0.000  -0.000  -0.010  -0.000   0.001   0.000   0.000  -0.000   0.000   0.000   0.000   0.000
 -0.010   0.000   1.944   0.000   0.004   0.001  -0.000  -0.010  -0.000  -0.000   0.000  -0.000   0.000   0.000   0.000   0.000
  0.000  -0.012   0.000   1.955   0.000  -0.000   0.001  -0.000  -0.011  -0.000   0.000  -0.000   0.000   0.000   0.000   0.000
 -0.006  -0.000   0.004   0.000   1.940   0.000   0.000  -0.000   0.000  -0.010  -0.000   0.000   0.000   0.000   0.000   0.000
 -0.011  -0.000   0.001  -0.000   0.000   0.007  -0.000   0.001  -0.000   0.000  -0.000  -0.000   0.000   0.000   0.000   0.000
 -0.000  -0.010  -0.000   0.001   0.000  -0.000   0.008  -0.000   0.001   0.000  -0.000  -0.000   0.000   0.000   0.000   0.000
  0.001  -0.000  -0.010  -0.000  -0.000   0.001  -0.000   0.008  -0.000  -0.000  -0.000  -0.000   0.000   0.000   0.000   0.000
 -0.000   0.001  -0.000  -0.011   0.000  -0.000   0.001  -0.000   0.007   0.000  -0.000  -0.000   0.000   0.000   0.000   0.000
  0.000   0.000  -0.000  -0.000  -0.010   0.000   0.000  -0.000   0.000   0.008   0.000   0.000   0.000   0.000   0.000   0.000
  0.000   0.000   0.000   0.000  -0.000  -0.000  -0.000  -0.000  -0.000   0.000   1.950  -0.013   0.000   0.000   0.000   0.000
 -0.000  -0.000  -0.000  -0.000   0.000  -0.000  -0.000  -0.000  -0.000   0.000  -0.013   0.001   0.000   0.000   0.000   0.000
  0.000   0.000   0.000   0.000   0.000   0.000   0.000   0.000   0.000   0.000   0.000   0.000   0.107  -0.000  -0.000  -0.010
  0.000   0.000   0.000   0.000   0.000   0.000   0.000   0.000   0.000   0.000   0.000   0.000  -0.000   0.107  -0.000  -0.000
  0.000   0.000   0.000   0.000   0.000   0.000   0.000   0.000   0.000   0.000   0.000   0.000  -0.000  -0.000   0.107  -0.000
  0.000   0.000   0.000   0.000   0.000   0.000   0.000   0.000   0.000   0.000   0.000   0.000  -0.010  -0.000  -0.000   0.003
  0.000   0.000   0.000   0.000   0.000   0.000   0.000   0.000   0.000   0.000   0.000   0.000   0.000  -0.010  -0.000   0.000
  0.000   0.000   0.000   0.000   0.000   0.000   0.000   0.000   0.000   0.000   0.000   0.000  -0.000  -0.000  -0.010  -0.000
 total augmentation occupancy for first ion, spin component:           2
 -0.000  -0.000  -0.000   0.000  -0.000   0.000   0.000   0.000  -0.000  -0.000   0.000   0.000   0.000   0.000   0.000   0.000
 -0.000  -0.000  -0.000  -0.000   0.000  -0.000   0.000  -0.000   0.000   0.000  -0.000  -0.000   0.000   0.000   0.000   0.000
 -0.000  -0.000  -0.000   0.000  -0.000   0.000  -0.000   0.000  -0.000  -0.000  -0.000  -0.000   0.000   0.000   0.000   0.000
  0.000  -0.000   0.000  -0.000  -0.000   0.000   0.000   0.000   0.000  -0.000   0.000   0.000   0.000   0.000   0.000   0.000
 -0.000   0.000  -0.000  -0.000  -0.000   0.000   0.000   0.000  -0.000   0.000   0.000   0.000   0.000   0.000   0.000   0.000
  0.000  -0.000   0.000   0.000   0.000  -0.000  -0.000  -0.000  -0.000   0.000   0.000  -0.000   0.000   0.000   0.000   0.000
  0.000   0.000  -0.000   0.000   0.000  -0.000  -0.000   0.000   0.000   0.000  -0.000  -0.000   0.000   0.000   0.000   0.000
  0.000  -0.000   0.000   0.000   0.000  -0.000   0.000  -0.000  -0.000  -0.000  -0.000   0.000   0.000   0.000   0.000   0.000
 -0.000   0.000  -0.000   0.000  -0.000  -0.000   0.000  -0.000  -0.000  -0.000   0.000  -0.000   0.000   0.000   0.000   0.000
 -0.000   0.000  -0.000  -0.000   0.000   0.000   0.000  -0.000  -0.000  -0.000   0.000  -0.000   0.000   0.000   0.000   0.000
  0.000  -0.000  -0.000   0.000   0.000   0.000  -0.000  -0.000   0.000   0.000  -0.000  -0.000   0.000   0.000   0.000   0.000
  0.000  -0.000  -0.000   0.000   0.000  -0.000  -0.000   0.000  -0.000  -0.000  -0.000  -0.000   0.000   0.000   0.000   0.000
  0.000   0.000   0.000   0.000   0.000   0.000   0.000   0.000   0.000   0.000   0.000   0.000  -0.000   0.000   0.000  -0.000
  0.000   0.000   0.000   0.000   0.000   0.000   0.000   0.000   0.000   0.000   0.000   0.000   0.000  -0.000   0.000   0.000
  0.000   0.000   0.000   0.000   0.000   0.000   0.000   0.000   0.000   0.000   0.000   0.000   0.000   0.000   0.000   0.000
  0.000   0.000   0.000   0.000   0.000   0.000   0.000   0.000   0.000   0.000   0.000   0.000  -0.000   0.000   0.000  -0.000
  0.000   0.000   0.000   0.000   0.000   0.000   0.000   0.000   0.000   0.000   0.000   0.000   0.000  -0.000   0.000   0.000
  0.000   0.000   0.000   0.000   0.000   0.000   0.000   0.000   0.000   0.000   0.000   0.000  -0.000  -0.000   0.000  -0.000
 total augmentation occupancy for first ion, spin component:           3
 -0.000   0.000  -0.000  -0.000  -0.000   0.000   0.000   0.000   0.000   0.000   0.000   0.000   0.000   0.000   0.000   0.000
  0.000  -0.000   0.000  -0.000   0.000   0.000   0.000   0.000   0.000   0.000   0.000   0.000   0.000   0.000   0.000   0.000
 -0.000   0.000  -0.000  -0.000   0.000   0.000  -0.000   0.000  -0.000  -0.000  -0.000  -0.000   0.000   0.000   0.000   0.000
 -0.000  -0.000  -0.000  -0.000  -0.000  -0.000   0.000  -0.000   0.000  -0.000  -0.000  -0.000   0.000   0.000   0.000   0.000
 -0.000   0.000   0.000  -0.000  -0.000  -0.000  -0.000  -0.000  -0.000   0.000  -0.000  -0.000   0.000   0.000   0.000   0.000
  0.000   0.000   0.000  -0.000  -0.000  -0.000  -0.000  -0.000  -0.000  -0.000   0.000  -0.000   0.000   0.000   0.000   0.000
  0.000   0.000  -0.000   0.000  -0.000  -0.000  -0.000   0.000   0.000   0.000   0.000  -0.000   0.000   0.000   0.000   0.000
  0.000   0.000   0.000  -0.000  -0.000  -0.000   0.000  -0.000   0.000   0.000  -0.000   0.000   0.000   0.000   0.000   0.000
  0.000   0.000  -0.000   0.000  -0.000  -0.000   0.000   0.000  -0.000  -0.000  -0.000  -0.000   0.000   0.000   0.000   0.000
  0.000   0.000  -0.000  -0.000   0.000  -0.000   0.000   0.000  -0.000  -0.000  -0.000   0.000   0.000   0.000   0.000   0.000
  0.000   0.000  -0.000  -0.000  -0.000   0.000   0.000  -0.000  -0.000  -0.000  -0.000  -0.000   0.000   0.000   0.000   0.000
  0.000   0.000  -0.000  -0.000  -0.000  -0.000  -0.000   0.000  -0.000   0.000  -0.000  -0.000   0.000   0.000   0.000   0.000
  0.000   0.000   0.000   0.000   0.000   0.000   0.000   0.000   0.000   0.000   0.000   0.000   0.000   0.000   0.000   0.000
  0.000   0.000   0.000   0.000   0.000   0.000   0.000   0.000   0.000   0.000   0.000   0.000   0.000  -0.000   0.000  -0.000
  0.000   0.000   0.000   0.000   0.000   0.000   0.000   0.000   0.000   0.000   0.000   0.000   0.000   0.000  -0.000  -0.000
  0.000   0.000   0.000   0.000   0.000   0.000   0.000   0.000   0.000   0.000   0.000   0.000   0.000  -0.000  -0.000  -0.000
  0.000   0.000   0.000   0.000   0.000   0.000   0.000   0.000   0.000   0.000   0.000   0.000   0.000  -0.000   0.000  -0.000
  0.000   0.000   0.000   0.000   0.000   0.000   0.000   0.000   0.000   0.000   0.000   0.000   0.000   0.000  -0.000  -0.000
 total augmentation occupancy for first ion, spin component:           4
 -0.000  -0.000  -0.000  -0.000  -0.000   0.000  -0.000   0.000  -0.000   0.000  -0.000  -0.000   0.000   0.000   0.000   0.000
 -0.000  -0.000   0.000  -0.000  -0.000  -0.000   0.000  -0.000   0.000  -0.000   0.000   0.000   0.000   0.000   0.000   0.000
 -0.000   0.000  -0.000   0.000   0.000   0.000   0.000   0.000   0.000  -0.000   0.000   0.000   0.000   0.000   0.000   0.000
 -0.000  -0.000   0.000  -0.000   0.000  -0.000   0.000  -0.000   0.000   0.000   0.000   0.000   0.000   0.000   0.000   0.000
 -0.000  -0.000   0.000   0.000  -0.000   0.000   0.000  -0.000  -0.000   0.000  -0.000  -0.000   0.000   0.000   0.000   0.000
  0.000  -0.000   0.000  -0.000   0.000  -0.000   0.000   0.000   0.000  -0.000  -0.000  -0.000   0.000   0.000   0.000   0.000
 -0.000   0.000   0.000   0.000   0.000   0.000  -0.000  -0.000  -0.000   0.000  -0.000  -0.000   0.000   0.000   0.000   0.000
  0.000  -0.000   0.000  -0.000  -0.000   0.000  -0.000  -0.000  -0.000   0.000   0.000  -0.000   0.000   0.000   0.000   0.000
 -0.000   0.000   0.000   0.000  -0.000   0.000  -0.000  -0.000  -0.000  -0.000  -0.000  -0.000   0.000   0.000   0.000   0.000
  0.000  -0.000  -0.000   0.000   0.000  -0.000   0.000   0.000  -0.000  -0.000   0.000  -0.000   0.000   0.000   0.000   0.000
 -0.000   0.000   0.000   0.000  -0.000  -0.000  -0.000   0.000  -0.000   0.000   0.000   0.000   0.000   0.000   0.000   0.000
 -0.000   0.000   0.000   0.000  -0.000  -0.000  -0.000  -0.000  -0.000  -0.000   0.000   0.000   0.000   0.000   0.000   0.000
  0.000   0.000   0.000   0.000   0.000   0.000   0.000   0.000   0.000   0.000   0.000   0.000  -0.000   0.000   0.000  -0.000
  0.000   0.000   0.000   0.000   0.000   0.000   0.000   0.000   0.000   0.000   0.000   0.000   0.000   0.000   0.000   0.000
  0.000   0.000   0.000   0.000   0.000   0.000   0.000   0.000   0.000   0.000   0.000   0.000   0.000   0.000  -0.000   0.000
  0.000   0.000   0.000   0.000   0.000   0.000   0.000   0.000   0.000   0.000   0.000   0.000  -0.000   0.000   0.000  -0.000
  0.000   0.000   0.000   0.000   0.000   0.000   0.000   0.000   0.000   0.000   0.000   0.000  -0.000   0.000  -0.000  -0.000
  0.000   0.000   0.000   0.000   0.000   0.000   0.000   0.000   0.000   0.000   0.000   0.000   0.000   0.000  -0.000   0.000


------------------------ aborting loop because EDIFF is reached ----------------------------------------


    CHARGE:  cpu time    0.3221: real time    0.3221
    FORLOC:  cpu time    0.0004: real time    0.0004
    FORNL :  cpu time    0.5764: real time    0.5765
    STRESS:  cpu time    1.9959: real time    1.9960
    FORCOR:  cpu time    0.0246: real time    0.0246
    FORHAR:  cpu time    0.0022: real time    0.0022
    MIXING:  cpu time    0.0035: real time    0.0035
    OFIELD:  cpu time    0.0000: real time    0.0001

  FORCE on cell =-STRESS in cart. coord.  units (eV):
  Direction    XX          YY          ZZ          XY          YZ          ZX
  --------------------------------------------------------------------------------------
  Alpha Z    85.78503    85.78503    85.78503
  Ewald    -335.95294  -335.95350  -335.95573    -0.00079    -0.00193    -0.00137
  Hartree    42.68056    42.68033    42.67937    -0.00034    -0.00083    -0.00058
  E(xc)     -71.02320   -71.02320   -71.02321    -0.00000    -0.00001    -0.00000
  Local      45.69861    45.69938    45.70251     0.00110     0.00271     0.00191
  n-local   -48.02381   -48.02382   -48.02384    -0.00001    -0.00002    -0.00001
  augment    20.79501    20.79501    20.79502     0.00000     0.00001     0.00001
  Kinetic   260.04106   260.04108   260.04116     0.00003     0.00007     0.00005
  Fock        0.00000     0.00000     0.00000     0.00000     0.00000     0.00000
  -------------------------------------------------------------------------------------
  Total       0.00033     0.00032     0.00032    -0.00001     0.00000    -0.00000
  in kB       0.02045     0.01954     0.01970    -0.00053     0.00015    -0.00013
  external pressure =        0.02 kB  Pullay stress =        0.00 kB


 VOLUME and BASIS-vectors are now :
 -----------------------------------------------------------------------------
  energy-cutoff  :      600.00
  volume of cell :       26.23
      direct lattice vectors                 reciprocal lattice vectors
     3.242102804  0.000000000  0.000000000     0.308441792  0.109049309  0.188876893
    -1.080689200  3.056687986  0.000000000     0.000000000  0.327151481  0.188876893
    -1.080689200 -1.528319100  2.647183819     0.000000000  0.000000000  0.377759940

  length of vectors
     3.242102804  3.242102804  3.242102804     0.377759940  0.377759940  0.377759940


 FORCES acting on ions
    electron-ion (+dipol)            ewald-force                    non-local-force                 convergence-correction
 -----------------------------------------------------------------------------------------------
   -.476E-14 0.153E-14 -.162E-14   -.136E-14 -.342E-15 -.120E-14   0.424E-21 0.424E-21 0.000E+00   0.131E-14 -.456E-14 -.133E-14
 -----------------------------------------------------------------------------------------------
   -.476E-14 0.153E-14 -.162E-14   -.136E-14 -.342E-15 -.120E-14   0.424E-21 0.424E-21 0.000E+00   0.131E-14 -.456E-14 -.133E-14
 
 
 POSITION                                       TOTAL-FORCE (eV/Angst)
 -----------------------------------------------------------------------------------
      0.00000      0.00000      0.00000        -0.000000      0.000000      0.000000
 -----------------------------------------------------------------------------------
    total drift:                               -0.000000     -0.000000     -0.000000


--------------------------------------------------------------------------------------------------------



  FREE ENERGIE OF THE ION-ELECTRON SYSTEM (eV)
  ---------------------------------------------------
  free  energy   TOTEN  =        -1.48299730 eV

  energy  without entropy=       -1.48295848  energy(sigma->0) =       -1.48298436
 


--------------------------------------------------------------------------------------------------------


    POTLOK:  cpu time    0.0900: real time    0.0900


--------------------------------------------------------------------------------------------------------


 Quasi-Newton relaxation of ions (Broydens 2nd method)
  g(Force)  = 0.000E+00   g(Stress)= 0.307E-08

 Reset! Starting new Quasi-Newton update for ions 


--------------------------------------------------------------------------------------------------------


  
 reached required accuracy - stopping structural energy minimisation
     LOOP+:  cpu time   77.9634: real time   77.9799
    4ORBIT:  cpu time    0.0000: real time    0.0000

 Spin-Orbit-Coupling matrix elements

 Ion:    1  E_soc:     -2.8473709
 l=   1
     0.0000000    -0.1433344    -0.1433355
    -0.1433344     0.0000000    -0.1433346
    -0.1433355    -0.1433346     0.0000000
 l=   2
     0.0000000    -0.0651807     0.0000000    -0.0634065    -0.2660467
    -0.0651807     0.0000000    -0.2008651    -0.0651807    -0.0669551
     0.0000000    -0.2008651     0.0000000    -0.1982039     0.0000000
    -0.0634065    -0.0651807    -0.1982039     0.0000000    -0.0678423
    -0.2660467    -0.0669551     0.0000000    -0.0678423     0.0000000
 l=   3
     0.0000000     0.0000000     0.0000000     0.0000000     0.0000000     0.0000000     0.0000000
     0.0000000     0.0000000     0.0000000     0.0000000     0.0000000     0.0000000     0.0000000
     0.0000000     0.0000000     0.0000000     0.0000000     0.0000000     0.0000000     0.0000000
     0.0000000     0.0000000     0.0000000     0.0000000     0.0000000     0.0000000     0.0000000
     0.0000000     0.0000000     0.0000000     0.0000000     0.0000000     0.0000000     0.0000000
     0.0000000     0.0000000     0.0000000     0.0000000     0.0000000     0.0000000     0.0000000
     0.0000000     0.0000000     0.0000000     0.0000000     0.0000000     0.0000000     0.0000000

 total amount of memory used by VASP MPI-rank0   105635. kBytes
=======================================================================

   base      :      30000. kBytes
   nonl-proj :      28001. kBytes
   fftplans  :       3396. kBytes
   grid      :       3512. kBytes
   one-center:         62. kBytes
   wavefun   :      40664. kBytes
 
  
  
 General timing and accounting informations for this job:
 ========================================================
  
                  Total CPU time used (sec):       82.952
                            User time (sec):       81.013
                          System time (sec):        1.939
                         Elapsed time (sec):       83.523
  
                   Maximum memory used (kb):      152824.
                   Average memory used (kb):           0.
  
                          Minor page faults:       379176
                          Major page faults:            0
                 Voluntary context switches:        36136
