<?xml version="1.0" encoding="ISO-8859-1"?>
<modeling>
 <generator>
  <i name="program" type="string">vasp </i>
  <i name="version" type="string">5.4.4.18Apr17-6-g9f103f2a35  </i>
  <i name="subversion" type="string">(build Nov 03 2018 10:20:46) complex            parallel </i>
  <i name="platform" type="string">LinuxIFC </i>
  <i name="date" type="string">2018 11 14 </i>
  <i name="time" type="string">09:37:02 </i>
 </generator>
 <incar>
  <i type="string" name="SYSTEM">   Cn_BCC</i>
  <i type="string" name="PREC">accurate</i>
  <i type="string" name="ALGO">   Fast</i>
  <i type="logical" name="ADDGRID"> T  </i>
  <i type="logical" name="LSORBIT"> T  </i>
  <i type="int" name="ISPIN">     1</i>
  <i type="int" name="MAXMIX">    50</i>
  <i type="int" name="NELM">   100</i>
  <i type="int" name="NELMDL">    -5</i>
  <i type="int" name="NELMIN">     5</i>
  <i type="int" name="IBRION">     1</i>
  <i type="int" name="NFREE">     5</i>
  <i name="EDIFF">      0.00000010</i>
  <i name="EDIFFG">      0.00001000</i>
  <i type="int" name="NSW">   999</i>
  <i type="int" name="ISIF">     7</i>
  <i type="int" name="ISYM">     2</i>
  <i name="SYMPREC">      0.00000010</i>
  <i name="ENCUT">    600.00000000</i>
  <i name="POTIM">      0.10000000</i>
  <i type="logical" name="LREAL"> F  </i>
  <i type="int" name="ISMEAR">     1</i>
  <i name="SIGMA">      0.10000000</i>
  <i name="KSPACING">      0.20000000</i>
  <i type="int" name="NWRITE">     2</i>
  <i type="logical" name="LWAVE"> F  </i>
  <i type="logical" name="LCHARG"> F  </i>
  <i type="logical" name="LVTOT"> F  </i>
  <i type="logical" name="GGA_COMPAT"> F  </i>
  <v type="int" name="KPOINT_BSE">    -1     0     0     0</v>
  <i type="int" name="NELM">   100</i>
  <i type="string" name="GGA"> PS</i>
 </incar>
 <structure name="primitive_cell" >
  <crystal>
   <varray name="basis" >
    <v>       3.24210280       0.00000000       0.00000000 </v>
    <v>      -1.08068920       3.05668799       0.00000000 </v>
    <v>      -1.08068920      -1.52831910       2.64718382 </v>
   </varray>
   <i name="volume">     26.23384760 </i>
   <varray name="rec_basis" >
    <v>       0.30844179       0.10904931       0.18887689 </v>
    <v>       0.00000000       0.32715148       0.18887689 </v>
    <v>       0.00000000       0.00000000       0.37775994 </v>
   </varray>
  </crystal>
  <varray name="positions" >
   <v>       0.00000000       0.00000000       0.00000000 </v>
  </varray>
 </structure>
 <varray name="primitive_index" >
  <v type="int" >        1 </v>
 </varray>
 <kpoints>
  <generation param="Gamma">
   <v type="int" name="divisions">      12       12       12 </v>
   <v name="usershift">      0.00000000       0.00000000       0.00000000 </v>
   <v name="genvec1">      0.08333333      -0.00000000       0.00000000 </v>
   <v name="genvec2">      0.00000000       0.08333333       0.00000000 </v>
   <v name="genvec3">      0.00000000       0.00000000       0.08333333 </v>
   <v name="shift">      0.00000000       0.00000000       0.00000000 </v>
  </generation>
  <varray name="kpointlist" >
   <v>       0.00000000       0.00000000       0.00000000 </v>
   <v>       0.08333333      -0.00000000       0.00000000 </v>
   <v>       0.16666667       0.00000000       0.00000000 </v>
   <v>       0.25000000       0.00000000       0.00000000 </v>
   <v>       0.33333333       0.00000000      -0.00000000 </v>
   <v>       0.41666667       0.00000000       0.00000000 </v>
   <v>       0.50000000       0.00000000       0.00000000 </v>
   <v>       0.00000000       0.08333333       0.00000000 </v>
   <v>       0.08333333       0.08333333       0.00000000 </v>
   <v>       0.16666667       0.08333333       0.00000000 </v>
   <v>       0.25000000       0.08333333       0.00000000 </v>
   <v>       0.33333333       0.08333333       0.00000000 </v>
   <v>       0.41666667       0.08333333       0.00000000 </v>
   <v>       0.50000000       0.08333333       0.00000000 </v>
   <v>      -0.41666667       0.08333333       0.00000000 </v>
   <v>      -0.33333333       0.08333333       0.00000000 </v>
   <v>      -0.25000000       0.08333333      -0.00000000 </v>
   <v>      -0.16666667       0.08333333      -0.00000000 </v>
   <v>      -0.08333333       0.08333333       0.00000000 </v>
   <v>       0.00000000       0.16666667       0.00000000 </v>
   <v>       0.08333333       0.16666667       0.00000000 </v>
   <v>       0.16666667       0.16666667       0.00000000 </v>
   <v>       0.25000000       0.16666667       0.00000000 </v>
   <v>       0.33333333       0.16666667       0.00000000 </v>
   <v>       0.41666667       0.16666667       0.00000000 </v>
   <v>       0.50000000       0.16666667       0.00000000 </v>
   <v>      -0.41666667       0.16666667      -0.00000000 </v>
   <v>      -0.33333333       0.16666667      -0.00000000 </v>
   <v>      -0.25000000       0.16666667       0.00000000 </v>
   <v>      -0.16666667       0.16666667      -0.00000000 </v>
   <v>      -0.08333333       0.16666667       0.00000000 </v>
   <v>       0.00000000       0.25000000      -0.00000000 </v>
   <v>       0.08333333       0.25000000      -0.00000000 </v>
   <v>       0.16666667       0.25000000       0.00000000 </v>
   <v>       0.25000000       0.25000000      -0.00000000 </v>
   <v>       0.33333333       0.25000000       0.00000000 </v>
   <v>       0.41666667       0.25000000      -0.00000000 </v>
   <v>       0.50000000       0.25000000       0.00000000 </v>
   <v>      -0.41666667       0.25000000      -0.00000000 </v>
   <v>      -0.33333333       0.25000000      -0.00000000 </v>
   <v>      -0.25000000       0.25000000      -0.00000000 </v>
   <v>      -0.16666667       0.25000000      -0.00000000 </v>
   <v>      -0.08333333       0.25000000       0.00000000 </v>
   <v>       0.00000000       0.33333333       0.00000000 </v>
   <v>       0.08333333       0.33333333      -0.00000000 </v>
   <v>       0.16666667       0.33333333       0.00000000 </v>
   <v>       0.25000000       0.33333333       0.00000000 </v>
   <v>       0.33333333       0.33333333       0.00000000 </v>
   <v>       0.41666667       0.33333333       0.00000000 </v>
   <v>       0.50000000       0.33333333       0.00000000 </v>
   <v>      -0.41666667       0.33333333       0.00000000 </v>
   <v>      -0.33333333       0.33333333       0.00000000 </v>
   <v>      -0.25000000       0.33333333       0.00000000 </v>
   <v>      -0.16666667       0.33333333       0.00000000 </v>
   <v>      -0.08333333       0.33333333       0.00000000 </v>
   <v>       0.00000000       0.41666667       0.00000000 </v>
   <v>       0.08333333       0.41666667       0.00000000 </v>
   <v>       0.16666667       0.41666667       0.00000000 </v>
   <v>       0.25000000       0.41666667       0.00000000 </v>
   <v>       0.33333333       0.41666667       0.00000000 </v>
   <v>       0.41666667       0.41666667       0.00000000 </v>
   <v>       0.50000000       0.41666667      -0.00000000 </v>
   <v>      -0.41666667       0.41666667      -0.00000000 </v>
   <v>      -0.33333333       0.41666667       0.00000000 </v>
   <v>      -0.25000000       0.41666667       0.00000000 </v>
   <v>      -0.16666667       0.41666667       0.00000000 </v>
   <v>      -0.08333333       0.41666667       0.00000000 </v>
   <v>       0.00000000       0.50000000      -0.00000000 </v>
   <v>       0.08333333       0.50000000      -0.00000000 </v>
   <v>       0.16666667       0.50000000       0.00000000 </v>
   <v>       0.25000000       0.50000000       0.00000000 </v>
   <v>       0.33333333       0.50000000       0.00000000 </v>
   <v>       0.41666667       0.50000000       0.00000000 </v>
   <v>       0.50000000       0.50000000      -0.00000000 </v>
   <v>       0.00000000       0.00000000       0.08333333 </v>
   <v>       0.08333333      -0.00000000       0.08333333 </v>
   <v>       0.16666667       0.00000000       0.08333333 </v>
   <v>       0.25000000       0.00000000       0.08333333 </v>
   <v>       0.33333333       0.00000000       0.08333333 </v>
   <v>       0.41666667       0.00000000       0.08333333 </v>
   <v>       0.50000000       0.00000000       0.08333333 </v>
   <v>      -0.41666667       0.00000000       0.08333333 </v>
   <v>      -0.33333333      -0.00000000       0.08333333 </v>
   <v>      -0.25000000       0.00000000       0.08333333 </v>
   <v>      -0.16666667       0.00000000       0.08333333 </v>
   <v>      -0.08333333       0.00000000       0.08333333 </v>
   <v>       0.00000000       0.08333333       0.08333333 </v>
   <v>       0.08333333       0.08333333       0.08333333 </v>
   <v>       0.16666667       0.08333333       0.08333333 </v>
   <v>       0.25000000       0.08333333       0.08333333 </v>
   <v>       0.33333333       0.08333333       0.08333333 </v>
   <v>       0.41666667       0.08333333       0.08333333 </v>
   <v>       0.50000000       0.08333333       0.08333333 </v>
   <v>      -0.41666667       0.08333333       0.08333333 </v>
   <v>      -0.33333333       0.08333333       0.08333333 </v>
   <v>      -0.25000000       0.08333333       0.08333333 </v>
   <v>      -0.16666667       0.08333333       0.08333333 </v>
   <v>      -0.08333333       0.08333333       0.08333333 </v>
   <v>       0.00000000       0.16666667       0.08333333 </v>
   <v>       0.08333333       0.16666667       0.08333333 </v>
   <v>       0.16666667       0.16666667       0.08333333 </v>
   <v>       0.25000000       0.16666667       0.08333333 </v>
   <v>       0.33333333       0.16666667       0.08333333 </v>
   <v>       0.41666667       0.16666667       0.08333333 </v>
   <v>       0.50000000       0.16666667       0.08333333 </v>
   <v>      -0.41666667       0.16666667       0.08333333 </v>
   <v>      -0.33333333       0.16666667       0.08333333 </v>
   <v>      -0.25000000       0.16666667       0.08333333 </v>
   <v>      -0.16666667       0.16666667       0.08333333 </v>
   <v>      -0.08333333       0.16666667       0.08333333 </v>
   <v>       0.00000000       0.25000000       0.08333333 </v>
   <v>       0.08333333       0.25000000       0.08333333 </v>
   <v>       0.16666667       0.25000000       0.08333333 </v>
   <v>       0.25000000       0.25000000       0.08333333 </v>
   <v>       0.33333333       0.25000000       0.08333333 </v>
   <v>       0.41666667       0.25000000       0.08333333 </v>
   <v>       0.50000000       0.25000000       0.08333333 </v>
   <v>      -0.41666667       0.25000000       0.08333333 </v>
   <v>      -0.33333333       0.25000000       0.08333333 </v>
   <v>      -0.25000000       0.25000000       0.08333333 </v>
   <v>      -0.16666667       0.25000000       0.08333333 </v>
   <v>      -0.08333333       0.25000000       0.08333333 </v>
   <v>       0.00000000       0.33333333       0.08333333 </v>
   <v>       0.08333333       0.33333333       0.08333333 </v>
   <v>       0.16666667       0.33333333       0.08333333 </v>
   <v>       0.25000000       0.33333333       0.08333333 </v>
   <v>       0.33333333       0.33333333       0.08333333 </v>
   <v>       0.41666667       0.33333333       0.08333333 </v>
   <v>       0.50000000       0.33333333       0.08333333 </v>
   <v>      -0.41666667       0.33333333       0.08333333 </v>
   <v>      -0.33333333       0.33333333       0.08333333 </v>
   <v>      -0.25000000       0.33333333       0.08333333 </v>
   <v>      -0.16666667       0.33333333       0.08333333 </v>
   <v>      -0.08333333       0.33333333       0.08333333 </v>
   <v>       0.00000000       0.41666667       0.08333333 </v>
   <v>       0.08333333       0.41666667       0.08333333 </v>
   <v>       0.16666667       0.41666667       0.08333333 </v>
   <v>       0.25000000       0.41666667       0.08333333 </v>
   <v>       0.33333333       0.41666667       0.08333333 </v>
   <v>       0.41666667       0.41666667       0.08333333 </v>
   <v>       0.50000000       0.41666667       0.08333333 </v>
   <v>      -0.41666667       0.41666667       0.08333333 </v>
   <v>      -0.33333333       0.41666667       0.08333333 </v>
   <v>      -0.25000000       0.41666667       0.08333333 </v>
   <v>      -0.16666667       0.41666667       0.08333333 </v>
   <v>      -0.08333333       0.41666667       0.08333333 </v>
   <v>       0.00000000       0.50000000       0.08333333 </v>
   <v>       0.08333333       0.50000000       0.08333333 </v>
   <v>       0.16666667       0.50000000       0.08333333 </v>
   <v>       0.25000000       0.50000000       0.08333333 </v>
   <v>       0.33333333       0.50000000       0.08333333 </v>
   <v>       0.41666667       0.50000000       0.08333333 </v>
   <v>       0.50000000       0.50000000       0.08333333 </v>
   <v>      -0.41666667       0.50000000       0.08333333 </v>
   <v>      -0.33333333       0.50000000       0.08333333 </v>
   <v>      -0.25000000       0.50000000       0.08333333 </v>
   <v>      -0.16666667       0.50000000       0.08333333 </v>
   <v>      -0.08333333       0.50000000       0.08333333 </v>
   <v>       0.00000000      -0.41666667       0.08333333 </v>
   <v>       0.08333333      -0.41666667       0.08333333 </v>
   <v>       0.16666667      -0.41666667       0.08333333 </v>
   <v>       0.25000000      -0.41666667       0.08333333 </v>
   <v>       0.33333333      -0.41666667       0.08333333 </v>
   <v>       0.41666667      -0.41666667       0.08333333 </v>
   <v>       0.50000000      -0.41666667       0.08333333 </v>
   <v>      -0.41666667      -0.41666667       0.08333333 </v>
   <v>      -0.33333333      -0.41666667       0.08333333 </v>
   <v>      -0.25000000      -0.41666667       0.08333333 </v>
   <v>      -0.16666667      -0.41666667       0.08333333 </v>
   <v>      -0.08333333      -0.41666667       0.08333333 </v>
   <v>       0.00000000      -0.33333333       0.08333333 </v>
   <v>       0.08333333      -0.33333333       0.08333333 </v>
   <v>       0.16666667      -0.33333333       0.08333333 </v>
   <v>       0.25000000      -0.33333333       0.08333333 </v>
   <v>       0.33333333      -0.33333333       0.08333333 </v>
   <v>       0.41666667      -0.33333333       0.08333333 </v>
   <v>       0.50000000      -0.33333333       0.08333333 </v>
   <v>      -0.41666667      -0.33333333       0.08333333 </v>
   <v>      -0.33333333      -0.33333333       0.08333333 </v>
   <v>      -0.25000000      -0.33333333       0.08333333 </v>
   <v>      -0.16666667      -0.33333333       0.08333333 </v>
   <v>      -0.08333333      -0.33333333       0.08333333 </v>
   <v>       0.00000000      -0.25000000       0.08333333 </v>
   <v>       0.08333333      -0.25000000       0.08333333 </v>
   <v>       0.16666667      -0.25000000       0.08333333 </v>
   <v>       0.25000000      -0.25000000       0.08333333 </v>
   <v>       0.33333333      -0.25000000       0.08333333 </v>
   <v>       0.41666667      -0.25000000       0.08333333 </v>
   <v>       0.50000000      -0.25000000       0.08333333 </v>
   <v>      -0.41666667      -0.25000000       0.08333333 </v>
   <v>      -0.33333333      -0.25000000       0.08333333 </v>
   <v>      -0.25000000      -0.25000000       0.08333333 </v>
   <v>      -0.16666667      -0.25000000       0.08333333 </v>
   <v>      -0.08333333      -0.25000000       0.08333333 </v>
   <v>       0.00000000      -0.16666667       0.08333333 </v>
   <v>       0.08333333      -0.16666667       0.08333333 </v>
   <v>       0.16666667      -0.16666667       0.08333333 </v>
   <v>       0.25000000      -0.16666667       0.08333333 </v>
   <v>       0.33333333      -0.16666667       0.08333333 </v>
   <v>       0.41666667      -0.16666667       0.08333333 </v>
   <v>       0.50000000      -0.16666667       0.08333333 </v>
   <v>      -0.41666667      -0.16666667       0.08333333 </v>
   <v>      -0.33333333      -0.16666667       0.08333333 </v>
   <v>      -0.25000000      -0.16666667       0.08333333 </v>
   <v>      -0.16666667      -0.16666667       0.08333333 </v>
   <v>      -0.08333333      -0.16666667       0.08333333 </v>
   <v>       0.00000000      -0.08333333       0.08333333 </v>
   <v>       0.08333333      -0.08333333       0.08333333 </v>
   <v>       0.16666667      -0.08333333       0.08333333 </v>
   <v>       0.25000000      -0.08333333       0.08333333 </v>
   <v>       0.33333333      -0.08333333       0.08333333 </v>
   <v>       0.41666667      -0.08333333       0.08333333 </v>
   <v>       0.50000000      -0.08333333       0.08333333 </v>
   <v>      -0.41666667      -0.08333333       0.08333333 </v>
   <v>      -0.33333333      -0.08333333       0.08333333 </v>
   <v>      -0.25000000      -0.08333333       0.08333333 </v>
   <v>      -0.16666667      -0.08333333       0.08333333 </v>
   <v>      -0.08333333      -0.08333333       0.08333333 </v>
   <v>       0.00000000       0.00000000       0.16666667 </v>
   <v>       0.08333333      -0.00000000       0.16666667 </v>
   <v>       0.16666667       0.00000000       0.16666667 </v>
   <v>       0.25000000       0.00000000       0.16666667 </v>
   <v>       0.33333333       0.00000000       0.16666667 </v>
   <v>       0.41666667       0.00000000       0.16666667 </v>
   <v>       0.50000000       0.00000000       0.16666667 </v>
   <v>      -0.41666667       0.00000000       0.16666667 </v>
   <v>      -0.33333333      -0.00000000       0.16666667 </v>
   <v>      -0.25000000       0.00000000       0.16666667 </v>
   <v>      -0.16666667       0.00000000       0.16666667 </v>
   <v>      -0.08333333       0.00000000       0.16666667 </v>
   <v>       0.00000000       0.08333333       0.16666667 </v>
   <v>       0.08333333       0.08333333       0.16666667 </v>
   <v>       0.16666667       0.08333333       0.16666667 </v>
   <v>       0.25000000       0.08333333       0.16666667 </v>
   <v>       0.33333333       0.08333333       0.16666667 </v>
   <v>       0.41666667       0.08333333       0.16666667 </v>
   <v>       0.50000000       0.08333333       0.16666667 </v>
   <v>      -0.41666667       0.08333333       0.16666667 </v>
   <v>      -0.33333333       0.08333333       0.16666667 </v>
   <v>      -0.25000000       0.08333333       0.16666667 </v>
   <v>      -0.16666667       0.08333333       0.16666667 </v>
   <v>      -0.08333333       0.08333333       0.16666667 </v>
   <v>       0.00000000       0.16666667       0.16666667 </v>
   <v>       0.08333333       0.16666667       0.16666667 </v>
   <v>       0.16666667       0.16666667       0.16666667 </v>
   <v>       0.25000000       0.16666667       0.16666667 </v>
   <v>       0.33333333       0.16666667       0.16666667 </v>
   <v>       0.41666667       0.16666667       0.16666667 </v>
   <v>       0.50000000       0.16666667       0.16666667 </v>
   <v>      -0.41666667       0.16666667       0.16666667 </v>
   <v>      -0.33333333       0.16666667       0.16666667 </v>
   <v>      -0.25000000       0.16666667       0.16666667 </v>
   <v>      -0.16666667       0.16666667       0.16666667 </v>
   <v>      -0.08333333       0.16666667       0.16666667 </v>
   <v>       0.00000000       0.25000000       0.16666667 </v>
   <v>       0.08333333       0.25000000       0.16666667 </v>
   <v>       0.16666667       0.25000000       0.16666667 </v>
   <v>       0.25000000       0.25000000       0.16666667 </v>
   <v>       0.33333333       0.25000000       0.16666667 </v>
   <v>       0.41666667       0.25000000       0.16666667 </v>
   <v>       0.50000000       0.25000000       0.16666667 </v>
   <v>      -0.41666667       0.25000000       0.16666667 </v>
   <v>      -0.33333333       0.25000000       0.16666667 </v>
   <v>      -0.25000000       0.25000000       0.16666667 </v>
   <v>      -0.16666667       0.25000000       0.16666667 </v>
   <v>      -0.08333333       0.25000000       0.16666667 </v>
   <v>       0.00000000       0.33333333       0.16666667 </v>
   <v>       0.08333333       0.33333333       0.16666667 </v>
   <v>       0.16666667       0.33333333       0.16666667 </v>
   <v>       0.25000000       0.33333333       0.16666667 </v>
   <v>       0.33333333       0.33333333       0.16666667 </v>
   <v>       0.41666667       0.33333333       0.16666667 </v>
   <v>       0.50000000       0.33333333       0.16666667 </v>
   <v>      -0.41666667       0.33333333       0.16666667 </v>
   <v>      -0.33333333       0.33333333       0.16666667 </v>
   <v>      -0.25000000       0.33333333       0.16666667 </v>
   <v>      -0.16666667       0.33333333       0.16666667 </v>
   <v>      -0.08333333       0.33333333       0.16666667 </v>
   <v>       0.00000000       0.41666667       0.16666667 </v>
   <v>       0.08333333       0.41666667       0.16666667 </v>
   <v>       0.16666667       0.41666667       0.16666667 </v>
   <v>       0.25000000       0.41666667       0.16666667 </v>
   <v>       0.33333333       0.41666667       0.16666667 </v>
   <v>       0.41666667       0.41666667       0.16666667 </v>
   <v>       0.50000000       0.41666667       0.16666667 </v>
   <v>      -0.41666667       0.41666667       0.16666667 </v>
   <v>      -0.33333333       0.41666667       0.16666667 </v>
   <v>      -0.25000000       0.41666667       0.16666667 </v>
   <v>      -0.16666667       0.41666667       0.16666667 </v>
   <v>      -0.08333333       0.41666667       0.16666667 </v>
   <v>       0.00000000       0.50000000       0.16666667 </v>
   <v>       0.08333333       0.50000000       0.16666667 </v>
   <v>       0.16666667       0.50000000       0.16666667 </v>
   <v>       0.25000000       0.50000000       0.16666667 </v>
   <v>       0.33333333       0.50000000       0.16666667 </v>
   <v>       0.41666667       0.50000000       0.16666667 </v>
   <v>       0.50000000       0.50000000       0.16666667 </v>
   <v>      -0.41666667       0.50000000       0.16666667 </v>
   <v>      -0.33333333       0.50000000       0.16666667 </v>
   <v>      -0.25000000       0.50000000       0.16666667 </v>
   <v>      -0.16666667       0.50000000       0.16666667 </v>
   <v>      -0.08333333       0.50000000       0.16666667 </v>
   <v>       0.00000000      -0.41666667       0.16666667 </v>
   <v>       0.08333333      -0.41666667       0.16666667 </v>
   <v>       0.16666667      -0.41666667       0.16666667 </v>
   <v>       0.25000000      -0.41666667       0.16666667 </v>
   <v>       0.33333333      -0.41666667       0.16666667 </v>
   <v>       0.41666667      -0.41666667       0.16666667 </v>
   <v>       0.50000000      -0.41666667       0.16666667 </v>
   <v>      -0.41666667      -0.41666667       0.16666667 </v>
   <v>      -0.33333333      -0.41666667       0.16666667 </v>
   <v>      -0.25000000      -0.41666667       0.16666667 </v>
   <v>      -0.16666667      -0.41666667       0.16666667 </v>
   <v>      -0.08333333      -0.41666667       0.16666667 </v>
   <v>       0.00000000      -0.33333333       0.16666667 </v>
   <v>       0.08333333      -0.33333333       0.16666667 </v>
   <v>       0.16666667      -0.33333333       0.16666667 </v>
   <v>       0.25000000      -0.33333333       0.16666667 </v>
   <v>       0.33333333      -0.33333333       0.16666667 </v>
   <v>       0.41666667      -0.33333333       0.16666667 </v>
   <v>       0.50000000      -0.33333333       0.16666667 </v>
   <v>      -0.41666667      -0.33333333       0.16666667 </v>
   <v>      -0.33333333      -0.33333333       0.16666667 </v>
   <v>      -0.25000000      -0.33333333       0.16666667 </v>
   <v>      -0.16666667      -0.33333333       0.16666667 </v>
   <v>      -0.08333333      -0.33333333       0.16666667 </v>
   <v>       0.00000000      -0.25000000       0.16666667 </v>
   <v>       0.08333333      -0.25000000       0.16666667 </v>
   <v>       0.16666667      -0.25000000       0.16666667 </v>
   <v>       0.25000000      -0.25000000       0.16666667 </v>
   <v>       0.33333333      -0.25000000       0.16666667 </v>
   <v>       0.41666667      -0.25000000       0.16666667 </v>
   <v>       0.50000000      -0.25000000       0.16666667 </v>
   <v>      -0.41666667      -0.25000000       0.16666667 </v>
   <v>      -0.33333333      -0.25000000       0.16666667 </v>
   <v>      -0.25000000      -0.25000000       0.16666667 </v>
   <v>      -0.16666667      -0.25000000       0.16666667 </v>
   <v>      -0.08333333      -0.25000000       0.16666667 </v>
   <v>       0.00000000      -0.16666667       0.16666667 </v>
   <v>       0.08333333      -0.16666667       0.16666667 </v>
   <v>       0.16666667      -0.16666667       0.16666667 </v>
   <v>       0.25000000      -0.16666667       0.16666667 </v>
   <v>       0.33333333      -0.16666667       0.16666667 </v>
   <v>       0.41666667      -0.16666667       0.16666667 </v>
   <v>       0.50000000      -0.16666667       0.16666667 </v>
   <v>      -0.41666667      -0.16666667       0.16666667 </v>
   <v>      -0.33333333      -0.16666667       0.16666667 </v>
   <v>      -0.25000000      -0.16666667       0.16666667 </v>
   <v>      -0.16666667      -0.16666667       0.16666667 </v>
   <v>      -0.08333333      -0.16666667       0.16666667 </v>
   <v>       0.00000000      -0.08333333       0.16666667 </v>
   <v>       0.08333333      -0.08333333       0.16666667 </v>
   <v>       0.16666667      -0.08333333       0.16666667 </v>
   <v>       0.25000000      -0.08333333       0.16666667 </v>
   <v>       0.33333333      -0.08333333       0.16666667 </v>
   <v>       0.41666667      -0.08333333       0.16666667 </v>
   <v>       0.50000000      -0.08333333       0.16666667 </v>
   <v>      -0.41666667      -0.08333333       0.16666667 </v>
   <v>      -0.33333333      -0.08333333       0.16666667 </v>
   <v>      -0.25000000      -0.08333333       0.16666667 </v>
   <v>      -0.16666667      -0.08333333       0.16666667 </v>
   <v>      -0.08333333      -0.08333333       0.16666667 </v>
   <v>       0.00000000       0.00000000       0.25000000 </v>
   <v>       0.08333333      -0.00000000       0.25000000 </v>
   <v>       0.16666667       0.00000000       0.25000000 </v>
   <v>       0.25000000       0.00000000       0.25000000 </v>
   <v>       0.33333333       0.00000000       0.25000000 </v>
   <v>       0.41666667       0.00000000       0.25000000 </v>
   <v>       0.50000000       0.00000000       0.25000000 </v>
   <v>      -0.41666667       0.00000000       0.25000000 </v>
   <v>      -0.33333333      -0.00000000       0.25000000 </v>
   <v>      -0.25000000       0.00000000       0.25000000 </v>
   <v>      -0.16666667       0.00000000       0.25000000 </v>
   <v>      -0.08333333       0.00000000       0.25000000 </v>
   <v>       0.00000000       0.08333333       0.25000000 </v>
   <v>       0.08333333       0.08333333       0.25000000 </v>
   <v>       0.16666667       0.08333333       0.25000000 </v>
   <v>       0.25000000       0.08333333       0.25000000 </v>
   <v>       0.33333333       0.08333333       0.25000000 </v>
   <v>       0.41666667       0.08333333       0.25000000 </v>
   <v>       0.50000000       0.08333333       0.25000000 </v>
   <v>      -0.41666667       0.08333333       0.25000000 </v>
   <v>      -0.33333333       0.08333333       0.25000000 </v>
   <v>      -0.25000000       0.08333333       0.25000000 </v>
   <v>      -0.16666667       0.08333333       0.25000000 </v>
   <v>      -0.08333333       0.08333333       0.25000000 </v>
   <v>       0.00000000       0.16666667       0.25000000 </v>
   <v>       0.08333333       0.16666667       0.25000000 </v>
   <v>       0.16666667       0.16666667       0.25000000 </v>
   <v>       0.25000000       0.16666667       0.25000000 </v>
   <v>       0.33333333       0.16666667       0.25000000 </v>
   <v>       0.41666667       0.16666667       0.25000000 </v>
   <v>       0.50000000       0.16666667       0.25000000 </v>
   <v>      -0.41666667       0.16666667       0.25000000 </v>
   <v>      -0.33333333       0.16666667       0.25000000 </v>
   <v>      -0.25000000       0.16666667       0.25000000 </v>
   <v>      -0.16666667       0.16666667       0.25000000 </v>
   <v>      -0.08333333       0.16666667       0.25000000 </v>
   <v>       0.00000000       0.25000000       0.25000000 </v>
   <v>       0.08333333       0.25000000       0.25000000 </v>
   <v>       0.16666667       0.25000000       0.25000000 </v>
   <v>       0.25000000       0.25000000       0.25000000 </v>
   <v>       0.33333333       0.25000000       0.25000000 </v>
   <v>       0.41666667       0.25000000       0.25000000 </v>
   <v>       0.50000000       0.25000000       0.25000000 </v>
   <v>      -0.41666667       0.25000000       0.25000000 </v>
   <v>      -0.33333333       0.25000000       0.25000000 </v>
   <v>      -0.25000000       0.25000000       0.25000000 </v>
   <v>      -0.16666667       0.25000000       0.25000000 </v>
   <v>      -0.08333333       0.25000000       0.25000000 </v>
   <v>       0.00000000       0.33333333       0.25000000 </v>
   <v>       0.08333333       0.33333333       0.25000000 </v>
   <v>       0.16666667       0.33333333       0.25000000 </v>
   <v>       0.25000000       0.33333333       0.25000000 </v>
   <v>       0.33333333       0.33333333       0.25000000 </v>
   <v>       0.41666667       0.33333333       0.25000000 </v>
   <v>       0.50000000       0.33333333       0.25000000 </v>
   <v>      -0.41666667       0.33333333       0.25000000 </v>
   <v>      -0.33333333       0.33333333       0.25000000 </v>
   <v>      -0.25000000       0.33333333       0.25000000 </v>
   <v>      -0.16666667       0.33333333       0.25000000 </v>
   <v>      -0.08333333       0.33333333       0.25000000 </v>
   <v>       0.00000000       0.41666667       0.25000000 </v>
   <v>       0.08333333       0.41666667       0.25000000 </v>
   <v>       0.16666667       0.41666667       0.25000000 </v>
   <v>       0.25000000       0.41666667       0.25000000 </v>
   <v>       0.33333333       0.41666667       0.25000000 </v>
   <v>       0.41666667       0.41666667       0.25000000 </v>
   <v>       0.50000000       0.41666667       0.25000000 </v>
   <v>      -0.41666667       0.41666667       0.25000000 </v>
   <v>      -0.33333333       0.41666667       0.25000000 </v>
   <v>      -0.25000000       0.41666667       0.25000000 </v>
   <v>      -0.16666667       0.41666667       0.25000000 </v>
   <v>      -0.08333333       0.41666667       0.25000000 </v>
   <v>       0.00000000       0.50000000       0.25000000 </v>
   <v>       0.08333333       0.50000000       0.25000000 </v>
   <v>       0.16666667       0.50000000       0.25000000 </v>
   <v>       0.25000000       0.50000000       0.25000000 </v>
   <v>       0.33333333       0.50000000       0.25000000 </v>
   <v>       0.41666667       0.50000000       0.25000000 </v>
   <v>       0.50000000       0.50000000       0.25000000 </v>
   <v>      -0.41666667       0.50000000       0.25000000 </v>
   <v>      -0.33333333       0.50000000       0.25000000 </v>
   <v>      -0.25000000       0.50000000       0.25000000 </v>
   <v>      -0.16666667       0.50000000       0.25000000 </v>
   <v>      -0.08333333       0.50000000       0.25000000 </v>
   <v>       0.00000000      -0.41666667       0.25000000 </v>
   <v>       0.08333333      -0.41666667       0.25000000 </v>
   <v>       0.16666667      -0.41666667       0.25000000 </v>
   <v>       0.25000000      -0.41666667       0.25000000 </v>
   <v>       0.33333333      -0.41666667       0.25000000 </v>
   <v>       0.41666667      -0.41666667       0.25000000 </v>
   <v>       0.50000000      -0.41666667       0.25000000 </v>
   <v>      -0.41666667      -0.41666667       0.25000000 </v>
   <v>      -0.33333333      -0.41666667       0.25000000 </v>
   <v>      -0.25000000      -0.41666667       0.25000000 </v>
   <v>      -0.16666667      -0.41666667       0.25000000 </v>
   <v>      -0.08333333      -0.41666667       0.25000000 </v>
   <v>       0.00000000      -0.33333333       0.25000000 </v>
   <v>       0.08333333      -0.33333333       0.25000000 </v>
   <v>       0.16666667      -0.33333333       0.25000000 </v>
   <v>       0.25000000      -0.33333333       0.25000000 </v>
   <v>       0.33333333      -0.33333333       0.25000000 </v>
   <v>       0.41666667      -0.33333333       0.25000000 </v>
   <v>       0.50000000      -0.33333333       0.25000000 </v>
   <v>      -0.41666667      -0.33333333       0.25000000 </v>
   <v>      -0.33333333      -0.33333333       0.25000000 </v>
   <v>      -0.25000000      -0.33333333       0.25000000 </v>
   <v>      -0.16666667      -0.33333333       0.25000000 </v>
   <v>      -0.08333333      -0.33333333       0.25000000 </v>
   <v>       0.00000000      -0.25000000       0.25000000 </v>
   <v>       0.08333333      -0.25000000       0.25000000 </v>
   <v>       0.16666667      -0.25000000       0.25000000 </v>
   <v>       0.25000000      -0.25000000       0.25000000 </v>
   <v>       0.33333333      -0.25000000       0.25000000 </v>
   <v>       0.41666667      -0.25000000       0.25000000 </v>
   <v>       0.50000000      -0.25000000       0.25000000 </v>
   <v>      -0.41666667      -0.25000000       0.25000000 </v>
   <v>      -0.33333333      -0.25000000       0.25000000 </v>
   <v>      -0.25000000      -0.25000000       0.25000000 </v>
   <v>      -0.16666667      -0.25000000       0.25000000 </v>
   <v>      -0.08333333      -0.25000000       0.25000000 </v>
   <v>       0.00000000      -0.16666667       0.25000000 </v>
   <v>       0.08333333      -0.16666667       0.25000000 </v>
   <v>       0.16666667      -0.16666667       0.25000000 </v>
   <v>       0.25000000      -0.16666667       0.25000000 </v>
   <v>       0.33333333      -0.16666667       0.25000000 </v>
   <v>       0.41666667      -0.16666667       0.25000000 </v>
   <v>       0.50000000      -0.16666667       0.25000000 </v>
   <v>      -0.41666667      -0.16666667       0.25000000 </v>
   <v>      -0.33333333      -0.16666667       0.25000000 </v>
   <v>      -0.25000000      -0.16666667       0.25000000 </v>
   <v>      -0.16666667      -0.16666667       0.25000000 </v>
   <v>      -0.08333333      -0.16666667       0.25000000 </v>
   <v>       0.00000000      -0.08333333       0.25000000 </v>
   <v>       0.08333333      -0.08333333       0.25000000 </v>
   <v>       0.16666667      -0.08333333       0.25000000 </v>
   <v>       0.25000000      -0.08333333       0.25000000 </v>
   <v>       0.33333333      -0.08333333       0.25000000 </v>
   <v>       0.41666667      -0.08333333       0.25000000 </v>
   <v>       0.50000000      -0.08333333       0.25000000 </v>
   <v>      -0.41666667      -0.08333333       0.25000000 </v>
   <v>      -0.33333333      -0.08333333       0.25000000 </v>
   <v>      -0.25000000      -0.08333333       0.25000000 </v>
   <v>      -0.16666667      -0.08333333       0.25000000 </v>
   <v>      -0.08333333      -0.08333333       0.25000000 </v>
   <v>       0.00000000       0.00000000       0.33333333 </v>
   <v>       0.08333333      -0.00000000       0.33333333 </v>
   <v>       0.16666667       0.00000000       0.33333333 </v>
   <v>       0.25000000       0.00000000       0.33333333 </v>
   <v>       0.33333333       0.00000000       0.33333333 </v>
   <v>       0.41666667       0.00000000       0.33333333 </v>
   <v>       0.50000000       0.00000000       0.33333333 </v>
   <v>      -0.41666667       0.00000000       0.33333333 </v>
   <v>      -0.33333333      -0.00000000       0.33333333 </v>
   <v>      -0.25000000       0.00000000       0.33333333 </v>
   <v>      -0.16666667       0.00000000       0.33333333 </v>
   <v>      -0.08333333       0.00000000       0.33333333 </v>
   <v>       0.00000000       0.08333333       0.33333333 </v>
   <v>       0.08333333       0.08333333       0.33333333 </v>
   <v>       0.16666667       0.08333333       0.33333333 </v>
   <v>       0.25000000       0.08333333       0.33333333 </v>
   <v>       0.33333333       0.08333333       0.33333333 </v>
   <v>       0.41666667       0.08333333       0.33333333 </v>
   <v>       0.50000000       0.08333333       0.33333333 </v>
   <v>      -0.41666667       0.08333333       0.33333333 </v>
   <v>      -0.33333333       0.08333333       0.33333333 </v>
   <v>      -0.25000000       0.08333333       0.33333333 </v>
   <v>      -0.16666667       0.08333333       0.33333333 </v>
   <v>      -0.08333333       0.08333333       0.33333333 </v>
   <v>       0.00000000       0.16666667       0.33333333 </v>
   <v>       0.08333333       0.16666667       0.33333333 </v>
   <v>       0.16666667       0.16666667       0.33333333 </v>
   <v>       0.25000000       0.16666667       0.33333333 </v>
   <v>       0.33333333       0.16666667       0.33333333 </v>
   <v>       0.41666667       0.16666667       0.33333333 </v>
   <v>       0.50000000       0.16666667       0.33333333 </v>
   <v>      -0.41666667       0.16666667       0.33333333 </v>
   <v>      -0.33333333       0.16666667       0.33333333 </v>
   <v>      -0.25000000       0.16666667       0.33333333 </v>
   <v>      -0.16666667       0.16666667       0.33333333 </v>
   <v>      -0.08333333       0.16666667       0.33333333 </v>
   <v>       0.00000000       0.25000000       0.33333333 </v>
   <v>       0.08333333       0.25000000       0.33333333 </v>
   <v>       0.16666667       0.25000000       0.33333333 </v>
   <v>       0.25000000       0.25000000       0.33333333 </v>
   <v>       0.33333333       0.25000000       0.33333333 </v>
   <v>       0.41666667       0.25000000       0.33333333 </v>
   <v>       0.50000000       0.25000000       0.33333333 </v>
   <v>      -0.41666667       0.25000000       0.33333333 </v>
   <v>      -0.33333333       0.25000000       0.33333333 </v>
   <v>      -0.25000000       0.25000000       0.33333333 </v>
   <v>      -0.16666667       0.25000000       0.33333333 </v>
   <v>      -0.08333333       0.25000000       0.33333333 </v>
   <v>       0.00000000       0.33333333       0.33333333 </v>
   <v>       0.08333333       0.33333333       0.33333333 </v>
   <v>       0.16666667       0.33333333       0.33333333 </v>
   <v>       0.25000000       0.33333333       0.33333333 </v>
   <v>       0.33333333       0.33333333       0.33333333 </v>
   <v>       0.41666667       0.33333333       0.33333333 </v>
   <v>       0.50000000       0.33333333       0.33333333 </v>
   <v>      -0.41666667       0.33333333       0.33333333 </v>
   <v>      -0.33333333       0.33333333       0.33333333 </v>
   <v>      -0.25000000       0.33333333       0.33333333 </v>
   <v>      -0.16666667       0.33333333       0.33333333 </v>
   <v>      -0.08333333       0.33333333       0.33333333 </v>
   <v>       0.00000000       0.41666667       0.33333333 </v>
   <v>       0.08333333       0.41666667       0.33333333 </v>
   <v>       0.16666667       0.41666667       0.33333333 </v>
   <v>       0.25000000       0.41666667       0.33333333 </v>
   <v>       0.33333333       0.41666667       0.33333333 </v>
   <v>       0.41666667       0.41666667       0.33333333 </v>
   <v>       0.50000000       0.41666667       0.33333333 </v>
   <v>      -0.41666667       0.41666667       0.33333333 </v>
   <v>      -0.33333333       0.41666667       0.33333333 </v>
   <v>      -0.25000000       0.41666667       0.33333333 </v>
   <v>      -0.16666667       0.41666667       0.33333333 </v>
   <v>      -0.08333333       0.41666667       0.33333333 </v>
   <v>       0.00000000       0.50000000       0.33333333 </v>
   <v>       0.08333333       0.50000000       0.33333333 </v>
   <v>       0.16666667       0.50000000       0.33333333 </v>
   <v>       0.25000000       0.50000000       0.33333333 </v>
   <v>       0.33333333       0.50000000       0.33333333 </v>
   <v>       0.41666667       0.50000000       0.33333333 </v>
   <v>       0.50000000       0.50000000       0.33333333 </v>
   <v>      -0.41666667       0.50000000       0.33333333 </v>
   <v>      -0.33333333       0.50000000       0.33333333 </v>
   <v>      -0.25000000       0.50000000       0.33333333 </v>
   <v>      -0.16666667       0.50000000       0.33333333 </v>
   <v>      -0.08333333       0.50000000       0.33333333 </v>
   <v>       0.00000000      -0.41666667       0.33333333 </v>
   <v>       0.08333333      -0.41666667       0.33333333 </v>
   <v>       0.16666667      -0.41666667       0.33333333 </v>
   <v>       0.25000000      -0.41666667       0.33333333 </v>
   <v>       0.33333333      -0.41666667       0.33333333 </v>
   <v>       0.41666667      -0.41666667       0.33333333 </v>
   <v>       0.50000000      -0.41666667       0.33333333 </v>
   <v>      -0.41666667      -0.41666667       0.33333333 </v>
   <v>      -0.33333333      -0.41666667       0.33333333 </v>
   <v>      -0.25000000      -0.41666667       0.33333333 </v>
   <v>      -0.16666667      -0.41666667       0.33333333 </v>
   <v>      -0.08333333      -0.41666667       0.33333333 </v>
   <v>       0.00000000      -0.33333333       0.33333333 </v>
   <v>       0.08333333      -0.33333333       0.33333333 </v>
   <v>       0.16666667      -0.33333333       0.33333333 </v>
   <v>       0.25000000      -0.33333333       0.33333333 </v>
   <v>       0.33333333      -0.33333333       0.33333333 </v>
   <v>       0.41666667      -0.33333333       0.33333333 </v>
   <v>       0.50000000      -0.33333333       0.33333333 </v>
   <v>      -0.41666667      -0.33333333       0.33333333 </v>
   <v>      -0.33333333      -0.33333333       0.33333333 </v>
   <v>      -0.25000000      -0.33333333       0.33333333 </v>
   <v>      -0.16666667      -0.33333333       0.33333333 </v>
   <v>      -0.08333333      -0.33333333       0.33333333 </v>
   <v>       0.00000000      -0.25000000       0.33333333 </v>
   <v>       0.08333333      -0.25000000       0.33333333 </v>
   <v>       0.16666667      -0.25000000       0.33333333 </v>
   <v>       0.25000000      -0.25000000       0.33333333 </v>
   <v>       0.33333333      -0.25000000       0.33333333 </v>
   <v>       0.41666667      -0.25000000       0.33333333 </v>
   <v>       0.50000000      -0.25000000       0.33333333 </v>
   <v>      -0.41666667      -0.25000000       0.33333333 </v>
   <v>      -0.33333333      -0.25000000       0.33333333 </v>
   <v>      -0.25000000      -0.25000000       0.33333333 </v>
   <v>      -0.16666667      -0.25000000       0.33333333 </v>
   <v>      -0.08333333      -0.25000000       0.33333333 </v>
   <v>       0.00000000      -0.16666667       0.33333333 </v>
   <v>       0.08333333      -0.16666667       0.33333333 </v>
   <v>       0.16666667      -0.16666667       0.33333333 </v>
   <v>       0.25000000      -0.16666667       0.33333333 </v>
   <v>       0.33333333      -0.16666667       0.33333333 </v>
   <v>       0.41666667      -0.16666667       0.33333333 </v>
   <v>       0.50000000      -0.16666667       0.33333333 </v>
   <v>      -0.41666667      -0.16666667       0.33333333 </v>
   <v>      -0.33333333      -0.16666667       0.33333333 </v>
   <v>      -0.25000000      -0.16666667       0.33333333 </v>
   <v>      -0.16666667      -0.16666667       0.33333333 </v>
   <v>      -0.08333333      -0.16666667       0.33333333 </v>
   <v>       0.00000000      -0.08333333       0.33333333 </v>
   <v>       0.08333333      -0.08333333       0.33333333 </v>
   <v>       0.16666667      -0.08333333       0.33333333 </v>
   <v>       0.25000000      -0.08333333       0.33333333 </v>
   <v>       0.33333333      -0.08333333       0.33333333 </v>
   <v>       0.41666667      -0.08333333       0.33333333 </v>
   <v>       0.50000000      -0.08333333       0.33333333 </v>
   <v>      -0.41666667      -0.08333333       0.33333333 </v>
   <v>      -0.33333333      -0.08333333       0.33333333 </v>
   <v>      -0.25000000      -0.08333333       0.33333333 </v>
   <v>      -0.16666667      -0.08333333       0.33333333 </v>
   <v>      -0.08333333      -0.08333333       0.33333333 </v>
   <v>       0.00000000       0.00000000       0.41666667 </v>
   <v>       0.08333333      -0.00000000       0.41666667 </v>
   <v>       0.16666667       0.00000000       0.41666667 </v>
   <v>       0.25000000       0.00000000       0.41666667 </v>
   <v>       0.33333333       0.00000000       0.41666667 </v>
   <v>       0.41666667       0.00000000       0.41666667 </v>
   <v>       0.50000000       0.00000000       0.41666667 </v>
   <v>      -0.41666667       0.00000000       0.41666667 </v>
   <v>      -0.33333333      -0.00000000       0.41666667 </v>
   <v>      -0.25000000       0.00000000       0.41666667 </v>
   <v>      -0.16666667       0.00000000       0.41666667 </v>
   <v>      -0.08333333       0.00000000       0.41666667 </v>
   <v>       0.00000000       0.08333333       0.41666667 </v>
   <v>       0.08333333       0.08333333       0.41666667 </v>
   <v>       0.16666667       0.08333333       0.41666667 </v>
   <v>       0.25000000       0.08333333       0.41666667 </v>
   <v>       0.33333333       0.08333333       0.41666667 </v>
   <v>       0.41666667       0.08333333       0.41666667 </v>
   <v>       0.50000000       0.08333333       0.41666667 </v>
   <v>      -0.41666667       0.08333333       0.41666667 </v>
   <v>      -0.33333333       0.08333333       0.41666667 </v>
   <v>      -0.25000000       0.08333333       0.41666667 </v>
   <v>      -0.16666667       0.08333333       0.41666667 </v>
   <v>      -0.08333333       0.08333333       0.41666667 </v>
   <v>       0.00000000       0.16666667       0.41666667 </v>
   <v>       0.08333333       0.16666667       0.41666667 </v>
   <v>       0.16666667       0.16666667       0.41666667 </v>
   <v>       0.25000000       0.16666667       0.41666667 </v>
   <v>       0.33333333       0.16666667       0.41666667 </v>
   <v>       0.41666667       0.16666667       0.41666667 </v>
   <v>       0.50000000       0.16666667       0.41666667 </v>
   <v>      -0.41666667       0.16666667       0.41666667 </v>
   <v>      -0.33333333       0.16666667       0.41666667 </v>
   <v>      -0.25000000       0.16666667       0.41666667 </v>
   <v>      -0.16666667       0.16666667       0.41666667 </v>
   <v>      -0.08333333       0.16666667       0.41666667 </v>
   <v>       0.00000000       0.25000000       0.41666667 </v>
   <v>       0.08333333       0.25000000       0.41666667 </v>
   <v>       0.16666667       0.25000000       0.41666667 </v>
   <v>       0.25000000       0.25000000       0.41666667 </v>
   <v>       0.33333333       0.25000000       0.41666667 </v>
   <v>       0.41666667       0.25000000       0.41666667 </v>
   <v>       0.50000000       0.25000000       0.41666667 </v>
   <v>      -0.41666667       0.25000000       0.41666667 </v>
   <v>      -0.33333333       0.25000000       0.41666667 </v>
   <v>      -0.25000000       0.25000000       0.41666667 </v>
   <v>      -0.16666667       0.25000000       0.41666667 </v>
   <v>      -0.08333333       0.25000000       0.41666667 </v>
   <v>       0.00000000       0.33333333       0.41666667 </v>
   <v>       0.08333333       0.33333333       0.41666667 </v>
   <v>       0.16666667       0.33333333       0.41666667 </v>
   <v>       0.25000000       0.33333333       0.41666667 </v>
   <v>       0.33333333       0.33333333       0.41666667 </v>
   <v>       0.41666667       0.33333333       0.41666667 </v>
   <v>       0.50000000       0.33333333       0.41666667 </v>
   <v>      -0.41666667       0.33333333       0.41666667 </v>
   <v>      -0.33333333       0.33333333       0.41666667 </v>
   <v>      -0.25000000       0.33333333       0.41666667 </v>
   <v>      -0.16666667       0.33333333       0.41666667 </v>
   <v>      -0.08333333       0.33333333       0.41666667 </v>
   <v>       0.00000000       0.41666667       0.41666667 </v>
   <v>       0.08333333       0.41666667       0.41666667 </v>
   <v>       0.16666667       0.41666667       0.41666667 </v>
   <v>       0.25000000       0.41666667       0.41666667 </v>
   <v>       0.33333333       0.41666667       0.41666667 </v>
   <v>       0.41666667       0.41666667       0.41666667 </v>
   <v>       0.50000000       0.41666667       0.41666667 </v>
   <v>      -0.41666667       0.41666667       0.41666667 </v>
   <v>      -0.33333333       0.41666667       0.41666667 </v>
   <v>      -0.25000000       0.41666667       0.41666667 </v>
   <v>      -0.16666667       0.41666667       0.41666667 </v>
   <v>      -0.08333333       0.41666667       0.41666667 </v>
   <v>       0.00000000       0.50000000       0.41666667 </v>
   <v>       0.08333333       0.50000000       0.41666667 </v>
   <v>       0.16666667       0.50000000       0.41666667 </v>
   <v>       0.25000000       0.50000000       0.41666667 </v>
   <v>       0.33333333       0.50000000       0.41666667 </v>
   <v>       0.41666667       0.50000000       0.41666667 </v>
   <v>       0.50000000       0.50000000       0.41666667 </v>
   <v>      -0.41666667       0.50000000       0.41666667 </v>
   <v>      -0.33333333       0.50000000       0.41666667 </v>
   <v>      -0.25000000       0.50000000       0.41666667 </v>
   <v>      -0.16666667       0.50000000       0.41666667 </v>
   <v>      -0.08333333       0.50000000       0.41666667 </v>
   <v>       0.00000000      -0.41666667       0.41666667 </v>
   <v>       0.08333333      -0.41666667       0.41666667 </v>
   <v>       0.16666667      -0.41666667       0.41666667 </v>
   <v>       0.25000000      -0.41666667       0.41666667 </v>
   <v>       0.33333333      -0.41666667       0.41666667 </v>
   <v>       0.41666667      -0.41666667       0.41666667 </v>
   <v>       0.50000000      -0.41666667       0.41666667 </v>
   <v>      -0.41666667      -0.41666667       0.41666667 </v>
   <v>      -0.33333333      -0.41666667       0.41666667 </v>
   <v>      -0.25000000      -0.41666667       0.41666667 </v>
   <v>      -0.16666667      -0.41666667       0.41666667 </v>
   <v>      -0.08333333      -0.41666667       0.41666667 </v>
   <v>       0.00000000      -0.33333333       0.41666667 </v>
   <v>       0.08333333      -0.33333333       0.41666667 </v>
   <v>       0.16666667      -0.33333333       0.41666667 </v>
   <v>       0.25000000      -0.33333333       0.41666667 </v>
   <v>       0.33333333      -0.33333333       0.41666667 </v>
   <v>       0.41666667      -0.33333333       0.41666667 </v>
   <v>       0.50000000      -0.33333333       0.41666667 </v>
   <v>      -0.41666667      -0.33333333       0.41666667 </v>
   <v>      -0.33333333      -0.33333333       0.41666667 </v>
   <v>      -0.25000000      -0.33333333       0.41666667 </v>
   <v>      -0.16666667      -0.33333333       0.41666667 </v>
   <v>      -0.08333333      -0.33333333       0.41666667 </v>
   <v>       0.00000000      -0.25000000       0.41666667 </v>
   <v>       0.08333333      -0.25000000       0.41666667 </v>
   <v>       0.16666667      -0.25000000       0.41666667 </v>
   <v>       0.25000000      -0.25000000       0.41666667 </v>
   <v>       0.33333333      -0.25000000       0.41666667 </v>
   <v>       0.41666667      -0.25000000       0.41666667 </v>
   <v>       0.50000000      -0.25000000       0.41666667 </v>
   <v>      -0.41666667      -0.25000000       0.41666667 </v>
   <v>      -0.33333333      -0.25000000       0.41666667 </v>
   <v>      -0.25000000      -0.25000000       0.41666667 </v>
   <v>      -0.16666667      -0.25000000       0.41666667 </v>
   <v>      -0.08333333      -0.25000000       0.41666667 </v>
   <v>       0.00000000      -0.16666667       0.41666667 </v>
   <v>       0.08333333      -0.16666667       0.41666667 </v>
   <v>       0.16666667      -0.16666667       0.41666667 </v>
   <v>       0.25000000      -0.16666667       0.41666667 </v>
   <v>       0.33333333      -0.16666667       0.41666667 </v>
   <v>       0.41666667      -0.16666667       0.41666667 </v>
   <v>       0.50000000      -0.16666667       0.41666667 </v>
   <v>      -0.41666667      -0.16666667       0.41666667 </v>
   <v>      -0.33333333      -0.16666667       0.41666667 </v>
   <v>      -0.25000000      -0.16666667       0.41666667 </v>
   <v>      -0.16666667      -0.16666667       0.41666667 </v>
   <v>      -0.08333333      -0.16666667       0.41666667 </v>
   <v>       0.00000000      -0.08333333       0.41666667 </v>
   <v>       0.08333333      -0.08333333       0.41666667 </v>
   <v>       0.16666667      -0.08333333       0.41666667 </v>
   <v>       0.25000000      -0.08333333       0.41666667 </v>
   <v>       0.33333333      -0.08333333       0.41666667 </v>
   <v>       0.41666667      -0.08333333       0.41666667 </v>
   <v>       0.50000000      -0.08333333       0.41666667 </v>
   <v>      -0.41666667      -0.08333333       0.41666667 </v>
   <v>      -0.33333333      -0.08333333       0.41666667 </v>
   <v>      -0.25000000      -0.08333333       0.41666667 </v>
   <v>      -0.16666667      -0.08333333       0.41666667 </v>
   <v>      -0.08333333      -0.08333333       0.41666667 </v>
   <v>       0.00000000       0.00000000       0.50000000 </v>
   <v>       0.08333333      -0.00000000       0.50000000 </v>
   <v>       0.16666667       0.00000000       0.50000000 </v>
   <v>       0.25000000       0.00000000       0.50000000 </v>
   <v>       0.33333333       0.00000000       0.50000000 </v>
   <v>       0.41666667       0.00000000       0.50000000 </v>
   <v>       0.50000000       0.00000000       0.50000000 </v>
   <v>       0.00000000       0.08333333       0.50000000 </v>
   <v>       0.08333333       0.08333333       0.50000000 </v>
   <v>       0.16666667       0.08333333       0.50000000 </v>
   <v>       0.25000000       0.08333333       0.50000000 </v>
   <v>       0.33333333       0.08333333       0.50000000 </v>
   <v>       0.41666667       0.08333333       0.50000000 </v>
   <v>       0.50000000       0.08333333       0.50000000 </v>
   <v>      -0.41666667       0.08333333       0.50000000 </v>
   <v>      -0.33333333       0.08333333       0.50000000 </v>
   <v>      -0.25000000       0.08333333       0.50000000 </v>
   <v>      -0.16666667       0.08333333       0.50000000 </v>
   <v>      -0.08333333       0.08333333       0.50000000 </v>
   <v>       0.00000000       0.16666667       0.50000000 </v>
   <v>       0.08333333       0.16666667       0.50000000 </v>
   <v>       0.16666667       0.16666667       0.50000000 </v>
   <v>       0.25000000       0.16666667       0.50000000 </v>
   <v>       0.33333333       0.16666667       0.50000000 </v>
   <v>       0.41666667       0.16666667       0.50000000 </v>
   <v>       0.50000000       0.16666667       0.50000000 </v>
   <v>      -0.41666667       0.16666667       0.50000000 </v>
   <v>      -0.33333333       0.16666667       0.50000000 </v>
   <v>      -0.25000000       0.16666667       0.50000000 </v>
   <v>      -0.16666667       0.16666667       0.50000000 </v>
   <v>      -0.08333333       0.16666667       0.50000000 </v>
   <v>       0.00000000       0.25000000       0.50000000 </v>
   <v>       0.08333333       0.25000000       0.50000000 </v>
   <v>       0.16666667       0.25000000       0.50000000 </v>
   <v>       0.25000000       0.25000000       0.50000000 </v>
   <v>       0.33333333       0.25000000       0.50000000 </v>
   <v>       0.41666667       0.25000000       0.50000000 </v>
   <v>       0.50000000       0.25000000       0.50000000 </v>
   <v>      -0.41666667       0.25000000       0.50000000 </v>
   <v>      -0.33333333       0.25000000       0.50000000 </v>
   <v>      -0.25000000       0.25000000       0.50000000 </v>
   <v>      -0.16666667       0.25000000       0.50000000 </v>
   <v>      -0.08333333       0.25000000       0.50000000 </v>
   <v>       0.00000000       0.33333333       0.50000000 </v>
   <v>       0.08333333       0.33333333       0.50000000 </v>
   <v>       0.16666667       0.33333333       0.50000000 </v>
   <v>       0.25000000       0.33333333       0.50000000 </v>
   <v>       0.33333333       0.33333333       0.50000000 </v>
   <v>       0.41666667       0.33333333       0.50000000 </v>
   <v>       0.50000000       0.33333333       0.50000000 </v>
   <v>      -0.41666667       0.33333333       0.50000000 </v>
   <v>      -0.33333333       0.33333333       0.50000000 </v>
   <v>      -0.25000000       0.33333333       0.50000000 </v>
   <v>      -0.16666667       0.33333333       0.50000000 </v>
   <v>      -0.08333333       0.33333333       0.50000000 </v>
   <v>       0.00000000       0.41666667       0.50000000 </v>
   <v>       0.08333333       0.41666667       0.50000000 </v>
   <v>       0.16666667       0.41666667       0.50000000 </v>
   <v>       0.25000000       0.41666667       0.50000000 </v>
   <v>       0.33333333       0.41666667       0.50000000 </v>
   <v>       0.41666667       0.41666667       0.50000000 </v>
   <v>       0.50000000       0.41666667       0.50000000 </v>
   <v>      -0.41666667       0.41666667       0.50000000 </v>
   <v>      -0.33333333       0.41666667       0.50000000 </v>
   <v>      -0.25000000       0.41666667       0.50000000 </v>
   <v>      -0.16666667       0.41666667       0.50000000 </v>
   <v>      -0.08333333       0.41666667       0.50000000 </v>
   <v>       0.00000000       0.50000000       0.50000000 </v>
   <v>       0.08333333       0.50000000       0.50000000 </v>
   <v>       0.16666667       0.50000000       0.50000000 </v>
   <v>       0.25000000       0.50000000       0.50000000 </v>
   <v>       0.33333333       0.50000000       0.50000000 </v>
   <v>       0.41666667       0.50000000       0.50000000 </v>
   <v>       0.50000000       0.50000000       0.50000000 </v>
  </varray>
  <varray name="weights" >
   <v>       0.00057870 </v>
   <v>       0.00115741 </v>
   <v>       0.00115741 </v>
   <v>       0.00115741 </v>
   <v>       0.00115741 </v>
   <v>       0.00115741 </v>
   <v>       0.00057870 </v>
   <v>       0.00115741 </v>
   <v>       0.00115741 </v>
   <v>       0.00115741 </v>
   <v>       0.00115741 </v>
   <v>       0.00115741 </v>
   <v>       0.00115741 </v>
   <v>       0.00115741 </v>
   <v>       0.00115741 </v>
   <v>       0.00115741 </v>
   <v>       0.00115741 </v>
   <v>       0.00115741 </v>
   <v>       0.00115741 </v>
   <v>       0.00115741 </v>
   <v>       0.00115741 </v>
   <v>       0.00115741 </v>
   <v>       0.00115741 </v>
   <v>       0.00115741 </v>
   <v>       0.00115741 </v>
   <v>       0.00115741 </v>
   <v>       0.00115741 </v>
   <v>       0.00115741 </v>
   <v>       0.00115741 </v>
   <v>       0.00115741 </v>
   <v>       0.00115741 </v>
   <v>       0.00115741 </v>
   <v>       0.00115741 </v>
   <v>       0.00115741 </v>
   <v>       0.00115741 </v>
   <v>       0.00115741 </v>
   <v>       0.00115741 </v>
   <v>       0.00115741 </v>
   <v>       0.00115741 </v>
   <v>       0.00115741 </v>
   <v>       0.00115741 </v>
   <v>       0.00115741 </v>
   <v>       0.00115741 </v>
   <v>       0.00115741 </v>
   <v>       0.00115741 </v>
   <v>       0.00115741 </v>
   <v>       0.00115741 </v>
   <v>       0.00115741 </v>
   <v>       0.00115741 </v>
   <v>       0.00115741 </v>
   <v>       0.00115741 </v>
   <v>       0.00115741 </v>
   <v>       0.00115741 </v>
   <v>       0.00115741 </v>
   <v>       0.00115741 </v>
   <v>       0.00115741 </v>
   <v>       0.00115741 </v>
   <v>       0.00115741 </v>
   <v>       0.00115741 </v>
   <v>       0.00115741 </v>
   <v>       0.00115741 </v>
   <v>       0.00115741 </v>
   <v>       0.00115741 </v>
   <v>       0.00115741 </v>
   <v>       0.00115741 </v>
   <v>       0.00115741 </v>
   <v>       0.00115741 </v>
   <v>       0.00057870 </v>
   <v>       0.00115741 </v>
   <v>       0.00115741 </v>
   <v>       0.00115741 </v>
   <v>       0.00115741 </v>
   <v>       0.00115741 </v>
   <v>       0.00057870 </v>
   <v>       0.00115741 </v>
   <v>       0.00115741 </v>
   <v>       0.00115741 </v>
   <v>       0.00115741 </v>
   <v>       0.00115741 </v>
   <v>       0.00115741 </v>
   <v>       0.00115741 </v>
   <v>       0.00115741 </v>
   <v>       0.00115741 </v>
   <v>       0.00115741 </v>
   <v>       0.00115741 </v>
   <v>       0.00115741 </v>
   <v>       0.00115741 </v>
   <v>       0.00115741 </v>
   <v>       0.00115741 </v>
   <v>       0.00115741 </v>
   <v>       0.00115741 </v>
   <v>       0.00115741 </v>
   <v>       0.00115741 </v>
   <v>       0.00115741 </v>
   <v>       0.00115741 </v>
   <v>       0.00115741 </v>
   <v>       0.00115741 </v>
   <v>       0.00115741 </v>
   <v>       0.00115741 </v>
   <v>       0.00115741 </v>
   <v>       0.00115741 </v>
   <v>       0.00115741 </v>
   <v>       0.00115741 </v>
   <v>       0.00115741 </v>
   <v>       0.00115741 </v>
   <v>       0.00115741 </v>
   <v>       0.00115741 </v>
   <v>       0.00115741 </v>
   <v>       0.00115741 </v>
   <v>       0.00115741 </v>
   <v>       0.00115741 </v>
   <v>       0.00115741 </v>
   <v>       0.00115741 </v>
   <v>       0.00115741 </v>
   <v>       0.00115741 </v>
   <v>       0.00115741 </v>
   <v>       0.00115741 </v>
   <v>       0.00115741 </v>
   <v>       0.00115741 </v>
   <v>       0.00115741 </v>
   <v>       0.00115741 </v>
   <v>       0.00115741 </v>
   <v>       0.00115741 </v>
   <v>       0.00115741 </v>
   <v>       0.00115741 </v>
   <v>       0.00115741 </v>
   <v>       0.00115741 </v>
   <v>       0.00115741 </v>
   <v>       0.00115741 </v>
   <v>       0.00115741 </v>
   <v>       0.00115741 </v>
   <v>       0.00115741 </v>
   <v>       0.00115741 </v>
   <v>       0.00115741 </v>
   <v>       0.00115741 </v>
   <v>       0.00115741 </v>
   <v>       0.00115741 </v>
   <v>       0.00115741 </v>
   <v>       0.00115741 </v>
   <v>       0.00115741 </v>
   <v>       0.00115741 </v>
   <v>       0.00115741 </v>
   <v>       0.00115741 </v>
   <v>       0.00115741 </v>
   <v>       0.00115741 </v>
   <v>       0.00115741 </v>
   <v>       0.00115741 </v>
   <v>       0.00115741 </v>
   <v>       0.00115741 </v>
   <v>       0.00115741 </v>
   <v>       0.00115741 </v>
   <v>       0.00115741 </v>
   <v>       0.00115741 </v>
   <v>       0.00115741 </v>
   <v>       0.00115741 </v>
   <v>       0.00115741 </v>
   <v>       0.00115741 </v>
   <v>       0.00115741 </v>
   <v>       0.00115741 </v>
   <v>       0.00115741 </v>
   <v>       0.00115741 </v>
   <v>       0.00115741 </v>
   <v>       0.00115741 </v>
   <v>       0.00115741 </v>
   <v>       0.00115741 </v>
   <v>       0.00115741 </v>
   <v>       0.00115741 </v>
   <v>       0.00115741 </v>
   <v>       0.00115741 </v>
   <v>       0.00115741 </v>
   <v>       0.00115741 </v>
   <v>       0.00115741 </v>
   <v>       0.00115741 </v>
   <v>       0.00115741 </v>
   <v>       0.00115741 </v>
   <v>       0.00115741 </v>
   <v>       0.00115741 </v>
   <v>       0.00115741 </v>
   <v>       0.00115741 </v>
   <v>       0.00115741 </v>
   <v>       0.00115741 </v>
   <v>       0.00115741 </v>
   <v>       0.00115741 </v>
   <v>       0.00115741 </v>
   <v>       0.00115741 </v>
   <v>       0.00115741 </v>
   <v>       0.00115741 </v>
   <v>       0.00115741 </v>
   <v>       0.00115741 </v>
   <v>       0.00115741 </v>
   <v>       0.00115741 </v>
   <v>       0.00115741 </v>
   <v>       0.00115741 </v>
   <v>       0.00115741 </v>
   <v>       0.00115741 </v>
   <v>       0.00115741 </v>
   <v>       0.00115741 </v>
   <v>       0.00115741 </v>
   <v>       0.00115741 </v>
   <v>       0.00115741 </v>
   <v>       0.00115741 </v>
   <v>       0.00115741 </v>
   <v>       0.00115741 </v>
   <v>       0.00115741 </v>
   <v>       0.00115741 </v>
   <v>       0.00115741 </v>
   <v>       0.00115741 </v>
   <v>       0.00115741 </v>
   <v>       0.00115741 </v>
   <v>       0.00115741 </v>
   <v>       0.00115741 </v>
   <v>       0.00115741 </v>
   <v>       0.00115741 </v>
   <v>       0.00115741 </v>
   <v>       0.00115741 </v>
   <v>       0.00115741 </v>
   <v>       0.00115741 </v>
   <v>       0.00115741 </v>
   <v>       0.00115741 </v>
   <v>       0.00115741 </v>
   <v>       0.00115741 </v>
   <v>       0.00115741 </v>
   <v>       0.00115741 </v>
   <v>       0.00115741 </v>
   <v>       0.00115741 </v>
   <v>       0.00115741 </v>
   <v>       0.00115741 </v>
   <v>       0.00115741 </v>
   <v>       0.00115741 </v>
   <v>       0.00115741 </v>
   <v>       0.00115741 </v>
   <v>       0.00115741 </v>
   <v>       0.00115741 </v>
   <v>       0.00115741 </v>
   <v>       0.00115741 </v>
   <v>       0.00115741 </v>
   <v>       0.00115741 </v>
   <v>       0.00115741 </v>
   <v>       0.00115741 </v>
   <v>       0.00115741 </v>
   <v>       0.00115741 </v>
   <v>       0.00115741 </v>
   <v>       0.00115741 </v>
   <v>       0.00115741 </v>
   <v>       0.00115741 </v>
   <v>       0.00115741 </v>
   <v>       0.00115741 </v>
   <v>       0.00115741 </v>
   <v>       0.00115741 </v>
   <v>       0.00115741 </v>
   <v>       0.00115741 </v>
   <v>       0.00115741 </v>
   <v>       0.00115741 </v>
   <v>       0.00115741 </v>
   <v>       0.00115741 </v>
   <v>       0.00115741 </v>
   <v>       0.00115741 </v>
   <v>       0.00115741 </v>
   <v>       0.00115741 </v>
   <v>       0.00115741 </v>
   <v>       0.00115741 </v>
   <v>       0.00115741 </v>
   <v>       0.00115741 </v>
   <v>       0.00115741 </v>
   <v>       0.00115741 </v>
   <v>       0.00115741 </v>
   <v>       0.00115741 </v>
   <v>       0.00115741 </v>
   <v>       0.00115741 </v>
   <v>       0.00115741 </v>
   <v>       0.00115741 </v>
   <v>       0.00115741 </v>
   <v>       0.00115741 </v>
   <v>       0.00115741 </v>
   <v>       0.00115741 </v>
   <v>       0.00115741 </v>
   <v>       0.00115741 </v>
   <v>       0.00115741 </v>
   <v>       0.00115741 </v>
   <v>       0.00115741 </v>
   <v>       0.00115741 </v>
   <v>       0.00115741 </v>
   <v>       0.00115741 </v>
   <v>       0.00115741 </v>
   <v>       0.00115741 </v>
   <v>       0.00115741 </v>
   <v>       0.00115741 </v>
   <v>       0.00115741 </v>
   <v>       0.00115741 </v>
   <v>       0.00115741 </v>
   <v>       0.00115741 </v>
   <v>       0.00115741 </v>
   <v>       0.00115741 </v>
   <v>       0.00115741 </v>
   <v>       0.00115741 </v>
   <v>       0.00115741 </v>
   <v>       0.00115741 </v>
   <v>       0.00115741 </v>
   <v>       0.00115741 </v>
   <v>       0.00115741 </v>
   <v>       0.00115741 </v>
   <v>       0.00115741 </v>
   <v>       0.00115741 </v>
   <v>       0.00115741 </v>
   <v>       0.00115741 </v>
   <v>       0.00115741 </v>
   <v>       0.00115741 </v>
   <v>       0.00115741 </v>
   <v>       0.00115741 </v>
   <v>       0.00115741 </v>
   <v>       0.00115741 </v>
   <v>       0.00115741 </v>
   <v>       0.00115741 </v>
   <v>       0.00115741 </v>
   <v>       0.00115741 </v>
   <v>       0.00115741 </v>
   <v>       0.00115741 </v>
   <v>       0.00115741 </v>
   <v>       0.00115741 </v>
   <v>       0.00115741 </v>
   <v>       0.00115741 </v>
   <v>       0.00115741 </v>
   <v>       0.00115741 </v>
   <v>       0.00115741 </v>
   <v>       0.00115741 </v>
   <v>       0.00115741 </v>
   <v>       0.00115741 </v>
   <v>       0.00115741 </v>
   <v>       0.00115741 </v>
   <v>       0.00115741 </v>
   <v>       0.00115741 </v>
   <v>       0.00115741 </v>
   <v>       0.00115741 </v>
   <v>       0.00115741 </v>
   <v>       0.00115741 </v>
   <v>       0.00115741 </v>
   <v>       0.00115741 </v>
   <v>       0.00115741 </v>
   <v>       0.00115741 </v>
   <v>       0.00115741 </v>
   <v>       0.00115741 </v>
   <v>       0.00115741 </v>
   <v>       0.00115741 </v>
   <v>       0.00115741 </v>
   <v>       0.00115741 </v>
   <v>       0.00115741 </v>
   <v>       0.00115741 </v>
   <v>       0.00115741 </v>
   <v>       0.00115741 </v>
   <v>       0.00115741 </v>
   <v>       0.00115741 </v>
   <v>       0.00115741 </v>
   <v>       0.00115741 </v>
   <v>       0.00115741 </v>
   <v>       0.00115741 </v>
   <v>       0.00115741 </v>
   <v>       0.00115741 </v>
   <v>       0.00115741 </v>
   <v>       0.00115741 </v>
   <v>       0.00115741 </v>
   <v>       0.00115741 </v>
   <v>       0.00115741 </v>
   <v>       0.00115741 </v>
   <v>       0.00115741 </v>
   <v>       0.00115741 </v>
   <v>       0.00115741 </v>
   <v>       0.00115741 </v>
   <v>       0.00115741 </v>
   <v>       0.00115741 </v>
   <v>       0.00115741 </v>
   <v>       0.00115741 </v>
   <v>       0.00115741 </v>
   <v>       0.00115741 </v>
   <v>       0.00115741 </v>
   <v>       0.00115741 </v>
   <v>       0.00115741 </v>
   <v>       0.00115741 </v>
   <v>       0.00115741 </v>
   <v>       0.00115741 </v>
   <v>       0.00115741 </v>
   <v>       0.00115741 </v>
   <v>       0.00115741 </v>
   <v>       0.00115741 </v>
   <v>       0.00115741 </v>
   <v>       0.00115741 </v>
   <v>       0.00115741 </v>
   <v>       0.00115741 </v>
   <v>       0.00115741 </v>
   <v>       0.00115741 </v>
   <v>       0.00115741 </v>
   <v>       0.00115741 </v>
   <v>       0.00115741 </v>
   <v>       0.00115741 </v>
   <v>       0.00115741 </v>
   <v>       0.00115741 </v>
   <v>       0.00115741 </v>
   <v>       0.00115741 </v>
   <v>       0.00115741 </v>
   <v>       0.00115741 </v>
   <v>       0.00115741 </v>
   <v>       0.00115741 </v>
   <v>       0.00115741 </v>
   <v>       0.00115741 </v>
   <v>       0.00115741 </v>
   <v>       0.00115741 </v>
   <v>       0.00115741 </v>
   <v>       0.00115741 </v>
   <v>       0.00115741 </v>
   <v>       0.00115741 </v>
   <v>       0.00115741 </v>
   <v>       0.00115741 </v>
   <v>       0.00115741 </v>
   <v>       0.00115741 </v>
   <v>       0.00115741 </v>
   <v>       0.00115741 </v>
   <v>       0.00115741 </v>
   <v>       0.00115741 </v>
   <v>       0.00115741 </v>
   <v>       0.00115741 </v>
   <v>       0.00115741 </v>
   <v>       0.00115741 </v>
   <v>       0.00115741 </v>
   <v>       0.00115741 </v>
   <v>       0.00115741 </v>
   <v>       0.00115741 </v>
   <v>       0.00115741 </v>
   <v>       0.00115741 </v>
   <v>       0.00115741 </v>
   <v>       0.00115741 </v>
   <v>       0.00115741 </v>
   <v>       0.00115741 </v>
   <v>       0.00115741 </v>
   <v>       0.00115741 </v>
   <v>       0.00115741 </v>
   <v>       0.00115741 </v>
   <v>       0.00115741 </v>
   <v>       0.00115741 </v>
   <v>       0.00115741 </v>
   <v>       0.00115741 </v>
   <v>       0.00115741 </v>
   <v>       0.00115741 </v>
   <v>       0.00115741 </v>
   <v>       0.00115741 </v>
   <v>       0.00115741 </v>
   <v>       0.00115741 </v>
   <v>       0.00115741 </v>
   <v>       0.00115741 </v>
   <v>       0.00115741 </v>
   <v>       0.00115741 </v>
   <v>       0.00115741 </v>
   <v>       0.00115741 </v>
   <v>       0.00115741 </v>
   <v>       0.00115741 </v>
   <v>       0.00115741 </v>
   <v>       0.00115741 </v>
   <v>       0.00115741 </v>
   <v>       0.00115741 </v>
   <v>       0.00115741 </v>
   <v>       0.00115741 </v>
   <v>       0.00115741 </v>
   <v>       0.00115741 </v>
   <v>       0.00115741 </v>
   <v>       0.00115741 </v>
   <v>       0.00115741 </v>
   <v>       0.00115741 </v>
   <v>       0.00115741 </v>
   <v>       0.00115741 </v>
   <v>       0.00115741 </v>
   <v>       0.00115741 </v>
   <v>       0.00115741 </v>
   <v>       0.00115741 </v>
   <v>       0.00115741 </v>
   <v>       0.00115741 </v>
   <v>       0.00115741 </v>
   <v>       0.00115741 </v>
   <v>       0.00115741 </v>
   <v>       0.00115741 </v>
   <v>       0.00115741 </v>
   <v>       0.00115741 </v>
   <v>       0.00115741 </v>
   <v>       0.00115741 </v>
   <v>       0.00115741 </v>
   <v>       0.00115741 </v>
   <v>       0.00115741 </v>
   <v>       0.00115741 </v>
   <v>       0.00115741 </v>
   <v>       0.00115741 </v>
   <v>       0.00115741 </v>
   <v>       0.00115741 </v>
   <v>       0.00115741 </v>
   <v>       0.00115741 </v>
   <v>       0.00115741 </v>
   <v>       0.00115741 </v>
   <v>       0.00115741 </v>
   <v>       0.00115741 </v>
   <v>       0.00115741 </v>
   <v>       0.00115741 </v>
   <v>       0.00115741 </v>
   <v>       0.00115741 </v>
   <v>       0.00115741 </v>
   <v>       0.00115741 </v>
   <v>       0.00115741 </v>
   <v>       0.00115741 </v>
   <v>       0.00115741 </v>
   <v>       0.00115741 </v>
   <v>       0.00115741 </v>
   <v>       0.00115741 </v>
   <v>       0.00115741 </v>
   <v>       0.00115741 </v>
   <v>       0.00115741 </v>
   <v>       0.00115741 </v>
   <v>       0.00115741 </v>
   <v>       0.00115741 </v>
   <v>       0.00115741 </v>
   <v>       0.00115741 </v>
   <v>       0.00115741 </v>
   <v>       0.00115741 </v>
   <v>       0.00115741 </v>
   <v>       0.00115741 </v>
   <v>       0.00115741 </v>
   <v>       0.00115741 </v>
   <v>       0.00115741 </v>
   <v>       0.00115741 </v>
   <v>       0.00115741 </v>
   <v>       0.00115741 </v>
   <v>       0.00115741 </v>
   <v>       0.00115741 </v>
   <v>       0.00115741 </v>
   <v>       0.00115741 </v>
   <v>       0.00115741 </v>
   <v>       0.00115741 </v>
   <v>       0.00115741 </v>
   <v>       0.00115741 </v>
   <v>       0.00115741 </v>
   <v>       0.00115741 </v>
   <v>       0.00115741 </v>
   <v>       0.00115741 </v>
   <v>       0.00115741 </v>
   <v>       0.00115741 </v>
   <v>       0.00115741 </v>
   <v>       0.00115741 </v>
   <v>       0.00115741 </v>
   <v>       0.00115741 </v>
   <v>       0.00115741 </v>
   <v>       0.00115741 </v>
   <v>       0.00115741 </v>
   <v>       0.00115741 </v>
   <v>       0.00115741 </v>
   <v>       0.00115741 </v>
   <v>       0.00115741 </v>
   <v>       0.00115741 </v>
   <v>       0.00115741 </v>
   <v>       0.00115741 </v>
   <v>       0.00115741 </v>
   <v>       0.00115741 </v>
   <v>       0.00115741 </v>
   <v>       0.00115741 </v>
   <v>       0.00115741 </v>
   <v>       0.00115741 </v>
   <v>       0.00115741 </v>
   <v>       0.00115741 </v>
   <v>       0.00115741 </v>
   <v>       0.00115741 </v>
   <v>       0.00115741 </v>
   <v>       0.00115741 </v>
   <v>       0.00115741 </v>
   <v>       0.00115741 </v>
   <v>       0.00115741 </v>
   <v>       0.00115741 </v>
   <v>       0.00115741 </v>
   <v>       0.00115741 </v>
   <v>       0.00115741 </v>
   <v>       0.00115741 </v>
   <v>       0.00115741 </v>
   <v>       0.00115741 </v>
   <v>       0.00115741 </v>
   <v>       0.00115741 </v>
   <v>       0.00115741 </v>
   <v>       0.00115741 </v>
   <v>       0.00115741 </v>
   <v>       0.00115741 </v>
   <v>       0.00115741 </v>
   <v>       0.00115741 </v>
   <v>       0.00115741 </v>
   <v>       0.00115741 </v>
   <v>       0.00115741 </v>
   <v>       0.00115741 </v>
   <v>       0.00115741 </v>
   <v>       0.00115741 </v>
   <v>       0.00115741 </v>
   <v>       0.00115741 </v>
   <v>       0.00115741 </v>
   <v>       0.00115741 </v>
   <v>       0.00115741 </v>
   <v>       0.00115741 </v>
   <v>       0.00115741 </v>
   <v>       0.00115741 </v>
   <v>       0.00115741 </v>
   <v>       0.00115741 </v>
   <v>       0.00115741 </v>
   <v>       0.00115741 </v>
   <v>       0.00115741 </v>
   <v>       0.00115741 </v>
   <v>       0.00115741 </v>
   <v>       0.00115741 </v>
   <v>       0.00115741 </v>
   <v>       0.00115741 </v>
   <v>       0.00115741 </v>
   <v>       0.00115741 </v>
   <v>       0.00115741 </v>
   <v>       0.00115741 </v>
   <v>       0.00115741 </v>
   <v>       0.00115741 </v>
   <v>       0.00115741 </v>
   <v>       0.00115741 </v>
   <v>       0.00115741 </v>
   <v>       0.00115741 </v>
   <v>       0.00115741 </v>
   <v>       0.00115741 </v>
   <v>       0.00115741 </v>
   <v>       0.00115741 </v>
   <v>       0.00115741 </v>
   <v>       0.00115741 </v>
   <v>       0.00115741 </v>
   <v>       0.00115741 </v>
   <v>       0.00115741 </v>
   <v>       0.00115741 </v>
   <v>       0.00115741 </v>
   <v>       0.00115741 </v>
   <v>       0.00115741 </v>
   <v>       0.00115741 </v>
   <v>       0.00115741 </v>
   <v>       0.00115741 </v>
   <v>       0.00115741 </v>
   <v>       0.00115741 </v>
   <v>       0.00115741 </v>
   <v>       0.00115741 </v>
   <v>       0.00115741 </v>
   <v>       0.00115741 </v>
   <v>       0.00115741 </v>
   <v>       0.00115741 </v>
   <v>       0.00115741 </v>
   <v>       0.00115741 </v>
   <v>       0.00115741 </v>
   <v>       0.00115741 </v>
   <v>       0.00115741 </v>
   <v>       0.00115741 </v>
   <v>       0.00115741 </v>
   <v>       0.00115741 </v>
   <v>       0.00115741 </v>
   <v>       0.00115741 </v>
   <v>       0.00115741 </v>
   <v>       0.00115741 </v>
   <v>       0.00115741 </v>
   <v>       0.00115741 </v>
   <v>       0.00115741 </v>
   <v>       0.00115741 </v>
   <v>       0.00115741 </v>
   <v>       0.00115741 </v>
   <v>       0.00115741 </v>
   <v>       0.00115741 </v>
   <v>       0.00115741 </v>
   <v>       0.00115741 </v>
   <v>       0.00115741 </v>
   <v>       0.00115741 </v>
   <v>       0.00115741 </v>
   <v>       0.00115741 </v>
   <v>       0.00115741 </v>
   <v>       0.00115741 </v>
   <v>       0.00115741 </v>
   <v>       0.00115741 </v>
   <v>       0.00115741 </v>
   <v>       0.00115741 </v>
   <v>       0.00115741 </v>
   <v>       0.00115741 </v>
   <v>       0.00115741 </v>
   <v>       0.00115741 </v>
   <v>       0.00115741 </v>
   <v>       0.00115741 </v>
   <v>       0.00115741 </v>
   <v>       0.00115741 </v>
   <v>       0.00115741 </v>
   <v>       0.00115741 </v>
   <v>       0.00115741 </v>
   <v>       0.00115741 </v>
   <v>       0.00115741 </v>
   <v>       0.00115741 </v>
   <v>       0.00115741 </v>
   <v>       0.00115741 </v>
   <v>       0.00115741 </v>
   <v>       0.00115741 </v>
   <v>       0.00115741 </v>
   <v>       0.00115741 </v>
   <v>       0.00115741 </v>
   <v>       0.00115741 </v>
   <v>       0.00115741 </v>
   <v>       0.00115741 </v>
   <v>       0.00115741 </v>
   <v>       0.00115741 </v>
   <v>       0.00115741 </v>
   <v>       0.00115741 </v>
   <v>       0.00115741 </v>
   <v>       0.00115741 </v>
   <v>       0.00115741 </v>
   <v>       0.00115741 </v>
   <v>       0.00115741 </v>
   <v>       0.00115741 </v>
   <v>       0.00115741 </v>
   <v>       0.00115741 </v>
   <v>       0.00115741 </v>
   <v>       0.00115741 </v>
   <v>       0.00115741 </v>
   <v>       0.00115741 </v>
   <v>       0.00115741 </v>
   <v>       0.00115741 </v>
   <v>       0.00115741 </v>
   <v>       0.00115741 </v>
   <v>       0.00115741 </v>
   <v>       0.00115741 </v>
   <v>       0.00115741 </v>
   <v>       0.00115741 </v>
   <v>       0.00115741 </v>
   <v>       0.00115741 </v>
   <v>       0.00115741 </v>
   <v>       0.00115741 </v>
   <v>       0.00115741 </v>
   <v>       0.00115741 </v>
   <v>       0.00115741 </v>
   <v>       0.00115741 </v>
   <v>       0.00115741 </v>
   <v>       0.00115741 </v>
   <v>       0.00115741 </v>
   <v>       0.00115741 </v>
   <v>       0.00115741 </v>
   <v>       0.00115741 </v>
   <v>       0.00115741 </v>
   <v>       0.00115741 </v>
   <v>       0.00115741 </v>
   <v>       0.00115741 </v>
   <v>       0.00115741 </v>
   <v>       0.00115741 </v>
   <v>       0.00115741 </v>
   <v>       0.00115741 </v>
   <v>       0.00115741 </v>
   <v>       0.00115741 </v>
   <v>       0.00115741 </v>
   <v>       0.00115741 </v>
   <v>       0.00115741 </v>
   <v>       0.00115741 </v>
   <v>       0.00115741 </v>
   <v>       0.00115741 </v>
   <v>       0.00115741 </v>
   <v>       0.00115741 </v>
   <v>       0.00115741 </v>
   <v>       0.00115741 </v>
   <v>       0.00115741 </v>
   <v>       0.00115741 </v>
   <v>       0.00115741 </v>
   <v>       0.00115741 </v>
   <v>       0.00115741 </v>
   <v>       0.00115741 </v>
   <v>       0.00115741 </v>
   <v>       0.00115741 </v>
   <v>       0.00115741 </v>
   <v>       0.00115741 </v>
[...]
       <r>   -2.2215    1.0000 </r>
       <r>   -2.2215    1.0000 </r>
       <r>   -1.9535    1.0000 </r>
       <r>   -1.9535    1.0000 </r>
       <r>   -0.5121    1.0000 </r>
       <r>   -0.5121    1.0000 </r>
       <r>    1.0932    1.0000 </r>
       <r>    1.0932    1.0000 </r>
       <r>    1.4653    1.0000 </r>
       <r>    1.4653    1.0000 </r>
       <r>    2.5915    1.0000 </r>
       <r>    2.5915    1.0000 </r>
       <r>    6.3311    0.0000 </r>
       <r>    6.3311    0.0000 </r>
       <r>   10.0165    0.0000 </r>
       <r>   10.0165    0.0000 </r>
       <r>   15.4194    0.0000 </r>
       <r>   15.4194    0.0000 </r>
       <r>   18.4018    0.0000 </r>
       <r>   18.4019    0.0000 </r>
       <r>   20.3557    0.0000 </r>
       <r>   20.3557    0.0000 </r>
       <r>   21.4576    0.0000 </r>
       <r>   21.4576    0.0000 </r>
      </set>
      <set comment="kpoint 849">
       <r>   -2.5182    1.0000 </r>
       <r>   -2.5182    1.0000 </r>
       <r>   -1.9537    1.0000 </r>
       <r>   -1.9537    1.0000 </r>
       <r>   -0.6865    1.0000 </r>
       <r>   -0.6865    1.0000 </r>
       <r>    0.8889    1.0000 </r>
       <r>    0.8889    1.0000 </r>
       <r>    1.5502    1.0000 </r>
       <r>    1.5502    1.0000 </r>
       <r>    2.6345    1.0000 </r>
       <r>    2.6345    1.0000 </r>
       <r>    6.0015    0.0000 </r>
       <r>    6.0015    0.0000 </r>
       <r>   10.5292    0.0000 </r>
       <r>   10.5292    0.0000 </r>
       <r>   15.8866    0.0000 </r>
       <r>   15.8866    0.0000 </r>
       <r>   19.3770    0.0000 </r>
       <r>   19.3770    0.0000 </r>
       <r>   20.7349    0.0000 </r>
       <r>   20.7349    0.0000 </r>
       <r>   22.1346    0.0000 </r>
       <r>   22.1346    0.0000 </r>
      </set>
      <set comment="kpoint 850">
       <r>   -2.9853    1.0000 </r>
       <r>   -2.9853    1.0000 </r>
       <r>   -2.1289    1.0000 </r>
       <r>   -2.1289    1.0000 </r>
       <r>   -0.2679    1.0000 </r>
       <r>   -0.2679    1.0000 </r>
       <r>    0.9394    1.0000 </r>
       <r>    0.9394    1.0000 </r>
       <r>    2.0783    1.0000 </r>
       <r>    2.0783    1.0000 </r>
       <r>    2.7559    1.0000 </r>
       <r>    2.7559    1.0000 </r>
       <r>    4.3310   -0.0000 </r>
       <r>    4.3310   -0.0000 </r>
       <r>   12.1565    0.0000 </r>
       <r>   12.1565    0.0000 </r>
       <r>   15.0514    0.0000 </r>
       <r>   15.0514    0.0000 </r>
       <r>   20.0014    0.0000 </r>
       <r>   20.0015    0.0000 </r>
       <r>   21.8339    0.0000 </r>
       <r>   21.8339    0.0000 </r>
       <r>   22.5971    0.0000 </r>
       <r>   22.5971    0.0000 </r>
      </set>
      <set comment="kpoint 851">
       <r>   -2.9852    1.0000 </r>
       <r>   -2.9852    1.0000 </r>
       <r>   -2.1289    1.0000 </r>
       <r>   -2.1289    1.0000 </r>
       <r>   -0.2679    1.0000 </r>
       <r>   -0.2679    1.0000 </r>
       <r>    0.9394    1.0000 </r>
       <r>    0.9394    1.0000 </r>
       <r>    2.0783    1.0000 </r>
       <r>    2.0783    1.0000 </r>
       <r>    2.7559    1.0000 </r>
       <r>    2.7559    1.0000 </r>
       <r>    4.3310   -0.0000 </r>
       <r>    4.3310   -0.0000 </r>
       <r>   12.1566    0.0000 </r>
       <r>   12.1566    0.0000 </r>
       <r>   15.0513    0.0000 </r>
       <r>   15.0513    0.0000 </r>
       <r>   20.0014    0.0000 </r>
       <r>   20.0014    0.0000 </r>
       <r>   21.8340    0.0000 </r>
       <r>   21.8340    0.0000 </r>
       <r>   22.5971    0.0000 </r>
       <r>   22.5971    0.0000 </r>
      </set>
      <set comment="kpoint 852">
       <r>   -2.7193    1.0000 </r>
       <r>   -2.7193    1.0000 </r>
       <r>   -2.0395    1.0000 </r>
       <r>   -2.0395    1.0000 </r>
       <r>   -0.3955    1.0000 </r>
       <r>   -0.3955    1.0000 </r>
       <r>    0.8302    1.0000 </r>
       <r>    0.8302    1.0000 </r>
       <r>    1.9646    1.0000 </r>
       <r>    1.9646    1.0000 </r>
       <r>    2.7327    1.0000 </r>
       <r>    2.7327    1.0000 </r>
       <r>    4.8732   -0.0000 </r>
       <r>    4.8732   -0.0000 </r>
       <r>   11.5876    0.0000 </r>
       <r>   11.5876    0.0000 </r>
       <r>   15.1950    0.0000 </r>
       <r>   15.1950    0.0000 </r>
       <r>   20.2020    0.0000 </r>
       <r>   20.2020    0.0000 </r>
       <r>   20.9916    0.0000 </r>
       <r>   20.9916    0.0000 </r>
       <r>   22.2136    0.0000 </r>
       <r>   22.2210    0.0000 </r>
      </set>
      <set comment="kpoint 853">
       <r>   -2.3264    1.0000 </r>
       <r>   -2.3264    1.0000 </r>
       <r>   -1.9590    1.0000 </r>
       <r>   -1.9590    1.0000 </r>
       <r>   -0.4609    1.0000 </r>
       <r>   -0.4609    1.0000 </r>
       <r>    0.8843    1.0000 </r>
       <r>    0.8843    1.0000 </r>
       <r>    1.7895    1.0000 </r>
       <r>    1.7895    1.0000 </r>
       <r>    2.6976    1.0000 </r>
       <r>    2.6976    1.0000 </r>
       <r>    5.6449   -0.0000 </r>
       <r>    5.6449   -0.0000 </r>
       <r>   10.7630    0.0000 </r>
       <r>   10.7630    0.0000 </r>
       <r>   14.9052    0.0000 </r>
       <r>   14.9052    0.0000 </r>
       <r>   19.1371    0.0000 </r>
       <r>   19.1371    0.0000 </r>
       <r>   20.4787    0.0000 </r>
       <r>   20.4787    0.0000 </r>
       <r>   21.5897    0.0000 </r>
       <r>   21.5897    0.0000 </r>
      </set>
      <set comment="kpoint 854">
       <r>   -2.1135    1.0000 </r>
       <r>   -2.1135    1.0000 </r>
       <r>   -1.9938    1.0000 </r>
       <r>   -1.9938    1.0000 </r>
       <r>   -0.1194    1.0000 </r>
       <r>   -0.1194    1.0000 </r>
       <r>    1.2301    1.0000 </r>
       <r>    1.2301    1.0000 </r>
       <r>    1.6694    1.0000 </r>
       <r>    1.6694    1.0000 </r>
       <r>    2.6877    1.0000 </r>
       <r>    2.6877    1.0000 </r>
       <r>    6.2091    0.0000 </r>
       <r>    6.2091    0.0000 </r>
       <r>   10.0643    0.0000 </r>
       <r>   10.0643    0.0000 </r>
       <r>   13.7487    0.0000 </r>
       <r>   13.7487    0.0000 </r>
       <r>   17.8742    0.0000 </r>
       <r>   17.8742    0.0000 </r>
       <r>   19.0022    0.0000 </r>
       <r>   19.0022    0.0000 </r>
       <r>   23.1917    0.0000 </r>
       <r>   23.1917    0.0000 </r>
      </set>
      <set comment="kpoint 855">
       <r>   -2.1478    1.0000 </r>
       <r>   -2.1478    1.0000 </r>
       <r>   -2.1034    1.0000 </r>
       <r>   -2.1034    1.0000 </r>
       <r>    0.5719    1.0000 </r>
       <r>    0.5719    1.0000 </r>
       <r>    1.3880    1.0000 </r>
       <r>    1.3880    1.0000 </r>
       <r>    2.0442    1.0000 </r>
       <r>    2.0442    1.0000 </r>
       <r>    2.7717    1.0000 </r>
       <r>    2.7717    1.0000 </r>
       <r>    6.1263    0.0000 </r>
       <r>    6.1263    0.0000 </r>
       <r>    9.9089    0.0000 </r>
       <r>    9.9089    0.0000 </r>
       <r>   12.0274    0.0000 </r>
       <r>   12.0274    0.0000 </r>
       <r>   17.3480    0.0000 </r>
       <r>   17.3480    0.0000 </r>
       <r>   17.9341    0.0000 </r>
       <r>   17.9341    0.0000 </r>
       <r>   24.3065    0.0000 </r>
       <r>   24.3369    0.0000 </r>
      </set>
      <set comment="kpoint 856">
       <r>   -2.2125    1.0000 </r>
       <r>   -2.2125    1.0000 </r>
       <r>   -2.1920    1.0000 </r>
       <r>   -2.1920    1.0000 </r>
       <r>    1.0883    1.0000 </r>
       <r>    1.0883    1.0000 </r>
       <r>    1.3629    1.0000 </r>
       <r>    1.3629    1.0000 </r>
       <r>    2.5916    1.0000 </r>
       <r>    2.5916    1.0000 </r>
       <r>    2.9473    1.0002 </r>
       <r>    2.9473    1.0002 </r>
       <r>    5.7030   -0.0000 </r>
       <r>    5.7030   -0.0000 </r>
       <r>   10.0361    0.0000 </r>
       <r>   10.0361    0.0000 </r>
       <r>   10.7872    0.0000 </r>
       <r>   10.7872    0.0000 </r>
       <r>   17.1783    0.0000 </r>
       <r>   17.1783    0.0000 </r>
       <r>   17.3735    0.0000 </r>
       <r>   17.3735    0.0000 </r>
       <r>   24.2591    0.0000 </r>
       <r>   24.2605    0.0000 </r>
      </set>
      <set comment="kpoint 857">
       <r>   -2.2125    1.0000 </r>
       <r>   -2.2125    1.0000 </r>
       <r>   -2.1920    1.0000 </r>
       <r>   -2.1920    1.0000 </r>
       <r>    1.0883    1.0000 </r>
       <r>    1.0883    1.0000 </r>
       <r>    1.3629    1.0000 </r>
       <r>    1.3629    1.0000 </r>
       <r>    2.5916    1.0000 </r>
       <r>    2.5916    1.0000 </r>
       <r>    2.9472    1.0002 </r>
       <r>    2.9472    1.0002 </r>
       <r>    5.7030   -0.0000 </r>
       <r>    5.7030   -0.0000 </r>
       <r>   10.0361    0.0000 </r>
       <r>   10.0361    0.0000 </r>
       <r>   10.7872    0.0000 </r>
       <r>   10.7872    0.0000 </r>
       <r>   17.1783    0.0000 </r>
       <r>   17.1783    0.0000 </r>
       <r>   17.3735    0.0000 </r>
       <r>   17.3735    0.0000 </r>
       <r>   24.2588    0.0000 </r>
       <r>   24.2588    0.0000 </r>
      </set>
      <set comment="kpoint 858">
       <r>   -2.1478    1.0000 </r>
       <r>   -2.1478    1.0000 </r>
       <r>   -2.1034    1.0000 </r>
       <r>   -2.1034    1.0000 </r>
       <r>    0.5719    1.0000 </r>
       <r>    0.5719    1.0000 </r>
       <r>    1.3880    1.0000 </r>
       <r>    1.3880    1.0000 </r>
       <r>    2.0442    1.0000 </r>
       <r>    2.0442    1.0000 </r>
       <r>    2.7717    1.0000 </r>
       <r>    2.7717    1.0000 </r>
       <r>    6.1263    0.0000 </r>
       <r>    6.1263    0.0000 </r>
       <r>    9.9089    0.0000 </r>
       <r>    9.9089    0.0000 </r>
       <r>   12.0274    0.0000 </r>
       <r>   12.0274    0.0000 </r>
       <r>   17.3480    0.0000 </r>
       <r>   17.3480    0.0000 </r>
       <r>   17.9341    0.0000 </r>
       <r>   17.9341    0.0000 </r>
       <r>   24.3068    0.0000 </r>
       <r>   24.3218    0.0000 </r>
      </set>
      <set comment="kpoint 859">
       <r>   -2.1135    1.0000 </r>
       <r>   -2.1135    1.0000 </r>
       <r>   -1.9938    1.0000 </r>
       <r>   -1.9938    1.0000 </r>
       <r>   -0.1195    1.0000 </r>
       <r>   -0.1195    1.0000 </r>
       <r>    1.2300    1.0000 </r>
       <r>    1.2300    1.0000 </r>
       <r>    1.6694    1.0000 </r>
       <r>    1.6694    1.0000 </r>
       <r>    2.6877    1.0000 </r>
       <r>    2.6877    1.0000 </r>
       <r>    6.2091    0.0000 </r>
       <r>    6.2091    0.0000 </r>
       <r>   10.0643    0.0000 </r>
       <r>   10.0643    0.0000 </r>
       <r>   13.7488    0.0000 </r>
       <r>   13.7488    0.0000 </r>
       <r>   17.8742    0.0000 </r>
       <r>   17.8742    0.0000 </r>
       <r>   19.0022    0.0000 </r>
       <r>   19.0022    0.0000 </r>
       <r>   23.1921    0.0000 </r>
       <r>   23.1921    0.0000 </r>
      </set>
      <set comment="kpoint 860">
       <r>   -2.3265    1.0000 </r>
       <r>   -2.3265    1.0000 </r>
       <r>   -1.9590    1.0000 </r>
       <r>   -1.9590    1.0000 </r>
       <r>   -0.4609    1.0000 </r>
       <r>   -0.4609    1.0000 </r>
       <r>    0.8843    1.0000 </r>
       <r>    0.8843    1.0000 </r>
       <r>    1.7895    1.0000 </r>
       <r>    1.7895    1.0000 </r>
       <r>    2.6976    1.0000 </r>
       <r>    2.6976    1.0000 </r>
       <r>    5.6449   -0.0000 </r>
       <r>    5.6449   -0.0000 </r>
       <r>   10.7629    0.0000 </r>
       <r>   10.7629    0.0000 </r>
       <r>   14.9053    0.0000 </r>
       <r>   14.9053    0.0000 </r>
       <r>   19.1371    0.0000 </r>
       <r>   19.1371    0.0000 </r>
       <r>   20.4788    0.0000 </r>
       <r>   20.4788    0.0000 </r>
       <r>   21.5900    0.0000 </r>
       <r>   21.5900    0.0000 </r>
      </set>
      <set comment="kpoint 861">
       <r>   -2.7193    1.0000 </r>
       <r>   -2.7193    1.0000 </r>
       <r>   -2.0395    1.0000 </r>
       <r>   -2.0395    1.0000 </r>
       <r>   -0.3955    1.0000 </r>
       <r>   -0.3955    1.0000 </r>
       <r>    0.8302    1.0000 </r>
       <r>    0.8302    1.0000 </r>
       <r>    1.9646    1.0000 </r>
       <r>    1.9646    1.0000 </r>
       <r>    2.7327    1.0000 </r>
       <r>    2.7327    1.0000 </r>
       <r>    4.8731   -0.0000 </r>
       <r>    4.8731   -0.0000 </r>
       <r>   11.5875    0.0000 </r>
       <r>   11.5875    0.0000 </r>
       <r>   15.1952    0.0000 </r>
       <r>   15.1952    0.0000 </r>
       <r>   20.2022    0.0000 </r>
       <r>   20.2022    0.0000 </r>
       <r>   20.9916    0.0000 </r>
       <r>   20.9917    0.0000 </r>
       <r>   22.2135    0.0000 </r>
       <r>   22.2136    0.0000 </r>
      </set>
      <set comment="kpoint 862">
       <r>   -3.0736    1.0000 </r>
       <r>   -3.0736    1.0000 </r>
       <r>   -2.1546    1.0000 </r>
       <r>   -2.1546    1.0000 </r>
       <r>   -0.0822    1.0000 </r>
       <r>   -0.0822    1.0000 </r>
       <r>    0.9510    1.0000 </r>
       <r>    0.9510    1.0000 </r>
       <r>    2.5698    1.0000 </r>
       <r>    2.5698    1.0000 </r>
       <r>    3.0175    1.0040 </r>
       <r>    3.0175    1.0040 </r>
       <r>    3.2829    0.1556 </r>
       <r>    3.2829    0.1556 </r>
       <r>   12.4420    0.0000 </r>
       <r>   12.4420    0.0000 </r>
       <r>   15.2412    0.0000 </r>
       <r>   15.2412    0.0000 </r>
       <r>   19.5457    0.0000 </r>
       <r>   19.5457    0.0000 </r>
       <r>   22.0107    0.0000 </r>
       <r>   22.0107    0.0000 </r>
       <r>   22.5753    0.0000 </r>
       <r>   22.5753    0.0000 </r>
      </set>
      <set comment="kpoint 863">
       <r>   -2.9223    1.0000 </r>
       <r>   -2.9223    1.0000 </r>
       <r>   -2.1048    1.0000 </r>
       <r>   -2.1048    1.0000 </r>
       <r>   -0.1787    1.0000 </r>
       <r>   -0.1787    1.0000 </r>
       <r>    0.8603    1.0000 </r>
       <r>    0.8603    1.0000 </r>
       <r>    2.3468    1.0000 </r>
       <r>    2.3468    1.0000 </r>
       <r>    2.9402    1.0001 </r>
       <r>    2.9402    1.0001 </r>
       <r>    3.8334   -0.0000 </r>
       <r>    3.8334   -0.0000 </r>
       <r>   12.2593    0.0000 </r>
       <r>   12.2593    0.0000 </r>
       <r>   15.0383    0.0000 </r>
       <r>   15.0383    0.0000 </r>
       <r>   19.9311    0.0000 </r>
       <r>   19.9311    0.0000 </r>
       <r>   21.8293    0.0000 </r>
       <r>   21.8309    0.0000 </r>
       <r>   22.3544    0.0000 </r>
       <r>   22.3555    0.0000 </r>
      </set>
      <set comment="kpoint 864">
       <r>   -2.5372    1.0000 </r>
       <r>   -2.5372    1.0000 </r>
       <r>   -1.9995    1.0000 </r>
       <r>   -1.9995    1.0000 </r>
       <r>   -0.3681    1.0000 </r>
       <r>   -0.3681    1.0000 </r>
       <r>    0.7812    1.0000 </r>
       <r>    0.7812    1.0000 </r>
       <r>    2.0650    1.0000 </r>
       <r>    2.0650    1.0000 </r>
       <r>    2.8875    1.0000 </r>
       <r>    2.8875    1.0000 </r>
       <r>    4.7458   -0.0000 </r>
       <r>    4.7459   -0.0000 </r>
       <r>   11.6691    0.0000 </r>
       <r>   11.6691    0.0000 </r>
       <r>   14.5876    0.0000 </r>
       <r>   14.5876    0.0000 </r>
       <r>   20.1174    0.0000 </r>
       <r>   20.1174    0.0000 </r>
       <r>   20.8477    0.0000 </r>
       <r>   20.8477    0.0000 </r>
       <r>   21.9708    0.0000 </r>
       <r>   21.9769    0.0000 </r>
      </set>
      <set comment="kpoint 865">
       <r>   -2.1955    1.0000 </r>
       <r>   -2.1955    1.0000 </r>
       <r>   -1.9523    1.0000 </r>
       <r>   -1.9523    1.0000 </r>
       <r>   -0.2720    1.0000 </r>
       <r>   -0.2720    1.0000 </r>
       <r>    0.9369    1.0000 </r>
       <r>    0.9369    1.0000 </r>
       <r>    1.8699    1.0000 </r>
       <r>    1.8699    1.0000 </r>
       <r>    2.8464    1.0000 </r>
       <r>    2.8464    1.0000 </r>
       <r>    5.6139   -0.0000 </r>
       <r>    5.6139   -0.0000 </r>
       <r>   10.8191    0.0000 </r>
       <r>   10.8191    0.0000 </r>
       <r>   13.7920    0.0000 </r>
       <r>   13.7920    0.0000 </r>
       <r>   18.5722    0.0000 </r>
       <r>   18.5722    0.0000 </r>
       <r>   19.3991    0.0000 </r>
       <r>   19.3991    0.0000 </r>
       <r>   23.1733    0.0000 </r>
       <r>   23.2069    0.0000 </r>
      </set>
      <set comment="kpoint 866">
       <r>   -2.1443    1.0000 </r>
       <r>   -2.1443    1.0000 </r>
       <r>   -2.0524    1.0000 </r>
       <r>   -2.0524    1.0000 </r>
       <r>    0.3787    1.0000 </r>
       <r>    0.3787    1.0000 </r>
       <r>    1.2703    1.0000 </r>
       <r>    1.2703    1.0000 </r>
       <r>    1.9273    1.0000 </r>
       <r>    1.9273    1.0000 </r>
       <r>    2.8453    1.0000 </r>
       <r>    2.8453    1.0000 </r>
       <r>    6.0346    0.0000 </r>
       <r>    6.0347    0.0000 </r>
       <r>   10.1628    0.0000 </r>
       <r>   10.1628    0.0000 </r>
       <r>   12.3463    0.0000 </r>
       <r>   12.3463    0.0000 </r>
       <r>   17.5472    0.0000 </r>
       <r>   17.5472    0.0000 </r>
       <r>   18.1557    0.0000 </r>
       <r>   18.1557    0.0000 </r>
       <r>   24.3925    0.0000 </r>
       <r>   24.9986    0.0000 </r>
      </set>
      <set comment="kpoint 867">
       <r>   -2.2125    1.0000 </r>
       <r>   -2.2125    1.0000 </r>
       <r>   -2.1920    1.0000 </r>
       <r>   -2.1920    1.0000 </r>
       <r>    1.0883    1.0000 </r>
       <r>    1.0883    1.0000 </r>
       <r>    1.3629    1.0000 </r>
       <r>    1.3629    1.0000 </r>
       <r>    2.5916    1.0000 </r>
       <r>    2.5916    1.0000 </r>
       <r>    2.9473    1.0002 </r>
       <r>    2.9473    1.0002 </r>
       <r>    5.7030   -0.0000 </r>
       <r>    5.7030   -0.0000 </r>
       <r>   10.0361    0.0000 </r>
       <r>   10.0361    0.0000 </r>
       <r>   10.7872    0.0000 </r>
       <r>   10.7872    0.0000 </r>
       <r>   17.1783    0.0000 </r>
       <r>   17.1783    0.0000 </r>
       <r>   17.3735    0.0000 </r>
       <r>   17.3735    0.0000 </r>
       <r>   24.2587    0.0000 </r>
       <r>   24.2588    0.0000 </r>
      </set>
      <set comment="kpoint 868">
       <r>   -2.2494    1.0000 </r>
       <r>   -2.2494    1.0000 </r>
       <r>   -2.2494    1.0000 </r>
       <r>   -2.2494    1.0000 </r>
       <r>    1.3579    1.0000 </r>
       <r>    1.3579    1.0000 </r>
       <r>    1.3579    1.0000 </r>
       <r>    1.3579    1.0000 </r>
       <r>    2.9038    1.0000 </r>
       <r>    2.9038    1.0000 </r>
       <r>    3.3078    0.0386 </r>
       <r>    3.3078    0.0386 </r>
       <r>    5.2469   -0.0000 </r>
       <r>    5.2469   -0.0000 </r>
       <r>   10.0970    0.0000 </r>
       <r>   10.0970    0.0000 </r>
       <r>   10.0970    0.0000 </r>
       <r>   10.0970    0.0000 </r>
       <r>   17.0972    0.0000 </r>
       <r>   17.0972    0.0000 </r>
       <r>   17.0972    0.0000 </r>
       <r>   17.0972    0.0000 </r>
       <r>   24.1508    0.0000 </r>
       <r>   24.1508    0.0000 </r>
      </set>
     </set>
    </set>
   </array>
  </eigenvalues>
  <separator name="orbital magnetization" >
   <v name="MAGDIPOLOUT">      0.00000000      0.00000000      0.00000000</v>
  </separator>
 </calculation>
 <structure name="finalpos" >
  <crystal>
   <varray name="basis" >
    <v>       3.24210280       0.00000000       0.00000000 </v>
    <v>      -1.08068920       3.05668799       0.00000000 </v>
    <v>      -1.08068920      -1.52831910       2.64718382 </v>
   </varray>
   <i name="volume">     26.23384760 </i>
   <varray name="rec_basis" >
    <v>       0.30844179       0.10904931       0.18887689 </v>
    <v>       0.00000000       0.32715148       0.18887689 </v>
    <v>       0.00000000       0.00000000       0.37775994 </v>
   </varray>
  </crystal>
  <varray name="positions" >
   <v>       0.00000000       0.00000000       0.00000000 </v>
  </varray>
 </structure>
</modeling>
