Cn_BCC                                  
           1
     3.394688    0.000000    0.000000
    -1.131550    3.200546    0.000000
    -1.131550   -1.600247    2.771770
   Cn
   1
Direct configuration=     1
   0.00000000  0.00000000  0.00000000
Cn_BCC                                  
           1
     3.374296    0.000000    0.000000
    -1.124753    3.181321    0.000000
    -1.124753   -1.590635    2.755120
   Cn
   1
Direct configuration=     2
   0.00000000  0.00000000  0.00000000
Cn_BCC                                  
           1
     3.180857    0.000000    0.000000
    -1.060274    2.998945    0.000000
    -1.060274   -1.499448    2.597176
   Cn
   1
Direct configuration=     3
   0.00000000  0.00000000  0.00000000
Cn_BCC                                  
           1
     3.258415    0.000000    0.000000
    -1.086126    3.072067    0.000000
    -1.086126   -1.536009    2.660503
   Cn
   1
Direct configuration=     4
   0.00000000  0.00000000  0.00000000
Cn_BCC                                  
           1
     3.243984    0.000000    0.000000
    -1.081316    3.058462    0.000000
    -1.081316   -1.529206    2.648720
   Cn
   1
Direct configuration=     5
   0.00000000  0.00000000  0.00000000
Cn_BCC                                  
           1
     3.242103    0.000000    0.000000
    -1.080689    3.056688    0.000000
    -1.080689   -1.528319    2.647184
   Cn
   1
Direct configuration=     6
   0.00000000  0.00000000  0.00000000
