   1   1   0   0
  0.6008441E+02  0.4396350E-09  0.4396350E-09  0.4396350E-09  0.1000000E-15
  1.000000000000000E-004
  CAR 
 Og_FCC                                  
     95.72657178    -47.23658163  301      2.08570630      1.00000000
    -47.237  0.0000E+00  0.0000E+00
    -46.760  0.0000E+00  0.0000E+00
    -46.283  0.0000E+00  0.0000E+00
    -45.807  0.0000E+00  0.0000E+00
    -45.330  0.0000E+00  0.0000E+00
    -44.854  0.0000E+00  0.0000E+00
    -44.377  0.0000E+00  0.0000E+00
    -43.901  0.0000E+00  0.0000E+00
    -43.424  0.0000E+00  0.0000E+00
    -42.948  0.0000E+00  0.0000E+00
    -42.471  0.0000E+00  0.0000E+00
    -41.995  0.0000E+00  0.0000E+00
    -41.518  0.0000E+00  0.0000E+00
    -41.042  0.0000E+00  0.0000E+00
    -40.565  0.0000E+00  0.4000E+01
    -40.088  0.0000E+00  0.4000E+01
    -39.612  0.0000E+00  0.4000E+01
    -39.135  0.0000E+00  0.4000E+01
    -38.659  0.0000E+00  0.4000E+01
    -38.182  0.0000E+00  0.4000E+01
    -37.706  0.0000E+00  0.4000E+01
    -37.229  0.0000E+00  0.4000E+01
    -36.753  0.0000E+00  0.4000E+01
    -36.276  0.0000E+00  0.4000E+01
    -35.800  0.0000E+00  0.4000E+01
    -35.323  0.0000E+00  0.4000E+01
    -34.846  0.0000E+00  0.4000E+01
    -34.370  0.0000E+00  0.4000E+01
    -33.893  0.0000E+00  0.4000E+01
    -33.417  0.0000E+00  0.4000E+01
    -32.940  0.0000E+00  0.1000E+02
    -32.464  0.0000E+00  0.1000E+02
    -31.987  0.0000E+00  0.1000E+02
    -31.511  0.0000E+00  0.1000E+02
    -31.034  0.0000E+00  0.1000E+02
    -30.558  0.0000E+00  0.1000E+02
    -30.081  0.0000E+00  0.1000E+02
    -29.604  0.0000E+00  0.1000E+02
    -29.128  0.0000E+00  0.1000E+02
    -28.651  0.0000E+00  0.1000E+02
    -28.175  0.0000E+00  0.1000E+02
    -27.698  0.0000E+00  0.1000E+02
    -27.222  0.0000E+00  0.1000E+02
    -26.745  0.0000E+00  0.1000E+02
    -26.269  0.0000E+00  0.1000E+02
    -25.792  0.0000E+00  0.1000E+02
    -25.316  0.0000E+00  0.1200E+02
    -24.839  0.0000E+00  0.1200E+02
    -24.362  0.0000E+00  0.1200E+02
    -23.886  0.0000E+00  0.1200E+02
    -23.409  0.0000E+00  0.1200E+02
    -22.933  0.0000E+00  0.1200E+02
    -22.456  0.0000E+00  0.1200E+02
    -21.980  0.0000E+00  0.1200E+02
    -21.503  0.0000E+00  0.1200E+02
    -21.027  0.0000E+00  0.1200E+02
    -20.550  0.0000E+00  0.1200E+02
    -20.074  0.0000E+00  0.1200E+02
    -19.597  0.0000E+00  0.1200E+02
    -19.120  0.0000E+00  0.1200E+02
    -18.644  0.0000E+00  0.1200E+02
    -18.167  0.0000E+00  0.1200E+02
    -17.691  0.0000E+00  0.1200E+02
    -17.214  0.0000E+00  0.1200E+02
    -16.738  0.0000E+00  0.1200E+02
    -16.261  0.0000E+00  0.1200E+02
    -15.785  0.0000E+00  0.1200E+02
    -15.308  0.0000E+00  0.1200E+02
    -14.832  0.0000E+00  0.1200E+02
    -14.355  0.0000E+00  0.1200E+02
    -13.879  0.0000E+00  0.1200E+02
    -13.402  0.0000E+00  0.1200E+02
    -12.925  0.0000E+00  0.1200E+02
    -12.449  0.0000E+00  0.1200E+02
    -11.972  0.0000E+00  0.1200E+02
    -11.496  0.0000E+00  0.1200E+02
    -11.019  0.0000E+00  0.1200E+02
    -10.543  0.2937E+00  0.1384E+02
    -10.066  0.0000E+00  0.1400E+02
     -9.590  0.0000E+00  0.1400E+02
     -9.113  0.0000E+00  0.1400E+02
     -8.637  0.0000E+00  0.1400E+02
     -8.160  0.0000E+00  0.1400E+02
     -7.683  0.0000E+00  0.1400E+02
     -7.207  0.0000E+00  0.1400E+02
     -6.730  0.0000E+00  0.1400E+02
     -6.254  0.0000E+00  0.1400E+02
     -5.777  0.0000E+00  0.1400E+02
     -5.301  0.0000E+00  0.1400E+02
     -4.824  0.0000E+00  0.1400E+02
     -4.348  0.0000E+00  0.1400E+02
     -3.871  0.0000E+00  0.1400E+02
     -3.395  0.0000E+00  0.1400E+02
     -2.918  0.0000E+00  0.1400E+02
     -2.441  0.0000E+00  0.1400E+02
     -1.965  0.0000E+00  0.1400E+02
     -1.488  0.0000E+00  0.1400E+02
     -1.012  0.0000E+00  0.1548E+02
     -0.535  0.0000E+00  0.1570E+02
     -0.059  0.0000E+00  0.1619E+02
      0.418  0.2588E-02  0.1693E+02
      0.894  0.0000E+00  0.1746E+02
      1.371  0.0000E+00  0.1786E+02
      1.847  0.0000E+00  0.1799E+02
      2.324  0.0000E+00  0.1800E+02
      2.801  0.0000E+00  0.1800E+02
      3.277  0.0000E+00  0.1801E+02
      3.754  0.0000E+00  0.1801E+02
      4.230  0.0000E+00  0.1801E+02
      4.707  0.0000E+00  0.1805E+02
      5.183  0.0000E+00  0.1809E+02
      5.660  0.0000E+00  0.1816E+02
      6.136  0.0000E+00  0.1839E+02
      6.613  0.0000E+00  0.1881E+02
      7.089  0.0000E+00  0.1937E+02
      7.566  0.1468E+00  0.2000E+02
      8.043  0.0000E+00  0.2010E+02
      8.519  0.4901E+00  0.2086E+02
      8.996  0.0000E+00  0.2133E+02
      9.472  0.0000E+00  0.2199E+02
      9.949  0.0000E+00  0.2240E+02
     10.425  0.0000E+00  0.2320E+02
     10.902  0.0000E+00  0.2397E+02
     11.378  0.0000E+00  0.2460E+02
     11.855  0.3111E-03  0.2560E+02
     12.331  0.0000E+00  0.2596E+02
     12.808  0.0000E+00  0.2647E+02
     13.284  0.0000E+00  0.2762E+02
     13.761  0.0000E+00  0.2841E+02
     14.238  0.0000E+00  0.2895E+02
     14.714  0.0000E+00  0.2974E+02
     15.191  0.0000E+00  0.3056E+02
     15.667  0.0000E+00  0.3122E+02
     16.144  0.0000E+00  0.3219E+02
     16.620  0.0000E+00  0.3257E+02
     17.097  0.0000E+00  0.3324E+02
     17.573  0.0000E+00  0.3394E+02
     18.050  0.2484E-11  0.3544E+02
     18.526  0.0000E+00  0.3831E+02
     19.003  0.0000E+00  0.3963E+02
     19.480  0.9638E-01  0.4199E+02
     19.956  0.7341E-01  0.4465E+02
     20.433  0.0000E+00  0.4619E+02
     20.909  0.0000E+00  0.4629E+02
     21.386  0.0000E+00  0.4700E+02
     21.862  0.0000E+00  0.4781E+02
     22.339  0.0000E+00  0.4821E+02
     22.815  0.0000E+00  0.4954E+02
     23.292  0.0000E+00  0.5034E+02
     23.768  0.0000E+00  0.5156E+02
     24.245  0.2911E+00  0.5337E+02
     24.722  0.0000E+00  0.5478E+02
     25.198  0.0000E+00  0.5629E+02
     25.675  0.0000E+00  0.5698E+02
     26.151  0.1468E+00  0.5798E+02
     26.628  0.0000E+00  0.5918E+02
     27.104  0.0000E+00  0.6028E+02
     27.581  0.0000E+00  0.6071E+02
     28.057  0.0000E+00  0.6139E+02
     28.534  0.1468E+00  0.6283E+02
     29.010  0.3761E-02  0.6355E+02
     29.487  0.7341E-01  0.6480E+02
     29.964  0.2246E-06  0.6583E+02
     30.440  0.0000E+00  0.6685E+02
     30.917  0.0000E+00  0.6816E+02
     31.393  0.0000E+00  0.6991E+02
     31.870  0.0000E+00  0.7127E+02
     32.346  0.0000E+00  0.7235E+02
     32.823  0.0000E+00  0.7369E+02
     33.299  0.0000E+00  0.7448E+02
     33.776  0.0000E+00  0.7586E+02
     34.252  0.0000E+00  0.7662E+02
     34.729  0.0000E+00  0.7869E+02
     35.206  0.0000E+00  0.7970E+02
     35.682  0.7311E-01  0.8125E+02
     36.159  0.0000E+00  0.8310E+02
     36.635  0.0000E+00  0.8356E+02
     37.112  0.7341E-01  0.8536E+02
     37.588  0.0000E+00  0.8578E+02
     38.065  0.0000E+00  0.8700E+02
     38.541  0.7341E-01  0.8837E+02
     39.018  0.2928E+00  0.8937E+02
     39.494  0.0000E+00  0.9019E+02
     39.971  0.0000E+00  0.9216E+02
     40.447  0.0000E+00  0.9374E+02
     40.924  0.1468E+00  0.9450E+02
     41.401  0.0000E+00  0.9623E+02
     41.877  0.0000E+00  0.9743E+02
     42.354  0.0000E+00  0.9929E+02
     42.830  0.0000E+00  0.9981E+02
     43.307  0.0000E+00  0.1012E+03
     43.783  0.5873E+00  0.1028E+03
     44.260  0.9959E-01  0.1036E+03
     44.736  0.0000E+00  0.1054E+03
     45.213  0.0000E+00  0.1068E+03
     45.689  0.5854E+00  0.1085E+03
     46.166  0.0000E+00  0.1093E+03
     46.643  0.0000E+00  0.1107E+03
     47.119  0.0000E+00  0.1121E+03
     47.596  0.0000E+00  0.1137E+03
     48.072  0.0000E+00  0.1153E+03
     48.549  0.4936E-06  0.1167E+03
     49.025  0.2937E+00  0.1183E+03
     49.502  0.0000E+00  0.1195E+03
     49.978  0.2402E-09  0.1211E+03
     50.455  0.0000E+00  0.1225E+03
     50.931  0.1468E+00  0.1243E+03
     51.408  0.2937E+00  0.1254E+03
     51.885  0.0000E+00  0.1275E+03
     52.361  0.2512E-13  0.1284E+03
     52.838  0.0000E+00  0.1304E+03
     53.314  0.0000E+00  0.1316E+03
     53.791  0.0000E+00  0.1329E+03
     54.267  0.2937E+00  0.1351E+03
     54.744  0.5872E+00  0.1365E+03
     55.220  0.7012E-02  0.1373E+03
     55.697  0.4763E-02  0.1391E+03
     56.173  0.0000E+00  0.1404E+03
     56.650  0.0000E+00  0.1416E+03
     57.127  0.2447E-01  0.1431E+03
     57.603  0.0000E+00  0.1449E+03
     58.080  0.0000E+00  0.1464E+03
     58.556  0.2441E-08  0.1484E+03
     59.033  0.1468E+00  0.1498E+03
     59.509  0.0000E+00  0.1515E+03
     59.986  0.1468E+00  0.1531E+03
     60.462  0.0000E+00  0.1544E+03
     60.939  0.4930E-01  0.1558E+03
     61.415  0.9815E-01  0.1574E+03
     61.892  0.0000E+00  0.1587E+03
     62.369  0.0000E+00  0.1607E+03
     62.845  0.1468E+00  0.1621E+03
     63.322  0.2937E+00  0.1642E+03
     63.798  0.0000E+00  0.1661E+03
     64.275  0.0000E+00  0.1671E+03
     64.751  0.0000E+00  0.1686E+03
     65.228  0.0000E+00  0.1710E+03
     65.704  0.2935E+00  0.1727E+03
     66.181  0.5757E-01  0.1742E+03
     66.657  0.0000E+00  0.1757E+03
     67.134  0.1417E-01  0.1770E+03
     67.610  0.0000E+00  0.1792E+03
     68.087  0.1131E-13  0.1802E+03
     68.564  0.2937E+00  0.1823E+03
     69.040  0.0000E+00  0.1840E+03
     69.517  0.7133E-01  0.1854E+03
     69.993  0.0000E+00  0.1872E+03
     70.470  0.3107E+00  0.1887E+03
     70.946  0.2937E+00  0.1906E+03
     71.423  0.2294E-03  0.1929E+03
     71.899  0.9789E-01  0.1945E+03
     72.376  0.0000E+00  0.1956E+03
     72.852  0.0000E+00  0.1972E+03
     73.329  0.5365E-11  0.1991E+03
     73.806  0.0000E+00  0.2009E+03
     74.282  0.2937E+00  0.2029E+03
     74.759  0.2447E-01  0.2044E+03
     75.235  0.0000E+00  0.2062E+03
     75.712  0.0000E+00  0.2075E+03
     76.188  0.0000E+00  0.2096E+03
     76.665  0.0000E+00  0.2110E+03
     77.141  0.0000E+00  0.2128E+03
     77.618  0.0000E+00  0.2155E+03
     78.094  0.1743E+00  0.2185E+03
     78.571  0.0000E+00  0.2207E+03
     79.048  0.0000E+00  0.2230E+03
     79.524  0.3915E+00  0.2246E+03
     80.001  0.0000E+00  0.2261E+03
     80.477  0.0000E+00  0.2275E+03
     80.954  0.0000E+00  0.2292E+03
     81.430  0.0000E+00  0.2312E+03
     81.907  0.0000E+00  0.2331E+03
     82.383  0.2936E+00  0.2354E+03
     82.860  0.0000E+00  0.2371E+03
     83.336  0.0000E+00  0.2386E+03
     83.813  0.5351E-01  0.2406E+03
     84.290  0.0000E+00  0.2421E+03
     84.766  0.0000E+00  0.2433E+03
     85.243  0.7341E-01  0.2456E+03
     85.719  0.0000E+00  0.2481E+03
     86.196  0.9532E-04  0.2500E+03
     86.672  0.0000E+00  0.2519E+03
     87.149  0.0000E+00  0.2533E+03
     87.625  0.0000E+00  0.2545E+03
     88.102  0.3692E-15  0.2553E+03
     88.578  0.0000E+00  0.2559E+03
     89.055  0.0000E+00  0.2559E+03
     89.532  0.0000E+00  0.2560E+03
     90.008  0.0000E+00  0.2560E+03
     90.485  0.0000E+00  0.2560E+03
     90.961  0.0000E+00  0.2560E+03
     91.438  0.0000E+00  0.2560E+03
     91.914  0.0000E+00  0.2560E+03
     92.391  0.0000E+00  0.2560E+03
     92.867  0.0000E+00  0.2560E+03
     93.344  0.0000E+00  0.2560E+03
     93.820  0.0000E+00  0.2560E+03
     94.297  0.0000E+00  0.2560E+03
     94.773  0.0000E+00  0.2560E+03
     95.250  0.0000E+00  0.2560E+03
     95.727  0.0000E+00  0.2560E+03
