    1    1    1    1
  0.6008441E+02  0.4396350E-09  0.4396350E-09  0.4396350E-09  0.1000000E-15
  1.000000000000000E-004
  CAR 
 Og_FCC                                  
     18    343    256
 
  0.0000000E+00  0.0000000E+00  0.0000000E+00  0.2915452E-02
    1      -40.738256   1.000000
    2      -40.738255   1.000000
    3      -40.738200   1.000000
    4      -40.738199   1.000000
    5      -33.258517   1.000000
    6      -33.258515   1.000000
    7      -33.258477   1.000000
    8      -33.258476   1.000000
    9      -33.256590   1.000000
   10      -33.256589   1.000000
   11      -25.612725   1.000000
   12      -25.612723   1.000000
   13      -10.373106   1.000000
   14      -10.373104   1.000000
   15        1.857978   1.000000
   16        1.857984   1.000000
   17        1.857994   1.000000
   18        1.858000   1.000000
   19        3.073274   0.000000
   20        3.073278   0.000000
   21       10.888919   0.000000
   22       10.888920   0.000000
   23       10.888920   0.000000
   24       10.888921   0.000000
   25       11.106047   0.000000
   26       11.106048   0.000000
   27       11.498428   0.000000
   28       11.498432   0.000000
   29       13.637275   0.000000
   30       13.637276   0.000000
   31       14.054521   0.000000
   32       14.054521   0.000000
   33       14.054525   0.000000
   34       14.054526   0.000000
   35       14.266696   0.000000
   36       14.266696   0.000000
   37       14.266697   0.000000
   38       14.266698   0.000000
   39       15.892711   0.000000
   40       15.892712   0.000000
   41       19.922299   0.000000
   42       19.922306   0.000000
   43       19.922323   0.000000
   44       19.922362   0.000000
   45       19.922379   0.000000
   46       19.922386   0.000000
   47       22.145539   0.000000
   48       22.145562   0.000000
   49       25.559950   0.000000
   50       25.559968   0.000000
   51       25.559979   0.000000
   52       25.559997   0.000000
   53       25.780509   0.000000
   54       25.780545   0.000000
   55       27.007674   0.000000
   56       27.007691   0.000000
   57       28.627308   0.000000
   58       28.627324   0.000000
   59       28.627341   0.000000
   60       28.627357   0.000000
   61       29.178506   0.000000
   62       29.178535   0.000000
   63       29.474478   0.000000
   64       29.474491   0.000000
   65       29.474530   0.000000
   66       29.474543   0.000000
   67       29.903033   0.000000
   68       29.903057   0.000000
   69       30.651998   0.000000
   70       30.652009   0.000000
   71       30.652032   0.000000
   72       30.652043   0.000000
   73       36.819885   0.000000
   74       36.819886   0.000000
   75       36.819888   0.000000
   76       36.819912   0.000000
   77       36.819914   0.000000
   78       36.819915   0.000000
   79       37.486155   0.000000
   80       37.486169   0.000000
   81       37.720715   0.000000
   82       37.720725   0.000000
   83       37.720738   0.000000
   84       37.720773   0.000000
   85       37.720786   0.000000
   86       37.720796   0.000000
   87       40.083477   0.000000
   88       40.083491   0.000000
   89       40.083505   0.000000
   90       40.083519   0.000000
   91       40.290300   0.000000
   92       40.290314   0.000000
   93       41.383062   0.000000
   94       41.383098   0.000000
   95       41.599536   0.000000
   96       41.599546   0.000000
   97       41.599566   0.000000
   98       41.599576   0.000000
   99       42.107614   0.000000
  100       42.107618   0.000000
  101       42.107640   0.000000
  102       42.107644   0.000000
  103       42.727008   0.000000
  104       42.727028   0.000000
  105       42.727043   0.000000
  106       42.727063   0.000000
  107       42.865417   0.000000
  108       42.865426   0.000000
  109       42.865448   0.000000
  110       42.865456   0.000000
  111       43.077427   0.000000
  112       43.077441   0.000000
  113       44.019028   0.000000
  114       44.019059   0.000000
  115       44.549590   0.000000
  116       44.549610   0.000000
  117       44.924871   0.000000
  118       44.924886   0.000000
  119       44.924907   0.000000
  120       44.924922   0.000000
  121       45.498826   0.000000
  122       45.498837   0.000000
  123       45.834217   0.000000
  124       45.834226   0.000000
  125       45.834233   0.000000
  126       45.834242   0.000000
  127       45.948348   0.000000
  128       45.948353   0.000000
  129       49.982352   0.000000
  130       49.982365   0.000000
  131       49.982371   0.000000
  132       49.982399   0.000000
  133       49.982405   0.000000
  134       49.982418   0.000000
  135       52.692913   0.000000
  136       52.692928   0.000000
  137       52.854652   0.000000
  138       52.854667   0.000000
  139       52.854679   0.000000
  140       52.854694   0.000000
  141       57.023519   0.000000
  142       57.023547   0.000000
  143       57.118696   0.000000
  144       57.118700   0.000000
  145       57.118741   0.000000
  146       57.118745   0.000000
  147       57.458015   0.000000
  148       57.458044   0.000000
  149       63.639425   0.000000
  150       63.639434   0.000000
  151       64.457990   0.000000
  152       64.458004   0.000000
  153       64.458036   0.000000
  154       64.458050   0.000000
  155       64.529806   0.000000
  156       64.529827   0.000000
  157       64.644980   0.000000
  158       64.644993   0.000000
  159       64.645004   0.000000
  160       64.645016   0.000000
  161       65.812745   0.000000
  162       65.812755   0.000000
  163       65.812782   0.000000
  164       65.812791   0.000000
  165       66.475613   0.000000
  166       66.475619   0.000000
  167       66.475627   0.000000
  168       66.475651   0.000000
  169       66.475659   0.000000
  170       66.475666   0.000000
  171       68.450464   0.000000
  172       68.450486   0.000000
  173       70.582826   0.000000
  174       70.582844   0.000000
  175       70.582881   0.000000
  176       70.582899   0.000000
  177       71.090503   0.000000
  178       71.090515   0.000000
  179       71.090544   0.000000
  180       71.090556   0.000000
  181       72.301826   0.000000
  182       72.301828   0.000000
  183       72.301833   0.000000
  184       72.301878   0.000000
  185       72.301884   0.000000
  186       72.301886   0.000000
  187       72.354175   0.000000
  188       72.354177   0.000000
  189       72.354193   0.000000
  190       72.354225   0.000000
  191       72.354241   0.000000
  192       72.354243   0.000000
  193       72.355111   0.000000
  194       72.355133   0.000000
  195       72.559222   0.000000
  196       72.559245   0.000000
  197       74.721635   0.000000
  198       74.721683   0.000000
  199       74.755581   0.000000
  200       74.755594   0.000000
  201       74.755605   0.000000
  202       74.755618   0.000000
  203       75.115033   0.000000
  204       75.115039   0.000000
  205       75.115062   0.000000
  206       75.115068   0.000000
  207       75.283753   0.000000
  208       75.283765   0.000000
  209       76.036511   0.000000
  210       76.036523   0.000000
  211       76.484735   0.000000
  212       76.484741   0.000000
  213       76.484767   0.000000
  214       76.484773   0.000000
  215       76.577164   0.000000
  216       76.577168   0.000000
  217       76.577173   0.000000
  218       76.577197   0.000000
  219       76.577202   0.000000
  220       76.577206   0.000000
  221       76.952718   0.000000
  222       76.952736   0.000000
  223       77.918647   0.000000
  224       77.918657   0.000000
  225       77.918679   0.000000
  226       77.918689   0.000000
  227       78.365757   0.000000
  228       78.365771   0.000000
  229       80.040649   0.000000
  230       80.040656   0.000000
  231       80.040687   0.000000
  232       80.040695   0.000000
  233       80.401916   0.000000
  234       80.401954   0.000000
  235       80.592485   0.000000
  236       80.592494   0.000000
  237       80.592511   0.000000
  238       80.592520   0.000000
  239       80.665077   0.000000
  240       80.665093   0.000000
  241       83.667466   0.000000
  242       83.667473   0.000000
  243       84.076524   0.000000
  244       84.076533   0.000000
  245       84.076542   0.000000
  246       84.076551   0.000000
  247       85.936901   0.000000
  248       85.936905   0.000000
  249       85.936910   0.000000
  250       85.936939   0.000000
  251       85.936944   0.000000
  252       85.936947   0.000000
  253       85.962431   0.000000
  254       85.962448   0.000000
  255       85.962457   0.000000
  256       85.962473   0.000000
 
  0.1428571E+00 -0.1253471E-16  0.0000000E+00  0.2915452E-02
    1      -40.733384   1.000000
    2      -40.733366   1.000000
    3      -40.724894   1.000000
    4      -40.724888   1.000000
    5      -33.256028   1.000000
    6      -33.256025   1.000000
    7      -33.250762   1.000000
    8      -33.250759   1.000000
    9      -33.247026   1.000000
   10      -33.247019   1.000000
   11      -25.590857   1.000000
   12      -25.590855   1.000000
   13      -10.428639   1.000000
   14      -10.428634   1.000000
   15        0.536742   1.000000
   16        0.536753   1.000000
   17        1.729557   1.000000
   18        1.729577   1.000000
   19        4.503886   0.000000
   20        4.503900   0.000000
   21        9.902982   0.000000
   22        9.902984   0.000000
   23       11.089631   0.000000
   24       11.089697   0.000000
   25       11.218721   0.000000
   26       11.218723   0.000000
   27       12.538599   0.000000
   28       12.538603   0.000000
   29       12.738214   0.000000
   30       12.738216   0.000000
   31       12.861325   0.000000
   32       12.861374   0.000000
   33       13.746887   0.000000
   34       13.746889   0.000000
   35       15.977207   0.000000
   36       15.977207   0.000000
   37       16.211653   0.000000
   38       16.211665   0.000000
   39       17.597004   0.000000
   40       17.597008   0.000000
   41       19.566221   0.000000
   42       19.566244   0.000000
   43       19.660735   0.000000
   44       19.660791   0.000000
   45       19.972651   0.000000
   46       19.972728   0.000000
   47       21.299996   0.000000
   48       21.300019   0.000000
   49       24.615967   0.000000
   50       24.615978   0.000000
   51       25.085519   0.000000
   52       25.085541   0.000000
   53       25.416993   0.000000
   54       25.417026   0.000000
   55       26.531212   0.000000
   56       26.531235   0.000000
   57       27.276233   0.000000
   58       27.276249   0.000000
   59       28.099980   0.000000
   60       28.100020   0.000000
   61       29.237358   0.000000
   62       29.237408   0.000000
   63       29.299797   0.000000
   64       29.299823   0.000000
   65       29.852758   0.000000
   66       29.852791   0.000000
   67       29.985365   0.000000
   68       29.985410   0.000000
   69       31.849271   0.000000
   70       31.849311   0.000000
   71       34.182467   0.000000
   72       34.182485   0.000000
   73       34.924215   0.000000
   74       34.924254   0.000000
   75       35.714659   0.000000
   76       35.714674   0.000000
   77       35.783038   0.000000
   78       35.783073   0.000000
   79       35.904629   0.000000
   80       35.904643   0.000000
   81       37.805077   0.000000
   82       37.805087   0.000000
   83       38.235145   0.000000
   84       38.235185   0.000000
   85       38.426802   0.000000
   86       38.426834   0.000000
   87       38.789886   0.000000
   88       38.789913   0.000000
   89       39.167321   0.000000
   90       39.167340   0.000000
   91       39.444149   0.000000
   92       39.444169   0.000000
   93       39.593479   0.000000
   94       39.593497   0.000000
   95       40.055548   0.000000
   96       40.055595   0.000000
   97       40.413144   0.000000
   98       40.413170   0.000000
   99       41.581848   0.000000
  100       41.581878   0.000000
  101       42.019272   0.000000
  102       42.019293   0.000000
  103       42.155519   0.000000
  104       42.155542   0.000000
  105       42.798022   0.000000
  106       42.798036   0.000000
  107       43.558403   0.000000
  108       43.558426   0.000000
  109       43.593629   0.000000
  110       43.593647   0.000000
  111       43.715702   0.000000
  112       43.715719   0.000000
  113       44.949241   0.000000
  114       44.949274   0.000000
  115       45.378317   0.000000
  116       45.378334   0.000000
  117       45.726783   0.000000
  118       45.726819   0.000000
  119       46.722682   0.000000
  120       46.722703   0.000000
  121       47.646305   0.000000
  122       47.646323   0.000000
  123       47.734048   0.000000
  124       47.734074   0.000000
  125       48.271552   0.000000
  126       48.271569   0.000000
  127       50.058423   0.000000
  128       50.058475   0.000000
  129       50.573754   0.000000
  130       50.573778   0.000000
  131       50.831186   0.000000
  132       50.831201   0.000000
  133       50.935866   0.000000
  134       50.935885   0.000000
  135       52.014486   0.000000
  136       52.014515   0.000000
  137       52.446263   0.000000
  138       52.446291   0.000000
  139       52.516979   0.000000
  140       52.517014   0.000000
  141       56.351512   0.000000
  142       56.351540   0.000000
  143       57.984021   0.000000
  144       57.984041   0.000000
  145       58.021600   0.000000
  146       58.021620   0.000000
  147       58.635226   0.000000
  148       58.635256   0.000000
  149       60.938856   0.000000
  150       60.938873   0.000000
  151       61.407669   0.000000
  152       61.407686   0.000000
  153       62.744794   0.000000
  154       62.744826   0.000000
  155       62.901216   0.000000
  156       62.901270   0.000000
  157       63.638983   0.000000
  158       63.639017   0.000000
  159       64.604722   0.000000
  160       64.604770   0.000000
  161       64.640637   0.000000
  162       64.640659   0.000000
  163       65.521416   0.000000
  164       65.521468   0.000000
  165       65.597280   0.000000
  166       65.597316   0.000000
  167       67.911632   0.000000
  168       67.911661   0.000000
  169       68.320551   0.000000
  170       68.320595   0.000000
  171       68.344638   0.000000
  172       68.344657   0.000000
  173       68.731380   0.000000
  174       68.731406   0.000000
  175       68.790278   0.000000
  176       68.790310   0.000000
  177       69.264552   0.000000
  178       69.264562   0.000000
  179       69.819685   0.000000
  180       69.819719   0.000000
  181       69.912999   0.000000
  182       69.913035   0.000000
  183       70.082454   0.000000
  184       70.082494   0.000000
  185       71.183354   0.000000
  186       71.183411   0.000000
  187       71.218090   0.000000
  188       71.218114   0.000000
  189       72.230152   0.000000
  190       72.230172   0.000000
  191       72.518782   0.000000
  192       72.518847   0.000000
  193       73.234813   0.000000
  194       73.234840   0.000000
  195       73.291707   0.000000
  196       73.291718   0.000000
  197       73.591167   0.000000
  198       73.591174   0.000000
  199       74.459465   0.000000
  200       74.459486   0.000000
  201       74.947131   0.000000
  202       74.947154   0.000000
  203       75.959480   0.000000
  204       75.959493   0.000000
  205       76.001354   0.000000
  206       76.001371   0.000000
  207       76.514861   0.000000
  208       76.514879   0.000000
  209       76.639471   0.000000
  210       76.639516   0.000000
  211       76.720993   0.000000
  212       76.721013   0.000000
  213       76.885993   0.000000
  214       76.886004   0.000000
  215       77.347420   0.000000
  216       77.347456   0.000000
  217       77.376968   0.000000
  218       77.376989   0.000000
  219       77.562657   0.000000
  220       77.562672   0.000000
  221       77.880862   0.000000
  222       77.880875   0.000000
  223       78.090181   0.000000
  224       78.090232   0.000000
  225       79.022385   0.000000
  226       79.022399   0.000000
  227       79.620108   0.000000
  228       79.620133   0.000000
  229       79.923521   0.000000
  230       79.923567   0.000000
  231       80.921095   0.000000
  232       80.921111   0.000000
  233       81.384273   0.000000
  234       81.384287   0.000000
  235       81.564671   0.000000
  236       81.564703   0.000000
  237       82.045258   0.000000
  238       82.045286   0.000000
  239       82.120501   0.000000
  240       82.120530   0.000000
  241       82.498775   0.000000
  242       82.498801   0.000000
  243       83.107139   0.000000
  244       83.107170   0.000000
  245       83.112834   0.000000
  246       83.112862   0.000000
  247       84.033955   0.000000
  248       84.033975   0.000000
  249       84.411129   0.000000
  250       84.411163   0.000000
  251       86.029518   0.000000
  252       86.029536   0.000000
  253       86.337720   0.000000
  254       86.337736   0.000000
  255       86.353291   0.000000
  256       86.353324   0.000000
 
  0.2857143E+00  0.2686160E-17  0.1387779E-16  0.2915452E-02
    1      -40.733897   1.000000
    2      -40.733892   1.000000
    3      -40.723318   1.000000
    4      -40.723302   1.000000
    5      -33.250587   1.000000
    6      -33.250586   1.000000
    7      -33.245393   1.000000
    8      -33.245391   1.000000
    9      -33.242799   1.000000
   10      -33.242793   1.000000
   11      -25.539998   1.000000
   12      -25.539994   1.000000
   13      -10.555205   1.000000
   14      -10.555203   1.000000
   15       -0.711300   1.000000
   16       -0.711295   1.000000
   17        1.470076   1.000000
   18        1.470108   1.000000
   19        5.671698   0.000000
   20        5.671705   0.000000
   21        9.889952   0.000000
   22        9.889956   0.000000
   23       10.820146   0.000000
   24       10.820297   0.000000
   25       11.025074   0.000000
   26       11.025074   0.000000
   27       11.655213   0.000000
   28       11.655218   0.000000
   29       13.076275   0.000000
   30       13.076276   0.000000
   31       13.347107   0.000000
   32       13.347184   0.000000
   33       16.406639   0.000000
   34       16.406644   0.000000
   35       18.212444   0.000000
   36       18.212447   0.000000
   37       18.602900   0.000000
   38       18.603012   0.000000
   39       19.478025   0.000000
   40       19.478033   0.000000
   41       18.648357   0.000000
   42       18.648410   0.000000
   43       19.270656   0.000000
   44       19.270678   0.000000
   45       19.716383   0.000000
   46       19.716414   0.000000
   47       20.099135   0.000000
   48       20.099213   0.000000
   49       23.306355   0.000000
   50       23.306383   0.000000
   51       24.631788   0.000000
   52       24.631813   0.000000
   53       24.772774   0.000000
   54       24.772810   0.000000
   55       25.940958   0.000000
   56       25.940986   0.000000
   57       26.458712   0.000000
   58       26.458747   0.000000
   59       27.088948   0.000000
   60       27.088983   0.000000
   61       29.232318   0.000000
   62       29.232331   0.000000
   63       29.966733   0.000000
   64       29.966794   0.000000
   65       30.634625   0.000000
   66       30.634662   0.000000
   67       30.792809   0.000000
   68       30.792838   0.000000
   69       31.547014   0.000000
   70       31.547040   0.000000
   71       31.820018   0.000000
   72       31.820034   0.000000
   73       33.266149   0.000000
   74       33.266189   0.000000
   75       34.118677   0.000000
   76       34.118693   0.000000
   77       34.676409   0.000000
   78       34.676424   0.000000
   79       35.326512   0.000000
   80       35.326528   0.000000
   81       35.413224   0.000000
   82       35.413266   0.000000
   83       35.613203   0.000000
   84       35.613229   0.000000
   85       38.379322   0.000000
   86       38.379361   0.000000
   87       38.386134   0.000000
   88       38.386161   0.000000
   89       38.640348   0.000000
   90       38.640366   0.000000
   91       39.627240   0.000000
   92       39.627270   0.000000
   93       39.813356   0.000000
   94       39.813367   0.000000
   95       40.715239   0.000000
   96       40.715261   0.000000
   97       41.567886   0.000000
   98       41.567913   0.000000
   99       41.635195   0.000000
  100       41.635214   0.000000
  101       42.242503   0.000000
  102       42.242525   0.000000
  103       42.889100   0.000000
  104       42.889145   0.000000
  105       43.102087   0.000000
  106       43.102115   0.000000
  107       44.210016   0.000000
  108       44.210043   0.000000
  109       44.582639   0.000000
  110       44.582657   0.000000
  111       44.606597   0.000000
  112       44.606608   0.000000
  113       45.793834   0.000000
  114       45.793876   0.000000
  115       48.937286   0.000000
  116       48.937317   0.000000
  117       49.296730   0.000000
  118       49.296744   0.000000
  119       49.523904   0.000000
  120       49.523938   0.000000
  121       49.777931   0.000000
  122       49.777949   0.000000
  123       49.963245   0.000000
  124       49.963261   0.000000
  125       50.188315   0.000000
  126       50.188337   0.000000
  127       50.404709   0.000000
  128       50.404761   0.000000
  129       51.805069   0.000000
  130       51.805085   0.000000
  131       51.890888   0.000000
  132       51.890908   0.000000
  133       52.426182   0.000000
  134       52.426203   0.000000
  135       53.876556   0.000000
  136       53.876568   0.000000
  137       54.429954   0.000000
  138       54.430001   0.000000
  139       54.981809   0.000000
  140       54.981823   0.000000
  141       55.552855   0.000000
  142       55.552869   0.000000
  143       55.568639   0.000000
  144       55.568654   0.000000
  145       57.532383   0.000000
  146       57.532412   0.000000
  147       58.796456   0.000000
  148       58.796490   0.000000
  149       58.935248   0.000000
  150       58.935301   0.000000
  151       59.546934   0.000000
  152       59.546962   0.000000
  153       60.384867   0.000000
  154       60.384920   0.000000
  155       60.493178   0.000000
  156       60.493208   0.000000
  157       62.162498   0.000000
  158       62.162528   0.000000
  159       62.172213   0.000000
  160       62.172237   0.000000
  161       63.611678   0.000000
  162       63.611700   0.000000
  163       63.688109   0.000000
  164       63.688143   0.000000
  165       64.232888   0.000000
  166       64.232909   0.000000
  167       65.823338   0.000000
  168       65.823366   0.000000
  169       65.950886   0.000000
  170       65.950928   0.000000
  171       66.003923   0.000000
  172       66.003958   0.000000
  173       66.575004   0.000000
  174       66.575025   0.000000
  175       68.092199   0.000000
  176       68.092226   0.000000
  177       68.118991   0.000000
  178       68.119027   0.000000
  179       69.813143   0.000000
  180       69.813160   0.000000
  181       69.917908   0.000000
  182       69.917926   0.000000
  183       70.134567   0.000000
  184       70.134603   0.000000
  185       70.632278   0.000000
  186       70.632317   0.000000
  187       70.682147   0.000000
  188       70.682202   0.000000
  189       71.068081   0.000000
  190       71.068106   0.000000
  191       71.073315   0.000000
  192       71.073339   0.000000
  193       71.714516   0.000000
  194       71.714525   0.000000
  195       71.892518   0.000000
  196       71.892579   0.000000
  197       73.307424   0.000000
  198       73.307442   0.000000
  199       73.361029   0.000000
  200       73.361044   0.000000
  201       74.885801   0.000000
  202       74.885815   0.000000
  203       74.983935   0.000000
  204       74.983960   0.000000
  205       76.175417   0.000000
  206       76.175429   0.000000
  207       76.638057   0.000000
  208       76.638065   0.000000
  209       76.891600   0.000000
  210       76.891625   0.000000
  211       77.641474   0.000000
  212       77.641491   0.000000
  213       78.078923   0.000000
  214       78.078951   0.000000
  215       78.298593   0.000000
  216       78.298617   0.000000
  217       78.657295   0.000000
  218       78.657321   0.000000
  219       78.848594   0.000000
  220       78.848607   0.000000
  221       78.855402   0.000000
  222       78.855422   0.000000
  223       79.206528   0.000000
  224       79.206574   0.000000
  225       79.521662   0.000000
  226       79.521682   0.000000
  227       80.762938   0.000000
  228       80.762955   0.000000
  229       80.774823   0.000000
  230       80.774838   0.000000
  231       81.048152   0.000000
  232       81.048173   0.000000
  233       81.173749   0.000000
  234       81.173779   0.000000
  235       81.528280   0.000000
  236       81.528307   0.000000
  237       82.278256   0.000000
  238       82.278291   0.000000
  239       82.497957   0.000000
  240       82.497997   0.000000
  241       84.498606   0.000000
  242       84.498611   0.000000
  243       84.784169   0.000000
  244       84.784207   0.000000
  245       84.920147   0.000000
  246       84.920173   0.000000
  247       85.537796   0.000000
  248       85.537837   0.000000
  249       85.649475   0.000000
  250       85.649501   0.000000
  251       86.197863   0.000000
  252       86.197911   0.000000
  253       86.313086   0.000000
  254       86.313110   0.000000
  255       86.314864   0.000000
  256       86.314894   0.000000
 
  0.4285714E+00  0.3178482E-16  0.5551115E-16  0.2915452E-02
    1      -40.731870   1.000000
    2      -40.731855   1.000000
    3      -40.723985   1.000000
    4      -40.723973   1.000000
    5      -33.250910   1.000000
    6      -33.250899   1.000000
    7      -33.250563   1.000000
    8      -33.250561   1.000000
    9      -33.243683   1.000000
   10      -33.243681   1.000000
   11      -25.498185   1.000000
   12      -25.498183   1.000000
   13      -10.657683   1.000000
   14      -10.657681   1.000000
   15       -1.351553   1.000000
   16       -1.351549   1.000000
   17        1.284406   1.000000
   18        1.284478   1.000000
   19        5.910061   0.000000
   20        5.910064   0.000000
   21       10.387974   0.000000
   22       10.387978   0.000000
   23       10.389368   0.000000
   24       10.389542   0.000000
   25       10.611532   0.000000
   26       10.611533   0.000000
   27       11.856782   0.000000
   28       11.856785   0.000000
   29       14.643720   0.000000
   30       14.643723   0.000000
   31       14.975415   0.000000
   32       14.975466   0.000000
   33       16.488550   0.000000
   34       16.488553   0.000000
   35       17.704802   0.000000
   36       17.704804   0.000000
   37       17.833353   0.000000
   38       17.833531   0.000000
   39       19.560506   0.000000
   40       19.560513   0.000000
   41       18.408627   0.000000
   42       18.408680   0.000000
   43       18.422457   0.000000
   44       18.422492   0.000000
   45       20.205582   0.000000
   46       20.205661   0.000000
   47       22.129674   0.000000
   48       22.129702   0.000000
   49       23.350371   0.000000
   50       23.350391   0.000000
   51       24.284176   0.000000
   52       24.284196   0.000000
   53       24.755515   0.000000
   54       24.755554   0.000000
   55       25.144511   0.000000
   56       25.144547   0.000000
   57       26.319907   0.000000
   58       26.319941   0.000000
   59       26.586903   0.000000
   60       26.586934   0.000000
   61       27.947105   0.000000
   62       27.947125   0.000000
   63       29.050314   0.000000
   64       29.050319   0.000000
   65       30.084004   0.000000
   66       30.084030   0.000000
   67       30.597831   0.000000
   68       30.597850   0.000000
   69       30.823236   0.000000
   70       30.823299   0.000000
   71       31.432060   0.000000
   72       31.432104   0.000000
   73       31.730984   0.000000
   74       31.731019   0.000000
   75       32.375006   0.000000
   76       32.375045   0.000000
   77       33.238322   0.000000
   78       33.238327   0.000000
   79       33.469433   0.000000
   80       33.469461   0.000000
   81       34.916483   0.000000
   82       34.916503   0.000000
   83       35.662474   0.000000
   84       35.662506   0.000000
   85       38.440303   0.000000
   86       38.440332   0.000000
   87       38.451729   0.000000
   88       38.451754   0.000000
   89       39.075891   0.000000
   90       39.075922   0.000000
   91       39.240106   0.000000
   92       39.240125   0.000000
   93       39.554615   0.000000
   94       39.554625   0.000000
   95       40.846939   0.000000
   96       40.846954   0.000000
   97       41.165242   0.000000
   98       41.165258   0.000000
   99       43.110497   0.000000
  100       43.110534   0.000000
  101       44.619502   0.000000
  102       44.619542   0.000000
  103       44.791312   0.000000
  104       44.791342   0.000000
  105       44.988224   0.000000
  106       44.988266   0.000000
  107       45.225407   0.000000
  108       45.225452   0.000000
  109       46.571849   0.000000
  110       46.571863   0.000000
  111       47.263111   0.000000
  112       47.263131   0.000000
  113       47.456040   0.000000
  114       47.456062   0.000000
  115       47.528378   0.000000
  116       47.528392   0.000000
  117       49.718874   0.000000
  118       49.718885   0.000000
  119       50.497306   0.000000
  120       50.497334   0.000000
  121       50.917372   0.000000
  122       50.917399   0.000000
  123       51.198667   0.000000
  124       51.198719   0.000000
  125       51.748641   0.000000
  126       51.748669   0.000000
  127       51.754237   0.000000