   1   1   0   0
  0.2224118E+02  0.3156634E-09  0.3156634E-09  0.3156634E-09  0.1000000E-15
  1.000000000000000E-004
  CAR 
 Og_FCC                                  
    120.19378413    -53.78133375  301    -17.68149679      1.00000000
    -53.781  0.0000E+00  0.0000E+00
    -53.201  0.0000E+00  0.0000E+00
    -52.621  0.0000E+00  0.0000E+00
    -52.042  0.0000E+00  0.0000E+00
    -51.462  0.0000E+00  0.0000E+00
    -50.882  0.0000E+00  0.0000E+00
    -50.302  0.0000E+00  0.0000E+00
    -49.722  0.0000E+00  0.0000E+00
    -49.142  0.0000E+00  0.0000E+00
    -48.562  0.0000E+00  0.0000E+00
    -47.982  0.0000E+00  0.0000E+00
    -47.402  0.0000E+00  0.0000E+00
    -46.822  0.0000E+00  0.0000E+00
    -46.242  0.0000E+00  0.0000E+00
    -45.662  0.0000E+00  0.2000E+01
    -45.083  0.0000E+00  0.2000E+01
    -44.503  0.0000E+00  0.2000E+01
    -43.923  0.0000E+00  0.2000E+01
    -43.343  0.0000E+00  0.2000E+01
    -42.763  0.0000E+00  0.2000E+01
    -42.183  0.0000E+00  0.2000E+01
    -41.603  0.0000E+00  0.2000E+01
    -41.023  0.0000E+00  0.2000E+01
    -40.443  0.0000E+00  0.2000E+01
    -39.863  0.0000E+00  0.2000E+01
    -39.283  0.0000E+00  0.2000E+01
    -38.703  0.0000E+00  0.2000E+01
    -38.124  0.0000E+00  0.2000E+01
    -37.544  0.0000E+00  0.2000E+01
    -36.964  0.0000E+00  0.2000E+01
    -36.384  0.0000E+00  0.2000E+01
    -35.804  0.0000E+00  0.2000E+01
    -35.224  0.0000E+00  0.2000E+01
    -34.644  0.0000E+00  0.2000E+01
    -34.064  0.0000E+00  0.2000E+01
    -33.484  0.0000E+00  0.2000E+01
    -32.904  0.0000E+00  0.2000E+01
    -32.324  0.0000E+00  0.2000E+01
    -31.744  0.0000E+00  0.2000E+01
    -31.165  0.0000E+00  0.2000E+01
    -30.585  0.0000E+00  0.2000E+01
    -30.005  0.0000E+00  0.2000E+01
    -29.425  0.0000E+00  0.2000E+01
    -28.845  0.0000E+00  0.2000E+01
    -28.265  0.0000E+00  0.2000E+01
    -27.685  0.0000E+00  0.2000E+01
    -27.105  0.0000E+00  0.2000E+01
    -26.525  0.0000E+00  0.2000E+01
    -25.945  0.0000E+00  0.2000E+01
    -25.365  0.0000E+00  0.2000E+01
    -24.785  0.0000E+00  0.2000E+01
    -24.206  0.0000E+00  0.2000E+01
    -23.626  0.0000E+00  0.2000E+01
    -23.046  0.0000E+00  0.2000E+01
    -22.466  0.0000E+00  0.2000E+01
    -21.886  0.0000E+00  0.2000E+01
    -21.306  0.0000E+00  0.2000E+01
    -20.726  0.0000E+00  0.2000E+01
    -20.146  0.0000E+00  0.2000E+01
    -19.566  0.0000E+00  0.2000E+01
    -18.986  0.0000E+00  0.2000E+01
    -18.406  0.6033E-01  0.4962E+01
    -17.826  0.0000E+00  0.8000E+01
    -17.247  0.0000E+00  0.8000E+01
    -16.667  0.0000E+00  0.8000E+01
    -16.087  0.0000E+00  0.8000E+01
    -15.507  0.0000E+00  0.8000E+01
    -14.927  0.0000E+00  0.8000E+01
    -14.347  0.0000E+00  0.8000E+01
    -13.767  0.0000E+00  0.8000E+01
    -13.187  0.0000E+00  0.8000E+01
    -12.607  0.0000E+00  0.8000E+01
    -12.027  0.0000E+00  0.8000E+01
    -11.447  0.0000E+00  0.8000E+01
    -10.867  0.0000E+00  0.8000E+01
    -10.288  0.0000E+00  0.8000E+01
     -9.708  0.0000E+00  0.8000E+01
     -9.128  0.0000E+00  0.8000E+01
     -8.548  0.0000E+00  0.8000E+01
     -7.968  0.0000E+00  0.8000E+01
     -7.388  0.0000E+00  0.8000E+01
     -6.808  0.0000E+00  0.8000E+01
     -6.228  0.0000E+00  0.8000E+01
     -5.648  0.0000E+00  0.8000E+01
     -5.068  0.0000E+00  0.8000E+01
     -4.488  0.0000E+00  0.8000E+01
     -3.908  0.0000E+00  0.8000E+01
     -3.329  0.0000E+00  0.8000E+01
     -2.749  0.0000E+00  0.8000E+01
     -2.169  0.0000E+00  0.8000E+01
     -1.589  0.0000E+00  0.8000E+01
     -1.009  0.0000E+00  0.8000E+01
     -0.429  0.0000E+00  0.8000E+01
      0.151  0.0000E+00  0.8000E+01
      0.731  0.0000E+00  0.8000E+01
      1.311  0.0000E+00  0.8000E+01
      1.891  0.0000E+00  0.8000E+01
      2.471  0.0000E+00  0.8000E+01
      3.051  0.0000E+00  0.8000E+01
      3.630  0.0000E+00  0.8006E+01
      4.210  0.0000E+00  0.8087E+01
      4.790  0.0000E+00  0.8157E+01
      5.370  0.0000E+00  0.8297E+01
      5.950  0.0000E+00  0.8344E+01
      6.530  0.0000E+00  0.8379E+01
      7.110  0.0000E+00  0.8659E+01
      7.690  0.0000E+00  0.8799E+01
      8.270  0.0000E+00  0.8985E+01
      8.850  0.0000E+00  0.9055E+01
      9.430  0.0000E+00  0.9510E+01
     10.010  0.0000E+00  0.9650E+01
     10.589  0.0000E+00  0.1000E+02
     11.169  0.0000E+00  0.1019E+02
     11.749  0.0000E+00  0.1040E+02
     12.329  0.0000E+00  0.1096E+02
     12.909  0.0000E+00  0.1127E+02
     13.489  0.0000E+00  0.1148E+02
     14.069  0.0000E+00  0.1204E+02
     14.649  0.0000E+00  0.1223E+02
     15.229  0.0000E+00  0.1268E+02
     15.809  0.0000E+00  0.1300E+02
     16.389  0.0000E+00  0.1314E+02
     16.969  0.2413E+00  0.1352E+02
     17.548  0.0000E+00  0.1422E+02
     18.128  0.0000E+00  0.1422E+02
     18.708  0.0000E+00  0.1511E+02
     19.288  0.0000E+00  0.1561E+02
     19.868  0.0000E+00  0.1632E+02
     20.448  0.0000E+00  0.1736E+02
     21.028  0.0000E+00  0.1785E+02
     21.608  0.1181E+00  0.1823E+02
     22.188  0.0000E+00  0.1884E+02
     22.768  0.0000E+00  0.1933E+02
     23.348  0.0000E+00  0.2005E+02
     23.928  0.0000E+00  0.2061E+02
     24.507  0.0000E+00  0.2091E+02
     25.087  0.0000E+00  0.2113E+02
     25.667  0.0000E+00  0.2171E+02
     26.247  0.0000E+00  0.2250E+02
     26.827  0.0000E+00  0.2264E+02
     27.407  0.0000E+00  0.2375E+02
     27.987  0.0000E+00  0.2434E+02
     28.567  0.0000E+00  0.2467E+02
     29.147  0.0000E+00  0.2565E+02
     29.727  0.0000E+00  0.2644E+02
     30.307  0.0000E+00  0.2690E+02
     30.887  0.9982E-02  0.2751E+02
     31.466  0.6033E-01  0.2792E+02
     32.046  0.0000E+00  0.2841E+02
     32.626  0.0000E+00  0.2841E+02
     33.206  0.0000E+00  0.2913E+02
     33.786  0.0000E+00  0.2927E+02
     34.366  0.0000E+00  0.2994E+02
     34.946  0.0000E+00  0.3107E+02
     35.526  0.0000E+00  0.3131E+02
     36.106  0.0000E+00  0.3141E+02
     36.686  0.0000E+00  0.3190E+02
     37.266  0.0000E+00  0.3252E+02
     37.846  0.0000E+00  0.3326E+02
     38.425  0.0000E+00  0.3382E+02
     39.005  0.0000E+00  0.3438E+02
     39.585  0.0000E+00  0.3469E+02
     40.165  0.0000E+00  0.3546E+02
     40.745  0.0000E+00  0.3613E+02
     41.325  0.0000E+00  0.3679E+02
     41.905  0.1207E+00  0.3763E+02
     42.485  0.0000E+00  0.3819E+02
     43.065  0.0000E+00  0.3871E+02
     43.645  0.6033E-01  0.3927E+02
     44.225  0.4826E+00  0.4002E+02
     44.805  0.0000E+00  0.4055E+02
     45.384  0.0000E+00  0.4108E+02
     45.964  0.0000E+00  0.4134E+02
     46.544  0.0000E+00  0.4217E+02
     47.124  0.2433E+00  0.4270E+02
     47.704  0.0000E+00  0.4377E+02
     48.284  0.0000E+00  0.4447E+02
     48.864  0.0000E+00  0.4475E+02
     49.444  0.0000E+00  0.4536E+02
     50.024  0.1183E-08  0.4623E+02
     50.604  0.0000E+00  0.4714E+02
     51.184  0.0000E+00  0.4756E+02
     51.764  0.0000E+00  0.4799E+02
     52.343  0.0000E+00  0.4855E+02
     52.923  0.1179E+00  0.4923E+02
     53.503  0.0000E+00  0.5012E+02
     54.083  0.0000E+00  0.5081E+02
     54.663  0.0000E+00  0.5201E+02
     55.243  0.0000E+00  0.5273E+02
     55.823  0.0000E+00  0.5315E+02
     56.403  0.0000E+00  0.5416E+02
     56.983  0.0000E+00  0.5448E+02
     57.563  0.0000E+00  0.5539E+02
     58.143  0.0000E+00  0.5616E+02
     58.723  0.0000E+00  0.5707E+02
     59.302  0.0000E+00  0.5797E+02
     59.882  0.0000E+00  0.5852E+02
     60.462  0.0000E+00  0.5922E+02
     61.042  0.2413E+00  0.6006E+02
     61.622  0.0000E+00  0.6041E+02
     62.202  0.0000E+00  0.6121E+02
     62.782  0.0000E+00  0.6185E+02
     63.362  0.0000E+00  0.6260E+02
     63.942  0.0000E+00  0.6352E+02
     64.522  0.2413E+00  0.6412E+02
     65.102  0.0000E+00  0.6468E+02
     65.682  0.0000E+00  0.6554E+02
     66.261  0.3365E-04  0.6605E+02
     66.841  0.0000E+00  0.6651E+02
     67.421  0.0000E+00  0.6735E+02
     68.001  0.0000E+00  0.6840E+02
     68.581  0.0000E+00  0.6910E+02
     69.161  0.0000E+00  0.6952E+02
     69.741  0.0000E+00  0.7035E+02
     70.321  0.0000E+00  0.7122E+02
     70.901  0.4433E-06  0.7191E+02
     71.481  0.0000E+00  0.7241E+02
     72.061  0.0000E+00  0.7353E+02
     72.641  0.0000E+00  0.7436E+02
     73.221  0.0000E+00  0.7536E+02
     73.800  0.0000E+00  0.7610E+02
     74.380  0.0000E+00  0.7718E+02
     74.960  0.0000E+00  0.7770E+02
     75.540  0.6033E-01  0.7853E+02
     76.120  0.0000E+00  0.7979E+02
     76.700  0.0000E+00  0.8075E+02
     77.280  0.0000E+00  0.8104E+02
     77.860  0.0000E+00  0.8151E+02
     78.440  0.0000E+00  0.8215E+02
     79.020  0.0000E+00  0.8266E+02
     79.600  0.0000E+00  0.8336E+02
     80.180  0.0000E+00  0.8410E+02
     80.759  0.0000E+00  0.8530E+02
     81.339  0.0000E+00  0.8669E+02
     81.919  0.0000E+00  0.8790E+02
     82.499  0.0000E+00  0.8865E+02
     83.079  0.0000E+00  0.8888E+02
     83.659  0.0000E+00  0.8998E+02
     84.239  0.0000E+00  0.9068E+02
     84.819  0.2371E+00  0.9154E+02
     85.399  0.0000E+00  0.9234E+02
     85.979  0.8677E-07  0.9295E+02
     86.559  0.0000E+00  0.9443E+02
     87.139  0.0000E+00  0.9524E+02
     87.718  0.1376E-05  0.9610E+02
     88.298  0.0000E+00  0.9702E+02
     88.878  0.0000E+00  0.9786E+02
     89.458  0.0000E+00  0.9852E+02
     90.038  0.0000E+00  0.1001E+03
     90.618  0.0000E+00  0.1002E+03
     91.198  0.0000E+00  0.1008E+03
     91.778  0.0000E+00  0.1011E+03
     92.358  0.0000E+00  0.1024E+03
     92.938  0.0000E+00  0.1034E+03
     93.518  0.0000E+00  0.1050E+03
     94.098  0.0000E+00  0.1063E+03
     94.677  0.8044E-01  0.1069E+03
     95.257  0.0000E+00  0.1081E+03
     95.837  0.0000E+00  0.1086E+03
     96.417  0.0000E+00  0.1094E+03
     96.997  0.0000E+00  0.1101E+03
     97.577  0.0000E+00  0.1109E+03
     98.157  0.0000E+00  0.1116E+03
     98.737  0.3284E-10  0.1122E+03
     99.317  0.0000E+00  0.1130E+03
     99.897  0.0000E+00  0.1145E+03
    100.477  0.0000E+00  0.1153E+03
    101.057  0.0000E+00  0.1160E+03
    101.636  0.0000E+00  0.1166E+03
    102.216  0.0000E+00  0.1179E+03
    102.796  0.0000E+00  0.1190E+03
    103.376  0.0000E+00  0.1197E+03
    103.956  0.0000E+00  0.1212E+03
    104.536  0.0000E+00  0.1221E+03
    105.116  0.0000E+00  0.1235E+03
    105.696  0.0000E+00  0.1239E+03
    106.276  0.0000E+00  0.1249E+03
    106.856  0.0000E+00  0.1253E+03
    107.436  0.0000E+00  0.1258E+03
    108.016  0.0000E+00  0.1269E+03
    108.595  0.0000E+00  0.1277E+03
    109.175  0.0000E+00  0.1280E+03
    109.755  0.0000E+00  0.1280E+03
    110.335  0.0000E+00  0.1280E+03
    110.915  0.0000E+00  0.1280E+03
    111.495  0.0000E+00  0.1280E+03
    112.075  0.0000E+00  0.1280E+03
    112.655  0.0000E+00  0.1280E+03
    113.235  0.0000E+00  0.1280E+03
    113.815  0.0000E+00  0.1280E+03
    114.395  0.0000E+00  0.1280E+03
    114.975  0.0000E+00  0.1280E+03
    115.554  0.0000E+00  0.1280E+03
    116.134  0.0000E+00  0.1280E+03
    116.714  0.0000E+00  0.1280E+03
    117.294  0.0000E+00  0.1280E+03
    117.874  0.0000E+00  0.1280E+03
    118.454  0.0000E+00  0.1280E+03
    119.034  0.0000E+00  0.1280E+03
    119.614  0.0000E+00  0.1280E+03
    120.194  0.0000E+00  0.1280E+03
