   1   1   0   0
  0.6008441E+02  0.4396350E-09  0.4396350E-09  0.4396350E-09  0.1000000E-15
  1.000000000000000E-004
  CAR 
 Og_FCC                                  
     16.53854005    -33.00781573  301      3.55765383      1.00000000
    -33.008  0.0000E+00  0.0000E+00
    -32.843  0.0000E+00  0.0000E+00
    -32.678  0.0000E+00  0.0000E+00
    -32.512  0.0000E+00  0.0000E+00
    -32.347  0.0000E+00  0.0000E+00
    -32.182  0.0000E+00  0.0000E+00
    -32.017  0.0000E+00  0.0000E+00
    -31.852  0.0000E+00  0.0000E+00
    -31.687  0.0000E+00  0.0000E+00
    -31.521  0.0000E+00  0.0000E+00
    -31.356  0.0000E+00  0.0000E+00
    -31.191  0.0000E+00  0.0000E+00
    -31.026  0.0000E+00  0.0000E+00
    -30.861  0.0000E+00  0.0000E+00
    -30.696  0.0000E+00  0.4000E+01
    -30.530  0.0000E+00  0.4000E+01
    -30.365  0.0000E+00  0.4000E+01
    -30.200  0.0000E+00  0.4000E+01
    -30.035  0.0000E+00  0.4000E+01
    -29.870  0.0000E+00  0.4000E+01
    -29.705  0.0000E+00  0.4000E+01
    -29.540  0.0000E+00  0.4000E+01
    -29.374  0.0000E+00  0.4000E+01
    -29.209  0.0000E+00  0.4000E+01
    -29.044  0.0000E+00  0.4000E+01
    -28.879  0.0000E+00  0.4000E+01
    -28.714  0.0000E+00  0.4000E+01
    -28.549  0.0000E+00  0.4000E+01
    -28.383  0.0000E+00  0.4000E+01
    -28.218  0.0000E+00  0.4000E+01
    -28.053  0.0000E+00  0.4000E+01
    -27.888  0.0000E+00  0.4000E+01
    -27.723  0.0000E+00  0.4000E+01
    -27.558  0.0000E+00  0.4000E+01
    -27.393  0.0000E+00  0.4000E+01
    -27.227  0.0000E+00  0.4000E+01
    -27.062  0.0000E+00  0.4000E+01
    -26.897  0.0000E+00  0.4000E+01
    -26.732  0.0000E+00  0.4000E+01
    -26.567  0.0000E+00  0.4000E+01
    -26.402  0.0000E+00  0.4000E+01
    -26.236  0.0000E+00  0.4000E+01
    -26.071  0.0000E+00  0.4000E+01
    -25.906  0.0000E+00  0.4000E+01
    -25.741  0.0000E+00  0.4000E+01
    -25.576  0.0000E+00  0.4000E+01
    -25.411  0.0000E+00  0.4000E+01
    -25.246  0.0000E+00  0.4000E+01
    -25.080  0.0000E+00  0.4000E+01
    -24.915  0.0000E+00  0.4000E+01
    -24.750  0.0000E+00  0.4000E+01
    -24.585  0.0000E+00  0.4000E+01
    -24.420  0.0000E+00  0.4000E+01
    -24.255  0.0000E+00  0.4000E+01
    -24.089  0.3521E-01  0.4006E+01
    -23.924  0.0000E+00  0.1000E+02
    -23.759  0.0000E+00  0.1000E+02
    -23.594  0.0000E+00  0.1000E+02
    -23.429  0.0000E+00  0.1000E+02
    -23.264  0.0000E+00  0.1000E+02
    -23.099  0.0000E+00  0.1000E+02
    -22.933  0.0000E+00  0.1000E+02
    -22.768  0.0000E+00  0.1000E+02
    -22.603  0.0000E+00  0.1000E+02
    -22.438  0.0000E+00  0.1000E+02
    -22.273  0.0000E+00  0.1000E+02
    -22.108  0.0000E+00  0.1000E+02
    -21.942  0.0000E+00  0.1000E+02
    -21.777  0.0000E+00  0.1000E+02
    -21.612  0.0000E+00  0.1000E+02
    -21.447  0.0000E+00  0.1000E+02
    -21.282  0.0000E+00  0.1000E+02
    -21.117  0.0000E+00  0.1000E+02
    -20.952  0.0000E+00  0.1000E+02
    -20.786  0.0000E+00  0.1000E+02
    -20.621  0.0000E+00  0.1000E+02
    -20.456  0.2751E-03  0.1001E+02
    -20.291  0.0000E+00  0.1200E+02
    -20.126  0.0000E+00  0.1200E+02
    -19.961  0.0000E+00  0.1200E+02
    -19.795  0.0000E+00  0.1200E+02
    -19.630  0.0000E+00  0.1200E+02
    -19.465  0.0000E+00  0.1200E+02
    -19.300  0.0000E+00  0.1200E+02
    -19.135  0.0000E+00  0.1200E+02
    -18.970  0.0000E+00  0.1200E+02
    -18.805  0.0000E+00  0.1200E+02
    -18.639  0.0000E+00  0.1200E+02
    -18.474  0.0000E+00  0.1200E+02
    -18.309  0.0000E+00  0.1200E+02
    -18.144  0.0000E+00  0.1200E+02
    -17.979  0.0000E+00  0.1200E+02
    -17.814  0.0000E+00  0.1200E+02
    -17.648  0.0000E+00  0.1200E+02
    -17.483  0.0000E+00  0.1200E+02
    -17.318  0.0000E+00  0.1200E+02
    -17.153  0.0000E+00  0.1200E+02
    -16.988  0.0000E+00  0.1200E+02
    -16.823  0.0000E+00  0.1200E+02
    -16.658  0.0000E+00  0.1200E+02
    -16.492  0.0000E+00  0.1200E+02
    -16.327  0.0000E+00  0.1200E+02
    -16.162  0.0000E+00  0.1200E+02
    -15.997  0.0000E+00  0.1200E+02
    -15.832  0.0000E+00  0.1200E+02
    -15.667  0.0000E+00  0.1200E+02
    -15.501  0.0000E+00  0.1200E+02
    -15.336  0.0000E+00  0.1200E+02
    -15.171  0.0000E+00  0.1200E+02
    -15.006  0.0000E+00  0.1200E+02
    -14.841  0.0000E+00  0.1200E+02
    -14.676  0.0000E+00  0.1200E+02
    -14.511  0.0000E+00  0.1200E+02
    -14.345  0.0000E+00  0.1200E+02
    -14.180  0.0000E+00  0.1200E+02
    -14.015  0.0000E+00  0.1200E+02
    -13.850  0.0000E+00  0.1200E+02
    -13.685  0.0000E+00  0.1200E+02
    -13.520  0.0000E+00  0.1200E+02
    -13.354  0.0000E+00  0.1200E+02
    -13.189  0.0000E+00  0.1200E+02
    -13.024  0.0000E+00  0.1200E+02
    -12.859  0.0000E+00  0.1200E+02
    -12.694  0.0000E+00  0.1200E+02
    -12.529  0.0000E+00  0.1200E+02
    -12.364  0.0000E+00  0.1200E+02
    -12.198  0.0000E+00  0.1200E+02
    -12.033  0.0000E+00  0.1200E+02
    -11.868  0.0000E+00  0.1200E+02
    -11.703  0.0000E+00  0.1200E+02
    -11.538  0.0000E+00  0.1200E+02
    -11.373  0.0000E+00  0.1200E+02
    -11.207  0.0000E+00  0.1200E+02
    -11.042  0.0000E+00  0.1200E+02
    -10.877  0.0000E+00  0.1200E+02
    -10.712  0.0000E+00  0.1200E+02
    -10.547  0.0000E+00  0.1200E+02
    -10.382  0.0000E+00  0.1200E+02
    -10.216  0.0000E+00  0.1200E+02
    -10.051  0.0000E+00  0.1200E+02
     -9.886  0.0000E+00  0.1200E+02
     -9.721  0.0000E+00  0.1200E+02
     -9.556  0.0000E+00  0.1200E+02
     -9.391  0.0000E+00  0.1200E+02
     -9.226  0.0000E+00  0.1200E+02
     -9.060  0.0000E+00  0.1200E+02
     -8.895  0.0000E+00  0.1200E+02
     -8.730  0.0000E+00  0.1200E+02
     -8.565  0.0000E+00  0.1200E+02
     -8.400  0.0000E+00  0.1200E+02
     -8.235  0.0000E+00  0.1200E+02
     -8.069  0.0000E+00  0.1200E+02
     -7.904  0.0000E+00  0.1200E+02
     -7.739  0.0000E+00  0.1200E+02
     -7.574  0.4077E+00  0.1287E+02
     -7.409  0.8473E+00  0.1384E+02
     -7.244  0.0000E+00  0.1399E+02
     -7.079  0.0000E+00  0.1400E+02
     -6.913  0.0000E+00  0.1400E+02
     -6.748  0.0000E+00  0.1400E+02
     -6.583  0.0000E+00  0.1400E+02
     -6.418  0.0000E+00  0.1400E+02
     -6.253  0.0000E+00  0.1400E+02
     -6.088  0.0000E+00  0.1400E+02
     -5.922  0.0000E+00  0.1400E+02
     -5.757  0.0000E+00  0.1400E+02
     -5.592  0.0000E+00  0.1400E+02
     -5.427  0.0000E+00  0.1400E+02
     -5.262  0.0000E+00  0.1400E+02
     -5.097  0.0000E+00  0.1400E+02
     -4.932  0.0000E+00  0.1400E+02
     -4.766  0.0000E+00  0.1400E+02
     -4.601  0.0000E+00  0.1400E+02
     -4.436  0.0000E+00  0.1400E+02
     -4.271  0.0000E+00  0.1400E+02
     -4.106  0.0000E+00  0.1400E+02
     -3.941  0.0000E+00  0.1400E+02
     -3.775  0.0000E+00  0.1400E+02
     -3.610  0.0000E+00  0.1400E+02
     -3.445  0.0000E+00  0.1400E+02
     -3.280  0.0000E+00  0.1400E+02
     -3.115  0.0000E+00  0.1400E+02
     -2.950  0.0000E+00  0.1400E+02
     -2.785  0.0000E+00  0.1400E+02
     -2.619  0.0000E+00  0.1400E+02
     -2.454  0.0000E+00  0.1400E+02
     -2.289  0.0000E+00  0.1400E+02
     -2.124  0.0000E+00  0.1400E+02
     -1.959  0.0000E+00  0.1400E+02
     -1.794  0.0000E+00  0.1400E+02
     -1.628  0.0000E+00  0.1400E+02
     -1.463  0.0000E+00  0.1400E+02
     -1.298  0.0000E+00  0.1400E+02
     -1.133  0.0000E+00  0.1400E+02
     -0.968  0.0000E+00  0.1400E+02
     -0.803  0.0000E+00  0.1400E+02
     -0.638  0.0000E+00  0.1400E+02
     -0.472  0.0000E+00  0.1400E+02
     -0.307  0.0000E+00  0.1400E+02
     -0.142  0.0000E+00  0.1400E+02
      0.023  0.0000E+00  0.1400E+02
      0.188  0.0000E+00  0.1400E+02
      0.353  0.0000E+00  0.1400E+02
      0.519  0.0000E+00  0.1400E+02
      0.684  0.0000E+00  0.1492E+02
      0.849  0.0000E+00  0.1548E+02
      1.014  0.0000E+00  0.1562E+02
      1.179  0.0000E+00  0.1570E+02
      1.344  0.0000E+00  0.1584E+02
      1.509  0.0000E+00  0.1591E+02
      1.675  0.0000E+00  0.1605E+02
      1.840  0.2189E-02  0.1626E+02
      2.005  0.0000E+00  0.1668E+02
      2.170  0.0000E+00  0.1701E+02
      2.335  0.0000E+00  0.1701E+02
      2.500  0.1544E-01  0.1715E+02
      2.666  0.0000E+00  0.1746E+02
      2.831  0.0000E+00  0.1760E+02
      2.996  0.0000E+00  0.1774E+02
      3.161  0.0000E+00  0.1786E+02
      3.326  0.0000E+00  0.1794E+02
      3.491  0.0000E+00  0.1799E+02
      3.656  0.0000E+00  0.1801E+02
      3.822  0.0000E+00  0.1801E+02
      3.987  0.0000E+00  0.1801E+02
      4.152  0.0000E+00  0.1801E+02
      4.317  0.0000E+00  0.1801E+02
      4.482  0.0000E+00  0.1801E+02
      4.647  0.0000E+00  0.1801E+02
      4.813  0.0000E+00  0.1801E+02
      4.978  0.0000E+00  0.1805E+02
      5.143  0.0000E+00  0.1805E+02
      5.308  0.0000E+00  0.1805E+02
      5.473  0.0000E+00  0.1809E+02
      5.638  0.0000E+00  0.1809E+02
      5.803  0.0000E+00  0.1809E+02
      5.969  0.0000E+00  0.1825E+02
      6.134  0.0000E+00  0.1825E+02
      6.299  0.0000E+00  0.1843E+02
      6.464  0.0000E+00  0.1850E+02
      6.629  0.2039E-01  0.1867E+02
      6.794  0.0000E+00  0.1909E+02
      6.960  0.0000E+00  0.1923E+02
      7.125  0.0000E+00  0.1951E+02
      7.290  0.0000E+00  0.1951E+02
      7.455  0.1629E-01  0.1993E+02
      7.620  0.0000E+00  0.2003E+02
      7.785  0.0000E+00  0.2003E+02
      7.951  0.0000E+00  0.2010E+02
      8.116  0.8473E+00  0.2028E+02
      8.281  0.0000E+00  0.2028E+02
      8.446  0.0000E+00  0.2077E+02
      8.611  0.0000E+00  0.2091E+02
      8.776  0.0000E+00  0.2133E+02
      8.941  0.0000E+00  0.2161E+02
      9.107  0.0000E+00  0.2189E+02
      9.272  0.0000E+00  0.2199E+02
      9.437  0.0000E+00  0.2203E+02
      9.602  0.0000E+00  0.2222E+02
      9.767  0.0000E+00  0.2254E+02
      9.932  0.0000E+00  0.2296E+02
     10.098  0.0000E+00  0.2315E+02
     10.263  0.0000E+00  0.2351E+02
     10.428  0.1123E+01  0.2395E+02
     10.593  0.0000E+00  0.2400E+02
     10.758  0.0000E+00  0.2433E+02
     10.923  0.3274E-01  0.2452E+02
     11.088  0.0000E+00  0.2461E+02
     11.254  0.0000E+00  0.2500E+02
     11.419  0.0000E+00  0.2512E+02
     11.584  0.0000E+00  0.2578E+02
     11.749  0.0000E+00  0.2578E+02
     11.914  0.0000E+00  0.2582E+02
     12.079  0.0000E+00  0.2615E+02
     12.245  0.0000E+00  0.2643E+02
     12.410  0.3285E-09  0.2643E+02
     12.575  0.0000E+00  0.2706E+02
     12.740  0.0000E+00  0.2734E+02
     12.905  0.0000E+00  0.2744E+02
     13.070  0.0000E+00  0.2758E+02
     13.235  0.0000E+00  0.2758E+02
     13.401  0.0000E+00  0.2758E+02
     13.566  0.0000E+00  0.2776E+02
     13.731  0.0000E+00  0.2776E+02
     13.896  0.0000E+00  0.2797E+02
     14.061  0.0000E+00  0.2797E+02
     14.226  0.0000E+00  0.2797E+02
     14.392  0.0000E+00  0.2800E+02
     14.557  0.0000E+00  0.2800E+02
     14.722  0.0000E+00  0.2800E+02
     14.887  0.0000E+00  0.2800E+02
     15.052  0.0000E+00  0.2800E+02
     15.217  0.0000E+00  0.2800E+02
     15.382  0.0000E+00  0.2800E+02
     15.548  0.0000E+00  0.2800E+02
     15.713  0.0000E+00  0.2800E+02
     15.878  0.0000E+00  0.2800E+02
     16.043  0.0000E+00  0.2800E+02
     16.208  0.0000E+00  0.2800E+02
     16.373  0.0000E+00  0.2800E+02
     16.539  0.0000E+00  0.2800E+02
