   1   1   0   0
  0.6008441E+02  0.4396350E-09  0.4396350E-09  0.4396350E-09  0.1000000E-15
  1.000000000000000E-004
  CAR 
 Og_FCC                                  
     15.92834976    -30.45292428  301      1.58880587      1.00000000
    -30.453  0.0000E+00  0.0000E+00
    -30.298  0.0000E+00  0.0000E+00
    -30.144  0.0000E+00  0.0000E+00
    -29.989  0.0000E+00  0.0000E+00
    -29.835  0.0000E+00  0.0000E+00
    -29.680  0.0000E+00  0.0000E+00
    -29.525  0.0000E+00  0.0000E+00
    -29.371  0.0000E+00  0.0000E+00
    -29.216  0.0000E+00  0.0000E+00
    -29.061  0.0000E+00  0.0000E+00
    -28.907  0.0000E+00  0.0000E+00
    -28.752  0.0000E+00  0.0000E+00
    -28.598  0.0000E+00  0.0000E+00
    -28.443  0.0000E+00  0.0000E+00
    -28.288  0.0000E+00  0.1000E+02
    -28.134  0.0000E+00  0.1000E+02
    -27.979  0.0000E+00  0.1000E+02
    -27.825  0.0000E+00  0.1000E+02
    -27.670  0.0000E+00  0.1000E+02
    -27.515  0.0000E+00  0.1000E+02
    -27.361  0.0000E+00  0.1000E+02
    -27.206  0.0000E+00  0.1000E+02
    -27.052  0.0000E+00  0.1000E+02
    -26.897  0.0000E+00  0.1000E+02
    -26.742  0.0000E+00  0.1000E+02
    -26.588  0.0000E+00  0.1000E+02
    -26.433  0.0000E+00  0.1000E+02
    -26.279  0.0000E+00  0.1000E+02
    -26.124  0.0000E+00  0.1000E+02
    -25.969  0.0000E+00  0.1000E+02
    -25.815  0.0000E+00  0.1000E+02
    -25.660  0.0000E+00  0.1000E+02
    -25.506  0.0000E+00  0.1000E+02
    -25.351  0.0000E+00  0.1000E+02
    -25.196  0.0000E+00  0.1000E+02
    -25.042  0.0000E+00  0.1000E+02
    -24.887  0.0000E+00  0.1000E+02
    -24.733  0.0000E+00  0.1000E+02
    -24.578  0.0000E+00  0.1000E+02
    -24.423  0.0000E+00  0.1000E+02
    -24.269  0.0000E+00  0.1000E+02
    -24.114  0.0000E+00  0.1000E+02
    -23.960  0.0000E+00  0.1000E+02
    -23.805  0.0000E+00  0.1000E+02
    -23.650  0.0000E+00  0.1000E+02
    -23.496  0.0000E+00  0.1000E+02
    -23.341  0.0000E+00  0.1000E+02
    -23.187  0.0000E+00  0.1000E+02
    -23.032  0.0000E+00  0.1000E+02
    -22.877  0.0000E+00  0.1000E+02
    -22.723  0.0000E+00  0.1000E+02
    -22.568  0.0000E+00  0.1000E+02
    -22.414  0.0000E+00  0.1000E+02
    -22.259  0.0000E+00  0.1000E+02
    -22.104  0.0000E+00  0.1000E+02
    -21.950  0.0000E+00  0.1000E+02
    -21.795  0.0000E+00  0.1000E+02
    -21.640  0.0000E+00  0.1000E+02
    -21.486  0.0000E+00  0.1000E+02
    -21.331  0.2584E+00  0.1005E+02
    -21.177  0.0000E+00  0.1200E+02
    -21.022  0.0000E+00  0.1200E+02
    -20.867  0.0000E+00  0.1200E+02
    -20.713  0.0000E+00  0.1200E+02
    -20.558  0.0000E+00  0.1200E+02
    -20.404  0.0000E+00  0.1200E+02
    -20.249  0.0000E+00  0.1200E+02
    -20.094  0.0000E+00  0.1200E+02
    -19.940  0.0000E+00  0.1200E+02
    -19.785  0.0000E+00  0.1200E+02
    -19.631  0.0000E+00  0.1200E+02
    -19.476  0.0000E+00  0.1200E+02
    -19.321  0.0000E+00  0.1200E+02
    -19.167  0.0000E+00  0.1200E+02
    -19.012  0.0000E+00  0.1200E+02
    -18.858  0.0000E+00  0.1200E+02
    -18.703  0.0000E+00  0.1200E+02
    -18.548  0.0000E+00  0.1200E+02
    -18.394  0.0000E+00  0.1200E+02
    -18.239  0.0000E+00  0.1200E+02
    -18.085  0.0000E+00  0.1200E+02
    -17.930  0.0000E+00  0.1200E+02
    -17.775  0.0000E+00  0.1200E+02
    -17.621  0.0000E+00  0.1200E+02
    -17.466  0.0000E+00  0.1200E+02
    -17.312  0.0000E+00  0.1200E+02
    -17.157  0.0000E+00  0.1200E+02
    -17.002  0.0000E+00  0.1200E+02
    -16.848  0.0000E+00  0.1200E+02
    -16.693  0.0000E+00  0.1200E+02
    -16.539  0.0000E+00  0.1200E+02
    -16.384  0.0000E+00  0.1200E+02
    -16.229  0.0000E+00  0.1200E+02
    -16.075  0.0000E+00  0.1200E+02
    -15.920  0.0000E+00  0.1200E+02
    -15.766  0.0000E+00  0.1200E+02
    -15.611  0.0000E+00  0.1200E+02
    -15.456  0.0000E+00  0.1200E+02
    -15.302  0.0000E+00  0.1200E+02
    -15.147  0.0000E+00  0.1200E+02
    -14.992  0.0000E+00  0.1200E+02
    -14.838  0.0000E+00  0.1200E+02
    -14.683  0.0000E+00  0.1200E+02
    -14.529  0.0000E+00  0.1200E+02
    -14.374  0.0000E+00  0.1200E+02
    -14.219  0.0000E+00  0.1200E+02
    -14.065  0.0000E+00  0.1200E+02
    -13.910  0.0000E+00  0.1200E+02
    -13.756  0.0000E+00  0.1200E+02
    -13.601  0.0000E+00  0.1200E+02
    -13.446  0.0000E+00  0.1200E+02
    -13.292  0.0000E+00  0.1200E+02
    -13.137  0.0000E+00  0.1200E+02
    -12.983  0.0000E+00  0.1200E+02
    -12.828  0.0000E+00  0.1200E+02
    -12.673  0.0000E+00  0.1200E+02
    -12.519  0.0000E+00  0.1200E+02
    -12.364  0.0000E+00  0.1200E+02
    -12.210  0.0000E+00  0.1200E+02
    -12.055  0.0000E+00  0.1200E+02
    -11.900  0.0000E+00  0.1200E+02
    -11.746  0.0000E+00  0.1200E+02
    -11.591  0.0000E+00  0.1200E+02
    -11.437  0.0000E+00  0.1200E+02
    -11.282  0.0000E+00  0.1200E+02
    -11.127  0.0000E+00  0.1200E+02
    -10.973  0.0000E+00  0.1200E+02
    -10.818  0.0000E+00  0.1200E+02
    -10.664  0.0000E+00  0.1200E+02
    -10.509  0.0000E+00  0.1200E+02
    -10.354  0.0000E+00  0.1200E+02
    -10.200  0.0000E+00  0.1200E+02
    -10.045  0.0000E+00  0.1200E+02
     -9.891  0.0000E+00  0.1200E+02
     -9.736  0.0000E+00  0.1200E+02
     -9.581  0.0000E+00  0.1200E+02
     -9.427  0.0000E+00  0.1200E+02
     -9.272  0.0000E+00  0.1200E+02
     -9.118  0.0000E+00  0.1200E+02
     -8.963  0.0000E+00  0.1200E+02
     -8.808  0.0000E+00  0.1200E+02
     -8.654  0.0000E+00  0.1200E+02
     -8.499  0.0000E+00  0.1200E+02
     -8.345  0.0000E+00  0.1200E+02
     -8.190  0.0000E+00  0.1200E+02
     -8.035  0.0000E+00  0.1200E+02
     -7.881  0.0000E+00  0.1200E+02
     -7.726  0.0000E+00  0.1200E+02
     -7.571  0.0000E+00  0.1200E+02
     -7.417  0.0000E+00  0.1200E+02
     -7.262  0.0000E+00  0.1200E+02
     -7.108  0.0000E+00  0.1200E+02
     -6.953  0.0000E+00  0.1200E+02
     -6.798  0.0000E+00  0.1200E+02
     -6.644  0.0000E+00  0.1200E+02
     -6.489  0.0000E+00  0.1200E+02
     -6.335  0.0000E+00  0.1200E+02
     -6.180  0.0000E+00  0.1200E+02
     -6.025  0.0000E+00  0.1200E+02
     -5.871  0.0000E+00  0.1200E+02
     -5.716  0.0000E+00  0.1200E+02
     -5.562  0.0000E+00  0.1200E+02
     -5.407  0.0000E+00  0.1200E+02
     -5.252  0.0000E+00  0.1200E+02
     -5.098  0.0000E+00  0.1200E+02
     -4.943  0.0000E+00  0.1200E+02
     -4.789  0.0000E+00  0.1200E+02
     -4.634  0.0000E+00  0.1200E+02
     -4.479  0.0000E+00  0.1200E+02
     -4.325  0.0000E+00  0.1200E+02
     -4.170  0.0000E+00  0.1200E+02
     -4.016  0.0000E+00  0.1200E+02
     -3.861  0.0000E+00  0.1200E+02
     -3.706  0.0000E+00  0.1200E+02
     -3.552  0.0000E+00  0.1200E+02
     -3.397  0.0000E+00  0.1200E+02
     -3.243  0.0000E+00  0.1200E+02
     -3.088  0.0000E+00  0.1200E+02
     -2.933  0.0000E+00  0.1200E+02
     -2.779  0.0000E+00  0.1200E+02
     -2.624  0.0000E+00  0.1200E+02
     -2.470  0.0000E+00  0.1200E+02
     -2.315  0.0000E+00  0.1200E+02
     -2.160  0.0000E+00  0.1200E+02
     -2.006  0.0000E+00  0.1200E+02
     -1.851  0.0000E+00  0.1200E+02
     -1.697  0.0000E+00  0.1200E+02
     -1.542  0.0000E+00  0.1200E+02
     -1.387  0.0000E+00  0.1200E+02
     -1.233  0.0000E+00  0.1219E+02
     -1.078  0.4972E+00  0.1230E+02
     -0.924  0.9048E+00  0.1299E+02
     -0.769  0.0000E+00  0.1334E+02
     -0.614  0.9051E+00  0.1367E+02
     -0.460  0.0000E+00  0.1384E+02
     -0.305  0.0000E+00  0.1398E+02
     -0.150  0.1165E-05  0.1419E+02
      0.004  0.0000E+00  0.1426E+02
      0.159  0.0000E+00  0.1475E+02
      0.313  0.0000E+00  0.1475E+02
      0.468  0.0000E+00  0.1538E+02
      0.623  0.0000E+00  0.1581E+02
      0.777  0.4399E+00  0.1658E+02
      0.932  0.0000E+00  0.1658E+02
      1.086  0.0000E+00  0.1742E+02
      1.241  0.0000E+00  0.1766E+02
      1.396  0.4523E+00  0.1789E+02
      1.550  0.0000E+00  0.1800E+02
      1.705  0.0000E+00  0.1800E+02
      1.859  0.0000E+00  0.1800E+02
      2.014  0.0000E+00  0.1800E+02
      2.169  0.0000E+00  0.1800E+02
      2.323  0.0000E+00  0.1800E+02
      2.478  0.0000E+00  0.1800E+02
      2.632  0.0000E+00  0.1800E+02
      2.787  0.0000E+00  0.1800E+02
      2.942  0.0000E+00  0.1800E+02
      3.096  0.0000E+00  0.1800E+02
      3.251  0.0000E+00  0.1800E+02
      3.405  0.0000E+00  0.1800E+02
      3.560  0.0000E+00  0.1800E+02
      3.715  0.0000E+00  0.1801E+02
      3.869  0.0000E+00  0.1801E+02
      4.024  0.0000E+00  0.1801E+02
      4.178  0.0000E+00  0.1801E+02
      4.333  0.0000E+00  0.1801E+02
      4.488  0.0000E+00  0.1801E+02
      4.642  0.0000E+00  0.1801E+02
      4.797  0.0000E+00  0.1805E+02
      4.951  0.0000E+00  0.1805E+02
      5.106  0.0000E+00  0.1809E+02
      5.261  0.0000E+00  0.1809E+02
      5.415  0.0000E+00  0.1809E+02
      5.570  0.0000E+00  0.1809E+02
      5.724  0.0000E+00  0.1809E+02
      5.879  0.0000E+00  0.1820E+02
      6.034  0.0000E+00  0.1825E+02
      6.188  0.0000E+00  0.1825E+02
      6.343  0.0000E+00  0.1839E+02
      6.497  0.0000E+00  0.1843E+02
      6.652  0.0000E+00  0.1850E+02
      6.807  0.2375E-02  0.1881E+02
      6.961  0.0000E+00  0.1909E+02
      7.116  0.0000E+00  0.1909E+02
      7.271  0.0000E+00  0.1951E+02
      7.425  0.0000E+00  0.1951E+02
      7.580  0.0000E+00  0.1958E+02
      7.734  0.0000E+00  0.1962E+02
      7.889  0.0000E+00  0.2003E+02
      8.044  0.0000E+00  0.2003E+02
      8.198  0.0000E+00  0.2014E+02
      8.353  0.9032E+00  0.2028E+02
      8.507  0.0000E+00  0.2028E+02
      8.662  0.0000E+00  0.2070E+02
      8.817  0.0000E+00  0.2070E+02
      8.971  0.0000E+00  0.2084E+02
      9.126  0.0000E+00  0.2126E+02
      9.280  0.0000E+00  0.2150E+02
      9.435  0.0000E+00  0.2185E+02
      9.590  0.0000E+00  0.2199E+02
      9.744  0.0000E+00  0.2204E+02
      9.899  0.0000E+00  0.2222E+02
     10.053  0.0000E+00  0.2222E+02
     10.208  0.0000E+00  0.2282E+02
     10.363  0.9052E+00  0.2362E+02
     10.517  0.0000E+00  0.2362E+02
     10.672  0.0000E+00  0.2405E+02
     10.826  0.9892E-12  0.2419E+02
     10.981  0.0000E+00  0.2446E+02
     11.136  0.0000E+00  0.2454E+02
     11.290  0.0000E+00  0.2468E+02
     11.445  0.0000E+00  0.2493E+02
     11.599  0.0000E+00  0.2493E+02
     11.754  0.0000E+00  0.2521E+02
     11.909  0.0000E+00  0.2563E+02
     12.063  0.0000E+00  0.2563E+02
     12.218  0.0000E+00  0.2601E+02
     12.372  0.5145E-11  0.2639E+02
     12.527  0.0000E+00  0.2667E+02
     12.682  0.0000E+00  0.2744E+02
     12.836  0.0000E+00  0.2744E+02
     12.991  0.0000E+00  0.2744E+02
     13.145  0.0000E+00  0.2744E+02
     13.300  0.0000E+00  0.2751E+02
     13.455  0.0000E+00  0.2765E+02
     13.609  0.0000E+00  0.2779E+02
     13.764  0.0000E+00  0.2786E+02
     13.918  0.0000E+00  0.2800E+02
     14.073  0.0000E+00  0.2800E+02
     14.228  0.0000E+00  0.2800E+02
     14.382  0.0000E+00  0.2800E+02
     14.537  0.0000E+00  0.2800E+02
     14.692  0.0000E+00  0.2800E+02
     14.846  0.0000E+00  0.2800E+02
     15.001  0.0000E+00  0.2800E+02
     15.155  0.0000E+00  0.2800E+02
     15.310  0.0000E+00  0.2800E+02
     15.465  0.0000E+00  0.2800E+02
     15.619  0.0000E+00  0.2800E+02
     15.774  0.0000E+00  0.2800E+02
     15.928  0.0000E+00  0.2800E+02
