    1    1    1    1
  0.6008441E+02  0.4396350E-09  0.4396350E-09  0.4396350E-09  0.1000000E-15
  1.000000000000000E-004
  CAR 
 Og_FCC                                  
     18    172     14
 
  0.0000000E+00  0.0000000E+00  0.0000000E+00  0.2915452E-02
    1      -28.344685   1.000000
    2      -28.344685   1.000000
    3      -28.344684   1.000000
    4      -28.333878   1.000000
    5      -28.333878   1.000000
    6      -21.347652   1.000000
    7        1.485815   1.000000
    8        1.485815   1.000000
    9        1.485815   1.000000
   10        3.570115   0.000000
   11       10.651582   0.000000
   12       10.651582   0.000000
   13       10.651582   0.000000
   14       11.021343   0.000000
 
  0.1428571E+00 -0.1253471E-16  0.0000000E+00  0.5830904E-02
    1      -28.337454   1.000000
    2      -28.337454   1.000000
    3      -28.324323   1.000000
    4      -28.323849   1.000000
    5      -28.323848   1.000000
    6      -21.332027   1.000000
    7        0.511381   1.000000
    8        1.410577   1.000000
    9        1.410577   1.000000
   10        4.668628   0.000000
   11        9.714372   0.000000
   12       10.831335   0.000000
   13       10.831335   0.000000
   14       12.124532   0.000000
 
  0.2857143E+00  0.2686160E-17  0.1387779E-16  0.5830904E-02
    1      -28.335389   1.000000
    2      -28.328685   1.000000
    3      -28.328684   1.000000
    4      -28.319481   1.000000
    5      -28.319481   1.000000
    6      -21.296756   1.000000
    7       -0.666486   1.000000
    8        1.250093   1.000000
    9        1.250093   1.000000
   10        5.779720   0.000000
   11       10.066523   0.000000
   12       10.619479   0.000000
   13       10.619479   0.000000
   14       11.312151   0.000000
 
  0.4285714E+00  0.3178482E-16  0.5551115E-16  0.5830904E-02
    1      -28.328439   1.000000
    2      -28.328438   1.000000
    3      -28.327522   1.000000
    4      -28.319545   1.000000
    5      -28.319545   1.000000
    6      -21.267969   1.000000
    7       -1.322253   1.000000
    8        1.128895   1.000000
    9        1.128895   1.000000
   10        6.005741   0.000000
   11       10.247224   0.000000
   12       10.247224   0.000000
   13       10.633863   0.000000
   14       12.118942   0.000000
 
  0.1925930E-33  0.1428571E+00  0.0000000E+00  0.5830904E-02
    1      -28.337454   1.000000
    2      -28.337454   1.000000
    3      -28.324323   1.000000
    4      -28.323849   1.000000
    5      -28.323848   1.000000
    6      -21.332027   1.000000
    7        0.511381   1.000000
    8        1.410577   1.000000
    9        1.410577   1.000000
   10        4.668628   0.000000
   11        9.714372   0.000000
   12       10.831335   0.000000
   13       10.831335   0.000000
   14       12.124486   0.000000
 
  0.1428571E+00  0.1428571E+00  0.1387779E-16  0.5830904E-02
    1      -28.325528   1.000000
    2      -28.322666   1.000000
    3      -28.319805   1.000000
    4      -28.310713   1.000000
    5      -28.310713   1.000000
    6      -21.326722   1.000000
    7        0.479324   1.000000
    8        1.247798   1.000000
    9        1.247798   1.000000
   10        5.069033   0.000000
   11        9.240413   0.000000
   12       10.833225   0.000000
   13       11.165453   0.000000
   14       11.165453   0.000000
 
  0.2857143E+00  0.1428571E+00  0.0000000E+00  0.5830904E-02
    1      -28.335091   1.000000
    2      -28.325451   1.000000
    3      -28.323469   1.000000
    4      -28.318160   1.000000
    5      -28.316441   1.000000
    6      -21.298073   1.000000
    7       -0.391689   1.000000
    8        1.043465   1.000000
    9        1.047509   1.000000
   10        6.231516   0.000000
   11        9.023267   0.000000
   12        9.785412   0.000000
   13       11.361868   0.000000
   14       12.080527   0.000000
 
  0.4285714E+00  0.1428571E+00  0.5551115E-16  0.5830904E-02
    1      -28.336574   1.000000
    2      -28.336452   1.000000
    3      -28.329897   1.000000
    4      -28.328022   1.000000
    5      -28.321376   1.000000
    6      -21.267122   1.000000
    7       -1.078205   1.000000
    8        0.760420   1.000000
    9        0.945907   1.000000
   10        6.733544   0.000000
   11        9.171637   0.000000
   12       10.268982   0.000000
   13       10.920895   0.000000
   14       12.549855   0.000000
 
 -0.4285714E+00  0.1428571E+00 -0.2775558E-16  0.5830904E-02
    1      -28.331175   1.000000
    2      -28.325133   1.000000
    3      -28.323356   1.000000
    4      -28.321085   1.000000
    5      -28.317885   1.000000
    6      -21.257409   1.000000
    7       -1.251602   1.000000
    8        0.561769   1.000000
    9        1.016611   1.000000
   10        6.808673   0.000000
   11        9.051750   0.000000
   12       10.614440   0.000000
   13       11.764969   0.000000
   14       12.644231   0.000000
 
 -0.2857143E+00  0.1428571E+00 -0.1387779E-16  0.5830904E-02
    1      -28.339161   1.000000
    2      -28.338300   1.000000
    3      -28.336341   1.000000
    4      -28.327012   1.000000
    5      -28.326747   1.000000
    6      -21.276775   1.000000
    7       -0.882585   1.000000
    8        0.612323   1.000000
    9        1.211416   1.000000
   10        6.693558   0.000000
   11        9.455611   0.000000
   12       10.073814   0.000000
   13       10.700788   0.000000
   14       12.170390   0.000000
 
 -0.1428571E+00  0.1428571E+00 -0.2369252E-16  0.5830904E-02
    1      -28.330247   1.000000
    2      -28.319404   1.000000
    3      -28.316341   1.000000
    4      -28.309568   1.000000
    5      -28.308845   1.000000
    6      -21.309784   1.000000
    7       -0.147268   1.000000
    8        0.968427   1.000000
    9        1.393270   1.000000
   10        5.761518   0.000000
   11        9.360496   0.000000
   12       10.334877   0.000000
   13       11.109989   0.000000
   14       11.276695   0.000000
 
  0.3851860E-33  0.2857143E+00 -0.1387779E-16  0.5830904E-02
    1      -28.335389   1.000000
    2      -28.328685   1.000000
    3      -28.328684   1.000000
    4      -28.319481   1.000000
    5      -28.319481   1.000000
    6      -21.296756   1.000000
    7       -0.666486   1.000000
    8        1.250093   1.000000
    9        1.250093   1.000000
   10        5.779720   0.000000
   11       10.066523   0.000000
   12       10.619479   0.000000
   13       10.619479   0.000000
   14       11.312151   0.000000
 
  0.1428571E+00  0.2857143E+00  0.2775558E-16  0.5830904E-02
    1      -28.335091   1.000000
    2      -28.325450   1.000000
    3      -28.323469   1.000000
    4      -28.318160   1.000000
    5      -28.316441   1.000000
    6      -21.298073   1.000000
    7       -0.391689   1.000000
    8        1.043465   1.000000
    9        1.047509   1.000000
   10        6.231516   0.000000
   11        9.023267   0.000000
   12        9.785412   0.000000
   13       11.361868   0.000000
   14       12.080527   0.000000
 
  0.2857143E+00  0.2857143E+00  0.0000000E+00  0.5830904E-02
    1      -28.328333   1.000000
    2      -28.328038   1.000000
    3      -28.328038   1.000000
    4      -28.327044   1.000000
    5      -28.326985   1.000000
    6      -21.279801   1.000000
    7       -0.582465   1.000000
    8        0.775783   1.000000
    9        0.775784   1.000000
   10        6.696569   0.000000
   11        8.177682   0.000000
   12        9.871280   0.000000
   13       12.377181   0.000000
   14       12.377181   0.000000
 
  0.4285714E+00  0.2857143E+00  0.5551115E-16  0.5830904E-02
    1      -28.325656   1.000000
    2      -28.320046   1.000000
    3      -28.316425   1.000000
    4      -28.314893   1.000000
    5      -28.312060   1.000000
    6      -21.255378   1.000000
    7       -0.925876   1.000000
    8        0.390131   1.000000
    9        0.640186   1.000000
   10        6.911441   0.000000
   11        8.350721   0.000000
   12       10.099456   0.000000
   13       12.362190   0.000000
   14       13.543347   0.000000
 
 -0.4285714E+00  0.2857143E+00 -0.6938894E-17  0.5830904E-02
    1      -28.335529   1.000000
    2      -28.332126   1.000000
    3      -28.331174   1.000000
    4      -28.323327   1.000000
    5      -28.321962   1.000000
    6      -21.243361   1.000000
    7       -0.920039   1.000000
    8       -0.179556   1.000000
    9        0.717678   1.000000
   10        7.200935   0.000000
   11        9.378197   0.000000
   12       10.357787   0.000000
   13       11.846755   0.000000
   14       12.392288   0.000000
 
 -0.2857143E+00  0.2857143E+00  0.1111974E-16  0.5830904E-02
    1      -28.326500   1.000000
    2      -28.324994   1.000000
    3      -28.322859   1.000000
    4      -28.315717   1.000000
    5      -28.315681   1.000000
    6      -21.252819   1.000000
    7       -0.825829   1.000000
    8       -0.199963   1.000000
    9        0.963911   1.000000
   10        7.569171   0.000000
   11        9.200265   0.000000
   12       10.321596   0.000000
   13       11.347385   0.000000
   14       12.465095   0.000000
 
 -0.1428571E+00  0.2857143E+00  0.6938894E-17  0.5830904E-02
    1      -28.339161   1.000000
    2      -28.338300   1.000000
    3      -28.336341   1.000000
    4      -28.327012   1.000000
    5      -28.326747   1.000000
    6      -21.276775   1.000000
    7       -0.882585   1.000000
    8        0.612323   1.000000
    9        1.211416   1.000000
   10        6.693558   0.000000
   11        9.455611   0.000000
   12       10.073814   0.000000
   13       10.700788   0.000000
   14       12.170390   0.000000
 
  0.0000000E+00  0.4285714E+00 -0.2775558E-16  0.5830904E-02
    1      -28.328439   1.000000
    2      -28.328438   1.000000
    3      -28.327522   1.000000
    4      -28.319545   1.000000
    5      -28.319545   1.000000
    6      -21.267969   1.000000
    7       -1.322253   1.000000
    8        1.128895   1.000000
    9        1.128895   1.000000
   10        6.005741   0.000000
   11       10.247224   0.000000
   12       10.247224   0.000000
   13       10.633863   0.000000
   14       12.118942   0.000000
 
  0.1428571E+00  0.4285714E+00 -0.2775558E-16  0.5830904E-02
    1      -28.336574   1.000000
    2      -28.336452   1.000000
    3      -28.329897   1.000000
    4      -28.328022   1.000000
    5      -28.321376   1.000000
    6      -21.267122   1.000000
    7       -1.078205   1.000000
    8        0.760420   1.000000
    9        0.945907   1.000000
   10        6.733544   0.000000
   11        9.171637   0.000000
   12       10.268982   0.000000
   13       10.920895   0.000000
   14       12.549855   0.000000
 
  0.2857143E+00  0.4285714E+00  0.0000000E+00  0.5830904E-02
    1      -28.325656   1.000000
    2      -28.320046   1.000000
    3      -28.316425   1.000000
    4      -28.314893   1.000000
    5      -28.312060   1.000000
    6      -21.255378   1.000000
    7       -0.925875   1.000000
    8        0.390131   1.000000
    9        0.640186   1.000000
   10        6.911441   0.000000
   11        8.350721   0.000000
   12       10.099456   0.000000
   13       12.362190   0.000000
   14       13.543347   0.000000
 
  0.4285714E+00  0.4285714E+00 -0.5551115E-16  0.5830904E-02
    1      -28.331964   1.000000
    2      -28.331856   1.000000
    3      -28.331855   1.000000
    4      -28.329101   1.000000
    5      -28.310972   1.000000
    6      -21.241746   1.000000
    7       -1.113305   1.000000
    8        0.444285   1.000000
    9        0.444285   1.000000
   10        6.354023   0.000000
   11        7.644236   0.000000
   12       12.238227   0.000000
   13       13.659655   0.000000
   14       13.659655   0.000000
 
 -0.4285714E+00  0.4285714E+00 -0.3031558E-16  0.5830904E-02
    1      -28.336908   1.000000
    2      -28.333743   1.000000
    3      -28.333051   1.000000
    4      -28.329084   1.000000
    5      -28.315013   1.000000
    6      -21.236368   1.000000
    7       -1.059674   1.000000
    8        0.077147   1.000000
    9        0.475866   1.000000
   10        6.606004   0.000000
   11        8.104424   0.000000
   12       12.357071   0.000000
   13       12.673395   0.000000
   14       13.252506   0.000000
 
 -0.2857143E+00  0.4285714E+00 -0.1387779E-16  0.5830904E-02
    1      -28.335529   1.000000
    2      -28.332126   1.000000
    3      -28.331174   1.000000
    4      -28.323327   1.000000
    5      -28.321962   1.000000
    6      -21.243361   1.000000
    7       -0.920039   1.000000
    8       -0.179556   1.000000
    9        0.717678   1.000000
   10        7.200935   0.000000
   11        9.378197   0.000000
   12       10.357787   0.000000
   13       11.846755   0.000000
   14       12.392289   0.000000
 
 -0.1428571E+00  0.4285714E+00 -0.2775558E-16  0.5830904E-02
    1      -28.331175   1.000000
    2      -28.325133   1.000000
    3      -28.323356   1.000000
    4      -28.321085   1.000000
    5      -28.317885   1.000000
    6      -21.257409   1.000000
    7       -1.251602   1.000000
    8        0.561769   1.000000
    9        1.016611   1.000000
   10        6.808673   0.000000
   11        9.051750   0.000000
   12       10.614440   0.000000
   13       11.764969   0.000000
   14       12.644228   0.000000
 
 -0.1540744E-32  0.0000000E+00  0.1428571E+00  0.5830904E-02
    1      -28.337454   1.000000
    2      -28.337454   1.000000
    3      -28.324323   1.000000
    4      -28.323849   1.000000
    5      -28.323848   1.000000
    6      -21.332027   1.000000
    7        0.511381   1.000000
    8        1.410577   1.000000
    9        1.410577   1.000000
   10        4.668628   0.000000
   11        9.714372   0.000000
   12       10.831335   0.000000
   13       10.831335   0.000000
   14       12.124703   0.000000
 
  0.1428571E+00 -0.1656395E-16  0.1428571E+00  0.5830904E-02
    1      -28.325528   1.000000
    2      -28.322666   1.000000
    3      -28.319805   1.000000
    4      -28.310713   1.000000
    5      -28.310713   1.000000
    6      -21.326722   1.000000
    7        0.479324   1.000000
    8        1.247798   1.000000
    9        1.247798   1.000000
   10        5.069033   0.000000
   11        9.240413   0.000000
   12       10.833225   0.000000
   13       11.165453   0.000000
   14       11.165453   0.000000
 
  0.2857143E+00 -0.1343080E-17  0.1428571E+00  0.5830904E-02
    1      -28.335091   1.000000
    2      -28.325451   1.000000
    3      -28.323469   1.000000
    4      -28.318160   1.000000
    5      -28.316441   1.000000
    6      -21.298073   1.000000
    7       -0.391689   1.000000
    8        1.043465   1.000000
    9        1.047509   1.000000
   10        6.231516   0.000000
   11        9.023267   0.000000
   12        9.785412   0.000000
   13       11.361868   0.000000
   14       12.080527   0.000000
 
  0.4285714E+00 -0.4917633E-32  0.1428571E+00  0.5830904E-02
    1      -28.336574   1.000000
    2      -28.336452   1.000000
    3      -28.329897   1.000000
    4      -28.328022   1.000000
    5      -28.321376   1.000000
    6      -21.267122   1.000000
    7       -1.078205   1.000000
    8        0.760420   1.000000
    9        0.945907   1.000000
   10        6.733544   0.000000
   11        9.171637   0.000000
   12       10.268982   0.000000
   13       10.920895   0.000000
   14       12.549855   0.000000
 
 -0.4285714E+00 -0.3581406E-16  0.1428571E+00  0.5830904E-02
    1      -28.331175   1.000000
    2      -28.325133   1.000000
    3      -28.323356   1.000000
    4      -28.321085   1.000000
    5      -28.317885   1.000000
    6      -21.257409   1.000000
    7       -1.251602   1.000000
    8        0.561769   1.000000
    9        1.016611   1.000000
   10        6.808673   0.000000
   11        9.051750   0.000000
   12       10.614440   0.000000
   13       11.764969   0.000000
   14       12.644228   0.000000
 
 -0.2857143E+00 -0.6715401E-17  0.1428571E+00  0.5830904E-02
    1      -28.339161   1.000000
    2      -28.338300   1.000000
    3      -28.336341   1.000000
    4      -28.327012   1.000000
    5      -28.326747   1.000000
    6      -21.276775   1.000000
    7       -0.882585   1.000000
    8        0.612323   1.000000
    9        1.211416   1.000000
   10        6.693558   0.000000
   11        9.455611   0.000000
   12       10.073814   0.000000
   13       10.700788   0.000000
   14       12.170390   0.000000
 
 -0.1428571E+00 -0.5372320E-17  0.1428571E+00  0.5830904E-02
    1      -28.330247   1.000000
    2      -28.319404   1.000000
    3      -28.316341   1.000000
    4      -28.309568   1.000000
    5      -28.308845   1.000000
    6      -21.309784   1.000000
    7       -0.147268   1.000000
    8        0.968427   1.000000
    9        1.393270   1.000000
   10        5.761518   0.000000
   11        9.360496   0.000000
   12       10.334877   0.000000
   13       11.109989   0.000000
   14       11.276695   0.000000
 
 -0.1155558E-32  0.1428571E+00  0.1428571E+00  0.5830904E-02
    1      -28.325528   1.000000
    2      -28.322666   1.000000
    3      -28.319805   1.000000
    4      -28.310713   1.000000
    5      -28.310713   1.000000
    6      -21.326722   1.000000
    7        0.479324   1.000000
    8        1.247798   1.000000
    9        1.247798   1.000000
   10        5.069033   0.000000
   11        9.240413   0.000000
   12       10.833225   0.000000
   13       11.165453   0.000000
   14       11.165453   0.000000
 
  0.1428571E+00  0.1428571E+00  0.1428571E+00  0.5830904E-02
    1      -28.337454   1.000000
    2      -28.337454   1.000000
    3      -28.324324   1.000000
    4      -28.323849   1.000000
    5      -28.323849   1.000000
    6      -21.332027   1.000000
    7        0.511381   1.000000
    8        1.410577   1.000000
    9        1.410577   1.000000
   10        4.668628   0.000000
   11        9.714372   0.000000
   12       10.831335   0.000000
   13       10.831335   0.000000
   14       12.124559   0.000000
 
  0.2857143E+00  0.1428571E+00  0.1428571E+00  0.5830904E-02
    1      -28.330247   1.000000
    2      -28.319404   1.000000
    3      -28.316342   1.000000
    4      -28.309568   1.000000
    5      -28.308845   1.000000
    6      -21.309784   1.000000
    7       -0.147268   1.000000
    8        0.968427   1.000000
    9        1.393269   1.000000
   10        5.761518   0.000000
   11        9.360496   0.000000
   12       10.334877   0.000000
   13       11.109989   0.000000
   14       11.276695   0.000000
 
  0.4285714E+00  0.1428571E+00  0.1428571E+00  0.5830904E-02
    1      -28.339161   1.000000
    2      -28.338300   1.000000
    3      -28.336341   1.000000
    4      -28.327012   1.000000
    5      -28.326747   1.000000
    6      -21.276775   1.000000
    7       -0.882585   1.000000
    8        0.612323   1.000000
    9        1.211416   1.000000
   10        6.693558   0.000000
   11        9.455611   0.000000
   12       10.073814   0.000000
   13       10.700788   0.000000
   14       12.170390   0.000000
 
 -0.4285714E+00  0.1428571E+00  0.1428571E+00  0.5830904E-02
    1      -28.331175   1.000000
    2      -28.325133   1.000000
    3      -28.323356   1.000000
    4      -28.321086   1.000000
    5      -28.317885   1.000000
    6      -21.257409   1.000000
    7       -1.251602   1.000000
    8        0.561769   1.000000
    9        1.016611   1.000000
   10        6.808673   0.000000
   11        9.051750   0.000000
   12       10.614440   0.000000
   13       11.764969   0.000000
   14       12.644228   0.000000
 
 -0.2857143E+00  0.1428571E+00  0.1428571E+00  0.5830904E-02
    1      -28.336574   1.000000
    2      -28.336453   1.000000
    3      -28.329897   1.000000
    4      -28.328022   1.000000
    5      -28.321376   1.000000
    6      -21.267122   1.000000
    7       -1.078205   1.000000
    8        0.760420   1.000000
    9        0.945906   1.000000
   10        6.733544   0.000000
   11        9.171637   0.000000
   12       10.268982   0.000000
   13       10.920895   0.000000
   14       12.549855   0.000000
 
 -0.1428571E+00  0.1428571E+00  0.1428571E+00  0.5830904E-02
    1      -28.335091   1.000000
    2      -28.325450   1.000000
    3      -28.323469   1.000000
    4      -28.318161   1.000000
    5      -28.316441   1.000000
    6      -21.298073   1.000000
    7       -0.391689   1.000000
    8        1.043465   1.000000
    9        1.047509   1.000000
   10        6.231516   0.000000
   11        9.023267   0.000000
   12        9.785412   0.000000
   13       11.361868   0.000000
   14       12.080527   0.000000
 
 -0.1925930E-33  0.2857143E+00  0.1428571E+00  0.5830904E-02
    1      -28.335091   1.000000
    2      -28.325451   1.000000
    3      -28.323469   1.000000
    4      -28.318160   1.000000
    5      -28.316441   1.000000
    6      -21.298073   1.000000
    7       -0.391689   1.000000
    8        1.043465   1.000000
    9        1.047509   1.000000
   10        6.231516   0.000000
   11        9.023267   0.000000
   12        9.785412   0.000000
   13       11.361868   0.000000
   14       12.080527   0.000000
 
  0.1428571E+00  0.2857143E+00  0.1428571E+00  0.5830904E-02
    1      -28.330247   1.000000
    2      -28.319404   1.000000
    3      -28.316342   1.000000
    4      -28.309568   1.000000
    5      -28.308845   1.000000
    6      -21.309784   1.000000
    7       -0.147268   1.000000
    8        0.968427   1.000000
    9        1.393269   1.000000
   10        5.761518   0.000000
   11        9.360496   0.000000
   12       10.334877   0.000000
   13       11.109989   0.000000
   14       11.276695   0.000000
 
  0.2857143E+00  0.2857143E+00  0.1428571E+00  0.5830904E-02
    1      -28.335091   1.000000
    2      -28.325451   1.000000
    3      -28.323469   1.000000
    4      -28.318160   1.000000
    5      -28.316441   1.000000
    6      -21.298073   1.000000
    7       -0.391688   1.000000
    8        1.043465   1.000000
    9        1.047509   1.000000
   10        6.231516   0.000000
   11        9.023267   0.000000
   12        9.785412   0.000000
   13       11.361868   0.000000
   14       12.080527   0.000000
 
  0.4285714E+00  0.2857143E+00  0.1428571E+00  0.5830904E-02
    1      -28.326491   1.000000
    2      -28.321481   1.000000
    3      -28.316862   1.000000
    4      -28.316197   1.000000
    5      -28.315330   1.000000
    6      -21.271438   1.000000
    7       -0.755447   1.000000
    8        0.431726   1.000000
    9        0.956508   1.000000
   10        7.252173   0.000000
   11        8.930048   0.000000
   12        9.100969   0.000000
   13       11.876914   0.000000
   14       12.302071   0.000000
 
 -0.4285714E+00  0.2857143E+00  0.1428571E+00  0.5830904E-02
    1      -28.333926   1.000000
    2      -28.329905   1.000000
    3      -28.326423   1.000000
    4      -28.322663   1.000000
    5      -28.320024   1.000000
    6      -21.249947   1.000000
    7       -0.965289   1.000000
    8        0.045480   1.000000
    9        0.755805   1.000000
   10        7.823614   0.000000
   11        8.553694   0.000000
   12       10.161620   0.000000
   13       11.703421   0.000000
   14       12.668779   0.000000
 
 -0.2857143E+00  0.2857143E+00  0.1428571E+00  0.5830904E-02
    1      -28.333926   1.000000
    2      -28.329905   1.000000
    3      -28.326423   1.000000
    4      -28.322663   1.000000
    5      -28.320024   1.000000
    6      -21.249947   1.000000
    7       -0.965289   1.000000
    8        0.045480   1.000000
    9        0.755805   1.000000
   10        7.823614   0.000000
   11        8.553694   0.000000
   12       10.161620   0.000000
   13       11.703421   0.000000
   14       12.668779   0.000000
 
 -0.1428571E+00  0.2857143E+00  0.1428571E+00  0.5830904E-02
    1      -28.326491   1.000000
    2      -28.321481   1.000000
    3      -28.316862   1.000000
    4      -28.316198   1.000000
    5      -28.315331   1.000000
    6      -21.271438   1.000000
    7       -0.755447   1.000000
    8        0.431726   1.000000
    9        0.956508   1.000000
   10        7.252173   0.000000
   11        8.930048   0.000000
   12        9.100969   0.000000
   13       11.876914   0.000000
   14       12.302071   0.000000
 
 -0.5623507E-33  0.4285714E+00  0.1428571E+00  0.5830904E-02
    1      -28.336574   1.000000
    2      -28.336452   1.000000
    3      -28.329897   1.000000
    4      -28.328022   1.000000
    5      -28.321376   1.000000
    6      -21.267122   1.000000
    7       -1.078205   1.000000
    8        0.760420   1.000000
    9        0.945907   1.000000
   10        6.733544   0.000000
   11        9.171637   0.000000
   12       10.268982   0.000000
   13       10.920895   0.000000
   14       12.549855   0.000000
 
  0.1428571E+00  0.4285714E+00  0.1428571E+00  0.5830904E-02
    1      -28.339161   1.000000
    2      -28.338300   1.000000
    3      -28.336341   1.000000
    4      -28.327012   1.000000
    5      -28.326747   1.000000
    6      -21.276775   1.000000
    7       -0.882585   1.000000
    8        0.612323   1.000000
    9        1.211416   1.000000
   10        6.693558   0.000000
   11        9.455611   0.000000
   12       10.073814   0.000000
   13       10.700788   0.000000
   14       12.170390   0.000000
 
  0.2857143E+00  0.4285714E+00  0.1428571E+00  0.5830904E-02
    1      -28.326491   1.000000
    2      -28.321481   1.000000
    3      -28.316862   1.000000
    4      -28.316197   1.000000
    5      -28.315330   1.000000
    6      -21.271438   1.000000
    7       -0.755447   1.000000
    8        0.431726   1.000000
    9        0.956508   1.000000
   10        7.252173   0.000000
   11        8.930048   0.000000
   12        9.100969   0.000000
   13       11.876914   0.000000
   14       12.302071   0.000000
 
  0.4285714E+00  0.4285714E+00  0.1428571E+00  0.5830904E-02
    1      -28.325656   1.000000
    2      -28.320046   1.000000
    3      -28.316425   1.000000
    4      -28.314893   1.000000
    5      -28.312060   1.000000
    6      -21.255378   1.000000
    7       -0.925875   1.000000
    8        0.390131   1.000000
    9        0.640186   1.000000
   10        6.911441   0.000000
   11        8.350721   0.000000
   12       10.099456   0.000000
   13       12.362190   0.000000
   14       13.543347   0.000000
 
 -0.4285714E+00  0.4285714E+00  0.1428571E+00  0.5830904E-02
    1      -28.340971   1.000000
    2      -28.338933   1.000000
    3      -28.337666   1.000000
    4      -28.334285   1.000000
    5      -28.327297   1.000000
    6      -21.240684   1.000000
    7       -0.939819   1.000000
    8        0.064556   1.000000
    9        0.392287   1.000000
   10        7.205930   0.000000
   11        8.534424   0.000000
   12       10.314939   0.000000
   13       12.580041   0.000000
   14       13.815571   0.000000
 
 -0.2857143E+00  0.4285714E+00  0.1428571E+00  0.5830904E-02
    1      -28.339201   1.000000
    2      -28.338773   1.000000
    3      -28.334137   1.000000
    4      -28.331233   1.000000
    5      -28.330726   1.000000
    6      -21.238148   1.000000
    7       -0.617000   1.000000
    8       -0.492220   1.000000
    9        0.438492   1.000000
   10        7.837901   0.000000
   11        9.318587   0.000000
   12       10.284820   0.000000
   13       10.645959   0.000000
   14       13.405084   0.000000
 
 -0.1428571E+00  0.4285714E+00  0.1428571E+00  0.5830904E-02
    1      -28.333926   1.000000
    2      -28.329905   1.000000
    3      -28.326423   1.000000
    4      -28.322663   1.000000
    5      -28.320024   1.000000
    6      -21.249947   1.000000
    7       -0.965289   1.000000
    8        0.045480   1.000000
    9        0.755805   1.000000
   10        7.823614   0.000000
   11        8.553694   0.000000
   12       10.161620   0.000000
   13       11.703421   0.000000
   14       12.668779   0.000000
 
 -0.1540744E-32 -0.4285714E+00  0.1428571E+00  0.5830904E-02
    1      -28.331175   1.000000
    2      -28.325133   1.000000
    3      -28.323356   1.000000
    4      -28.321085   1.000000
    5      -28.317885   1.000000
    6      -21.257409   1.000000
    7       -1.251602   1.000000
    8        0.561769   1.000000
    9        1.016611   1.000000
   10        6.808673   0.000000
   11        9.051750   0.000000
   12       10.614440   0.000000
   13       11.764969   0.000000
   14       12.644228   0.000000
 
  0.1428571E+00 -0.4285714E+00  0.1428571E+00  0.5830904E-02
    1      -28.331175   1.000000
    2      -28.325133   1.000000
    3      -28.323356   1.000000
    4      -28.321086   1.000000
    5      -28.317885   1.000000
    6      -21.257409   1.000000
    7       -1.251602   1.000000
    8        0.561769   1.000000
    9        1.016611   1.000000
   10        6.808673   0.000000
   11        9.051750   0.000000
   12       10.614440   0.000000
   13       11.764969   0.000000
   14       12.644228   0.000000
 
  0.2857143E+00 -0.4285714E+00  0.1428571E+00  0.5830904E-02
    1      -28.333926   1.000000
    2      -28.329905   1.000000
    3      -28.326423   1.000000
    4      -28.322663   1.000000
    5      -28.320024   1.000000
    6      -21.249947   1.000000
    7       -0.965289   1.000000
    8        0.045480   1.000000
    9        0.755805   1.000000
   10        7.823614   0.000000
   11        8.553694   0.000000
   12       10.161620   0.000000
   13       11.703421   0.000000
   14       12.668779   0.000000
 
  0.4285714E+00 -0.4285714E+00  0.1428571E+00  0.5830904E-02
    1      -28.340971   1.000000
    2      -28.338933   1.000000
    3      -28.337666   1.000000
    4      -28.334285   1.000000
    5      -28.327297   1.000000
    6      -21.240684   1.000000
    7       -0.939819   1.000000
    8        0.064556   1.000000
    9        0.392287   1.000000
   10        7.205930   0.000000