       N       E                     dE             d eps       ncg     rms          rms(c)
DAV:   1     0.125530915241E+03    0.12553E+03   -0.84730E+03  7256   0.714E+02
DAV:   2     0.232658480551E+01   -0.12320E+03   -0.12143E+03  6230   0.292E+02
DAV:   3     0.208202709348E+00   -0.21184E+01   -0.21165E+01  6162   0.429E+01
DAV:   4     0.161588949725E+00   -0.46614E-01   -0.46608E-01  6928   0.627E+00
DAV:   5     0.159255480810E+00   -0.23335E-02   -0.23334E-02  7034   0.126E+00    0.329E-01
DAV:   6     0.156627393849E+00   -0.26281E-02   -0.12329E-03  7570   0.404E-01    0.187E-01
DAV:   7     0.155059365528E+00   -0.15680E-02   -0.91683E-04  7500   0.346E-01    0.296E-02
DAV:   8     0.155028722770E+00   -0.30643E-04   -0.46708E-05  6262   0.819E-02    0.540E-03
DAV:   9     0.155025674416E+00   -0.30484E-05   -0.25137E-06  7120   0.143E-02    0.126E-03
DAV:  10     0.155025146021E+00   -0.52839E-06   -0.21651E-07  6888   0.300E-03    0.339E-04
DAV:  11     0.155024692798E+00   -0.45322E-06   -0.46668E-08  5944   0.167E-03    0.114E-04
DAV:  12     0.155024771201E+00    0.78403E-07   -0.33871E-09  4958   0.583E-04    0.151E-05
DAV:  13     0.155024797552E+00    0.26351E-07   -0.58769E-10  3854   0.209E-04    0.992E-06
DAV:  14     0.155024798198E+00    0.64574E-09   -0.22487E-10  3386   0.163E-04
   1 F= -.26845762E+00 E0= -.26845762E+00  d E =0.000000E+00
 imaginary and real dielectric function
