<?xml version="1.0" encoding="ISO-8859-1"?>
<modeling>
 <generator>
  <i name="program" type="string">vasp </i>
  <i name="version" type="string">5.4.4.18Apr17-6-g9f103f2a35  </i>
  <i name="subversion" type="string">(build Nov 03 2018 10:20:46) complex            parallel </i>
  <i name="platform" type="string">LinuxIFC </i>
  <i name="date" type="string">2018 12 15 </i>
  <i name="time" type="string">08:01:59 </i>
 </generator>
 <incar>
  <i type="string" name="SYSTEM">   Og_FCC</i>
  <i type="string" name="PREC">accurate</i>
  <i type="string" name="ALGO">   Normal</i>
  <i type="logical" name="ADDGRID"> T  </i>
  <i type="logical" name="LSORBIT"> F  </i>
  <i type="int" name="ISPIN">     1</i>
  <i type="int" name="MAXMIX">    50</i>
  <i type="int" name="NELM">    50</i>
  <i type="int" name="NELMDL">    -5</i>
  <i type="int" name="NELMIN">     2</i>
  <i type="int" name="IBRION">    -1</i>
  <i type="int" name="NFREE">     5</i>
  <i name="EDIFF">      0.00000001</i>
  <i name="EDIFFG">      0.00001000</i>
  <i type="int" name="NSW">     1</i>
  <i type="int" name="ISIF">     3</i>
  <i type="int" name="ISYM">     0</i>
  <i name="SYMPREC">      0.00000010</i>
  <i name="ENCUT">    300.00000000</i>
  <i name="POTIM">      0.10000000</i>
  <i type="logical" name="LREAL"> F  </i>
  <i type="int" name="ISMEAR">     0</i>
  <i name="SIGMA">      0.00100000</i>
  <i type="int" name="NWRITE">     2</i>
  <i type="logical" name="LWAVE"> T  </i>
  <i type="logical" name="LCHARG"> F  </i>
  <i type="logical" name="LVTOT"> F  </i>
  <i type="logical" name="LOPTICS"> T  </i>
  <i type="logical" name="GGA_COMPAT"> F  </i>
  <v type="int" name="KPOINT_BSE">    -1     0     0     0</v>
  <i type="int" name="NELM">    50</i>
  <i type="string" name="GGA"> PE</i>
 </incar>
 <structure name="primitive_cell" >
  <crystal>
   <varray name="basis" >
    <v>       4.39635018       0.00000000       0.00000000 </v>
    <v>       2.19817509       3.80735094      -0.00000000 </v>
    <v>       2.19817509       1.26911698       3.58960489 </v>
   </varray>
   <i name="volume">     60.08441465 </i>
   <varray name="rec_basis" >
    <v>       0.22746141      -0.13132490      -0.09286073 </v>
    <v>       0.00000000       0.26264981      -0.09286073 </v>
    <v>      -0.00000000       0.00000000       0.27858219 </v>
   </varray>
  </crystal>
  <varray name="positions" >
   <v>       0.00000000       0.00000000       0.00000000 </v>
  </varray>
 </structure>
 <varray name="primitive_index" >
  <v type="int" >        1 </v>
 </varray>
 <kpoints>
  <generation param="Gamma">
   <v type="int" name="divisions">       7        7        7 </v>
   <v name="usershift">      0.00000000       0.00000000       0.00000000 </v>
   <v name="genvec1">      0.14285714      -0.00000000      -0.00000000 </v>
   <v name="genvec2">      0.00000000       0.14285714       0.00000000 </v>
   <v name="genvec3">      0.00000000      -0.00000000       0.14285714 </v>
   <v name="shift">      0.00000000       0.00000000       0.00000000 </v>
  </generation>
  <varray name="kpointlist" >
   <v>       0.00000000       0.00000000       0.00000000 </v>
   <v>       0.14285714      -0.00000000       0.00000000 </v>
   <v>       0.28571429       0.00000000       0.00000000 </v>
   <v>       0.42857143       0.00000000       0.00000000 </v>
   <v>       0.00000000       0.14285714       0.00000000 </v>
   <v>       0.14285714       0.14285714       0.00000000 </v>
   <v>       0.28571429       0.14285714       0.00000000 </v>
   <v>       0.42857143       0.14285714       0.00000000 </v>
   <v>      -0.42857143       0.14285714      -0.00000000 </v>
   <v>      -0.28571429       0.14285714      -0.00000000 </v>
   <v>      -0.14285714       0.14285714      -0.00000000 </v>
   <v>       0.00000000       0.28571429      -0.00000000 </v>
   <v>       0.14285714       0.28571429       0.00000000 </v>
   <v>       0.28571429       0.28571429       0.00000000 </v>
   <v>       0.42857143       0.28571429       0.00000000 </v>
   <v>      -0.42857143       0.28571429      -0.00000000 </v>
   <v>      -0.28571429       0.28571429       0.00000000 </v>
   <v>      -0.14285714       0.28571429       0.00000000 </v>
   <v>       0.00000000       0.42857143      -0.00000000 </v>
   <v>       0.14285714       0.42857143      -0.00000000 </v>
   <v>       0.28571429       0.42857143       0.00000000 </v>
   <v>       0.42857143       0.42857143      -0.00000000 </v>
   <v>      -0.42857143       0.42857143      -0.00000000 </v>
   <v>      -0.28571429       0.42857143      -0.00000000 </v>
   <v>      -0.14285714       0.42857143      -0.00000000 </v>
   <v>      -0.00000000       0.00000000       0.14285714 </v>
   <v>       0.14285714      -0.00000000       0.14285714 </v>
   <v>       0.28571429      -0.00000000       0.14285714 </v>
   <v>       0.42857143      -0.00000000       0.14285714 </v>
   <v>      -0.42857143      -0.00000000       0.14285714 </v>
   <v>      -0.28571429      -0.00000000       0.14285714 </v>
   <v>      -0.14285714      -0.00000000       0.14285714 </v>
   <v>      -0.00000000       0.14285714       0.14285714 </v>
   <v>       0.14285714       0.14285714       0.14285714 </v>
   <v>       0.28571429       0.14285714       0.14285714 </v>
   <v>       0.42857143       0.14285714       0.14285714 </v>
   <v>      -0.42857143       0.14285714       0.14285714 </v>
   <v>      -0.28571429       0.14285714       0.14285714 </v>
   <v>      -0.14285714       0.14285714       0.14285714 </v>
   <v>      -0.00000000       0.28571429       0.14285714 </v>
   <v>       0.14285714       0.28571429       0.14285714 </v>
   <v>       0.28571429       0.28571429       0.14285714 </v>
   <v>       0.42857143       0.28571429       0.14285714 </v>
   <v>      -0.42857143       0.28571429       0.14285714 </v>
   <v>      -0.28571429       0.28571429       0.14285714 </v>
   <v>      -0.14285714       0.28571429       0.14285714 </v>
   <v>      -0.00000000       0.42857143       0.14285714 </v>
   <v>       0.14285714       0.42857143       0.14285714 </v>
   <v>       0.28571429       0.42857143       0.14285714 </v>
   <v>       0.42857143       0.42857143       0.14285714 </v>
   <v>      -0.42857143       0.42857143       0.14285714 </v>
   <v>      -0.28571429       0.42857143       0.14285714 </v>
   <v>      -0.14285714       0.42857143       0.14285714 </v>
   <v>      -0.00000000      -0.42857143       0.14285714 </v>
   <v>       0.14285714      -0.42857143       0.14285714 </v>
   <v>       0.28571429      -0.42857143       0.14285714 </v>
   <v>       0.42857143      -0.42857143       0.14285714 </v>
   <v>      -0.42857143      -0.42857143       0.14285714 </v>
   <v>      -0.28571429      -0.42857143       0.14285714 </v>
   <v>      -0.14285714      -0.42857143       0.14285714 </v>
   <v>      -0.00000000      -0.28571429       0.14285714 </v>
   <v>       0.14285714      -0.28571429       0.14285714 </v>
   <v>       0.28571429      -0.28571429       0.14285714 </v>
   <v>       0.42857143      -0.28571429       0.14285714 </v>
   <v>      -0.42857143      -0.28571429       0.14285714 </v>
   <v>      -0.28571429      -0.28571429       0.14285714 </v>
   <v>      -0.14285714      -0.28571429       0.14285714 </v>
   <v>      -0.00000000      -0.14285714       0.14285714 </v>
   <v>       0.14285714      -0.14285714       0.14285714 </v>
   <v>       0.28571429      -0.14285714       0.14285714 </v>
   <v>       0.42857143      -0.14285714       0.14285714 </v>
   <v>      -0.42857143      -0.14285714       0.14285714 </v>
   <v>      -0.28571429      -0.14285714       0.14285714 </v>
   <v>      -0.14285714      -0.14285714       0.14285714 </v>
   <v>       0.00000000       0.00000000       0.28571429 </v>
   <v>       0.14285714       0.00000000       0.28571429 </v>
   <v>       0.28571429      -0.00000000       0.28571429 </v>
   <v>       0.42857143      -0.00000000       0.28571429 </v>
   <v>      -0.42857143      -0.00000000       0.28571429 </v>
   <v>      -0.28571429      -0.00000000       0.28571429 </v>
   <v>      -0.14285714       0.00000000       0.28571429 </v>
   <v>       0.00000000       0.14285714       0.28571429 </v>
   <v>       0.14285714       0.14285714       0.28571429 </v>
   <v>       0.28571429       0.14285714       0.28571429 </v>
   <v>       0.42857143       0.14285714       0.28571429 </v>
   <v>      -0.42857143       0.14285714       0.28571429 </v>
   <v>      -0.28571429       0.14285714       0.28571429 </v>
   <v>      -0.14285714       0.14285714       0.28571429 </v>
   <v>      -0.00000000       0.28571429       0.28571429 </v>
   <v>       0.14285714       0.28571429       0.28571429 </v>
   <v>       0.28571429       0.28571429       0.28571429 </v>
   <v>       0.42857143       0.28571429       0.28571429 </v>
   <v>      -0.42857143       0.28571429       0.28571429 </v>
   <v>      -0.28571429       0.28571429       0.28571429 </v>
   <v>      -0.14285714       0.28571429       0.28571429 </v>
   <v>       0.00000000       0.42857143       0.28571429 </v>
   <v>       0.14285714       0.42857143       0.28571429 </v>
   <v>       0.28571429       0.42857143       0.28571429 </v>
   <v>       0.42857143       0.42857143       0.28571429 </v>
   <v>      -0.42857143       0.42857143       0.28571429 </v>
   <v>      -0.28571429       0.42857143       0.28571429 </v>
   <v>      -0.14285714       0.42857143       0.28571429 </v>
   <v>      -0.00000000      -0.42857143       0.28571429 </v>
   <v>       0.14285714      -0.42857143       0.28571429 </v>
   <v>       0.28571429      -0.42857143       0.28571429 </v>
   <v>       0.42857143      -0.42857143       0.28571429 </v>
   <v>      -0.42857143      -0.42857143       0.28571429 </v>
   <v>      -0.28571429      -0.42857143       0.28571429 </v>
   <v>      -0.14285714      -0.42857143       0.28571429 </v>
   <v>       0.00000000      -0.28571429       0.28571429 </v>
   <v>       0.14285714      -0.28571429       0.28571429 </v>
   <v>       0.28571429      -0.28571429       0.28571429 </v>
   <v>       0.42857143      -0.28571429       0.28571429 </v>
   <v>      -0.42857143      -0.28571429       0.28571429 </v>
   <v>      -0.28571429      -0.28571429       0.28571429 </v>
   <v>      -0.14285714      -0.28571429       0.28571429 </v>
   <v>       0.00000000      -0.14285714       0.28571429 </v>
   <v>       0.14285714      -0.14285714       0.28571429 </v>
   <v>       0.28571429      -0.14285714       0.28571429 </v>
   <v>       0.42857143      -0.14285714       0.28571429 </v>
   <v>      -0.42857143      -0.14285714       0.28571429 </v>
   <v>      -0.28571429      -0.14285714       0.28571429 </v>
   <v>      -0.14285714      -0.14285714       0.28571429 </v>
   <v>       0.00000000       0.00000000       0.42857143 </v>
   <v>       0.14285714       0.00000000       0.42857143 </v>
   <v>       0.28571429       0.00000000       0.42857143 </v>
   <v>       0.42857143       0.00000000       0.42857143 </v>
   <v>      -0.42857143       0.00000000       0.42857143 </v>
   <v>      -0.28571429       0.00000000       0.42857143 </v>
   <v>      -0.14285714       0.00000000       0.42857143 </v>
   <v>       0.00000000       0.14285714       0.42857143 </v>
   <v>       0.14285714       0.14285714       0.42857143 </v>
   <v>       0.28571429       0.14285714       0.42857143 </v>
   <v>       0.42857143       0.14285714       0.42857143 </v>
   <v>      -0.42857143       0.14285714       0.42857143 </v>
   <v>      -0.28571429       0.14285714       0.42857143 </v>
   <v>      -0.14285714       0.14285714       0.42857143 </v>
   <v>       0.00000000       0.28571429       0.42857143 </v>
   <v>       0.14285714       0.28571429       0.42857143 </v>
   <v>       0.28571429       0.28571429       0.42857143 </v>
   <v>       0.42857143       0.28571429       0.42857143 </v>
   <v>      -0.42857143       0.28571429       0.42857143 </v>
   <v>      -0.28571429       0.28571429       0.42857143 </v>
   <v>      -0.14285714       0.28571429       0.42857143 </v>
   <v>      -0.00000000       0.42857143       0.42857143 </v>
   <v>       0.14285714       0.42857143       0.42857143 </v>
   <v>       0.28571429       0.42857143       0.42857143 </v>
   <v>       0.42857143       0.42857143       0.42857143 </v>
   <v>      -0.42857143       0.42857143       0.42857143 </v>
   <v>      -0.28571429       0.42857143       0.42857143 </v>
   <v>      -0.14285714       0.42857143       0.42857143 </v>
   <v>      -0.00000000      -0.42857143       0.42857143 </v>
   <v>       0.14285714      -0.42857143       0.42857143 </v>
   <v>       0.28571429      -0.42857143       0.42857143 </v>
   <v>       0.42857143      -0.42857143       0.42857143 </v>
   <v>      -0.42857143      -0.42857143       0.42857143 </v>
   <v>      -0.28571429      -0.42857143       0.42857143 </v>
   <v>      -0.14285714      -0.42857143       0.42857143 </v>
   <v>      -0.00000000      -0.28571429       0.42857143 </v>
   <v>       0.14285714      -0.28571429       0.42857143 </v>
   <v>       0.28571429      -0.28571429       0.42857143 </v>
   <v>       0.42857143      -0.28571429       0.42857143 </v>
   <v>      -0.42857143      -0.28571429       0.42857143 </v>
   <v>      -0.28571429      -0.28571429       0.42857143 </v>
   <v>      -0.14285714      -0.28571429       0.42857143 </v>
   <v>       0.00000000      -0.14285714       0.42857143 </v>
   <v>       0.14285714      -0.14285714       0.42857143 </v>
   <v>       0.28571429      -0.14285714       0.42857143 </v>
   <v>       0.42857143      -0.14285714       0.42857143 </v>
   <v>      -0.42857143      -0.14285714       0.42857143 </v>
   <v>      -0.28571429      -0.14285714       0.42857143 </v>
   <v>      -0.14285714      -0.14285714       0.42857143 </v>
  </varray>
  <varray name="weights" >
   <v>       0.00291545 </v>
   <v>       0.00583090 </v>
   <v>       0.00583090 </v>
   <v>       0.00583090 </v>
   <v>       0.00583090 </v>
   <v>       0.00583090 </v>
   <v>       0.00583090 </v>
   <v>       0.00583090 </v>
   <v>       0.00583090 </v>
   <v>       0.00583090 </v>
   <v>       0.00583090 </v>
   <v>       0.00583090 </v>
   <v>       0.00583090 </v>
   <v>       0.00583090 </v>
   <v>       0.00583090 </v>
   <v>       0.00583090 </v>
   <v>       0.00583090 </v>
   <v>       0.00583090 </v>
   <v>       0.00583090 </v>
   <v>       0.00583090 </v>
   <v>       0.00583090 </v>
   <v>       0.00583090 </v>
   <v>       0.00583090 </v>
   <v>       0.00583090 </v>
   <v>       0.00583090 </v>
   <v>       0.00583090 </v>
   <v>       0.00583090 </v>
   <v>       0.00583090 </v>
   <v>       0.00583090 </v>
   <v>       0.00583090 </v>
   <v>       0.00583090 </v>
   <v>       0.00583090 </v>
   <v>       0.00583090 </v>
   <v>       0.00583090 </v>
   <v>       0.00583090 </v>
   <v>       0.00583090 </v>
   <v>       0.00583090 </v>
   <v>       0.00583090 </v>
   <v>       0.00583090 </v>
   <v>       0.00583090 </v>
   <v>       0.00583090 </v>
   <v>       0.00583090 </v>
   <v>       0.00583090 </v>
   <v>       0.00583090 </v>
   <v>       0.00583090 </v>
   <v>       0.00583090 </v>
   <v>       0.00583090 </v>
   <v>       0.00583090 </v>
   <v>       0.00583090 </v>
   <v>       0.00583090 </v>
   <v>       0.00583090 </v>
   <v>       0.00583090 </v>
   <v>       0.00583090 </v>
   <v>       0.00583090 </v>
   <v>       0.00583090 </v>
   <v>       0.00583090 </v>
   <v>       0.00583090 </v>
   <v>       0.00583090 </v>
   <v>       0.00583090 </v>
   <v>       0.00583090 </v>
   <v>       0.00583090 </v>
   <v>       0.00583090 </v>
   <v>       0.00583090 </v>
   <v>       0.00583090 </v>
   <v>       0.00583090 </v>
   <v>       0.00583090 </v>
   <v>       0.00583090 </v>
   <v>       0.00583090 </v>
   <v>       0.00583090 </v>
   <v>       0.00583090 </v>
   <v>       0.00583090 </v>
   <v>       0.00583090 </v>
   <v>       0.00583090 </v>
   <v>       0.00583090 </v>
   <v>       0.00583090 </v>
   <v>       0.00583090 </v>
   <v>       0.00583090 </v>
   <v>       0.00583090 </v>
   <v>       0.00583090 </v>
   <v>       0.00583090 </v>
   <v>       0.00583090 </v>
   <v>       0.00583090 </v>
   <v>       0.00583090 </v>
   <v>       0.00583090 </v>
   <v>       0.00583090 </v>
   <v>       0.00583090 </v>
   <v>       0.00583090 </v>
   <v>       0.00583090 </v>
   <v>       0.00583090 </v>
   <v>       0.00583090 </v>
   <v>       0.00583090 </v>
   <v>       0.00583090 </v>
   <v>       0.00583090 </v>
   <v>       0.00583090 </v>
   <v>       0.00583090 </v>
   <v>       0.00583090 </v>
   <v>       0.00583090 </v>
   <v>       0.00583090 </v>
   <v>       0.00583090 </v>
   <v>       0.00583090 </v>
   <v>       0.00583090 </v>
   <v>       0.00583090 </v>
   <v>       0.00583090 </v>
   <v>       0.00583090 </v>
   <v>       0.00583090 </v>
   <v>       0.00583090 </v>
   <v>       0.00583090 </v>
   <v>       0.00583090 </v>
   <v>       0.00583090 </v>
   <v>       0.00583090 </v>
   <v>       0.00583090 </v>
   <v>       0.00583090 </v>
   <v>       0.00583090 </v>
   <v>       0.00583090 </v>
   <v>       0.00583090 </v>
   <v>       0.00583090 </v>
   <v>       0.00583090 </v>
   <v>       0.00583090 </v>
   <v>       0.00583090 </v>
   <v>       0.00583090 </v>
   <v>       0.00583090 </v>
   <v>       0.00583090 </v>
   <v>       0.00583090 </v>
   <v>       0.00583090 </v>
   <v>       0.00583090 </v>
   <v>       0.00583090 </v>
   <v>       0.00583090 </v>
   <v>       0.00583090 </v>
   <v>       0.00583090 </v>
   <v>       0.00583090 </v>
   <v>       0.00583090 </v>
   <v>       0.00583090 </v>
   <v>       0.00583090 </v>
   <v>       0.00583090 </v>
   <v>       0.00583090 </v>
   <v>       0.00583090 </v>
   <v>       0.00583090 </v>
   <v>       0.00583090 </v>
   <v>       0.00583090 </v>
   <v>       0.00583090 </v>
   <v>       0.00583090 </v>
   <v>       0.00583090 </v>
   <v>       0.00583090 </v>
   <v>       0.00583090 </v>
   <v>       0.00583090 </v>
   <v>       0.00583090 </v>
   <v>       0.00583090 </v>
   <v>       0.00583090 </v>
   <v>       0.00583090 </v>
   <v>       0.00583090 </v>
   <v>       0.00583090 </v>
   <v>       0.00583090 </v>
   <v>       0.00583090 </v>
   <v>       0.00583090 </v>
   <v>       0.00583090 </v>
   <v>       0.00583090 </v>
   <v>       0.00583090 </v>
   <v>       0.00583090 </v>
   <v>       0.00583090 </v>
   <v>       0.00583090 </v>
   <v>       0.00583090 </v>
   <v>       0.00583090 </v>
   <v>       0.00583090 </v>
   <v>       0.00583090 </v>
   <v>       0.00583090 </v>
   <v>       0.00583090 </v>
   <v>       0.00583090 </v>
   <v>       0.00583090 </v>
   <v>       0.00583090 </v>
   <v>       0.00583090 </v>
   <v>       0.00583090 </v>
   <v>       0.00583090 </v>
  </varray>
 </kpoints>
 <parameters>
  <separator name="general" >
   <i type="string" name="SYSTEM">Og_FCC</i>
   <i type="logical" name="LCOMPAT"> F  </i>
  </separator>
  <separator name="electronic" >
   <i type="string" name="PREC">accura</i>
   <i name="ENMAX">    300.00000000</i>
   <i name="ENAUG">    361.02500000</i>
   <i name="EDIFF">      0.00000001</i>
   <i type="int" name="IALGO">    38</i>
   <i type="int" name="IWAVPR">    10</i>
   <i type="int" name="NBANDS">    14</i>
   <i name="NELECT">     18.00000000</i>
   <i type="int" name="TURBO">     0</i>
   <i type="int" name="IRESTART">     0</i>
   <i type="int" name="NREBOOT">     0</i>
   <i type="int" name="NMIN">     0</i>
   <i name="EREF">      0.00000000</i>
   <separator name="electronic smearing" >
    <i type="int" name="ISMEAR">     0</i>
    <i name="SIGMA">      0.00100000</i>
    <i name="KSPACING">      0.50000000</i>
    <i type="logical" name="KGAMMA"> T  </i>
   </separator>
   <separator name="electronic projectors" >
    <i type="logical" name="LREAL"> F  </i>
    <v name="ROPT">      0.00000000</v>
    <i type="int" name="LMAXPAW">  -100</i>
    <i type="int" name="LMAXMIX">     2</i>
    <i type="logical" name="NLSPLINE"> F  </i>
   </separator>
   <separator name="electronic startup" >
    <i type="int" name="ISTART">     0</i>
    <i type="int" name="ICHARG">     2</i>
    <i type="int" name="INIWAV">     1</i>
   </separator>
   <separator name="electronic spin" >
    <i type="int" name="ISPIN">     1</i>
    <i type="logical" name="LNONCOLLINEAR"> F  </i>
    <v name="MAGMOM">      1.00000000</v>
    <i name="NUPDOWN">     -1.00000000</i>
    <i type="logical" name="LSORBIT"> F  </i>
    <v name="SAXIS">      0.00000000      0.00000000      1.00000000</v>
    <i type="logical" name="LSPIRAL"> F  </i>
    <v name="QSPIRAL">      0.00000000      0.00000000      0.00000000</v>
    <i type="logical" name="LZEROZ"> F  </i>
   </separator>
   <separator name="electronic exchange-correlation" >
    <i type="logical" name="LASPH"> F  </i>
    <i type="logical" name="LMETAGGA"> F  </i>
   </separator>
   <separator name="electronic convergence" >
    <i type="int" name="NELM">    50</i>
    <i type="int" name="NELMDL">    -5</i>
    <i type="int" name="NELMIN">     2</i>
    <i name="ENINI">    300.00000000</i>
    <separator name="electronic convergence detail" >
     <i type="logical" name="LDIAG"> T  </i>
     <i type="logical" name="LSUBROT"> F  </i>
     <i name="WEIMIN">      0.00000000</i>
     <i name="EBREAK">      0.00000000</i>
     <i name="DEPER">      0.30000000</i>
     <i type="int" name="NRMM">     4</i>
     <i name="TIME">      0.40000000</i>
    </separator>
   </separator>
   <separator name="electronic mixer" >
    <i name="AMIX">      0.40000000</i>
    <i name="BMIX">      1.00000000</i>
    <i name="AMIN">      0.10000000</i>
    <i name="AMIX_MAG">      1.60000000</i>
    <i name="BMIX_MAG">      1.00000000</i>
    <separator name="electronic mixer details" >
     <i type="int" name="IMIX">     4</i>
     <i type="logical" name="MIXFIRST"> F  </i>
     <i type="int" name="MAXMIX">    50</i>
     <i name="WC">    100.00000000</i>
     <i type="int" name="INIMIX">     1</i>
     <i type="int" name="MIXPRE">     1</i>
     <i type="int" name="MREMOVE">     5</i>
    </separator>
   </separator>
   <separator name="electronic dipolcorrection" >
    <i type="logical" name="LDIPOL"> F  </i>
    <i type="logical" name="LMONO"> F  </i>
    <i type="int" name="IDIPOL">     0</i>
    <i name="EPSILON">      1.00000000</i>
    <v name="DIPOL">   -100.00000000   -100.00000000   -100.00000000</v>
    <i name="EFIELD">      0.00000000</i>
   </separator>
  </separator>
  <separator name="grids" >
   <i type="int" name="NGX">    28</i>
   <i type="int" name="NGY">    28</i>
   <i type="int" name="NGZ">    28</i>
   <i type="int" name="NGXF">    56</i>
   <i type="int" name="NGYF">    56</i>
   <i type="int" name="NGZF">    56</i>
   <i type="logical" name="ADDGRID"> T  </i>
  </separator>
  <separator name="ionic" >
   <i type="int" name="NSW">     1</i>
   <i type="int" name="IBRION">    -1</i>
   <i type="int" name="MDALGO">     0</i>
   <i type="int" name="ISIF">     3</i>
   <i name="PSTRESS">      0.00000000</i>
   <i name="EDIFFG">      0.00001000</i>
   <i type="int" name="NFREE">     5</i>
   <i name="POTIM">      0.10000000</i>
   <i name="SMASS">     -3.00000000</i>
   <i name="SCALEE">      1.00000000</i>
  </separator>
  <separator name="ionic md" >
   <i name="TEBEG">      0.00010000</i>
   <i name="TEEND">      0.00010000</i>
   <i type="int" name="NBLOCK">     1</i>
   <i type="int" name="KBLOCK">     1</i>
   <i type="int" name="NPACO">   256</i>
   <i name="APACO">     16.00000000</i>
  </separator>
  <separator name="symmetry" >
   <i type="int" name="ISYM">     0</i>
   <i name="SYMPREC">      0.00000010</i>
  </separator>
  <separator name="dos" >
   <i type="int" name="LORBIT">     0</i>
   <v name="RWIGS">     -1.00000000</v>
   <i type="int" name="NEDOS">   301</i>
   <i name="EMIN">     10.00000000</i>
   <i name="EMAX">    -10.00000000</i>
   <i name="EFERMI">      0.00000000</i>
  </separator>
  <separator name="writing" >
   <i type="int" name="NWRITE">     2</i>
   <i type="logical" name="LWAVE"> T  </i>
   <i type="logical" name="LDOWNSAMPLE"> F  </i>
   <i type="logical" name="LCHARG"> F  </i>
   <i type="logical" name="LPARD"> F  </i>
   <i type="logical" name="LVTOT"> F  </i>
   <i type="logical" name="LVHAR"> F  </i>
   <i type="logical" name="LELF"> F  </i>
   <i type="logical" name="LOPTICS"> T  </i>
   <v name="STM">      0.00000000      0.00000000      0.00000000      0.00000000      0.00000000      0.00000000      0.00000000</v>
  </separator>
  <separator name="performance" >
   <i type="int" name="NPAR">     2</i>
   <i type="int" name="NSIM">     4</i>
   <i type="int" name="NBLK">    -1</i>
   <i type="logical" name="LPLANE"> T  </i>
   <i type="logical" name="LSCALAPACK"> T  </i>
   <i type="logical" name="LSCAAWARE"> F  </i>
   <i type="logical" name="LSCALU"> F  </i>
   <i type="logical" name="LASYNC"> F  </i>
   <i type="logical" name="LORBITALREAL"> F  </i>
  </separator>
  <separator name="miscellaneous" >
   <i type="int" name="IDIOT">     3</i>
   <i type="int" name="ISPECIAL">     0</i>
   <i type="logical" name="LMUSIC"> F  </i>
   <v name="POMASS">      0.01000000</v>
   <v name="DARWINR">      0.00000000</v>
   <v name="DARWINV">      1.00000000</v>
   <i type="logical" name="LCORR"> T  </i>
  </separator>
  <i type="logical" name="GGA_COMPAT"> F  </i>
  <i type="logical" name="LBERRY"> F  </i>
  <i type="int" name="ICORELEVEL">     0</i>
  <i type="logical" name="LDAU"> F  </i>
  <i type="int" name="I_CONSTRAINED_M">     0</i>
  <separator name="electronic exchange-correlation" >
   <i type="string" name="GGA">PE</i>
   <i type="int" name="VOSKOWN">     0</i>
   <i type="logical" name="LHFCALC"> F  </i>
   <i type="string" name="PRECFOCK"></i>
   <i type="logical" name="LSYMGRAD"> F  </i>
   <i type="logical" name="LHFONE"> F  </i>
   <i type="logical" name="LRHFCALC"> F  </i>
   <i type="logical" name="LTHOMAS"> F  </i>
   <i type="logical" name="LMODELHF"> F  </i>
   <i name="ENCUT4O">     -1.00000000</i>
   <i type="int" name="EXXOEP">     0</i>
   <i type="int" name="FOURORBIT">     0</i>
   <i name="AEXX">      0.00000000</i>
   <i name="HFALPHA">      0.00000000</i>
   <i name="MCALPHA">      0.00000000</i>
   <i name="ALDAX">      1.00000000</i>
   <i name="AGGAX">      1.00000000</i>
   <i name="ALDAC">      1.00000000</i>
   <i name="AGGAC">      1.00000000</i>
   <i type="int" name="NKREDX">     1</i>
   <i type="int" name="NKREDY">     1</i>
   <i type="int" name="NKREDZ">     1</i>
   <i type="logical" name="SHIFTRED"> F  </i>
   <i type="logical" name="ODDONLY"> F  </i>
   <i type="logical" name="EVENONLY"> F  </i>
   <i type="int" name="LMAXFOCK">     0</i>
   <i type="int" name="NMAXFOCKAE">     0</i>
   <i type="logical" name="LFOCKAEDFT"> F  </i>
   <i name="HFSCREEN">      0.00000000</i>
   <i name="HFSCREENC">      0.00000000</i>
   <i type="int" name="NBANDSGWLOW">     0</i>
  </separator>
  <separator name="vdW DFT" >
   <i type="logical" name="LUSE_VDW"> F  </i>
   <i name="Zab_VDW">     -0.84910000</i>
   <i name="PARAM1">      0.12340000</i>
   <i name="PARAM2">      1.00000000</i>
   <i name="PARAM3">      0.00000000</i>
  </separator>
  <separator name="model GW" >
   <i type="int" name="MODEL_GW">     0</i>
   <i name="MODEL_EPS0">     36.05064879</i>
   <i name="MODEL_ALPHA">      1.00000000</i>
  </separator>
  <separator name="linear response parameters" >
   <i type="logical" name="LEPSILON"> F  </i>
   <i type="logical" name="LRPA"> F  </i>
   <i type="logical" name="LNABLA"> F  </i>
   <i type="logical" name="LVEL"> F  </i>
   <i type="int" name="KINTER">     0</i>
   <i name="CSHIFT">      0.10000000</i>
   <i name="OMEGAMAX">     -1.00000000</i>
   <i name="DEG_THRESHOLD">      0.00200000</i>
   <i name="RTIME">     -0.10000000</i>
   <i name="WPLASMAI">      0.00000000</i>
   <v name="DFIELD">      0.00000000      0.00000000      0.00000000</v>
   <v name="WPLASMA">      0.00000000      0.00000000      0.00000000      0.00000000      0.00000000      0.00000000      0.00000000      0.00000000      0.00000000</v>
  </separator>
  <separator name="orbital magnetization" >
   <i type="logical" name="NUCIND"> F  </i>
   <v name="MAGPOS">      0.00000000      0.00000000      0.00000000</v>
   <i type="logical" name="LNICSALL"> T  </i>
   <i type="logical" name="ORBITALMAG"> F  </i>
   <i type="logical" name="LMAGBLOCH"> F  </i>
   <i type="logical" name="LCHIMAG"> F  </i>
   <i type="logical" name="LGAUGE"> T  </i>
   <i type="int" name="MAGATOM">     0</i>
   <v name="MAGDIPOL">      0.00000000      0.00000000      0.00000000</v>
   <v name="AVECCONST">      0.00000000      0.00000000      0.00000000</v>
  </separator>
  <separator name="response functions" >
   <i type="logical" name="LADDER"> F  </i>
   <i type="logical" name="LRPAFORCE"> F  </i>
   <i type="logical" name="LFXC"> F  </i>
   <i type="logical" name="LHARTREE"> T  </i>
   <i type="int" name="IBSE">     0</i>
   <v type="int" name="KPOINT">    -1     0     0     0</v>
   <i type="logical" name="LTCTE"> F  </i>
   <i type="logical" name="LTETE"> F  </i>
   <i type="logical" name="LTRIPLET"> F  </i>
   <i type="logical" name="LFXCEPS"> F  </i>
   <i type="logical" name="LFXHEG"> F  </i>
   <i type="int" name="NATURALO">     2</i>
   <i type="logical" name="L2ORDER"> F  </i>
   <i type="logical" name="LMP2LT"> F  </i>
   <i type="logical" name="LUSEW"> F  </i>
   <i name="ENCUTGW">     -2.00000000</i>
   <i name="ENCUTGWSOFT">     -2.00000000</i>
   <i name="ENCUTLF">     -1.00000000</i>
   <i type="int" name="LMAXMP2">    -1</i>
   <i name="SCISSOR">      0.00000000</i>
   <i type="int" name="NOMEGA">     0</i>
   <i type="int" name="NOMEGAR">     0</i>
   <i type="int" name="NBANDSGW">    -1</i>
   <i type="int" name="NBANDSO">    -1</i>
   <i type="int" name="NBANDSV">    -1</i>
   <i type="int" name="NELM">    50</i>
   <i type="int" name="NELMHF">     1</i>
   <i type="int" name="DIM">     3</i>
   <i type="int" name="ANTIRES">     0</i>
   <i name="OMEGAMAX">    -30.00000000</i>
   <i name="OMEGAMIN">    -30.00000000</i>
   <i name="OMEGATL">   -200.00000000</i>
   <i type="int" name="OMEGAGRID">   140</i>
   <i name="CSHIFT">     -0.10000000</i>
   <i type="logical" name="SELFENERGY"> F  </i>
   <i type="logical" name="LSPECTRAL"> F  </i>
   <i type="logical" name="LSPECTRALGW"> F  </i>
   <i type="logical" name="LSINGLES"> F  </i>
   <i type="logical" name="LFERMIGW"> F  </i>
   <i type="logical" name="ODDONLYGW"> F  </i>
   <i type="logical" name="EVENONLYGW"> F  </i>
   <i type="int" name="NKREDLFX">     1</i>
   <i type="int" name="NKREDLFY">     1</i>
   <i type="int" name="NKREDLFZ">     1</i>
   <i type="int" name="MAXMEM">  2800</i>
   <i type="int" name="TELESCOPE">     0</i>
   <i type="int" name="TAUPAR">     1</i>
   <i type="int" name="OMEGAPAR">    -1</i>
   <i name="LAMBDA">      1.00000000</i>
  </separator>
  <separator name="External order field" >
   <i name="OFIELD_KAPPA">      0.00000000</i>
   <v name="OFIELD_K">      0.00000000      0.00000000      0.00000000</v>
   <i name="OFIELD_Q6_NEAR">      0.00000000</i>
   <i name="OFIELD_Q6_FAR">      0.00000000</i>
   <i name="OFIELD_A">      0.00000000</i>
  </separator>
 </parameters>
 <atominfo>
  <atoms>       1 </atoms>
  <types>       1 </types>
  <array name="atoms" >
   <dimension dim="1">ion</dimension>
   <field type="string">element</field>
   <field type="int">atomtype</field>
   <set>
    <rc><c>Og</c><c>   1</c></rc>
   </set>
  </array>
  <array name="atomtypes" >
   <dimension dim="1">type</dimension>
   <field type="int">atomspertype</field>
   <field type="string">element</field>
   <field>mass</field>
   <field>valence</field>
   <field type="string">pseudopotential</field>
   <set>
    <rc><c>   1</c><c>Og</c><c>      0.01000000</c><c>     18.00000000</c><c>  PAW Og, JanMewes Oct 18               </c></rc>
   </set>
  </array>
 </atominfo>
 <structure name="initialpos" >
  <crystal>
   <varray name="basis" >
    <v>       4.39635018       0.00000000       0.00000000 </v>
    <v>       2.19817509       3.80735094      -0.00000000 </v>
    <v>       2.19817509       1.26911698       3.58960489 </v>
   </varray>
   <i name="volume">     60.08441465 </i>
   <varray name="rec_basis" >
    <v>       0.22746141      -0.13132490      -0.09286073 </v>
    <v>       0.00000000       0.26264981      -0.09286073 </v>
    <v>      -0.00000000       0.00000000       0.27858219 </v>
   </varray>
  </crystal>
  <varray name="positions" >
   <v>       0.00000000       0.00000000       0.00000000 </v>
  </varray>
  <varray name="velocities" >
   <v>       0.00000000       0.00000000       0.00000000 </v>
  </varray>
 </structure>
 <calculation>
  <scstep>
   <time name="dav">    0.33    0.33</time>
   <time name="total">    0.36    0.36</time>
   <energy>
    <i name="alphaZ">     63.49827359 </i>
    <i name="ewald">  -1720.24414233 </i>
    <i name="hartreedc">   -673.98211291 </i>
    <i name="XCdc">    -69.34390460 </i>
    <i name="pawpsdc">   2268.42939301 </i>
    <i name="pawaedc">  -2184.22833953 </i>
    <i name="eentropy">     -0.00000000 </i>
    <i name="bandstr">   -198.50317605 </i>
    <i name="atom">   2639.90492407 </i>
    <i name="e_fr_energy">    125.53091524 </i>
    <i name="e_wo_entrp">    125.53091524 </i>
    <i name="e_0_energy">    125.53091524 </i>
   </energy>
  </scstep>
  <scstep>
   <time name="dav">    0.28    0.28</time>
   <time name="total">    0.28    0.29</time>
   <energy>
    <i name="e_fr_energy">      2.32658481 </i>
    <i name="e_wo_entrp">      2.32658481 </i>
    <i name="e_0_energy">      2.32658481 </i>
   </energy>
  </scstep>
  <scstep>
   <time name="dav">    0.28    0.28</time>
   <time name="total">    0.28    0.28</time>
   <energy>
    <i name="e_fr_energy">      0.20820271 </i>
    <i name="e_wo_entrp">      0.20820271 </i>
    <i name="e_0_energy">      0.20820271 </i>
   </energy>
  </scstep>
  <scstep>
   <time name="dav">    0.31    0.31</time>
   <time name="total">    0.31    0.31</time>
   <energy>
    <i name="e_fr_energy">      0.16158895 </i>
    <i name="e_wo_entrp">      0.16158895 </i>
    <i name="e_0_energy">      0.16158895 </i>
   </energy>
  </scstep>
  <scstep>
   <time name="dav">    0.32    0.32</time>
   <time name="total">    0.36    0.36</time>
   <energy>
    <i name="e_fr_energy">      0.15925548 </i>
    <i name="e_wo_entrp">      0.15925548 </i>
    <i name="e_0_energy">      0.15925548 </i>
   </energy>
  </scstep>
  <scstep>
   <time name="dav">    0.33    0.33</time>
   <time name="total">    0.40    0.40</time>
   <energy>
    <i name="e_fr_energy">      0.15662739 </i>
    <i name="e_wo_entrp">      0.15662739 </i>
    <i name="e_0_energy">      0.15662739 </i>
   </energy>
  </scstep>
  <scstep>
   <time name="dav">    0.33    0.33</time>
   <time name="total">    0.39    0.40</time>
   <energy>
    <i name="e_fr_energy">      0.15505937 </i>
    <i name="e_wo_entrp">      0.15505937 </i>
    <i name="e_0_energy">      0.15505937 </i>
   </energy>
  </scstep>
  <scstep>
   <time name="dav">    0.28    0.28</time>
   <time name="total">    0.35    0.35</time>
   <energy>
    <i name="e_fr_energy">      0.15502872 </i>
    <i name="e_wo_entrp">      0.15502872 </i>
    <i name="e_0_energy">      0.15502872 </i>
   </energy>
  </scstep>
  <scstep>
   <time name="dav">    0.32    0.31</time>
   <time name="total">    0.38    0.38</time>
   <energy>
    <i name="e_fr_energy">      0.15502567 </i>
    <i name="e_wo_entrp">      0.15502567 </i>
    <i name="e_0_energy">      0.15502567 </i>
   </energy>
  </scstep>
  <scstep>
   <time name="dav">    0.30    0.30</time>
   <time name="total">    0.37    0.37</time>
   <energy>
    <i name="e_fr_energy">      0.15502515 </i>
    <i name="e_wo_entrp">      0.15502515 </i>
    <i name="e_0_energy">      0.15502515 </i>
   </energy>
  </scstep>
  <scstep>
   <time name="dav">    0.28    0.28</time>
   <time name="total">    0.34    0.35</time>
   <energy>
    <i name="e_fr_energy">      0.15502469 </i>
    <i name="e_wo_entrp">      0.15502469 </i>
    <i name="e_0_energy">      0.15502469 </i>
   </energy>
  </scstep>
  <scstep>
   <time name="dav">    0.24    0.24</time>
   <time name="total">    0.31    0.31</time>
   <energy>
    <i name="e_fr_energy">      0.15502477 </i>
    <i name="e_wo_entrp">      0.15502477 </i>
    <i name="e_0_energy">      0.15502477 </i>
   </energy>
  </scstep>
  <scstep>
   <time name="dav">    0.21    0.21</time>
   <time name="total">    0.28    0.28</time>
   <energy>
    <i name="e_fr_energy">      0.15502480 </i>
    <i name="e_wo_entrp">      0.15502480 </i>
    <i name="e_0_energy">      0.15502480 </i>
   </energy>
  </scstep>
  <scstep>
   <time name="dav">    0.20    0.20</time>
   <time name="total">    0.23    0.23</time>
   <energy>
    <i name="alphaZ">     63.49827359 </i>
    <i name="ewald">  -1720.24414233 </i>
    <i name="hartreedc">   -672.90874171 </i>
    <i name="XCdc">    -69.33055745 </i>
    <i name="pawpsdc">   2282.96931203 </i>
    <i name="pawaedc">  -2198.84039748 </i>
    <i name="eentropy">      0.00000000 </i>
    <i name="bandstr">   -324.89364593 </i>
    <i name="atom">   2639.90492407 </i>
    <i name="e_fr_energy">      0.15502480 </i>
    <i name="e_wo_entrp">      0.15502480 </i>
    <i name="e_0_energy">      0.15502480 </i>
   </energy>
  </scstep>
  <structure>
   <crystal>
    <varray name="basis" >
     <v>       4.39635018       0.00000000       0.00000000 </v>
     <v>       2.19817509       3.80735094      -0.00000000 </v>
     <v>       2.19817509       1.26911698       3.58960489 </v>
    </varray>
    <i name="volume">     60.08441465 </i>
    <varray name="rec_basis" >
     <v>       0.22746141      -0.13132490      -0.09286073 </v>
     <v>       0.00000000       0.26264981      -0.09286073 </v>
     <v>      -0.00000000       0.00000000       0.27858219 </v>
    </varray>
   </crystal>
   <varray name="positions" >
    <v>       0.00000000       0.00000000       0.00000000 </v>
   </varray>
  </structure>
  <varray name="forces" >
   <v>      -0.00000065      -0.00000197       0.00000536 </v>
  </varray>
  <varray name="stress" >
   <v>    -143.42947883      -0.00000974      -0.00000764 </v>
   <v>      -0.00001001    -143.42945465      -0.00000903 </v>
   <v>      -0.00000751      -0.00000883    -143.42943582 </v>
  </varray>
  <energy>
   <i name="e_fr_energy">     -0.26845762 </i>
   <i name="e_wo_entrp">     -0.26845762 </i>
   <i name="e_0_energy">      0.00000000 </i>
  </energy>
  <time name="totalsc">    5.54    5.59</time>
  <eigenvalues>
   <array>
    <dimension dim="1">band</dimension>
    <dimension dim="2">kpoint</dimension>
    <dimension dim="3">spin</dimension>
    <field>eigene</field>
    <field>occ</field>
    <set>
     <set comment="spin 1">
      <set comment="kpoint 1">
       <r>  -28.3447    1.0000 </r>
       <r>  -28.3447    1.0000 </r>
       <r>  -28.3447    1.0000 </r>
       <r>  -28.3339    1.0000 </r>
       <r>  -28.3339    1.0000 </r>
       <r>  -21.3477    1.0000 </r>
       <r>    1.4858    1.0000 </r>
       <r>    1.4858    1.0000 </r>
       <r>    1.4858    1.0000 </r>
       <r>    3.5701    0.0000 </r>
       <r>   10.6516    0.0000 </r>
       <r>   10.6516    0.0000 </r>
       <r>   10.6516    0.0000 </r>
       <r>   11.0213    0.0000 </r>
      </set>
      <set comment="kpoint 2">
       <r>  -28.3375    1.0000 </r>
       <r>  -28.3375    1.0000 </r>
       <r>  -28.3243    1.0000 </r>
       <r>  -28.3238    1.0000 </r>
       <r>  -28.3238    1.0000 </r>
       <r>  -21.3320    1.0000 </r>
       <r>    0.5114    1.0000 </r>
       <r>    1.4106    1.0000 </r>
       <r>    1.4106    1.0000 </r>
       <r>    4.6686    0.0000 </r>
       <r>    9.7144    0.0000 </r>
       <r>   10.8313    0.0000 </r>
       <r>   10.8313    0.0000 </r>
       <r>   12.1245    0.0000 </r>
      </set>
      <set comment="kpoint 3">
       <r>  -28.3354    1.0000 </r>
       <r>  -28.3287    1.0000 </r>
       <r>  -28.3287    1.0000 </r>
       <r>  -28.3195    1.0000 </r>
       <r>  -28.3195    1.0000 </r>
       <r>  -21.2968    1.0000 </r>
       <r>   -0.6665    1.0000 </r>
       <r>    1.2501    1.0000 </r>
       <r>    1.2501    1.0000 </r>
       <r>    5.7797    0.0000 </r>
       <r>   10.0665    0.0000 </r>
       <r>   10.6195    0.0000 </r>
       <r>   10.6195    0.0000 </r>
       <r>   11.3122    0.0000 </r>
      </set>
      <set comment="kpoint 4">
       <r>  -28.3284    1.0000 </r>
       <r>  -28.3284    1.0000 </r>
       <r>  -28.3275    1.0000 </r>
       <r>  -28.3195    1.0000 </r>
       <r>  -28.3195    1.0000 </r>
       <r>  -21.2680    1.0000 </r>
       <r>   -1.3223    1.0000 </r>
       <r>    1.1289    1.0000 </r>
       <r>    1.1289    1.0000 </r>
       <r>    6.0057    0.0000 </r>
       <r>   10.2472    0.0000 </r>
       <r>   10.2472    0.0000 </r>
       <r>   10.6339    0.0000 </r>
       <r>   12.1189    0.0000 </r>
      </set>
      <set comment="kpoint 5">
       <r>  -28.3375    1.0000 </r>
       <r>  -28.3375    1.0000 </r>
       <r>  -28.3243    1.0000 </r>
       <r>  -28.3238    1.0000 </r>
       <r>  -28.3238    1.0000 </r>
       <r>  -21.3320    1.0000 </r>
       <r>    0.5114    1.0000 </r>
       <r>    1.4106    1.0000 </r>
       <r>    1.4106    1.0000 </r>
       <r>    4.6686    0.0000 </r>
       <r>    9.7144    0.0000 </r>
       <r>   10.8313    0.0000 </r>
       <r>   10.8313    0.0000 </r>
       <r>   12.1245    0.0000 </r>
      </set>
      <set comment="kpoint 6">
       <r>  -28.3255    1.0000 </r>
       <r>  -28.3227    1.0000 </r>
       <r>  -28.3198    1.0000 </r>
       <r>  -28.3107    1.0000 </r>
       <r>  -28.3107    1.0000 </r>
       <r>  -21.3267    1.0000 </r>
       <r>    0.4793    1.0000 </r>
       <r>    1.2478    1.0000 </r>
       <r>    1.2478    1.0000 </r>
       <r>    5.0690    0.0000 </r>
       <r>    9.2404    0.0000 </r>
       <r>   10.8332    0.0000 </r>
       <r>   11.1655    0.0000 </r>
       <r>   11.1655    0.0000 </r>
      </set>
      <set comment="kpoint 7">
       <r>  -28.3351    1.0000 </r>
       <r>  -28.3255    1.0000 </r>
       <r>  -28.3235    1.0000 </r>
       <r>  -28.3182    1.0000 </r>
       <r>  -28.3164    1.0000 </r>
       <r>  -21.2981    1.0000 </r>
       <r>   -0.3917    1.0000 </r>
       <r>    1.0435    1.0000 </r>
       <r>    1.0475    1.0000 </r>
       <r>    6.2315    0.0000 </r>
       <r>    9.0233    0.0000 </r>
       <r>    9.7854    0.0000 </r>
       <r>   11.3619    0.0000 </r>
       <r>   12.0805    0.0000 </r>
      </set>
      <set comment="kpoint 8">
       <r>  -28.3366    1.0000 </r>
       <r>  -28.3365    1.0000 </r>
       <r>  -28.3299    1.0000 </r>
       <r>  -28.3280    1.0000 </r>
       <r>  -28.3214    1.0000 </r>
       <r>  -21.2671    1.0000 </r>
       <r>   -1.0782    1.0000 </r>
       <r>    0.7604    1.0000 </r>
       <r>    0.9459    1.0000 </r>
       <r>    6.7335    0.0000 </r>
       <r>    9.1716    0.0000 </r>
       <r>   10.2690    0.0000 </r>
       <r>   10.9209    0.0000 </r>
       <r>   12.5499    0.0000 </r>
      </set>
      <set comment="kpoint 9">
       <r>  -28.3312    1.0000 </r>
       <r>  -28.3251    1.0000 </r>
       <r>  -28.3234    1.0000 </r>
       <r>  -28.3211    1.0000 </r>
       <r>  -28.3179    1.0000 </r>
       <r>  -21.2574    1.0000 </r>
       <r>   -1.2516    1.0000 </r>
       <r>    0.5618    1.0000 </r>
       <r>    1.0166    1.0000 </r>
       <r>    6.8087    0.0000 </r>
       <r>    9.0518    0.0000 </r>
       <r>   10.6144    0.0000 </r>
       <r>   11.7650    0.0000 </r>
       <r>   12.6442    0.0000 </r>
      </set>
      <set comment="kpoint 10">
       <r>  -28.3392    1.0000 </r>
       <r>  -28.3383    1.0000 </r>
       <r>  -28.3363    1.0000 </r>
       <r>  -28.3270    1.0000 </r>
       <r>  -28.3267    1.0000 </r>
       <r>  -21.2768    1.0000 </r>
       <r>   -0.8826    1.0000 </r>
       <r>    0.6123    1.0000 </r>
       <r>    1.2114    1.0000 </r>
       <r>    6.6936    0.0000 </r>
       <r>    9.4556    0.0000 </r>
       <r>   10.0738    0.0000 </r>
       <r>   10.7008    0.0000 </r>
       <r>   12.1704    0.0000 </r>
      </set>
      <set comment="kpoint 11">
       <r>  -28.3302    1.0000 </r>
       <r>  -28.3194    1.0000 </r>
       <r>  -28.3163    1.0000 </r>
       <r>  -28.3096    1.0000 </r>
       <r>  -28.3088    1.0000 </r>
       <r>  -21.3098    1.0000 </r>
       <r>   -0.1473    1.0000 </r>
       <r>    0.9684    1.0000 </r>
       <r>    1.3933    1.0000 </r>
       <r>    5.7615    0.0000 </r>
       <r>    9.3605    0.0000 </r>
       <r>   10.3349    0.0000 </r>
       <r>   11.1100    0.0000 </r>
       <r>   11.2767    0.0000 </r>
      </set>
      <set comment="kpoint 12">
       <r>  -28.3354    1.0000 </r>
       <r>  -28.3287    1.0000 </r>
       <r>  -28.3287    1.0000 </r>
       <r>  -28.3195    1.0000 </r>
       <r>  -28.3195    1.0000 </r>
       <r>  -21.2968    1.0000 </r>
       <r>   -0.6665    1.0000 </r>
       <r>    1.2501    1.0000 </r>
       <r>    1.2501    1.0000 </r>
       <r>    5.7797    0.0000 </r>
       <r>   10.0665    0.0000 </r>
       <r>   10.6195    0.0000 </r>
       <r>   10.6195    0.0000 </r>
       <r>   11.3122    0.0000 </r>
      </set>
      <set comment="kpoint 13">
       <r>  -28.3351    1.0000 </r>
       <r>  -28.3255    1.0000 </r>
       <r>  -28.3235    1.0000 </r>
       <r>  -28.3182    1.0000 </r>
       <r>  -28.3164    1.0000 </r>
       <r>  -21.2981    1.0000 </r>
       <r>   -0.3917    1.0000 </r>
       <r>    1.0435    1.0000 </r>
       <r>    1.0475    1.0000 </r>
       <r>    6.2315    0.0000 </r>
       <r>    9.0233    0.0000 </r>
       <r>    9.7854    0.0000 </r>
       <r>   11.3619    0.0000 </r>
       <r>   12.0805    0.0000 </r>
      </set>
      <set comment="kpoint 14">
       <r>  -28.3283    1.0000 </r>
       <r>  -28.3280    1.0000 </r>
       <r>  -28.3280    1.0000 </r>
       <r>  -28.3270    1.0000 </r>
       <r>  -28.3270    1.0000 </r>
       <r>  -21.2798    1.0000 </r>
       <r>   -0.5825    1.0000 </r>
       <r>    0.7758    1.0000 </r>
       <r>    0.7758    1.0000 </r>
       <r>    6.6966    0.0000 </r>
       <r>    8.1777    0.0000 </r>
       <r>    9.8713    0.0000 </r>
       <r>   12.3772    0.0000 </r>
       <r>   12.3772    0.0000 </r>
      </set>
      <set comment="kpoint 15">
       <r>  -28.3257    1.0000 </r>
       <r>  -28.3200    1.0000 </r>
       <r>  -28.3164    1.0000 </r>
       <r>  -28.3149    1.0000 </r>
       <r>  -28.3121    1.0000 </r>
       <r>  -21.2554    1.0000 </r>
       <r>   -0.9259    1.0000 </r>
       <r>    0.3901    1.0000 </r>
       <r>    0.6402    1.0000 </r>
       <r>    6.9114    0.0000 </r>
       <r>    8.3507    0.0000 </r>
       <r>   10.0995    0.0000 </r>
       <r>   12.3622    0.0000 </r>
       <r>   13.5433    0.0000 </r>
      </set>
      <set comment="kpoint 16">
       <r>  -28.3355    1.0000 </r>
       <r>  -28.3321    1.0000 </r>
       <r>  -28.3312    1.0000 </r>
       <r>  -28.3233    1.0000 </r>
       <r>  -28.3220    1.0000 </r>
       <r>  -21.2434    1.0000 </r>
       <r>   -0.9200    1.0000 </r>
       <r>   -0.1796    1.0000 </r>
       <r>    0.7177    1.0000 </r>
       <r>    7.2009    0.0000 </r>
       <r>    9.3782    0.0000 </r>
       <r>   10.3578    0.0000 </r>
       <r>   11.8468    0.0000 </r>
       <r>   12.3923    0.0000 </r>
      </set>
      <set comment="kpoint 17">
       <r>  -28.3265    1.0000 </r>
       <r>  -28.3250    1.0000 </r>
       <r>  -28.3229    1.0000 </r>
       <r>  -28.3157    1.0000 </r>
       <r>  -28.3157    1.0000 </r>
       <r>  -21.2528    1.0000 </r>
       <r>   -0.8258    1.0000 </r>
       <r>   -0.2000    1.0000 </r>
       <r>    0.9639    1.0000 </r>
       <r>    7.5692    0.0000 </r>
       <r>    9.2003    0.0000 </r>
       <r>   10.3216    0.0000 </r>
       <r>   11.3474    0.0000 </r>
       <r>   12.4651    0.0000 </r>
      </set>
      <set comment="kpoint 18">
       <r>  -28.3392    1.0000 </r>
       <r>  -28.3383    1.0000 </r>
       <r>  -28.3363    1.0000 </r>
       <r>  -28.3270    1.0000 </r>
       <r>  -28.3267    1.0000 </r>
       <r>  -21.2768    1.0000 </r>
       <r>   -0.8826    1.0000 </r>
       <r>    0.6123    1.0000 </r>
       <r>    1.2114    1.0000 </r>
       <r>    6.6936    0.0000 </r>
       <r>    9.4556    0.0000 </r>
       <r>   10.0738    0.0000 </r>
       <r>   10.7008    0.0000 </r>
       <r>   12.1704    0.0000 </r>
      </set>
      <set comment="kpoint 19">
       <r>  -28.3284    1.0000 </r>
       <r>  -28.3284    1.0000 </r>
       <r>  -28.3275    1.0000 </r>
       <r>  -28.3195    1.0000 </r>
       <r>  -28.3195    1.0000 </r>
       <r>  -21.2680    1.0000 </r>
       <r>   -1.3223    1.0000 </r>
       <r>    1.1289    1.0000 </r>
       <r>    1.1289    1.0000 </r>
       <r>    6.0057    0.0000 </r>
       <r>   10.2472    0.0000 </r>
       <r>   10.2472    0.0000 </r>
       <r>   10.6339    0.0000 </r>
       <r>   12.1189    0.0000 </r>
      </set>
      <set comment="kpoint 20">
       <r>  -28.3366    1.0000 </r>
       <r>  -28.3365    1.0000 </r>
       <r>  -28.3299    1.0000 </r>
       <r>  -28.3280    1.0000 </r>
       <r>  -28.3214    1.0000 </r>
       <r>  -21.2671    1.0000 </r>
       <r>   -1.0782    1.0000 </r>
       <r>    0.7604    1.0000 </r>
       <r>    0.9459    1.0000 </r>
       <r>    6.7335    0.0000 </r>
       <r>    9.1716    0.0000 </r>
       <r>   10.2690    0.0000 </r>
       <r>   10.9209    0.0000 </r>
       <r>   12.5499    0.0000 </r>
      </set>
      <set comment="kpoint 21">
       <r>  -28.3257    1.0000 </r>
       <r>  -28.3200    1.0000 </r>
       <r>  -28.3164    1.0000 </r>
       <r>  -28.3149    1.0000 </r>
       <r>  -28.3121    1.0000 </r>
       <r>  -21.2554    1.0000 </r>
       <r>   -0.9259    1.0000 </r>
       <r>    0.3901    1.0000 </r>
       <r>    0.6402    1.0000 </r>
       <r>    6.9114    0.0000 </r>
       <r>    8.3507    0.0000 </r>
       <r>   10.0995    0.0000 </r>
       <r>   12.3622    0.0000 </r>
       <r>   13.5433    0.0000 </r>
      </set>
      <set comment="kpoint 22">
       <r>  -28.3320    1.0000 </r>
       <r>  -28.3319    1.0000 </r>
       <r>  -28.3319    1.0000 </r>
       <r>  -28.3291    1.0000 </r>
       <r>  -28.3110    1.0000 </r>
       <r>  -21.2417    1.0000 </r>
       <r>   -1.1133    1.0000 </r>
       <r>    0.4443    1.0000 </r>
       <r>    0.4443    1.0000 </r>
       <r>    6.3540    0.0000 </r>
       <r>    7.6442    0.0000 </r>
       <r>   12.2382    0.0000 </r>
       <r>   13.6597    0.0000 </r>
       <r>   13.6597    0.0000 </r>
      </set>
      <set comment="kpoint 23">
       <r>  -28.3369    1.0000 </r>
       <r>  -28.3337    1.0000 </r>
       <r>  -28.3331    1.0000 </r>
       <r>  -28.3291    1.0000 </r>
       <r>  -28.3150    1.0000 </r>
       <r>  -21.2364    1.0000 </r>
       <r>   -1.0597    1.0000 </r>
       <r>    0.0771    1.0000 </r>
       <r>    0.4759    1.0000 </r>
       <r>    6.6060    0.0000 </r>
       <r>    8.1044    0.0000 </r>
       <r>   12.3571    0.0000 </r>
       <r>   12.6734    0.0000 </r>
       <r>   13.2525    0.0000 </r>
      </set>
      <set comment="kpoint 24">
       <r>  -28.3355    1.0000 </r>
       <r>  -28.3321    1.0000 </r>
       <r>  -28.3312    1.0000 </r>
       <r>  -28.3233    1.0000 </r>
       <r>  -28.3220    1.0000 </r>
       <r>  -21.2434    1.0000 </r>
       <r>   -0.9200    1.0000 </r>
       <r>   -0.1796    1.0000 </r>
       <r>    0.7177    1.0000 </r>
       <r>    7.2009    0.0000 </r>
       <r>    9.3782    0.0000 </r>
       <r>   10.3578    0.0000 </r>
       <r>   11.8468    0.0000 </r>
       <r>   12.3923    0.0000 </r>
      </set>
      <set comment="kpoint 25">
       <r>  -28.3312    1.0000 </r>
       <r>  -28.3251    1.0000 </r>
       <r>  -28.3234    1.0000 </r>
       <r>  -28.3211    1.0000 </r>
       <r>  -28.3179    1.0000 </r>
       <r>  -21.2574    1.0000 </r>
       <r>   -1.2516    1.0000 </r>
       <r>    0.5618    1.0000 </r>
       <r>    1.0166    1.0000 </r>
       <r>    6.8087    0.0000 </r>
       <r>    9.0518    0.0000 </r>
       <r>   10.6144    0.0000 </r>
       <r>   11.7650    0.0000 </r>
       <r>   12.6442    0.0000 </r>
      </set>
      <set comment="kpoint 26">
       <r>  -28.3375    1.0000 </r>
       <r>  -28.3375    1.0000 </r>
       <r>  -28.3243    1.0000 </r>
       <r>  -28.3238    1.0000 </r>
       <r>  -28.3238    1.0000 </r>
       <r>  -21.3320    1.0000 </r>
       <r>    0.5114    1.0000 </r>
       <r>    1.4106    1.0000 </r>
       <r>    1.4106    1.0000 </r>
       <r>    4.6686    0.0000 </r>
       <r>    9.7144    0.0000 </r>
       <r>   10.8313    0.0000 </r>
       <r>   10.8313    0.0000 </r>
       <r>   12.1247    0.0000 </r>
      </set>
      <set comment="kpoint 27">
       <r>  -28.3255    1.0000 </r>
       <r>  -28.3227    1.0000 </r>
       <r>  -28.3198    1.0000 </r>
       <r>  -28.3107    1.0000 </r>
       <r>  -28.3107    1.0000 </r>
       <r>  -21.3267    1.0000 </r>
       <r>    0.4793    1.0000 </r>
       <r>    1.2478    1.0000 </r>
       <r>    1.2478    1.0000 </r>
       <r>    5.0690    0.0000 </r>
       <r>    9.2404    0.0000 </r>
       <r>   10.8332    0.0000 </r>
       <r>   11.1655    0.0000 </r>
       <r>   11.1655    0.0000 </r>
      </set>
      <set comment="kpoint 28">
       <r>  -28.3351    1.0000 </r>
       <r>  -28.3255    1.0000 </r>
       <r>  -28.3235    1.0000 </r>
       <r>  -28.3182    1.0000 </r>
       <r>  -28.3164    1.0000 </r>
       <r>  -21.2981    1.0000 </r>
       <r>   -0.3917    1.0000 </r>
       <r>    1.0435    1.0000 </r>
       <r>    1.0475    1.0000 </r>
       <r>    6.2315    0.0000 </r>
       <r>    9.0233    0.0000 </r>
       <r>    9.7854    0.0000 </r>
       <r>   11.3619    0.0000 </r>
       <r>   12.0805    0.0000 </r>
      </set>
      <set comment="kpoint 29">
       <r>  -28.3366    1.0000 </r>
       <r>  -28.3365    1.0000 </r>
       <r>  -28.3299    1.0000 </r>
       <r>  -28.3280    1.0000 </r>
       <r>  -28.3214    1.0000 </r>
       <r>  -21.2671    1.0000 </r>
       <r>   -1.0782    1.0000 </r>
       <r>    0.7604    1.0000 </r>
       <r>    0.9459    1.0000 </r>
       <r>    6.7335    0.0000 </r>
       <r>    9.1716    0.0000 </r>
       <r>   10.2690    0.0000 </r>
       <r>   10.9209    0.0000 </r>
       <r>   12.5499    0.0000 </r>
      </set>
      <set comment="kpoint 30">
       <r>  -28.3312    1.0000 </r>
       <r>  -28.3251    1.0000 </r>
       <r>  -28.3234    1.0000 </r>
       <r>  -28.3211    1.0000 </r>
       <r>  -28.3179    1.0000 </r>
       <r>  -21.2574    1.0000 </r>
       <r>   -1.2516    1.0000 </r>
       <r>    0.5618    1.0000 </r>
       <r>    1.0166    1.0000 </r>
       <r>    6.8087    0.0000 </r>
       <r>    9.0518    0.0000 </r>
       <r>   10.6144    0.0000 </r>
       <r>   11.7650    0.0000 </r>
       <r>   12.6442    0.0000 </r>
      </set>
      <set comment="kpoint 31">
       <r>  -28.3392    1.0000 </r>
       <r>  -28.3383    1.0000 </r>
       <r>  -28.3363    1.0000 </r>
       <r>  -28.3270    1.0000 </r>
       <r>  -28.3267    1.0000 </r>
       <r>  -21.2768    1.0000 </r>
       <r>   -0.8826    1.0000 </r>
       <r>    0.6123    1.0000 </r>
       <r>    1.2114    1.0000 </r>
       <r>    6.6936    0.0000 </r>
       <r>    9.4556    0.0000 </r>
       <r>   10.0738    0.0000 </r>
       <r>   10.7008    0.0000 </r>
       <r>   12.1704    0.0000 </r>
      </set>
      <set comment="kpoint 32">
       <r>  -28.3302    1.0000 </r>
       <r>  -28.3194    1.0000 </r>
       <r>  -28.3163    1.0000 </r>
       <r>  -28.3096    1.0000 </r>
       <r>  -28.3088    1.0000 </r>
       <r>  -21.3098    1.0000 </r>
       <r>   -0.1473    1.0000 </r>
       <r>    0.9684    1.0000 </r>
       <r>    1.3933    1.0000 </r>
       <r>    5.7615    0.0000 </r>
       <r>    9.3605    0.0000 </r>
       <r>   10.3349    0.0000 </r>
       <r>   11.1100    0.0000 </r>
       <r>   11.2767    0.0000 </r>
      </set>
      <set comment="kpoint 33">
       <r>  -28.3255    1.0000 </r>
       <r>  -28.3227    1.0000 </r>
       <r>  -28.3198    1.0000 </r>
       <r>  -28.3107    1.0000 </r>
       <r>  -28.3107    1.0000 </r>
       <r>  -21.3267    1.0000 </r>
       <r>    0.4793    1.0000 </r>
       <r>    1.2478    1.0000 </r>
       <r>    1.2478    1.0000 </r>
       <r>    5.0690    0.0000 </r>
       <r>    9.2404    0.0000 </r>
       <r>   10.8332    0.0000 </r>
       <r>   11.1655    0.0000 </r>
       <r>   11.1655    0.0000 </r>
      </set>
      <set comment="kpoint 34">
       <r>  -28.3375    1.0000 </r>
       <r>  -28.3375    1.0000 </r>
       <r>  -28.3243    1.0000 </r>
       <r>  -28.3238    1.0000 </r>
       <r>  -28.3238    1.0000 </r>
       <r>  -21.3320    1.0000 </r>
       <r>    0.5114    1.0000 </r>
       <r>    1.4106    1.0000 </r>
       <r>    1.4106    1.0000 </r>
       <r>    4.6686    0.0000 </r>
       <r>    9.7144    0.0000 </r>
       <r>   10.8313    0.0000 </r>
       <r>   10.8313    0.0000 </r>
       <r>   12.1246    0.0000 </r>
      </set>
      <set comment="kpoint 35">
       <r>  -28.3302    1.0000 </r>
       <r>  -28.3194    1.0000 </r>
       <r>  -28.3163    1.0000 </r>
       <r>  -28.3096    1.0000 </r>
       <r>  -28.3088    1.0000 </r>
       <r>  -21.3098    1.0000 </r>
       <r>   -0.1473    1.0000 </r>
       <r>    0.9684    1.0000 </r>
       <r>    1.3933    1.0000 </r>
       <r>    5.7615    0.0000 </r>
       <r>    9.3605    0.0000 </r>
       <r>   10.3349    0.0000 </r>
       <r>   11.1100    0.0000 </r>
       <r>   11.2767    0.0000 </r>
      </set>
      <set comment="kpoint 36">
       <r>  -28.3392    1.0000 </r>
       <r>  -28.3383    1.0000 </r>
       <r>  -28.3363    1.0000 </r>
       <r>  -28.3270    1.0000 </r>
       <r>  -28.3267    1.0000 </r>
       <r>  -21.2768    1.0000 </r>
       <r>   -0.8826    1.0000 </r>
       <r>    0.6123    1.0000 </r>
       <r>    1.2114    1.0000 </r>
       <r>    6.6936    0.0000 </r>
       <r>    9.4556    0.0000 </r>
       <r>   10.0738    0.0000 </r>
       <r>   10.7008    0.0000 </r>
       <r>   12.1704    0.0000 </r>
      </set>
      <set comment="kpoint 37">
       <r>  -28.3312    1.0000 </r>
       <r>  -28.3251    1.0000 </r>
       <r>  -28.3234    1.0000 </r>
       <r>  -28.3211    1.0000 </r>
       <r>  -28.3179    1.0000 </r>
       <r>  -21.2574    1.0000 </r>
       <r>   -1.2516    1.0000 </r>
       <r>    0.5618    1.0000 </r>
       <r>    1.0166    1.0000 </r>
       <r>    6.8087    0.0000 </r>
       <r>    9.0518    0.0000 </r>
       <r>   10.6144    0.0000 </r>
       <r>   11.7650    0.0000 </r>
       <r>   12.6442    0.0000 </r>
      </set>
      <set comment="kpoint 38">
       <r>  -28.3366    1.0000 </r>
       <r>  -28.3365    1.0000 </r>
       <r>  -28.3299    1.0000 </r>
       <r>  -28.3280    1.0000 </r>
       <r>  -28.3214    1.0000 </r>
       <r>  -21.2671    1.0000 </r>
       <r>   -1.0782    1.0000 </r>
       <r>    0.7604    1.0000 </r>
       <r>    0.9459    1.0000 </r>
       <r>    6.7335    0.0000 </r>
       <r>    9.1716    0.0000 </r>
       <r>   10.2690    0.0000 </r>
       <r>   10.9209    0.0000 </r>
       <r>   12.5499    0.0000 </r>
      </set>
      <set comment="kpoint 39">
       <r>  -28.3351    1.0000 </r>
       <r>  -28.3255    1.0000 </r>
       <r>  -28.3235    1.0000 </r>
       <r>  -28.3182    1.0000 </r>
       <r>  -28.3164    1.0000 </r>
       <r>  -21.2981    1.0000 </r>
       <r>   -0.3917    1.0000 </r>
       <r>    1.0435    1.0000 </r>
       <r>    1.0475    1.0000 </r>
       <r>    6.2315    0.0000 </r>
       <r>    9.0233    0.0000 </r>
       <r>    9.7854    0.0000 </r>
       <r>   11.3619    0.0000 </r>
       <r>   12.0805    0.0000 </r>
      </set>
      <set comment="kpoint 40">
       <r>  -28.3351    1.0000 </r>
       <r>  -28.3255    1.0000 </r>
       <r>  -28.3235    1.0000 </r>
       <r>  -28.3182    1.0000 </r>
       <r>  -28.3164    1.0000 </r>
       <r>  -21.2981    1.0000 </r>
       <r>   -0.3917    1.0000 </r>
       <r>    1.0435    1.0000 </r>
       <r>    1.0475    1.0000 </r>
       <r>    6.2315    0.0000 </r>
       <r>    9.0233    0.0000 </r>
       <r>    9.7854    0.0000 </r>
       <r>   11.3619    0.0000 </r>
       <r>   12.0805    0.0000 </r>
      </set>
      <set comment="kpoint 41">
       <r>  -28.3302    1.0000 </r>
       <r>  -28.3194    1.0000 </r>
       <r>  -28.3163    1.0000 </r>
       <r>  -28.3096    1.0000 </r>
       <r>  -28.3088    1.0000 </r>
       <r>  -21.3098    1.0000 </r>
       <r>   -0.1473    1.0000 </r>
       <r>    0.9684    1.0000 </r>
       <r>    1.3933    1.0000 </r>
       <r>    5.7615    0.0000 </r>
       <r>    9.3605    0.0000 </r>
       <r>   10.3349    0.0000 </r>
       <r>   11.1100    0.0000 </r>
       <r>   11.2767    0.0000 </r>
      </set>
      <set comment="kpoint 42">
       <r>  -28.3351    1.0000 </r>
       <r>  -28.3255    1.0000 </r>
       <r>  -28.3235    1.0000 </r>
       <r>  -28.3182    1.0000 </r>
       <r>  -28.3164    1.0000 </r>
       <r>  -21.2981    1.0000 </r>
       <r>   -0.3917    1.0000 </r>
       <r>    1.0435    1.0000 </r>
       <r>    1.0475    1.0000 </r>
       <r>    6.2315    0.0000 </r>
       <r>    9.0233    0.0000 </r>
       <r>    9.7854    0.0000 </r>
       <r>   11.3619    0.0000 </r>
       <r>   12.0805    0.0000 </r>
      </set>
      <set comment="kpoint 43">
       <r>  -28.3265    1.0000 </r>
       <r>  -28.3215    1.0000 </r>
       <r>  -28.3169    1.0000 </r>
       <r>  -28.3162    1.0000 </r>
       <r>  -28.3153    1.0000 </r>
       <r>  -21.2714    1.0000 </r>
       <r>   -0.7554    1.0000 </r>
       <r>    0.4317    1.0000 </r>
       <r>    0.9565    1.0000 </r>
       <r>    7.2522    0.0000 </r>
       <r>    8.9300    0.0000 </r>
       <r>    9.1010    0.0000 </r>
       <r>   11.8769    0.0000 </r>
       <r>   12.3021    0.0000 </r>
      </set>
      <set comment="kpoint 44">
       <r>  -28.3339    1.0000 </r>
       <r>  -28.3299    1.0000 </r>
       <r>  -28.3264    1.0000 </r>
       <r>  -28.3227    1.0000 </r>
       <r>  -28.3200    1.0000 </r>
       <r>  -21.2499    1.0000 </r>
       <r>   -0.9653    1.0000 </r>
       <r>    0.0455    1.0000 </r>
       <r>    0.7558    1.0000 </r>
       <r>    7.8236    0.0000 </r>
       <r>    8.5537    0.0000 </r>
       <r>   10.1616    0.0000 </r>
       <r>   11.7034    0.0000 </r>
       <r>   12.6688    0.0000 </r>
      </set>
      <set comment="kpoint 45">
       <r>  -28.3339    1.0000 </r>
       <r>  -28.3299    1.0000 </r>
       <r>  -28.3264    1.0000 </r>
       <r>  -28.3227    1.0000 </r>
       <r>  -28.3200    1.0000 </r>
       <r>  -21.2499    1.0000 </r>
       <r>   -0.9653    1.0000 </r>
       <r>    0.0455    1.0000 </r>
       <r>    0.7558    1.0000 </r>
       <r>    7.8236    0.0000 </r>
       <r>    8.5537    0.0000 </r>
       <r>   10.1616    0.0000 </r>
       <r>   11.7034    0.0000 </r>
       <r>   12.6688    0.0000 </r>
      </set>
      <set comment="kpoint 46">
       <r>  -28.3265    1.0000 </r>
       <r>  -28.3215    1.0000 </r>
       <r>  -28.3169    1.0000 </r>
       <r>  -28.3162    1.0000 </r>
       <r>  -28.3153    1.0000 </r>
       <r>  -21.2714    1.0000 </r>
       <r>   -0.7554    1.0000 </r>
       <r>    0.4317    1.0000 </r>
       <r>    0.9565    1.0000 </r>
       <r>    7.2522    0.0000 </r>
       <r>    8.9300    0.0000 </r>
       <r>    9.1010    0.0000 </r>
       <r>   11.8769    0.0000 </r>
       <r>   12.3021    0.0000 </r>
      </set>
      <set comment="kpoint 47">
       <r>  -28.3366    1.0000 </r>
       <r>  -28.3365    1.0000 </r>
       <r>  -28.3299    1.0000 </r>
       <r>  -28.3280    1.0000 </r>
       <r>  -28.3214    1.0000 </r>
       <r>  -21.2671    1.0000 </r>
       <r>   -1.0782    1.0000 </r>
       <r>    0.7604    1.0000 </r>
       <r>    0.9459    1.0000 </r>
       <r>    6.7335    0.0000 </r>
       <r>    9.1716    0.0000 </r>
       <r>   10.2690    0.0000 </r>
       <r>   10.9209    0.0000 </r>
       <r>   12.5499    0.0000 </r>
      </set>
      <set comment="kpoint 48">
       <r>  -28.3392    1.0000 </r>
       <r>  -28.3383    1.0000 </r>
       <r>  -28.3363    1.0000 </r>
       <r>  -28.3270    1.0000 </r>
       <r>  -28.3267    1.0000 </r>
       <r>  -21.2768    1.0000 </r>
       <r>   -0.8826    1.0000 </r>
       <r>    0.6123    1.0000 </r>
       <r>    1.2114    1.0000 </r>
       <r>    6.6936    0.0000 </r>
       <r>    9.4556    0.0000 </r>
       <r>   10.0738    0.0000 </r>
       <r>   10.7008    0.0000 </r>
       <r>   12.1704    0.0000 </r>
      </set>
      <set comment="kpoint 49">
       <r>  -28.3265    1.0000 </r>
       <r>  -28.3215    1.0000 </r>
       <r>  -28.3169    1.0000 </r>
       <r>  -28.3162    1.0000 </r>
       <r>  -28.3153    1.0000 </r>
       <r>  -21.2714    1.0000 </r>
       <r>   -0.7554    1.0000 </r>
       <r>    0.4317    1.0000 </r>
       <r>    0.9565    1.0000 </r>
       <r>    7.2522    0.0000 </r>
       <r>    8.9300    0.0000 </r>
       <r>    9.1010    0.0000 </r>
       <r>   11.8769    0.0000 </r>
       <r>   12.3021    0.0000 </r>
      </set>
      <set comment="kpoint 50">
       <r>  -28.3257    1.0000 </r>
       <r>  -28.3200    1.0000 </r>
       <r>  -28.3164    1.0000 </r>
       <r>  -28.3149    1.0000 </r>
       <r>  -28.3121    1.0000 </r>
       <r>  -21.2554    1.0000 </r>
       <r>   -0.9259    1.0000 </r>
       <r>    0.3901    1.0000 </r>
       <r>    0.6402    1.0000 </r>
       <r>    6.9114    0.0000 </r>
       <r>    8.3507    0.0000 </r>
       <r>   10.0995    0.0000 </r>
       <r>   12.3622    0.0000 </r>
       <r>   13.5433    0.0000 </r>
      </set>
      <set comment="kpoint 51">
       <r>  -28.3410    1.0000 </r>
       <r>  -28.3389    1.0000 </r>
       <r>  -28.3377    1.0000 </r>
       <r>  -28.3343    1.0000 </r>
       <r>  -28.3273    1.0000 </r>
       <r>  -21.2407    1.0000 </r>
       <r>   -0.9398    1.0000 </r>
       <r>    0.0646    1.0000 </r>
       <r>    0.3923    1.0000 </r>
       <r>    7.2059    0.0000 </r>
       <r>    8.5344    0.0000 </r>
       <r>   10.3149    0.0000 </r>
       <r>   12.5800    0.0000 </r>
       <r>   13.8156    0.0000 </r>
      </set>
      <set comment="kpoint 52">
       <r>  -28.3392    1.0000 </r>
       <r>  -28.3388    1.0000 </r>
       <r>  -28.3341    1.0000 </r>
       <r>  -28.3312    1.0000 </r>
       <r>  -28.3307    1.0000 </r>
       <r>  -21.2381    1.0000 </r>
       <r>   -0.6170    1.0000 </r>
       <r>   -0.4922    1.0000 </r>
       <r>    0.4385    1.0000 </r>
       <r>    7.8379    0.0000 </r>
       <r>    9.3186    0.0000 </r>
       <r>   10.2848    0.0000 </r>
       <r>   10.6460    0.0000 </r>
       <r>   13.4051    0.0000 </r>
      </set>
      <set comment="kpoint 53">
       <r>  -28.3339    1.0000 </r>
       <r>  -28.3299    1.0000 </r>
       <r>  -28.3264    1.0000 </r>
       <r>  -28.3227    1.0000 </r>
       <r>  -28.3200    1.0000 </r>
       <r>  -21.2499    1.0000 </r>
       <r>   -0.9653    1.0000 </r>
       <r>    0.0455    1.0000 </r>
       <r>    0.7558    1.0000 </r>
       <r>    7.8236    0.0000 </r>
       <r>    8.5537    0.0000 </r>
       <r>   10.1616    0.0000 </r>
       <r>   11.7034    0.0000 </r>
       <r>   12.6688    0.0000 </r>
      </set>
      <set comment="kpoint 54">
       <r>  -28.3312    1.0000 </r>
       <r>  -28.3251    1.0000 </r>
       <r>  -28.3234    1.0000 </r>
       <r>  -28.3211    1.0000 </r>
       <r>  -28.3179    1.0000 </r>
       <r>  -21.2574    1.0000 </r>
       <r>   -1.2516    1.0000 </r>
       <r>    0.5618    1.0000 </r>
       <r>    1.0166    1.0000 </r>
       <r>    6.8087    0.0000 </r>
       <r>    9.0518    0.0000 </r>
       <r>   10.6144    0.0000 </r>
       <r>   11.7650    0.0000 </r>
       <r>   12.6442    0.0000 </r>
      </set>
      <set comment="kpoint 55">
       <r>  -28.3312    1.0000 </r>
       <r>  -28.3251    1.0000 </r>
       <r>  -28.3234    1.0000 </r>
       <r>  -28.3211    1.0000 </r>
       <r>  -28.3179    1.0000 </r>
       <r>  -21.2574    1.0000 </r>
       <r>   -1.2516    1.0000 </r>
       <r>    0.5618    1.0000 </r>
       <r>    1.0166    1.0000 </r>
       <r>    6.8087    0.0000 </r>
       <r>    9.0518    0.0000 </r>
       <r>   10.6144    0.0000 </r>
       <r>   11.7650    0.0000 </r>
       <r>   12.6442    0.0000 </r>
      </set>
      <set comment="kpoint 56">
       <r>  -28.3339    1.0000 </r>
       <r>  -28.3299    1.0000 </r>
       <r>  -28.3264    1.0000 </r>
       <r>  -28.3227    1.0000 </r>
       <r>  -28.3200    1.0000 </r>
       <r>  -21.2499    1.0000 </r>
       <r>   -0.9653    1.0000 </r>
       <r>    0.0455    1.0000 </r>
       <r>    0.7558    1.0000 </r>
       <r>    7.8236    0.0000 </r>
       <r>    8.5537    0.0000 </r>
       <r>   10.1616    0.0000 </r>
       <r>   11.7034    0.0000 </r>
       <r>   12.6688    0.0000 </r>
      </set>
      <set comment="kpoint 57">
       <r>  -28.3410    1.0000 </r>
       <r>  -28.3389    1.0000 </r>
       <r>  -28.3377    1.0000 </r>
       <r>  -28.3343    1.0000 </r>
       <r>  -28.3273    1.0000 </r>
       <r>  -21.2407    1.0000 </r>
       <r>   -0.9398    1.0000 </r>
       <r>    0.0646    1.0000 </r>
       <r>    0.3923    1.0000 </r>
       <r>    7.2059    0.0000 </r>
       <r>    8.5344    0.0000 </r>
       <r>   10.3149    0.0000 </r>
       <r>   12.5800    0.0000 </r>
       <r>   13.8160    0.0000 </r>
      </set>
      <set comment="kpoint 58">
       <r>  -28.3369    1.0000 </r>
       <r>  -28.3337    1.0000 </r>
       <r>  -28.3331    1.0000 </r>
       <r>  -28.3291    1.0000 </r>
       <r>  -28.3150    1.0000 </r>
       <r>  -21.2364    1.0000 </r>
       <r>   -1.0597    1.0000 </r>
       <r>    0.0771    1.0000 </r>
       <r>    0.4759    1.0000 </r>
       <r>    6.6060    0.0000 </r>
       <r>    8.1044    0.0000 </r>
       <r>   12.3571    0.0000 </r>
       <r>   12.6734    0.0000 </r>
       <r>   13.2525    0.0000 </r>
      </set>
      <set comment="kpoint 59">
       <r>  -28.3410    1.0000 </r>
       <r>  -28.3389    1.0000 </r>
       <r>  -28.3377    1.0000 </r>
       <r>  -28.3343    1.0000 </r>
       <r>  -28.3273    1.0000 </r>
       <r>  -21.2407    1.0000 </r>
       <r>   -0.9398    1.0000 </r>
       <r>    0.0646    1.0000 </r>
       <r>    0.3923    1.0000 </r>
       <r>    7.2059    0.0000 </r>
       <r>    8.5344    0.0000 </r>
       <r>   10.3149    0.0000 </r>
       <r>   12.5800    0.0000 </r>
       <r>   13.8153    0.0000 </r>
      </set>
      <set comment="kpoint 60">
       <r>  -28.3339    1.0000 </r>
       <r>  -28.3299    1.0000 </r>
       <r>  -28.3264    1.0000 </r>
       <r>  -28.3227    1.0000 </r>
       <r>  -28.3200    1.0000 </r>
       <r>  -21.2499    1.0000 </r>
       <r>   -0.9653    1.0000 </r>
       <r>    0.0455    1.0000 </r>
       <r>    0.7558    1.0000 </r>
       <r>    7.8236    0.0000 </r>
       <r>    8.5537    0.0000 </r>
       <r>   10.1616    0.0000 </r>
       <r>   11.7034    0.0000 </r>
       <r>   12.6688    0.0000 </r>
      </set>
      <set comment="kpoint 61">
       <r>  -28.3392    1.0000 </r>
       <r>  -28.3383    1.0000 </r>
       <r>  -28.3363    1.0000 </r>
       <r>  -28.3270    1.0000 </r>
       <r>  -28.3267    1.0000 </r>
       <r>  -21.2768    1.0000 </r>
       <r>   -0.8826    1.0000 </r>
       <r>    0.6123    1.0000 </r>
       <r>    1.2114    1.0000 </r>
       <r>    6.6936    0.0000 </r>
       <r>    9.4556    0.0000 </r>
       <r>   10.0738    0.0000 </r>
       <r>   10.7008    0.0000 </r>
       <r>   12.1704    0.0000 </r>
      </set>
      <set comment="kpoint 62">
       <r>  -28.3366    1.0000 </r>
       <r>  -28.3365    1.0000 </r>
       <r>  -28.3299    1.0000 </r>
       <r>  -28.3280    1.0000 </r>
       <r>  -28.3214    1.0000 </r>
       <r>  -21.2671    1.0000 </r>
       <r>   -1.0782    1.0000 </r>
       <r>    0.7604    1.0000 </r>
       <r>    0.9459    1.0000 </r>
       <r>    6.7335    0.0000 </r>
       <r>    9.1716    0.0000 </r>
       <r>   10.2690    0.0000 </r>
       <r>   10.9209    0.0000 </r>
       <r>   12.5499    0.0000 </r>
      </set>
      <set comment="kpoint 63">
       <r>  -28.3339    1.0000 </r>
       <r>  -28.3299    1.0000 </r>
       <r>  -28.3264    1.0000 </r>
       <r>  -28.3227    1.0000 </r>
       <r>  -28.3200    1.0000 </r>
       <r>  -21.2499    1.0000 </r>
       <r>   -0.9653    1.0000 </r>
       <r>    0.0455    1.0000 </r>
       <r>    0.7558    1.0000 </r>
       <r>    7.8236    0.0000 </r>
       <r>    8.5537    0.0000 </r>
       <r>   10.1616    0.0000 </r>
       <r>   11.7034    0.0000 </r>
       <r>   12.6688    0.0000 </r>
      </set>
      <set comment="kpoint 64">
       <r>  -28.3392    1.0000 </r>
       <r>  -28.3388    1.0000 </r>
       <r>  -28.3341    1.0000 </r>
       <r>  -28.3312    1.0000 </r>
       <r>  -28.3307    1.0000 </r>
       <r>  -21.2381    1.0000 </r>
       <r>   -0.6170    1.0000 </r>
       <r>   -0.4922    1.0000 </r>
       <r>    0.4385    1.0000 </r>
       <r>    7.8379    0.0000 </r>
       <r>    9.3186    0.0000 </r>
       <r>   10.2848    0.0000 </r>
       <r>   10.6460    0.0000 </r>
       <r>   13.4051    0.0000 </r>
      </set>
      <set comment="kpoint 65">
       <r>  -28.3410    1.0000 </r>
       <r>  -28.3389    1.0000 </r>
       <r>  -28.3377    1.0000 </r>
       <r>  -28.3343    1.0000 </r>
       <r>  -28.3273    1.0000 </r>
       <r>  -21.2407    1.0000 </r>
       <r>   -0.9398    1.0000 </r>
       <r>    0.0646    1.0000 </r>
       <r>    0.3923    1.0000 </r>
       <r>    7.2059    0.0000 </r>
       <r>    8.5344    0.0000 </r>
       <r>   10.3149    0.0000 </r>
       <r>   12.5800    0.0000 </r>
       <r>   13.8153    0.0000 </r>
      </set>
      <set comment="kpoint 66">
       <r>  -28.3257    1.0000 </r>
       <r>  -28.3200    1.0000 </r>
       <r>  -28.3164    1.0000 </r>
       <r>  -28.3149    1.0000 </r>
       <r>  -28.3121    1.0000 </r>
       <r>  -21.2554    1.0000 </r>
       <r>   -0.9259    1.0000 </r>
       <r>    0.3901    1.0000 </r>
       <r>    0.6402    1.0000 </r>
       <r>    6.9114    0.0000 </r>
       <r>    8.3507    0.0000 </r>
       <r>   10.0995    0.0000 </r>
       <r>   12.3622    0.0000 </r>
       <r>   13.5433    0.0000 </r>
      </set>
      <set comment="kpoint 67">
       <r>  -28.3265    1.0000 </r>
       <r>  -28.3215    1.0000 </r>
       <r>  -28.3169    1.0000 </r>
       <r>  -28.3162    1.0000 </r>
       <r>  -28.3153    1.0000 </r>
       <r>  -21.2714    1.0000 </r>
       <r>   -0.7554    1.0000 </r>
       <r>    0.4317    1.0000 </r>
       <r>    0.9565    1.0000 </r>
       <r>    7.2522    0.0000 </r>
       <r>    8.9300    0.0000 </r>
       <r>    9.1010    0.0000 </r>
       <r>   11.8769    0.0000 </r>
       <r>   12.3021    0.0000 </r>
      </set>
      <set comment="kpoint 68">
       <r>  -28.3302    1.0000 </r>
       <r>  -28.3194    1.0000 </r>
       <r>  -28.3163    1.0000 </r>
       <r>  -28.3096    1.0000 </r>
       <r>  -28.3088    1.0000 </r>
       <r>  -21.3098    1.0000 </r>
       <r>   -0.1473    1.0000 </r>
       <r>    0.9684    1.0000 </r>
       <r>    1.3933    1.0000 </r>
       <r>    5.7615    0.0000 </r>
       <r>    9.3605    0.0000 </r>
       <r>   10.3349    0.0000 </r>
       <r>   11.1100    0.0000 </r>
       <r>   11.2767    0.0000 </r>
      </set>
      <set comment="kpoint 69">
       <r>  -28.3351    1.0000 </r>
       <r>  -28.3255    1.0000 </r>
       <r>  -28.3235    1.0000 </r>
       <r>  -28.3182    1.0000 </r>
       <r>  -28.3164    1.0000 </r>
       <r>  -21.2981    1.0000 </r>
       <r>   -0.3917    1.0000 </r>
       <r>    1.0435    1.0000 </r>
       <r>    1.0475    1.0000 </r>
       <r>    6.2315    0.0000 </r>
       <r>    9.0233    0.0000 </r>
       <r>    9.7854    0.0000 </r>
       <r>   11.3619    0.0000 </r>
       <r>   12.0805    0.0000 </r>
      </set>
      <set comment="kpoint 70">
       <r>  -28.3265    1.0000 </r>
       <r>  -28.3215    1.0000 </r>
       <r>  -28.3169    1.0000 </r>
       <r>  -28.3162    1.0000 </r>
       <r>  -28.3153    1.0000 </r>
       <r>  -21.2714    1.0000 </r>
       <r>   -0.7554    1.0000 </r>
       <r>    0.4317    1.0000 </r>
       <r>    0.9565    1.0000 </r>
       <r>    7.2522    0.0000 </r>
       <r>    8.9300    0.0000 </r>
       <r>    9.1010    0.0000 </r>
       <r>   11.8769    0.0000 </r>
       <r>   12.3021    0.0000 </r>
      </set>
      <set comment="kpoint 71">
       <r>  -28.3339    1.0000 </r>
       <r>  -28.3299    1.0000 </r>
       <r>  -28.3264    1.0000 </r>
       <r>  -28.3227    1.0000 </r>
       <r>  -28.3200    1.0000 </r>
       <r>  -21.2499    1.0000 </r>
       <r>   -0.9653    1.0000 </r>
       <r>    0.0455    1.0000 </r>
       <r>    0.7558    1.0000 </r>
       <r>    7.8236    0.0000 </r>
       <r>    8.5537    0.0000 </r>
       <r>   10.1616    0.0000 </r>
       <r>   11.7034    0.0000 </r>
       <r>   12.6688    0.0000 </r>
      </set>
      <set comment="kpoint 72">
       <r>  -28.3339    1.0000 </r>
       <r>  -28.3299    1.0000 </r>
       <r>  -28.3264    1.0000 </r>
       <r>  -28.3227    1.0000 </r>
       <r>  -28.3200    1.0000 </r>
       <r>  -21.2499    1.0000 </r>
       <r>   -0.9653    1.0000 </r>
       <r>    0.0455    1.0000 </r>
       <r>    0.7558    1.0000 </r>
       <r>    7.8236    0.0000 </r>
       <r>    8.5537    0.0000 </r>
       <r>   10.1616    0.0000 </r>
       <r>   11.7034    0.0000 </r>
       <r>   12.6688    0.0000 </r>
      </set>
      <set comment="kpoint 73">
       <r>  -28.3265    1.0000 </r>
       <r>  -28.3215    1.0000 </r>
       <r>  -28.3169    1.0000 </r>
       <r>  -28.3162    1.0000 </r>
       <r>  -28.3153    1.0000 </r>
       <r>  -21.2714    1.0000 </r>
       <r>   -0.7554    1.0000 </r>
       <r>    0.4317    1.0000 </r>
       <r>    0.9565    1.0000 </r>
       <r>    7.2522    0.0000 </r>
       <r>    8.9300    0.0000 </r>
       <r>    9.1010    0.0000 </r>
       <r>   11.8769    0.0000 </r>
       <r>   12.3021    0.0000 </r>
      </set>
      <set comment="kpoint 74">
       <r>  -28.3351    1.0000 </r>
       <r>  -28.3255    1.0000 </r>
       <r>  -28.3235    1.0000 </r>
       <r>  -28.3182    1.0000 </r>
       <r>  -28.3164    1.0000 </r>
       <r>  -21.2981    1.0000 </r>
       <r>   -0.3917    1.0000 </r>
       <r>    1.0435    1.0000 </r>
       <r>    1.0475    1.0000 </r>
       <r>    6.2315    0.0000 </r>
       <r>    9.0233    0.0000 </r>
       <r>    9.7854    0.0000 </r>
       <r>   11.3619    0.0000 </r>
       <r>   12.0805    0.0000 </r>
      </set>
      <set comment="kpoint 75">
       <r>  -28.3354    1.0000 </r>
       <r>  -28.3287    1.0000 </r>
       <r>  -28.3287    1.0000 </r>
       <r>  -28.3195    1.0000 </r>
       <r>  -28.3195    1.0000 </r>
[...]
     <r>     6.1584     0.0000     0.0000     0.0000     0.0000     0.0000     0.0000 </r>
     <r>     6.1684     0.0000     0.0000     0.0000     0.0000     0.0000     0.0000 </r>
     <r>     6.1784     0.0000     0.0000     0.0000     0.0000     0.0000     0.0000 </r>
     <r>     6.1884     0.0000     0.0000     0.0000     0.0000     0.0000     0.0000 </r>
     <r>     6.1984     0.0000     0.0000     0.0000     0.0000     0.0000     0.0000 </r>
     <r>     6.2084     0.0000     0.0000     0.0000     0.0000     0.0000     0.0000 </r>
     <r>     6.2184     0.0000     0.0000     0.0000     0.0000     0.0000     0.0000 </r>
     <r>     6.2284     0.0000     0.0000     0.0000    -0.0000    -0.0000    -0.0000 </r>
     <r>     6.2385     1.0286     1.0286     1.0286     0.0000    -0.0000     0.0000 </r>
     <r>     6.2485     0.0000     0.0000     0.0000     0.0000     0.0000     0.0000 </r>
     <r>     6.2585     0.0000     0.0000     0.0000     0.0000     0.0000     0.0000 </r>
     <r>     6.2685     0.0000     0.0000     0.0000     0.0000     0.0000     0.0000 </r>
     <r>     6.2785     0.0000     0.0000     0.0000     0.0000     0.0000     0.0000 </r>
     <r>     6.2885     0.0000     0.0000     0.0000     0.0000     0.0000     0.0000 </r>
     <r>     6.2985     0.0000     0.0000     0.0000     0.0000     0.0000     0.0000 </r>
     <r>     6.3085     0.0000     0.0000     0.0000     0.0000     0.0000     0.0000 </r>
     <r>     6.3185     0.0000     0.0000     0.0000     0.0000     0.0000     0.0000 </r>
     <r>     6.3285     0.0000     0.0000     0.0000     0.0000     0.0000     0.0000 </r>
     <r>     6.3386     0.0000     0.0000     0.0000     0.0000     0.0000     0.0000 </r>
     <r>     6.3486     0.0000     0.0000     0.0000    -0.0000    -0.0000    -0.0000 </r>
     <r>     6.3586     0.0138     0.0138     0.0138    -0.0000    -0.0000    -0.0000 </r>
     <r>     6.3686     0.0000     0.0000     0.0000     0.0000     0.0000     0.0000 </r>
     <r>     6.3786     0.0000     0.0000     0.0000     0.0000     0.0000     0.0000 </r>
     <r>     6.3886     0.0000     0.0000     0.0000     0.0000     0.0000     0.0000 </r>
     <r>     6.3986     0.0000     0.0000     0.0000     0.0000     0.0000     0.0000 </r>
     <r>     6.4086     0.0000     0.0000     0.0000     0.0000     0.0000     0.0000 </r>
     <r>     6.4186     0.0000     0.0000     0.0000     0.0000     0.0000     0.0000 </r>
     <r>     6.4286     0.0000     0.0000     0.0000     0.0000     0.0000     0.0000 </r>
     <r>     6.4387     0.0000     0.0000     0.0000     0.0000     0.0000     0.0000 </r>
     <r>     6.4487     0.0000     0.0000     0.0000     0.0000     0.0000     0.0000 </r>
     <r>     6.4587     0.0000     0.0000     0.0000     0.0000     0.0000     0.0000 </r>
     <r>     6.4687     0.0000     0.0000     0.0000     0.0000     0.0000     0.0000 </r>
     <r>     6.4787     0.0000     0.0000     0.0000     0.0000     0.0000     0.0000 </r>
     <r>     6.4887     0.0000     0.0000     0.0000     0.0000     0.0000     0.0000 </r>
     <r>     6.4987     0.0000     0.0000     0.0000     0.0000     0.0000     0.0000 </r>
     <r>     6.5087     0.0000     0.0000     0.0000     0.0000     0.0000     0.0000 </r>
     <r>     6.5187     0.0000     0.0000     0.0000     0.0000     0.0000     0.0000 </r>
     <r>     6.5287     0.0000     0.0000     0.0000     0.0000     0.0000     0.0000 </r>
     <r>     6.5388     0.0000     0.0000     0.0000     0.0000     0.0000     0.0000 </r>
     <r>     6.5488     0.0000     0.0000     0.0000     0.0000     0.0000     0.0000 </r>
     <r>     6.5588     0.0000     0.0000     0.0000     0.0000     0.0000     0.0000 </r>
     <r>     6.5688     0.0000     0.0000     0.0000     0.0000     0.0000     0.0000 </r>
     <r>     6.5788     0.0000     0.0000     0.0000     0.0000     0.0000     0.0000 </r>
     <r>     6.5888     0.0000     0.0000     0.0000     0.0000     0.0000     0.0000 </r>
    </set>
   </array>
  </conductivity>
  <dos>
   <i name="efermi">      1.58880587 </i>
   <total>
    <array>
     <dimension dim="1">gridpoints</dimension>
     <dimension dim="2">spin</dimension>
     <field>energy</field>
     <field>total</field>
     <field>integrated</field>
     <set>
      <set comment="spin 1">
       <r>   -30.4529     0.0000     0.0000 </r>
       <r>   -30.2983     0.0000     0.0000 </r>
       <r>   -30.1437     0.0000     0.0000 </r>
       <r>   -29.9891     0.0000     0.0000 </r>
       <r>   -29.8345     0.0000     0.0000 </r>
       <r>   -29.6799     0.0000     0.0000 </r>
       <r>   -29.5253     0.0000     0.0000 </r>
       <r>   -29.3707     0.0000     0.0000 </r>
       <r>   -29.2161     0.0000     0.0000 </r>
       <r>   -29.0615     0.0000     0.0000 </r>
       <r>   -28.9069     0.0000     0.0000 </r>
       <r>   -28.7523     0.0000     0.0000 </r>
       <r>   -28.5977     0.0000     0.0000 </r>
       <r>   -28.4431     0.0000     0.0000 </r>
       <r>   -28.2885     0.0000    10.0000 </r>
       <r>   -28.1339     0.0000    10.0000 </r>
       <r>   -27.9793     0.0000    10.0000 </r>
       <r>   -27.8247     0.0000    10.0000 </r>
       <r>   -27.6700     0.0000    10.0000 </r>
       <r>   -27.5154     0.0000    10.0000 </r>
       <r>   -27.3608     0.0000    10.0000 </r>
       <r>   -27.2062     0.0000    10.0000 </r>
       <r>   -27.0516     0.0000    10.0000 </r>
       <r>   -26.8970     0.0000    10.0000 </r>
       <r>   -26.7424     0.0000    10.0000 </r>
       <r>   -26.5878     0.0000    10.0000 </r>
       <r>   -26.4332     0.0000    10.0000 </r>
       <r>   -26.2786     0.0000    10.0000 </r>
       <r>   -26.1240     0.0000    10.0000 </r>
       <r>   -25.9694     0.0000    10.0000 </r>
       <r>   -25.8148     0.0000    10.0000 </r>
       <r>   -25.6602     0.0000    10.0000 </r>
       <r>   -25.5056     0.0000    10.0000 </r>
       <r>   -25.3510     0.0000    10.0000 </r>
       <r>   -25.1964     0.0000    10.0000 </r>
       <r>   -25.0418     0.0000    10.0000 </r>
       <r>   -24.8872     0.0000    10.0000 </r>
       <r>   -24.7326     0.0000    10.0000 </r>
       <r>   -24.5780     0.0000    10.0000 </r>
       <r>   -24.4234     0.0000    10.0000 </r>
       <r>   -24.2688     0.0000    10.0000 </r>
       <r>   -24.1142     0.0000    10.0000 </r>
       <r>   -23.9595     0.0000    10.0000 </r>
       <r>   -23.8049     0.0000    10.0000 </r>
       <r>   -23.6503     0.0000    10.0000 </r>
       <r>   -23.4957     0.0000    10.0000 </r>
       <r>   -23.3411     0.0000    10.0000 </r>
       <r>   -23.1865     0.0000    10.0000 </r>
       <r>   -23.0319     0.0000    10.0000 </r>
       <r>   -22.8773     0.0000    10.0000 </r>
       <r>   -22.7227     0.0000    10.0000 </r>
       <r>   -22.5681     0.0000    10.0000 </r>
       <r>   -22.4135     0.0000    10.0000 </r>
       <r>   -22.2589     0.0000    10.0000 </r>
       <r>   -22.1043     0.0000    10.0000 </r>
       <r>   -21.9497     0.0000    10.0000 </r>
       <r>   -21.7951     0.0000    10.0000 </r>
       <r>   -21.6405     0.0000    10.0000 </r>
       <r>   -21.4859     0.0000    10.0000 </r>
       <r>   -21.3313     0.2584    10.0458 </r>
       <r>   -21.1767     0.0000    12.0000 </r>
       <r>   -21.0221     0.0000    12.0000 </r>
       <r>   -20.8675     0.0000    12.0000 </r>
       <r>   -20.7129     0.0000    12.0000 </r>
       <r>   -20.5583     0.0000    12.0000 </r>
       <r>   -20.4036     0.0000    12.0000 </r>
       <r>   -20.2490     0.0000    12.0000 </r>
       <r>   -20.0944     0.0000    12.0000 </r>
       <r>   -19.9398     0.0000    12.0000 </r>
       <r>   -19.7852     0.0000    12.0000 </r>
       <r>   -19.6306     0.0000    12.0000 </r>
       <r>   -19.4760     0.0000    12.0000 </r>
       <r>   -19.3214     0.0000    12.0000 </r>
       <r>   -19.1668     0.0000    12.0000 </r>
       <r>   -19.0122     0.0000    12.0000 </r>
       <r>   -18.8576     0.0000    12.0000 </r>
       <r>   -18.7030     0.0000    12.0000 </r>
       <r>   -18.5484     0.0000    12.0000 </r>
       <r>   -18.3938     0.0000    12.0000 </r>
       <r>   -18.2392     0.0000    12.0000 </r>
       <r>   -18.0846     0.0000    12.0000 </r>
       <r>   -17.9300     0.0000    12.0000 </r>
       <r>   -17.7754     0.0000    12.0000 </r>
       <r>   -17.6208     0.0000    12.0000 </r>
       <r>   -17.4662     0.0000    12.0000 </r>
       <r>   -17.3116     0.0000    12.0000 </r>
       <r>   -17.1570     0.0000    12.0000 </r>
       <r>   -17.0024     0.0000    12.0000 </r>
       <r>   -16.8478     0.0000    12.0000 </r>
       <r>   -16.6931     0.0000    12.0000 </r>
       <r>   -16.5385     0.0000    12.0000 </r>
       <r>   -16.3839     0.0000    12.0000 </r>
       <r>   -16.2293     0.0000    12.0000 </r>
       <r>   -16.0747     0.0000    12.0000 </r>
       <r>   -15.9201     0.0000    12.0000 </r>
       <r>   -15.7655     0.0000    12.0000 </r>
       <r>   -15.6109     0.0000    12.0000 </r>
       <r>   -15.4563     0.0000    12.0000 </r>
       <r>   -15.3017     0.0000    12.0000 </r>
       <r>   -15.1471     0.0000    12.0000 </r>
       <r>   -14.9925     0.0000    12.0000 </r>
       <r>   -14.8379     0.0000    12.0000 </r>
       <r>   -14.6833     0.0000    12.0000 </r>
       <r>   -14.5287     0.0000    12.0000 </r>
       <r>   -14.3741     0.0000    12.0000 </r>
       <r>   -14.2195     0.0000    12.0000 </r>
       <r>   -14.0649     0.0000    12.0000 </r>
       <r>   -13.9103     0.0000    12.0000 </r>
       <r>   -13.7557     0.0000    12.0000 </r>
       <r>   -13.6011     0.0000    12.0000 </r>
       <r>   -13.4465     0.0000    12.0000 </r>
       <r>   -13.2919     0.0000    12.0000 </r>
       <r>   -13.1372     0.0000    12.0000 </r>
       <r>   -12.9826     0.0000    12.0000 </r>
       <r>   -12.8280     0.0000    12.0000 </r>
       <r>   -12.6734     0.0000    12.0000 </r>
       <r>   -12.5188     0.0000    12.0000 </r>
       <r>   -12.3642     0.0000    12.0000 </r>
       <r>   -12.2096     0.0000    12.0000 </r>
       <r>   -12.0550     0.0000    12.0000 </r>
       <r>   -11.9004     0.0000    12.0000 </r>
       <r>   -11.7458     0.0000    12.0000 </r>
       <r>   -11.5912     0.0000    12.0000 </r>
       <r>   -11.4366     0.0000    12.0000 </r>
       <r>   -11.2820     0.0000    12.0000 </r>
       <r>   -11.1274     0.0000    12.0000 </r>
       <r>   -10.9728     0.0000    12.0000 </r>
       <r>   -10.8182     0.0000    12.0000 </r>
       <r>   -10.6636     0.0000    12.0000 </r>
       <r>   -10.5090     0.0000    12.0000 </r>
       <r>   -10.3544     0.0000    12.0000 </r>
       <r>   -10.1998     0.0000    12.0000 </r>
       <r>   -10.0452     0.0000    12.0000 </r>
       <r>    -9.8906     0.0000    12.0000 </r>
       <r>    -9.7360     0.0000    12.0000 </r>
       <r>    -9.5814     0.0000    12.0000 </r>
       <r>    -9.4267     0.0000    12.0000 </r>
       <r>    -9.2721     0.0000    12.0000 </r>
       <r>    -9.1175     0.0000    12.0000 </r>
       <r>    -8.9629     0.0000    12.0000 </r>
       <r>    -8.8083     0.0000    12.0000 </r>
       <r>    -8.6537     0.0000    12.0000 </r>
       <r>    -8.4991     0.0000    12.0000 </r>
       <r>    -8.3445     0.0000    12.0000 </r>
       <r>    -8.1899     0.0000    12.0000 </r>
       <r>    -8.0353     0.0000    12.0000 </r>
       <r>    -7.8807     0.0000    12.0000 </r>
       <r>    -7.7261     0.0000    12.0000 </r>
       <r>    -7.5715     0.0000    12.0000 </r>
       <r>    -7.4169     0.0000    12.0000 </r>
       <r>    -7.2623     0.0000    12.0000 </r>
       <r>    -7.1077     0.0000    12.0000 </r>
       <r>    -6.9531     0.0000    12.0000 </r>
       <r>    -6.7985     0.0000    12.0000 </r>
       <r>    -6.6439     0.0000    12.0000 </r>
       <r>    -6.4893     0.0000    12.0000 </r>
       <r>    -6.3347     0.0000    12.0000 </r>
       <r>    -6.1801     0.0000    12.0000 </r>
       <r>    -6.0255     0.0000    12.0000 </r>
       <r>    -5.8708     0.0000    12.0000 </r>
       <r>    -5.7162     0.0000    12.0000 </r>
       <r>    -5.5616     0.0000    12.0000 </r>
       <r>    -5.4070     0.0000    12.0000 </r>
       <r>    -5.2524     0.0000    12.0000 </r>
       <r>    -5.0978     0.0000    12.0000 </r>
       <r>    -4.9432     0.0000    12.0000 </r>
       <r>    -4.7886     0.0000    12.0000 </r>
       <r>    -4.6340     0.0000    12.0000 </r>
       <r>    -4.4794     0.0000    12.0000 </r>
       <r>    -4.3248     0.0000    12.0000 </r>
       <r>    -4.1702     0.0000    12.0000 </r>
       <r>    -4.0156     0.0000    12.0000 </r>
       <r>    -3.8610     0.0000    12.0000 </r>
       <r>    -3.7064     0.0000    12.0000 </r>
       <r>    -3.5518     0.0000    12.0000 </r>
       <r>    -3.3972     0.0000    12.0000 </r>
       <r>    -3.2426     0.0000    12.0000 </r>
       <r>    -3.0880     0.0000    12.0000 </r>
       <r>    -2.9334     0.0000    12.0000 </r>
       <r>    -2.7788     0.0000    12.0000 </r>
       <r>    -2.6242     0.0000    12.0000 </r>
       <r>    -2.4696     0.0000    12.0000 </r>
       <r>    -2.3150     0.0000    12.0000 </r>
       <r>    -2.1603     0.0000    12.0000 </r>
       <r>    -2.0057     0.0000    12.0000 </r>
       <r>    -1.8511     0.0000    12.0000 </r>
       <r>    -1.6965     0.0000    12.0000 </r>
       <r>    -1.5419     0.0000    12.0000 </r>
       <r>    -1.3873     0.0000    12.0000 </r>
       <r>    -1.2327     0.0000    12.1866 </r>
       <r>    -1.0781     0.4972    12.2984 </r>
       <r>    -0.9235     0.9048    12.9912 </r>
       <r>    -0.7689     0.0000    13.3411 </r>
       <r>    -0.6143     0.9051    13.6676 </r>
       <r>    -0.4597     0.0000    13.8426 </r>
       <r>    -0.3051     0.0000    13.9825 </r>
       <r>    -0.1505     0.0000    14.1924 </r>
       <r>     0.0041     0.0000    14.2624 </r>
       <r>     0.1587     0.0000    14.7522 </r>
       <r>     0.3133     0.0000    14.7522 </r>
       <r>     0.4679     0.0000    15.3819 </r>
       <r>     0.6225     0.0000    15.8134 </r>
       <r>     0.7771     0.4399    16.5811 </r>
       <r>     0.9317     0.0000    16.5831 </r>
       <r>     1.0863     0.0000    17.4227 </r>
       <r>     1.2409     0.0000    17.6560 </r>
       <r>     1.3956     0.4523    17.8892 </r>
       <r>     1.5502     0.0000    18.0000 </r>
       <r>     1.7048     0.0000    18.0000 </r>
       <r>     1.8594     0.0000    18.0000 </r>
       <r>     2.0140     0.0000    18.0000 </r>
       <r>     2.1686     0.0000    18.0000 </r>
       <r>     2.3232     0.0000    18.0000 </r>
       <r>     2.4778     0.0000    18.0000 </r>
       <r>     2.6324     0.0000    18.0000 </r>
       <r>     2.7870     0.0000    18.0000 </r>
       <r>     2.9416     0.0000    18.0000 </r>
       <r>     3.0962     0.0000    18.0000 </r>
       <r>     3.2508     0.0000    18.0000 </r>
       <r>     3.4054     0.0000    18.0000 </r>
       <r>     3.5600     0.0000    18.0000 </r>
       <r>     3.7146     0.0000    18.0058 </r>
       <r>     3.8692     0.0000    18.0058 </r>
       <r>     4.0238     0.0000    18.0058 </r>
       <r>     4.1784     0.0000    18.0058 </r>
       <r>     4.3330     0.0000    18.0058 </r>
       <r>     4.4876     0.0000    18.0058 </r>
       <r>     4.6422     0.0000    18.0058 </r>
       <r>     4.7968     0.0000    18.0525 </r>
       <r>     4.9514     0.0000    18.0525 </r>
       <r>     5.1061     0.0000    18.0875 </r>
       <r>     5.2607     0.0000    18.0875 </r>
       <r>     5.4153     0.0000    18.0875 </r>
       <r>     5.5699     0.0000    18.0875 </r>
       <r>     5.7245     0.0000    18.0875 </r>
       <r>     5.8791     0.0000    18.2041 </r>
       <r>     6.0337     0.0000    18.2507 </r>
       <r>     6.1883     0.0000    18.2507 </r>
       <r>     6.3429     0.0000    18.3907 </r>
       <r>     6.4975     0.0000    18.4257 </r>
       <r>     6.6521     0.0000    18.4956 </r>
       <r>     6.8067     0.0024    18.8109 </r>
       <r>     6.9613     0.0000    19.0904 </r>
       <r>     7.1159     0.0000    19.0904 </r>
       <r>     7.2705     0.0000    19.5102 </r>
       <r>     7.4251     0.0000    19.5102 </r>
       <r>     7.5797     0.0000    19.5802 </r>
       <r>     7.7343     0.0000    19.6152 </r>
       <r>     7.8889     0.0000    20.0350 </r>
       <r>     8.0435     0.0000    20.0350 </r>
       <r>     8.1981     0.0000    20.1399 </r>
       <r>     8.3527     0.9032    20.2796 </r>
       <r>     8.5073     0.0000    20.2799 </r>
       <r>     8.6620     0.0000    20.6997 </r>
       <r>     8.8166     0.0000    20.6997 </r>
       <r>     8.9712     0.0000    20.8397 </r>
       <r>     9.1258     0.0000    21.2595 </r>
       <r>     9.2804     0.0000    21.5044 </r>
       <r>     9.4350     0.0000    21.8542 </r>
       <r>     9.5896     0.0000    21.9942 </r>
       <r>     9.7442     0.0000    22.0408 </r>
       <r>     9.8988     0.0000    22.2157 </r>
       <r>    10.0534     0.0000    22.2157 </r>
       <r>    10.2080     0.0000    22.8222 </r>
       <r>    10.3626     0.9052    23.6152 </r>
       <r>    10.5172     0.0000    23.6152 </r>
       <r>    10.6718     0.0000    24.0525 </r>
       <r>    10.8264     0.0000    24.1924 </r>
       <r>    10.9810     0.0000    24.4606 </r>
       <r>    11.1356     0.0000    24.5364 </r>
       <r>    11.2902     0.0000    24.6764 </r>
       <r>    11.4448     0.0000    24.9329 </r>
       <r>    11.5994     0.0000    24.9329 </r>
       <r>    11.7540     0.0000    25.2128 </r>
       <r>    11.9086     0.0000    25.6327 </r>
       <r>    12.0632     0.0000    25.6327 </r>
       <r>    12.2178     0.0000    26.0058 </r>
       <r>    12.3725     0.0000    26.3907 </r>
       <r>    12.5271     0.0000    26.6706 </r>
       <r>    12.6817     0.0000    27.4402 </r>
       <r>    12.8363     0.0000    27.4402 </r>
       <r>    12.9909     0.0000    27.4402 </r>
       <r>    13.1455     0.0000    27.4402 </r>
       <r>    13.3001     0.0000    27.5102 </r>
       <r>    13.4547     0.0000    27.6501 </r>
       <r>    13.6093     0.0000    27.7901 </r>
       <r>    13.7639     0.0000    27.8601 </r>
       <r>    13.9185     0.0000    28.0000 </r>
       <r>    14.0731     0.0000    28.0000 </r>
       <r>    14.2277     0.0000    28.0000 </r>
       <r>    14.3823     0.0000    28.0000 </r>
       <r>    14.5369     0.0000    28.0000 </r>
       <r>    14.6915     0.0000    28.0000 </r>
       <r>    14.8461     0.0000    28.0000 </r>
       <r>    15.0007     0.0000    28.0000 </r>
       <r>    15.1553     0.0000    28.0000 </r>
       <r>    15.3099     0.0000    28.0000 </r>
       <r>    15.4645     0.0000    28.0000 </r>
       <r>    15.6191     0.0000    28.0000 </r>
       <r>    15.7737     0.0000    28.0000 </r>
       <r>    15.9283     0.0000    28.0000 </r>
      </set>
     </set>
    </array>
   </total>
  </dos>
 </calculation>
 <structure name="finalpos" >
  <crystal>
   <varray name="basis" >
    <v>       4.39635018       0.00000000       0.00000000 </v>
    <v>       2.19817509       3.80735094      -0.00000000 </v>
    <v>       2.19817509       1.26911698       3.58960489 </v>
   </varray>
   <i name="volume">     60.08441465 </i>
   <varray name="rec_basis" >
    <v>       0.22746141      -0.13132490      -0.09286073 </v>
    <v>       0.00000000       0.26264981      -0.09286073 </v>
    <v>      -0.00000000       0.00000000       0.27858219 </v>
   </varray>
  </crystal>
  <varray name="positions" >
   <v>       0.00000000       0.00000000       0.00000000 </v>
  </varray>
  <varray name="velocities" >
   <v>       0.00000000       0.00000000       0.00000000 </v>
  </varray>
 </structure>
</modeling>
