Og_FCC                                  
           1
     4.342346    0.000000    0.000000
     2.171173    3.760582   -0.000000
     2.171173    1.253527    3.545511
   Og
   1
Direct configuration=     1
   0.00000000  0.00000000  0.00000000
