   1   1   0   0
  0.6083477E+02  0.4414576E-09  0.4414576E-09  0.4414576E-09  0.1000000E-15
  1.000000000000000E-004
  CAR 
 Og_FCC                                  
    131.19863819    -49.49155545  301     -1.75922930      1.00000000
    -49.492  0.0000E+00  0.0000E+00
    -48.889  0.0000E+00  0.0000E+00
    -48.287  0.0000E+00  0.0000E+00
    -47.685  0.0000E+00  0.0000E+00
    -47.082  0.0000E+00  0.0000E+00
    -46.480  0.0000E+00  0.0000E+00
    -45.878  0.0000E+00  0.0000E+00
    -45.275  0.0000E+00  0.0000E+00
    -44.673  0.0000E+00  0.0000E+00
    -44.071  0.0000E+00  0.0000E+00
    -43.469  0.0000E+00  0.0000E+00
    -42.866  0.0000E+00  0.0000E+00
    -42.264  0.0000E+00  0.0000E+00
    -41.662  0.0000E+00  0.0000E+00
    -41.059  0.0000E+00  0.1000E+02
    -40.457  0.0000E+00  0.1000E+02
    -39.855  0.0000E+00  0.1000E+02
    -39.252  0.0000E+00  0.1000E+02
    -38.650  0.0000E+00  0.1000E+02
    -38.048  0.0000E+00  0.1000E+02
    -37.446  0.0000E+00  0.1000E+02
    -36.843  0.0000E+00  0.1000E+02
    -36.241  0.0000E+00  0.1000E+02
    -35.639  0.0000E+00  0.1000E+02
    -35.036  0.0000E+00  0.1000E+02
    -34.434  0.0000E+00  0.1000E+02
    -33.832  0.0000E+00  0.1000E+02
    -33.229  0.0000E+00  0.1000E+02
    -32.627  0.0000E+00  0.1000E+02
    -32.025  0.0000E+00  0.1000E+02
    -31.423  0.0000E+00  0.1000E+02
    -30.820  0.0000E+00  0.1000E+02
    -30.218  0.0000E+00  0.1000E+02
    -29.616  0.0000E+00  0.1000E+02
    -29.013  0.0000E+00  0.1000E+02
    -28.411  0.0000E+00  0.1000E+02
    -27.809  0.0000E+00  0.1000E+02
    -27.206  0.0000E+00  0.1000E+02
    -26.604  0.0000E+00  0.1000E+02
    -26.002  0.0000E+00  0.1000E+02
    -25.400  0.0000E+00  0.1000E+02
    -24.797  0.0000E+00  0.1000E+02
    -24.195  0.0000E+00  0.1000E+02
    -23.593  0.0000E+00  0.1000E+02
    -22.990  0.0000E+00  0.1000E+02
    -22.388  0.0000E+00  0.1000E+02
    -21.786  0.0000E+00  0.1000E+02
    -21.183  0.0000E+00  0.1000E+02
    -20.581  0.0000E+00  0.1000E+02
    -19.979  0.0000E+00  0.1000E+02
    -19.377  0.0000E+00  0.1000E+02
    -18.774  0.0000E+00  0.1000E+02
    -18.172  0.0000E+00  0.1000E+02
    -17.570  0.0000E+00  0.1000E+02
    -16.967  0.2323E+00  0.1066E+02
    -16.365  0.0000E+00  0.1200E+02
    -15.763  0.0000E+00  0.1200E+02
    -15.160  0.0000E+00  0.1200E+02
    -14.558  0.0000E+00  0.1200E+02
    -13.956  0.0000E+00  0.1200E+02
    -13.354  0.0000E+00  0.1200E+02
    -12.751  0.0000E+00  0.1200E+02
    -12.149  0.0000E+00  0.1200E+02
    -11.547  0.0000E+00  0.1200E+02
    -10.944  0.0000E+00  0.1200E+02
    -10.342  0.0000E+00  0.1200E+02
     -9.740  0.0000E+00  0.1200E+02
     -9.137  0.0000E+00  0.1200E+02
     -8.535  0.0000E+00  0.1200E+02
     -7.933  0.0000E+00  0.1200E+02
     -7.331  0.0000E+00  0.1200E+02
     -6.728  0.0000E+00  0.1200E+02
     -6.126  0.0000E+00  0.1200E+02
     -5.524  0.0000E+00  0.1200E+02
     -4.921  0.0000E+00  0.1200E+02
     -4.319  0.0000E+00  0.1200E+02
     -3.717  0.1564E-03  0.1222E+02
     -3.114  0.2323E+00  0.1398E+02
     -2.512  0.4636E+00  0.1587E+02
     -1.910  0.0000E+00  0.1800E+02
     -1.308  0.0000E+00  0.1800E+02
     -0.705  0.0000E+00  0.1800E+02
     -0.103  0.0000E+00  0.1800E+02
      0.499  0.0000E+00  0.1800E+02
      1.102  0.0000E+00  0.1800E+02
      1.704  0.0000E+00  0.1800E+02
      2.306  0.0000E+00  0.1800E+02
      2.909  0.0000E+00  0.1801E+02
      3.511  0.0000E+00  0.1801E+02
      4.113  0.0000E+00  0.1809E+02
      4.716  0.5452E-02  0.1829E+02
      5.318  0.0000E+00  0.1923E+02
      5.920  0.0000E+00  0.1983E+02
      6.522  0.0000E+00  0.2070E+02
      7.125  0.5809E-01  0.2185E+02
      7.727  0.0000E+00  0.2272E+02
      8.329  0.6342E-06  0.2401E+02
      8.932  0.0000E+00  0.2495E+02
      9.534  0.5834E-04  0.2558E+02
     10.136  0.0000E+00  0.2665E+02
     10.739  0.0000E+00  0.2745E+02
     11.341  0.1294E-12  0.2816E+02
     11.943  0.0000E+00  0.3005E+02
     12.545  0.0000E+00  0.3077E+02
     13.148  0.0000E+00  0.3133E+02
     13.750  0.0000E+00  0.3240E+02
     14.352  0.2323E+00  0.3457E+02
     14.955  0.0000E+00  0.3546E+02
     15.557  0.0000E+00  0.3766E+02
     16.159  0.0000E+00  0.3844E+02
     16.762  0.0000E+00  0.3994E+02
     17.364  0.0000E+00  0.4288E+02
     17.966  0.0000E+00  0.4466E+02
     18.568  0.0000E+00  0.4549E+02
     19.171  0.0000E+00  0.4636E+02
     19.773  0.0000E+00  0.4706E+02
     20.375  0.0000E+00  0.4864E+02
     20.978  0.5129E-12  0.4978E+02
     21.580  0.0000E+00  0.5181E+02
     22.182  0.0000E+00  0.5372E+02
     22.785  0.4385E-15  0.5553E+02
     23.387  0.0000E+00  0.5708E+02
     23.989  0.0000E+00  0.5777E+02
     24.591  0.7745E-01  0.5949E+02
     25.194  0.0000E+00  0.6061E+02
     25.796  0.0000E+00  0.6140E+02
     26.398  0.0000E+00  0.6278E+02
     27.001  0.5823E-01  0.6434E+02
     27.603  0.0000E+00  0.6612E+02
     28.205  0.2323E+00  0.6882E+02
     28.808  0.0000E+00  0.6963E+02
     29.410  0.0000E+00  0.7184E+02
     30.012  0.0000E+00  0.7263E+02
     30.614  0.1175E+00  0.7330E+02
     31.217  0.0000E+00  0.7499E+02
     31.819  0.0000E+00  0.7694E+02
     32.421  0.4647E+00  0.7932E+02
     33.024  0.5161E-02  0.8087E+02
     33.626  0.5786E-01  0.8247E+02
     34.228  0.0000E+00  0.8391E+02
     34.831  0.1336E-01  0.8518E+02
     35.433  0.0000E+00  0.8699E+02
     36.035  0.2323E+00  0.8860E+02
     36.637  0.0000E+00  0.8958E+02
     37.240  0.1549E+00  0.9110E+02
     37.842  0.0000E+00  0.9318E+02
     38.444  0.0000E+00  0.9517E+02
     39.047  0.1605E+00  0.9661E+02
     39.649  0.0000E+00  0.9804E+02
     40.251  0.0000E+00  0.9994E+02
     40.854  0.3480E-03  0.1014E+03
     41.456  0.0000E+00  0.1040E+03
     42.058  0.5809E-01  0.1053E+03
     42.660  0.1162E+00  0.1069E+03
     43.263  0.0000E+00  0.1088E+03
     43.865  0.0000E+00  0.1110E+03
     44.467  0.0000E+00  0.1127E+03
     45.070  0.3098E+00  0.1145E+03
     45.672  0.0000E+00  0.1161E+03
     46.274  0.0000E+00  0.1182E+03
     46.877  0.0000E+00  0.1193E+03
     47.479  0.0000E+00  0.1211E+03
     48.081  0.0000E+00  0.1229E+03
     48.683  0.1162E+00  0.1252E+03
     49.286  0.1162E+00  0.1268E+03
     49.888  0.0000E+00  0.1285E+03
     50.490  0.0000E+00  0.1306E+03
     51.093  0.1732E-12  0.1325E+03
     51.695  0.9703E-04  0.1345E+03
     52.297  0.2323E+00  0.1364E+03
     52.900  0.2323E+00  0.1383E+03
     53.502  0.1162E+00  0.1396E+03
     54.104  0.2323E+00  0.1415E+03
     54.706  0.0000E+00  0.1433E+03
     55.309  0.0000E+00  0.1454E+03
     55.911  0.0000E+00  0.1478E+03
     56.513  0.0000E+00  0.1493E+03
     57.116  0.0000E+00  0.1513E+03
     57.718  0.0000E+00  0.1531E+03
     58.320  0.0000E+00  0.1555E+03
     58.923  0.0000E+00  0.1572E+03
     59.525  0.0000E+00  0.1601E+03
     60.127  0.0000E+00  0.1618E+03
     60.729  0.1549E+00  0.1636E+03
     61.332  0.0000E+00  0.1660E+03
     61.934  0.2323E+00  0.1688E+03
     62.536  0.0000E+00  0.1710E+03
     63.139  0.0000E+00  0.1727E+03
     63.741  0.0000E+00  0.1739E+03
     64.343  0.1162E+00  0.1756E+03
     64.946  0.0000E+00  0.1782E+03
     65.548  0.0000E+00  0.1808E+03
     66.150  0.0000E+00  0.1828E+03
     66.752  0.0000E+00  0.1845E+03
     67.355  0.0000E+00  0.1866E+03
     67.957  0.0000E+00  0.1885E+03
     68.559  0.0000E+00  0.1913E+03
     69.162  0.0000E+00  0.1932E+03
     69.764  0.0000E+00  0.1951E+03
     70.366  0.0000E+00  0.1972E+03
     70.969  0.0000E+00  0.1992E+03
     71.571  0.0000E+00  0.2020E+03
     72.173  0.0000E+00  0.2043E+03
     72.775  0.5809E-01  0.2063E+03
     73.378  0.1158E+00  0.2085E+03
     73.980  0.5615E-08  0.2107E+03
     74.582  0.0000E+00  0.2132E+03
     75.185  0.0000E+00  0.2152E+03
     75.787  0.0000E+00  0.2174E+03
     76.389  0.2323E+00  0.2202E+03
     76.992  0.0000E+00  0.2222E+03
     77.594  0.0000E+00  0.2244E+03
     78.196  0.0000E+00  0.2272E+03
     78.798  0.2323E+00  0.2287E+03
     79.401  0.0000E+00  0.2312E+03
     80.003  0.0000E+00  0.2331E+03
     80.605  0.0000E+00  0.2357E+03
     81.208  0.0000E+00  0.2380E+03
     81.810  0.0000E+00  0.2400E+03
     82.412  0.0000E+00  0.2425E+03
     83.015  0.0000E+00  0.2450E+03
     83.617  0.0000E+00  0.2476E+03
     84.219  0.3611E-15  0.2501E+03
     84.821  0.7379E-01  0.2526E+03
     85.424  0.0000E+00  0.2550E+03
     86.026  0.1548E-15  0.2576E+03
     86.628  0.0000E+00  0.2602E+03
     87.231  0.0000E+00  0.2621E+03
     87.833  0.1558E+00  0.2642E+03
     88.435  0.0000E+00  0.2669E+03
     89.038  0.0000E+00  0.2692E+03
     89.640  0.2323E+00  0.2718E+03
     90.242  0.2323E+00  0.2736E+03
     90.844  0.0000E+00  0.2763E+03
     91.447  0.0000E+00  0.2795E+03
     92.049  0.0000E+00  0.2815E+03
     92.651  0.0000E+00  0.2839E+03
     93.254  0.0000E+00  0.2864E+03
     93.856  0.0000E+00  0.2893E+03
     94.458  0.0000E+00  0.2913E+03
     95.061  0.0000E+00  0.2937E+03
     95.663  0.0000E+00  0.2967E+03
     96.265  0.0000E+00  0.2991E+03
     96.868  0.8272E-09  0.3010E+03
     97.470  0.2323E+00  0.3039E+03
     98.072  0.0000E+00  0.3061E+03
     98.674  0.0000E+00  0.3088E+03
     99.277  0.0000E+00  0.3115E+03
     99.879  0.0000E+00  0.3144E+03
    100.481  0.0000E+00  0.3171E+03
    101.084  0.0000E+00  0.3191E+03
    101.686  0.1005E-02  0.3214E+03
    102.288  0.0000E+00  0.3239E+03
    102.891  0.0000E+00  0.3265E+03
    103.493  0.0000E+00  0.3293E+03
    104.095  0.0000E+00  0.3323E+03
    104.697  0.0000E+00  0.3349E+03
    105.300  0.5877E-04  0.3372E+03
    105.902  0.2287E+00  0.3399E+03
    106.504  0.0000E+00  0.3425E+03
    107.107  0.0000E+00  0.3450E+03
    107.709  0.7135E-02  0.3487E+03
    108.311  0.1719E-01  0.3511E+03
    108.914  0.0000E+00  0.3542E+03
    109.516  0.1162E+00  0.3573E+03
    110.118  0.0000E+00  0.3590E+03
    110.720  0.3098E+00  0.3610E+03
    111.323  0.0000E+00  0.3640E+03
    111.925  0.6351E-01  0.3667E+03
    112.527  0.0000E+00  0.3684E+03
    113.130  0.4647E+00  0.3724E+03
    113.732  0.0000E+00  0.3745E+03
    114.334  0.1497E-05  0.3779E+03
    114.937  0.0000E+00  0.3805E+03
    115.539  0.0000E+00  0.3836E+03
    116.141  0.2580E-16  0.3858E+03
    116.743  0.5731E-11  0.3884E+03
    117.346  0.0000E+00  0.3900E+03
    117.948  0.1162E+00  0.3909E+03
    118.550  0.3782E-02  0.3912E+03
    119.153  0.0000E+00  0.3915E+03
    119.755  0.0000E+00  0.3917E+03
    120.357  0.0000E+00  0.3917E+03
    120.960  0.0000E+00  0.3918E+03
    121.562  0.0000E+00  0.3919E+03
    122.164  0.0000E+00  0.3919E+03
    122.766  0.0000E+00  0.3920E+03
    123.369  0.0000E+00  0.3920E+03
    123.971  0.0000E+00  0.3920E+03
    124.573  0.0000E+00  0.3920E+03
    125.176  0.0000E+00  0.3920E+03
    125.778  0.0000E+00  0.3920E+03
    126.380  0.0000E+00  0.3920E+03
    126.983  0.0000E+00  0.3920E+03
    127.585  0.0000E+00  0.3920E+03
    128.187  0.0000E+00  0.3920E+03
    128.789  0.0000E+00  0.3920E+03
    129.392  0.0000E+00  0.3920E+03
    129.994  0.0000E+00  0.3920E+03
    130.596  0.0000E+00  0.3920E+03
    131.199  0.0000E+00  0.3920E+03
