<?xml version="1.0" encoding="ISO-8859-1"?>
<modeling>
 <generator>
  <i name="program" type="string">vasp </i>
  <i name="version" type="string">5.4.4.18Apr17-6-g9f103f2a35  </i>
  <i name="subversion" type="string">(build Nov 03 2018 10:20:46) complex            parallel </i>
  <i name="platform" type="string">LinuxIFC </i>
  <i name="date" type="string">2018 12 21 </i>
  <i name="time" type="string">18:35:43 </i>
 </generator>
 <incar>
  <i type="string" name="SYSTEM">   Og_FCC</i>
  <i type="string" name="PREC">accurate</i>
  <i type="string" name="ALGO">   EXACT</i>
  <i type="logical" name="ADDGRID"> T  </i>
  <i type="logical" name="LSORBIT"> F  </i>
  <i type="int" name="ISPIN">     1</i>
  <i type="int" name="MAXMIX">    50</i>
  <i type="int" name="NELM">    50</i>
  <i type="int" name="NELMDL">    -5</i>
  <i type="int" name="NELMIN">     2</i>
  <i type="int" name="IBRION">    -1</i>
  <i type="int" name="NFREE">     5</i>
  <i name="EDIFF">      0.00000001</i>
  <i name="EDIFFG">      0.00001000</i>
  <i type="int" name="NSW">     1</i>
  <i type="int" name="ISIF">     3</i>
  <i type="int" name="ISYM">     0</i>
  <i name="SYMPREC">      0.00000010</i>
  <i name="ENCUT">    300.00000000</i>
  <i type="int" name="NBANDS">   196</i>
  <i name="POTIM">      0.10000000</i>
  <i type="logical" name="LREAL"> F  </i>
  <i type="int" name="ISMEAR">     0</i>
  <i name="SIGMA">      0.00100000</i>
  <i type="int" name="NWRITE">     2</i>
  <i type="logical" name="LWAVE"> T  </i>
  <i type="logical" name="LCHARG"> F  </i>
  <i type="logical" name="LVTOT"> F  </i>
  <i type="logical" name="LOPTICS"> T  </i>
  <i type="logical" name="GGA_COMPAT"> F  </i>
  <v type="int" name="KPOINT_BSE">    -1     0     0     0</v>
  <i type="int" name="NELM">    50</i>
  <i type="string" name="GGA"> PE</i>
 </incar>
 <structure name="primitive_cell" >
  <crystal>
   <varray name="basis" >
    <v>       4.41457561       0.00000000       0.00000000 </v>
    <v>       2.20728780       3.82313462      -0.00000000 </v>
    <v>       2.20728780       1.27437821       3.60448589 </v>
   </varray>
   <i name="volume">     60.83477135 </i>
   <varray name="rec_basis" >
    <v>       0.22652234      -0.13078273      -0.09247736 </v>
    <v>       0.00000000       0.26156547      -0.09247736 </v>
    <v>      -0.00000000       0.00000000       0.27743208 </v>
   </varray>
  </crystal>
  <varray name="positions" >
   <v>       0.00000000       0.00000000       0.00000000 </v>
  </varray>
 </structure>
 <varray name="primitive_index" >
  <v type="int" >        1 </v>
 </varray>
 <kpoints>
  <generation param="Gamma">
   <v type="int" name="divisions">       7        7        7 </v>
   <v name="usershift">      0.00000000       0.00000000       0.00000000 </v>
   <v name="genvec1">      0.14285714      -0.00000000       0.00000000 </v>
   <v name="genvec2">      0.00000000       0.14285714       0.00000000 </v>
   <v name="genvec3">     -0.00000000       0.00000000       0.14285714 </v>
   <v name="shift">      0.00000000       0.00000000       0.00000000 </v>
  </generation>
  <varray name="kpointlist" >
   <v>       0.00000000       0.00000000       0.00000000 </v>
   <v>       0.14285714      -0.00000000      -0.00000000 </v>
   <v>       0.28571429       0.00000000      -0.00000000 </v>
   <v>       0.42857143       0.00000000       0.00000000 </v>
   <v>       0.00000000       0.14285714       0.00000000 </v>
   <v>       0.14285714       0.14285714      -0.00000000 </v>
   <v>       0.28571429       0.14285714      -0.00000000 </v>
   <v>       0.42857143       0.14285714       0.00000000 </v>
   <v>      -0.42857143       0.14285714      -0.00000000 </v>
   <v>      -0.28571429       0.14285714       0.00000000 </v>
   <v>      -0.14285714       0.14285714      -0.00000000 </v>
   <v>       0.00000000       0.28571429       0.00000000 </v>
   <v>       0.14285714       0.28571429      -0.00000000 </v>
   <v>       0.28571429       0.28571429      -0.00000000 </v>
   <v>       0.42857143       0.28571429       0.00000000 </v>
   <v>      -0.42857143       0.28571429       0.00000000 </v>
   <v>      -0.28571429       0.28571429       0.00000000 </v>
   <v>      -0.14285714       0.28571429      -0.00000000 </v>
   <v>       0.00000000       0.42857143       0.00000000 </v>
   <v>       0.14285714       0.42857143       0.00000000 </v>
   <v>       0.28571429       0.42857143       0.00000000 </v>
   <v>       0.42857143       0.42857143       0.00000000 </v>
   <v>      -0.42857143       0.42857143      -0.00000000 </v>
   <v>      -0.28571429       0.42857143      -0.00000000 </v>
   <v>      -0.14285714       0.42857143       0.00000000 </v>
   <v>       0.00000000       0.00000000       0.14285714 </v>
   <v>       0.14285714      -0.00000000       0.14285714 </v>
   <v>       0.28571429      -0.00000000       0.14285714 </v>
   <v>       0.42857143       0.00000000       0.14285714 </v>
   <v>      -0.42857143      -0.00000000       0.14285714 </v>
   <v>      -0.28571429      -0.00000000       0.14285714 </v>
   <v>      -0.14285714       0.00000000       0.14285714 </v>
   <v>      -0.00000000       0.14285714       0.14285714 </v>
   <v>       0.14285714       0.14285714       0.14285714 </v>
   <v>       0.28571429       0.14285714       0.14285714 </v>
   <v>       0.42857143       0.14285714       0.14285714 </v>
   <v>      -0.42857143       0.14285714       0.14285714 </v>
   <v>      -0.28571429       0.14285714       0.14285714 </v>
   <v>      -0.14285714       0.14285714       0.14285714 </v>
   <v>      -0.00000000       0.28571429       0.14285714 </v>
   <v>       0.14285714       0.28571429       0.14285714 </v>
   <v>       0.28571429       0.28571429       0.14285714 </v>
   <v>       0.42857143       0.28571429       0.14285714 </v>
   <v>      -0.42857143       0.28571429       0.14285714 </v>
   <v>      -0.28571429       0.28571429       0.14285714 </v>
   <v>      -0.14285714       0.28571429       0.14285714 </v>
   <v>      -0.00000000       0.42857143       0.14285714 </v>
   <v>       0.14285714       0.42857143       0.14285714 </v>
   <v>       0.28571429       0.42857143       0.14285714 </v>
   <v>       0.42857143       0.42857143       0.14285714 </v>
   <v>      -0.42857143       0.42857143       0.14285714 </v>
   <v>      -0.28571429       0.42857143       0.14285714 </v>
   <v>      -0.14285714       0.42857143       0.14285714 </v>
   <v>       0.00000000      -0.42857143       0.14285714 </v>
   <v>       0.14285714      -0.42857143       0.14285714 </v>
   <v>       0.28571429      -0.42857143       0.14285714 </v>
   <v>       0.42857143      -0.42857143       0.14285714 </v>
   <v>      -0.42857143      -0.42857143       0.14285714 </v>
   <v>      -0.28571429      -0.42857143       0.14285714 </v>
   <v>      -0.14285714      -0.42857143       0.14285714 </v>
   <v>       0.00000000      -0.28571429       0.14285714 </v>
   <v>       0.14285714      -0.28571429       0.14285714 </v>
   <v>       0.28571429      -0.28571429       0.14285714 </v>
   <v>       0.42857143      -0.28571429       0.14285714 </v>
   <v>      -0.42857143      -0.28571429       0.14285714 </v>
   <v>      -0.28571429      -0.28571429       0.14285714 </v>
   <v>      -0.14285714      -0.28571429       0.14285714 </v>
   <v>      -0.00000000      -0.14285714       0.14285714 </v>
   <v>       0.14285714      -0.14285714       0.14285714 </v>
   <v>       0.28571429      -0.14285714       0.14285714 </v>
   <v>       0.42857143      -0.14285714       0.14285714 </v>
   <v>      -0.42857143      -0.14285714       0.14285714 </v>
   <v>      -0.28571429      -0.14285714       0.14285714 </v>
   <v>      -0.14285714      -0.14285714       0.14285714 </v>
   <v>       0.00000000       0.00000000       0.28571429 </v>
   <v>       0.14285714       0.00000000       0.28571429 </v>
   <v>       0.28571429      -0.00000000       0.28571429 </v>
   <v>       0.42857143      -0.00000000       0.28571429 </v>
   <v>      -0.42857143      -0.00000000       0.28571429 </v>
   <v>      -0.28571429      -0.00000000       0.28571429 </v>
   <v>      -0.14285714       0.00000000       0.28571429 </v>
   <v>      -0.00000000       0.14285714       0.28571429 </v>
   <v>       0.14285714       0.14285714       0.28571429 </v>
   <v>       0.28571429       0.14285714       0.28571429 </v>
   <v>       0.42857143       0.14285714       0.28571429 </v>
   <v>      -0.42857143       0.14285714       0.28571429 </v>
   <v>      -0.28571429       0.14285714       0.28571429 </v>
   <v>      -0.14285714       0.14285714       0.28571429 </v>
   <v>      -0.00000000       0.28571429       0.28571429 </v>
   <v>       0.14285714       0.28571429       0.28571429 </v>
   <v>       0.28571429       0.28571429       0.28571429 </v>
   <v>       0.42857143       0.28571429       0.28571429 </v>
   <v>      -0.42857143       0.28571429       0.28571429 </v>
   <v>      -0.28571429       0.28571429       0.28571429 </v>
   <v>      -0.14285714       0.28571429       0.28571429 </v>
   <v>      -0.00000000       0.42857143       0.28571429 </v>
   <v>       0.14285714       0.42857143       0.28571429 </v>
   <v>       0.28571429       0.42857143       0.28571429 </v>
   <v>       0.42857143       0.42857143       0.28571429 </v>
   <v>      -0.42857143       0.42857143       0.28571429 </v>
   <v>      -0.28571429       0.42857143       0.28571429 </v>
   <v>      -0.14285714       0.42857143       0.28571429 </v>
   <v>       0.00000000      -0.42857143       0.28571429 </v>
   <v>       0.14285714      -0.42857143       0.28571429 </v>
   <v>       0.28571429      -0.42857143       0.28571429 </v>
   <v>       0.42857143      -0.42857143       0.28571429 </v>
   <v>      -0.42857143      -0.42857143       0.28571429 </v>
   <v>      -0.28571429      -0.42857143       0.28571429 </v>
   <v>      -0.14285714      -0.42857143       0.28571429 </v>
   <v>      -0.00000000      -0.28571429       0.28571429 </v>
   <v>       0.14285714      -0.28571429       0.28571429 </v>
   <v>       0.28571429      -0.28571429       0.28571429 </v>
   <v>       0.42857143      -0.28571429       0.28571429 </v>
   <v>      -0.42857143      -0.28571429       0.28571429 </v>
   <v>      -0.28571429      -0.28571429       0.28571429 </v>
   <v>      -0.14285714      -0.28571429       0.28571429 </v>
   <v>       0.00000000      -0.14285714       0.28571429 </v>
   <v>       0.14285714      -0.14285714       0.28571429 </v>
   <v>       0.28571429      -0.14285714       0.28571429 </v>
   <v>       0.42857143      -0.14285714       0.28571429 </v>
   <v>      -0.42857143      -0.14285714       0.28571429 </v>
   <v>      -0.28571429      -0.14285714       0.28571429 </v>
   <v>      -0.14285714      -0.14285714       0.28571429 </v>
   <v>      -0.00000000       0.00000000       0.42857143 </v>
   <v>       0.14285714      -0.00000000       0.42857143 </v>
   <v>       0.28571429       0.00000000       0.42857143 </v>
   <v>       0.42857143       0.00000000       0.42857143 </v>
   <v>      -0.42857143       0.00000000       0.42857143 </v>
   <v>      -0.28571429       0.00000000       0.42857143 </v>
   <v>      -0.14285714       0.00000000       0.42857143 </v>
   <v>      -0.00000000       0.14285714       0.42857143 </v>
   <v>       0.14285714       0.14285714       0.42857143 </v>
   <v>       0.28571429       0.14285714       0.42857143 </v>
   <v>       0.42857143       0.14285714       0.42857143 </v>
   <v>      -0.42857143       0.14285714       0.42857143 </v>
   <v>      -0.28571429       0.14285714       0.42857143 </v>
   <v>      -0.14285714       0.14285714       0.42857143 </v>
   <v>      -0.00000000       0.28571429       0.42857143 </v>
   <v>       0.14285714       0.28571429       0.42857143 </v>
   <v>       0.28571429       0.28571429       0.42857143 </v>
   <v>       0.42857143       0.28571429       0.42857143 </v>
   <v>      -0.42857143       0.28571429       0.42857143 </v>
   <v>      -0.28571429       0.28571429       0.42857143 </v>
   <v>      -0.14285714       0.28571429       0.42857143 </v>
   <v>      -0.00000000       0.42857143       0.42857143 </v>
   <v>       0.14285714       0.42857143       0.42857143 </v>
   <v>       0.28571429       0.42857143       0.42857143 </v>
   <v>       0.42857143       0.42857143       0.42857143 </v>
   <v>      -0.42857143       0.42857143       0.42857143 </v>
   <v>      -0.28571429       0.42857143       0.42857143 </v>
   <v>      -0.14285714       0.42857143       0.42857143 </v>
   <v>      -0.00000000      -0.42857143       0.42857143 </v>
   <v>       0.14285714      -0.42857143       0.42857143 </v>
   <v>       0.28571429      -0.42857143       0.42857143 </v>
   <v>       0.42857143      -0.42857143       0.42857143 </v>
   <v>      -0.42857143      -0.42857143       0.42857143 </v>
   <v>      -0.28571429      -0.42857143       0.42857143 </v>
   <v>      -0.14285714      -0.42857143       0.42857143 </v>
   <v>      -0.00000000      -0.28571429       0.42857143 </v>
   <v>       0.14285714      -0.28571429       0.42857143 </v>
   <v>       0.28571429      -0.28571429       0.42857143 </v>
   <v>       0.42857143      -0.28571429       0.42857143 </v>
   <v>      -0.42857143      -0.28571429       0.42857143 </v>
   <v>      -0.28571429      -0.28571429       0.42857143 </v>
   <v>      -0.14285714      -0.28571429       0.42857143 </v>
   <v>      -0.00000000      -0.14285714       0.42857143 </v>
   <v>       0.14285714      -0.14285714       0.42857143 </v>
   <v>       0.28571429      -0.14285714       0.42857143 </v>
   <v>       0.42857143      -0.14285714       0.42857143 </v>
   <v>      -0.42857143      -0.14285714       0.42857143 </v>
   <v>      -0.28571429      -0.14285714       0.42857143 </v>
   <v>      -0.14285714      -0.14285714       0.42857143 </v>
  </varray>
  <varray name="weights" >
   <v>       0.00291545 </v>
   <v>       0.00583090 </v>
   <v>       0.00583090 </v>
   <v>       0.00583090 </v>
   <v>       0.00583090 </v>
   <v>       0.00583090 </v>
   <v>       0.00583090 </v>
   <v>       0.00583090 </v>
   <v>       0.00583090 </v>
   <v>       0.00583090 </v>
   <v>       0.00583090 </v>
   <v>       0.00583090 </v>
   <v>       0.00583090 </v>
   <v>       0.00583090 </v>
   <v>       0.00583090 </v>
   <v>       0.00583090 </v>
   <v>       0.00583090 </v>
   <v>       0.00583090 </v>
   <v>       0.00583090 </v>
   <v>       0.00583090 </v>
   <v>       0.00583090 </v>
   <v>       0.00583090 </v>
   <v>       0.00583090 </v>
   <v>       0.00583090 </v>
   <v>       0.00583090 </v>
   <v>       0.00583090 </v>
   <v>       0.00583090 </v>
   <v>       0.00583090 </v>
   <v>       0.00583090 </v>
   <v>       0.00583090 </v>
   <v>       0.00583090 </v>
   <v>       0.00583090 </v>
   <v>       0.00583090 </v>
   <v>       0.00583090 </v>
   <v>       0.00583090 </v>
   <v>       0.00583090 </v>
   <v>       0.00583090 </v>
   <v>       0.00583090 </v>
   <v>       0.00583090 </v>
   <v>       0.00583090 </v>
   <v>       0.00583090 </v>
   <v>       0.00583090 </v>
   <v>       0.00583090 </v>
   <v>       0.00583090 </v>
   <v>       0.00583090 </v>
   <v>       0.00583090 </v>
   <v>       0.00583090 </v>
   <v>       0.00583090 </v>
   <v>       0.00583090 </v>
   <v>       0.00583090 </v>
   <v>       0.00583090 </v>
   <v>       0.00583090 </v>
   <v>       0.00583090 </v>
   <v>       0.00583090 </v>
   <v>       0.00583090 </v>
   <v>       0.00583090 </v>
   <v>       0.00583090 </v>
   <v>       0.00583090 </v>
   <v>       0.00583090 </v>
   <v>       0.00583090 </v>
   <v>       0.00583090 </v>
   <v>       0.00583090 </v>
   <v>       0.00583090 </v>
   <v>       0.00583090 </v>
   <v>       0.00583090 </v>
   <v>       0.00583090 </v>
   <v>       0.00583090 </v>
   <v>       0.00583090 </v>
   <v>       0.00583090 </v>
   <v>       0.00583090 </v>
   <v>       0.00583090 </v>
   <v>       0.00583090 </v>
   <v>       0.00583090 </v>
   <v>       0.00583090 </v>
   <v>       0.00583090 </v>
   <v>       0.00583090 </v>
   <v>       0.00583090 </v>
   <v>       0.00583090 </v>
   <v>       0.00583090 </v>
   <v>       0.00583090 </v>
   <v>       0.00583090 </v>
   <v>       0.00583090 </v>
   <v>       0.00583090 </v>
   <v>       0.00583090 </v>
   <v>       0.00583090 </v>
   <v>       0.00583090 </v>
   <v>       0.00583090 </v>
   <v>       0.00583090 </v>
   <v>       0.00583090 </v>
   <v>       0.00583090 </v>
   <v>       0.00583090 </v>
   <v>       0.00583090 </v>
   <v>       0.00583090 </v>
   <v>       0.00583090 </v>
   <v>       0.00583090 </v>
   <v>       0.00583090 </v>
   <v>       0.00583090 </v>
   <v>       0.00583090 </v>
   <v>       0.00583090 </v>
   <v>       0.00583090 </v>
   <v>       0.00583090 </v>
   <v>       0.00583090 </v>
   <v>       0.00583090 </v>
   <v>       0.00583090 </v>
   <v>       0.00583090 </v>
   <v>       0.00583090 </v>
   <v>       0.00583090 </v>
   <v>       0.00583090 </v>
   <v>       0.00583090 </v>
   <v>       0.00583090 </v>
   <v>       0.00583090 </v>
   <v>       0.00583090 </v>
   <v>       0.00583090 </v>
   <v>       0.00583090 </v>
   <v>       0.00583090 </v>
   <v>       0.00583090 </v>
   <v>       0.00583090 </v>
   <v>       0.00583090 </v>
   <v>       0.00583090 </v>
   <v>       0.00583090 </v>
   <v>       0.00583090 </v>
   <v>       0.00583090 </v>
   <v>       0.00583090 </v>
   <v>       0.00583090 </v>
   <v>       0.00583090 </v>
   <v>       0.00583090 </v>
   <v>       0.00583090 </v>
   <v>       0.00583090 </v>
   <v>       0.00583090 </v>
   <v>       0.00583090 </v>
   <v>       0.00583090 </v>
   <v>       0.00583090 </v>
   <v>       0.00583090 </v>
   <v>       0.00583090 </v>
   <v>       0.00583090 </v>
   <v>       0.00583090 </v>
   <v>       0.00583090 </v>
   <v>       0.00583090 </v>
   <v>       0.00583090 </v>
   <v>       0.00583090 </v>
   <v>       0.00583090 </v>
   <v>       0.00583090 </v>
   <v>       0.00583090 </v>
   <v>       0.00583090 </v>
   <v>       0.00583090 </v>
   <v>       0.00583090 </v>
   <v>       0.00583090 </v>
   <v>       0.00583090 </v>
   <v>       0.00583090 </v>
   <v>       0.00583090 </v>
   <v>       0.00583090 </v>
   <v>       0.00583090 </v>
   <v>       0.00583090 </v>
   <v>       0.00583090 </v>
   <v>       0.00583090 </v>
   <v>       0.00583090 </v>
   <v>       0.00583090 </v>
   <v>       0.00583090 </v>
   <v>       0.00583090 </v>
   <v>       0.00583090 </v>
   <v>       0.00583090 </v>
   <v>       0.00583090 </v>
   <v>       0.00583090 </v>
   <v>       0.00583090 </v>
   <v>       0.00583090 </v>
   <v>       0.00583090 </v>
   <v>       0.00583090 </v>
   <v>       0.00583090 </v>
   <v>       0.00583090 </v>
   <v>       0.00583090 </v>
   <v>       0.00583090 </v>
   <v>       0.00583090 </v>
  </varray>
 </kpoints>
 <parameters>
  <separator name="general" >
   <i type="string" name="SYSTEM">Og_FCC</i>
   <i type="logical" name="LCOMPAT"> F  </i>
  </separator>
  <separator name="electronic" >
   <i type="string" name="PREC">accura</i>
   <i name="ENMAX">    300.00000000</i>
   <i name="ENAUG">    715.60700000</i>
   <i name="EDIFF">      0.00000001</i>
   <i type="int" name="IALGO">    90</i>
   <i type="int" name="IWAVPR">    10</i>
   <i type="int" name="NBANDS">   196</i>
   <i name="NELECT">     18.00000000</i>
   <i type="int" name="TURBO">     0</i>
   <i type="int" name="IRESTART">     0</i>
   <i type="int" name="NREBOOT">     0</i>
   <i type="int" name="NMIN">     0</i>
   <i name="EREF">      0.00000000</i>
   <separator name="electronic smearing" >
    <i type="int" name="ISMEAR">     0</i>
    <i name="SIGMA">      0.00100000</i>
    <i name="KSPACING">      0.50000000</i>
    <i type="logical" name="KGAMMA"> T  </i>
   </separator>
   <separator name="electronic projectors" >
    <i type="logical" name="LREAL"> F  </i>
    <v name="ROPT">      0.00000000</v>
    <i type="int" name="LMAXPAW">  -100</i>
    <i type="int" name="LMAXMIX">     2</i>
    <i type="logical" name="NLSPLINE"> F  </i>
   </separator>
   <separator name="electronic startup" >
    <i type="int" name="ISTART">     1</i>
    <i type="int" name="ICHARG">     0</i>
    <i type="int" name="INIWAV">     1</i>
   </separator>
   <separator name="electronic spin" >
    <i type="int" name="ISPIN">     1</i>
    <i type="logical" name="LNONCOLLINEAR"> F  </i>
    <v name="MAGMOM">      1.00000000</v>
    <i name="NUPDOWN">     -1.00000000</i>
    <i type="logical" name="LSORBIT"> F  </i>
    <v name="SAXIS">      0.00000000      0.00000000      1.00000000</v>
    <i type="logical" name="LSPIRAL"> F  </i>
    <v name="QSPIRAL">      0.00000000      0.00000000      0.00000000</v>
    <i type="logical" name="LZEROZ"> F  </i>
   </separator>
   <separator name="electronic exchange-correlation" >
    <i type="logical" name="LASPH"> F  </i>
    <i type="logical" name="LMETAGGA"> F  </i>
   </separator>
   <separator name="electronic convergence" >
    <i type="int" name="NELM">    50</i>
    <i type="int" name="NELMDL">    -5</i>
    <i type="int" name="NELMIN">     2</i>
    <i name="ENINI">    300.00000000</i>
    <separator name="electronic convergence detail" >
     <i type="logical" name="LDIAG"> T  </i>
     <i type="logical" name="LSUBROT"> F  </i>
     <i name="WEIMIN">      0.00000000</i>
     <i name="EBREAK">      0.00000000</i>
     <i name="DEPER">      0.30000000</i>
     <i type="int" name="NRMM">     4</i>
     <i name="TIME">      0.40000000</i>
    </separator>
   </separator>
   <separator name="electronic mixer" >
    <i name="AMIX">      0.40000000</i>
    <i name="BMIX">      1.00000000</i>
    <i name="AMIN">      0.10000000</i>
    <i name="AMIX_MAG">      1.60000000</i>
    <i name="BMIX_MAG">      1.00000000</i>
    <separator name="electronic mixer details" >
     <i type="int" name="IMIX">     4</i>
     <i type="logical" name="MIXFIRST"> F  </i>
     <i type="int" name="MAXMIX">    50</i>
     <i name="WC">    100.00000000</i>
     <i type="int" name="INIMIX">     1</i>
     <i type="int" name="MIXPRE">     1</i>
     <i type="int" name="MREMOVE">     5</i>
    </separator>
   </separator>
   <separator name="electronic dipolcorrection" >
    <i type="logical" name="LDIPOL"> F  </i>
    <i type="logical" name="LMONO"> F  </i>
    <i type="int" name="IDIPOL">     0</i>
    <i name="EPSILON">      1.00000000</i>
    <v name="DIPOL">   -100.00000000   -100.00000000   -100.00000000</v>
    <i name="EFIELD">      0.00000000</i>
   </separator>
  </separator>
  <separator name="grids" >
   <i type="int" name="NGX">    28</i>
   <i type="int" name="NGY">    28</i>
   <i type="int" name="NGZ">    28</i>
   <i type="int" name="NGXF">    56</i>
   <i type="int" name="NGYF">    56</i>
   <i type="int" name="NGZF">    56</i>
   <i type="logical" name="ADDGRID"> T  </i>
  </separator>
  <separator name="ionic" >
   <i type="int" name="NSW">     1</i>
   <i type="int" name="IBRION">    -1</i>
   <i type="int" name="MDALGO">     0</i>
   <i type="int" name="ISIF">     3</i>
   <i name="PSTRESS">      0.00000000</i>
   <i name="EDIFFG">      0.00001000</i>
   <i type="int" name="NFREE">     5</i>
   <i name="POTIM">      0.10000000</i>
   <i name="SMASS">     -3.00000000</i>
   <i name="SCALEE">      1.00000000</i>
  </separator>
  <separator name="ionic md" >
   <i name="TEBEG">      0.00010000</i>
   <i name="TEEND">      0.00010000</i>
   <i type="int" name="NBLOCK">     1</i>
   <i type="int" name="KBLOCK">     1</i>
   <i type="int" name="NPACO">   256</i>
   <i name="APACO">     16.00000000</i>
  </separator>
  <separator name="symmetry" >
   <i type="int" name="ISYM">     0</i>
   <i name="SYMPREC">      0.00000010</i>
  </separator>
  <separator name="dos" >
   <i type="int" name="LORBIT">     0</i>
   <v name="RWIGS">     -1.00000000</v>
   <i type="int" name="NEDOS">   301</i>
   <i name="EMIN">     10.00000000</i>
   <i name="EMAX">    -10.00000000</i>
   <i name="EFERMI">      0.00000000</i>
  </separator>
  <separator name="writing" >
   <i type="int" name="NWRITE">     2</i>
   <i type="logical" name="LWAVE"> T  </i>
   <i type="logical" name="LDOWNSAMPLE"> F  </i>
   <i type="logical" name="LCHARG"> F  </i>
   <i type="logical" name="LPARD"> F  </i>
   <i type="logical" name="LVTOT"> F  </i>
   <i type="logical" name="LVHAR"> F  </i>
   <i type="logical" name="LELF"> F  </i>
   <i type="logical" name="LOPTICS"> T  </i>
   <v name="STM">      0.00000000      0.00000000      0.00000000      0.00000000      0.00000000      0.00000000      0.00000000</v>
  </separator>
  <separator name="performance" >
   <i type="int" name="NPAR">     2</i>
   <i type="int" name="NSIM">     4</i>
   <i type="int" name="NBLK">    -1</i>
   <i type="logical" name="LPLANE"> T  </i>
   <i type="logical" name="LSCALAPACK"> T  </i>
   <i type="logical" name="LSCAAWARE"> T  </i>
   <i type="logical" name="LSCALU"> F  </i>
   <i type="logical" name="LASYNC"> F  </i>
   <i type="logical" name="LORBITALREAL"> F  </i>
  </separator>
  <separator name="miscellaneous" >
   <i type="int" name="IDIOT">     3</i>
   <i type="int" name="ISPECIAL">     0</i>
   <i type="logical" name="LMUSIC"> F  </i>
   <v name="POMASS">    220.17000000</v>
   <v name="DARWINR">      0.00000000</v>
   <v name="DARWINV">      1.00000000</v>
   <i type="logical" name="LCORR"> T  </i>
  </separator>
  <i type="logical" name="GGA_COMPAT"> F  </i>
  <i type="logical" name="LBERRY"> F  </i>
  <i type="int" name="ICORELEVEL">     0</i>
  <i type="logical" name="LDAU"> F  </i>
  <i type="int" name="I_CONSTRAINED_M">     0</i>
  <separator name="electronic exchange-correlation" >
   <i type="string" name="GGA">PE</i>
   <i type="int" name="VOSKOWN">     0</i>
   <i type="logical" name="LHFCALC"> F  </i>
   <i type="string" name="PRECFOCK"></i>
   <i type="logical" name="LSYMGRAD"> F  </i>
   <i type="logical" name="LHFONE"> F  </i>
   <i type="logical" name="LRHFCALC"> F  </i>
   <i type="logical" name="LTHOMAS"> F  </i>
   <i type="logical" name="LMODELHF"> F  </i>
   <i name="ENCUT4O">     -1.00000000</i>
   <i type="int" name="EXXOEP">     0</i>
   <i type="int" name="FOURORBIT">     0</i>
   <i name="AEXX">      0.00000000</i>
   <i name="HFALPHA">      0.00000000</i>
   <i name="MCALPHA">      0.00000000</i>
   <i name="ALDAX">      1.00000000</i>
   <i name="AGGAX">      1.00000000</i>
   <i name="ALDAC">      1.00000000</i>
   <i name="AGGAC">      1.00000000</i>
   <i type="int" name="NKREDX">     1</i>
   <i type="int" name="NKREDY">     1</i>
   <i type="int" name="NKREDZ">     1</i>
   <i type="logical" name="SHIFTRED"> F  </i>
   <i type="logical" name="ODDONLY"> F  </i>
   <i type="logical" name="EVENONLY"> F  </i>
   <i type="int" name="LMAXFOCK">     0</i>
   <i type="int" name="NMAXFOCKAE">     0</i>
   <i type="logical" name="LFOCKAEDFT"> F  </i>
   <i name="HFSCREEN">      0.00000000</i>
   <i name="HFSCREENC">      0.00000000</i>
   <i type="int" name="NBANDSGWLOW">     0</i>
  </separator>
  <separator name="vdW DFT" >
   <i type="logical" name="LUSE_VDW"> F  </i>
   <i name="Zab_VDW">     -0.84910000</i>
   <i name="PARAM1">      0.12340000</i>
   <i name="PARAM2">      1.00000000</i>
   <i name="PARAM3">      0.00000000</i>
  </separator>
  <separator name="model GW" >
   <i type="int" name="MODEL_GW">     0</i>
   <i name="MODEL_EPS0">     36.50086281</i>
   <i name="MODEL_ALPHA">      1.00000000</i>
  </separator>
  <separator name="linear response parameters" >
   <i type="logical" name="LEPSILON"> F  </i>
   <i type="logical" name="LRPA"> F  </i>
   <i type="logical" name="LNABLA"> F  </i>
   <i type="logical" name="LVEL"> F  </i>
   <i type="int" name="KINTER">     0</i>
   <i name="CSHIFT">      0.10000000</i>
   <i name="OMEGAMAX">     -1.00000000</i>
   <i name="DEG_THRESHOLD">      0.00200000</i>
   <i name="RTIME">     -0.10000000</i>
   <i name="WPLASMAI">      0.00000000</i>
   <v name="DFIELD">      0.00000000      0.00000000      0.00000000</v>
   <v name="WPLASMA">      0.00000000      0.00000000      0.00000000      0.00000000      0.00000000      0.00000000      0.00000000      0.00000000      0.00000000</v>
  </separator>
  <separator name="orbital magnetization" >
   <i type="logical" name="NUCIND"> F  </i>
   <v name="MAGPOS">      0.00000000      0.00000000      0.00000000</v>
   <i type="logical" name="LNICSALL"> T  </i>
   <i type="logical" name="ORBITALMAG"> F  </i>
   <i type="logical" name="LMAGBLOCH"> F  </i>
   <i type="logical" name="LCHIMAG"> F  </i>
   <i type="logical" name="LGAUGE"> T  </i>
   <i type="int" name="MAGATOM">     0</i>
   <v name="MAGDIPOL">      0.00000000      0.00000000      0.00000000</v>
   <v name="AVECCONST">      0.00000000      0.00000000      0.00000000</v>
  </separator>
  <separator name="response functions" >
   <i type="logical" name="LADDER"> F  </i>
   <i type="logical" name="LRPAFORCE"> F  </i>
   <i type="logical" name="LFXC"> F  </i>
   <i type="logical" name="LHARTREE"> T  </i>
   <i type="int" name="IBSE">     0</i>
   <v type="int" name="KPOINT">    -1     0     0     0</v>
   <i type="logical" name="LTCTE"> F  </i>
   <i type="logical" name="LTETE"> F  </i>
   <i type="logical" name="LTRIPLET"> F  </i>
   <i type="logical" name="LFXCEPS"> F  </i>
   <i type="logical" name="LFXHEG"> F  </i>
   <i type="int" name="NATURALO">     2</i>
   <i type="logical" name="L2ORDER"> F  </i>
   <i type="logical" name="LMP2LT"> F  </i>
   <i type="logical" name="LUSEW"> F  </i>
   <i name="ENCUTGW">     -2.00000000</i>
   <i name="ENCUTGWSOFT">     -2.00000000</i>
   <i name="ENCUTLF">     -1.00000000</i>
   <i type="int" name="LMAXMP2">    -1</i>
   <i name="SCISSOR">      0.00000000</i>
   <i type="int" name="NOMEGA">     0</i>
   <i type="int" name="NOMEGAR">     0</i>
   <i type="int" name="NBANDSGW">    -1</i>
   <i type="int" name="NBANDSO">    -1</i>
   <i type="int" name="NBANDSV">    -1</i>
   <i type="int" name="NELM">    50</i>
   <i type="int" name="NELMHF">     1</i>
   <i type="int" name="DIM">     3</i>
   <i type="int" name="ANTIRES">     0</i>
   <i name="OMEGAMAX">    -30.00000000</i>
   <i name="OMEGAMIN">    -30.00000000</i>
   <i name="OMEGATL">   -200.00000000</i>
   <i type="int" name="OMEGAGRID">   140</i>
   <i name="CSHIFT">     -0.10000000</i>
   <i type="logical" name="SELFENERGY"> F  </i>
   <i type="logical" name="LSPECTRAL"> F  </i>
   <i type="logical" name="LSPECTRALGW"> F  </i>
   <i type="logical" name="LSINGLES"> F  </i>
   <i type="logical" name="LFERMIGW"> F  </i>
   <i type="logical" name="ODDONLYGW"> F  </i>
   <i type="logical" name="EVENONLYGW"> F  </i>
   <i type="int" name="NKREDLFX">     1</i>
   <i type="int" name="NKREDLFY">     1</i>
   <i type="int" name="NKREDLFZ">     1</i>
   <i type="int" name="MAXMEM">  2800</i>
   <i type="int" name="TELESCOPE">     0</i>
   <i type="int" name="TAUPAR">     1</i>
   <i type="int" name="OMEGAPAR">    -1</i>
   <i name="LAMBDA">      1.00000000</i>
  </separator>
  <separator name="External order field" >
   <i name="OFIELD_KAPPA">      0.00000000</i>
   <v name="OFIELD_K">      0.00000000      0.00000000      0.00000000</v>
   <i name="OFIELD_Q6_NEAR">      0.00000000</i>
   <i name="OFIELD_Q6_FAR">      0.00000000</i>
   <i name="OFIELD_A">      0.00000000</i>
  </separator>
 </parameters>
 <atominfo>
  <atoms>       1 </atoms>
  <types>       1 </types>
  <array name="atoms" >
   <dimension dim="1">ion</dimension>
   <field type="string">element</field>
   <field type="int">atomtype</field>
   <set>
    <rc><c>Rn</c><c>   1</c></rc>
   </set>
  </array>
  <array name="atomtypes" >
   <dimension dim="1">type</dimension>
   <field type="int">atomspertype</field>
   <field type="string">element</field>
   <field>mass</field>
   <field>valence</field>
   <field type="string">pseudopotential</field>
   <set>
    <rc><c>   1</c><c>Rn</c><c>    220.17000000</c><c>     18.00000000</c><c>  PAW_PBE Rn_d_GW 14Apr2014             </c></rc>
   </set>
  </array>
 </atominfo>
 <structure name="initialpos" >
  <crystal>
   <varray name="basis" >
    <v>       4.41457561       0.00000000       0.00000000 </v>
    <v>       2.20728780       3.82313462      -0.00000000 </v>
    <v>       2.20728780       1.27437821       3.60448589 </v>
   </varray>
   <i name="volume">     60.83477135 </i>
   <varray name="rec_basis" >
    <v>       0.22652234      -0.13078273      -0.09247736 </v>
    <v>       0.00000000       0.26156547      -0.09247736 </v>
    <v>      -0.00000000       0.00000000       0.27743208 </v>
   </varray>
  </crystal>
  <varray name="positions" >
   <v>       0.00000000       0.00000000       0.00000000 </v>
  </varray>
  <varray name="velocities" >
   <v>       0.00000000       0.00000000       0.00000000 </v>
  </varray>
 </structure>
 <calculation>
  <scstep>
   <time name="diag">   14.47   14.46</time>
   <time name="total">   14.53   14.52</time>
   <energy>
    <i name="alphaZ">     69.69972675 </i>
    <i name="ewald">  -1713.14217088 </i>
    <i name="hartreedc">   -990.00996294 </i>
    <i name="XCdc">     36.84422400 </i>
    <i name="pawpsdc">   2515.83654080 </i>
    <i name="pawaedc">  -2486.10594539 </i>
    <i name="eentropy">      0.00000000 </i>
    <i name="bandstr">   -463.73376253 </i>
    <i name="atom">   3030.62410580 </i>
    <i name="e_fr_energy">      0.01275562 </i>
    <i name="e_wo_entrp">      0.01275562 </i>
    <i name="e_0_energy">      0.01275562 </i>
   </energy>
  </scstep>
  <scstep>
   <time name="diag">   14.44   14.44</time>
   <time name="total">   14.45   14.44</time>
   <energy>
    <i name="e_fr_energy">      0.01275562 </i>
    <i name="e_wo_entrp">      0.01275562 </i>
    <i name="e_0_energy">      0.01275562 </i>
   </energy>
  </scstep>
  <scstep>
   <time name="diag">   14.43   14.43</time>
   <time name="total">   14.44   14.43</time>
   <energy>
    <i name="e_fr_energy">      0.01275562 </i>
    <i name="e_wo_entrp">      0.01275562 </i>
    <i name="e_0_energy">      0.01275562 </i>
   </energy>
  </scstep>
  <scstep>
   <time name="diag">   14.43   14.42</time>
   <time name="total">   14.43   14.43</time>
   <energy>
    <i name="e_fr_energy">      0.01275562 </i>
    <i name="e_wo_entrp">      0.01275562 </i>
    <i name="e_0_energy">      0.01275562 </i>
   </energy>
  </scstep>
  <scstep>
   <time name="diag">   14.44   14.44</time>
   <time name="total">   14.50   14.50</time>
   <energy>
    <i name="e_fr_energy">      0.01275562 </i>
    <i name="e_wo_entrp">      0.01275562 </i>
    <i name="e_0_energy">      0.01275562 </i>
   </energy>
  </scstep>
  <scstep>
   <time name="diag">   14.46   14.45</time>
   <time name="total">   14.51   14.51</time>
   <energy>
    <i name="alphaZ">     69.69972675 </i>
    <i name="ewald">  -1713.14217088 </i>
    <i name="hartreedc">   -990.00996179 </i>
    <i name="XCdc">     36.84422397 </i>
    <i name="pawpsdc">   2515.83653517 </i>
    <i name="pawaedc">  -2486.10593948 </i>
    <i name="eentropy">      0.00000000 </i>
    <i name="bandstr">   -463.73376393 </i>
    <i name="atom">   3030.62410580 </i>
    <i name="e_fr_energy">      0.01275562 </i>
    <i name="e_wo_entrp">      0.01275562 </i>
    <i name="e_0_energy">      0.01275562 </i>
   </energy>
  </scstep>
  <structure>
   <crystal>
    <varray name="basis" >
     <v>       4.41457561       0.00000000       0.00000000 </v>
     <v>       2.20728780       3.82313462      -0.00000000 </v>
     <v>       2.20728780       1.27437821       3.60448589 </v>
    </varray>
    <i name="volume">     60.83477135 </i>
    <varray name="rec_basis" >
     <v>       0.22652234      -0.13078273      -0.09247736 </v>
     <v>       0.00000000       0.26156547      -0.09247736 </v>
     <v>      -0.00000000       0.00000000       0.27743208 </v>
    </varray>
   </crystal>
   <varray name="positions" >
    <v>       0.00000000       0.00000000       0.00000000 </v>
   </varray>
  </structure>
  <varray name="forces" >
   <v>      -0.00000003      -0.00000001       0.00000001 </v>
  </varray>
  <varray name="stress" >
   <v>       1.30592824       0.00023022       0.00017329 </v>
   <v>       0.00023027       1.30567965       0.00008629 </v>
   <v>       0.00017310       0.00008593       1.30538678 </v>
  </varray>
  <energy>
   <i name="e_fr_energy">     -0.21123470 </i>
   <i name="e_wo_entrp">     -0.21123470 </i>
   <i name="e_0_energy">      0.00000000 </i>
  </energy>
  <time name="totalsc">   89.43   89.71</time>
  <eigenvalues>
   <array>
    <dimension dim="1">band</dimension>
    <dimension dim="2">kpoint</dimension>
    <dimension dim="3">spin</dimension>
    <field>eigene</field>
    <field>occ</field>
    <set>
     <set comment="spin 1">
      <set comment="kpoint 1">
       <r>  -41.2780    1.0000 </r>
       <r>  -41.2780    1.0000 </r>
       <r>  -41.2780    1.0000 </r>
       <r>  -41.2772    1.0000 </r>
       <r>  -41.2772    1.0000 </r>
       <r>  -17.1228    1.0000 </r>
       <r>   -1.9596    1.0000 </r>
       <r>   -1.9596    1.0000 </r>
       <r>   -1.9596    1.0000 </r>
       <r>    2.8564    0.0000 </r>
       <r>    8.1469    0.0000 </r>
       <r>    8.1469    0.0000 </r>
       <r>    8.1469    0.0000 </r>
       <r>    9.8764    0.0000 </r>
       <r>   10.6733    0.0000 </r>
       <r>   10.6733    0.0000 </r>
       <r>   11.9955    0.0000 </r>
       <r>   11.9955    0.0000 </r>
       <r>   11.9955    0.0000 </r>
       <r>   14.7297    0.0000 </r>
       <r>   18.8974    0.0000 </r>
       <r>   18.8974    0.0000 </r>
       <r>   18.8974    0.0000 </r>
       <r>   22.8955    0.0000 </r>
       <r>   22.8955    0.0000 </r>
       <r>   22.8955    0.0000 </r>
       <r>   23.8728    0.0000 </r>
       <r>   25.7624    0.0000 </r>
       <r>   25.7624    0.0000 </r>
       <r>   25.7624    0.0000 </r>
       <r>   26.3137    0.0000 </r>
       <r>   26.3137    0.0000 </r>
       <r>   26.3137    0.0000 </r>
       <r>   26.4670    0.0000 </r>
       <r>   26.4670    0.0000 </r>
       <r>   28.4818    0.0000 </r>
       <r>   34.3400    0.0000 </r>
       <r>   34.3400    0.0000 </r>
       <r>   34.3400    0.0000 </r>
       <r>   36.5588    0.0000 </r>
       <r>   36.5588    0.0000 </r>
       <r>   36.9759    0.0000 </r>
       <r>   36.9759    0.0000 </r>
       <r>   36.9759    0.0000 </r>
       <r>   37.7066    0.0000 </r>
       <r>   37.7066    0.0000 </r>
       <r>   37.7066    0.0000 </r>
       <r>   37.7353    0.0000 </r>
       <r>   37.7353    0.0000 </r>
       <r>   37.7353    0.0000 </r>
       <r>   40.0053    0.0000 </r>
       <r>   40.0053    0.0000 </r>
       <r>   40.0053    0.0000 </r>
       <r>   40.7180    0.0000 </r>
       <r>   40.7180    0.0000 </r>
       <r>   40.7468    0.0000 </r>
       <r>   42.8242    0.0000 </r>
       <r>   42.8242    0.0000 </r>
       <r>   42.8242    0.0000 </r>
       <r>   43.2745    0.0000 </r>
       <r>   43.8846    0.0000 </r>
       <r>   44.2161    0.0000 </r>
       <r>   44.2161    0.0000 </r>
       <r>   44.2161    0.0000 </r>
       <r>   44.4498    0.0000 </r>
       <r>   44.4498    0.0000 </r>
       <r>   44.4498    0.0000 </r>
       <r>   47.6812    0.0000 </r>
       <r>   47.6812    0.0000 </r>
       <r>   47.6812    0.0000 </r>
       <r>   50.3233    0.0000 </r>
       <r>   56.9778    0.0000 </r>
       <r>   57.2120    0.0000 </r>
       <r>   57.2120    0.0000 </r>
       <r>   60.6042    0.0000 </r>
       <r>   60.6042    0.0000 </r>
       <r>   60.6042    0.0000 </r>
       <r>   63.7281    0.0000 </r>
       <r>   63.7281    0.0000 </r>
       <r>   65.1979    0.0000 </r>
       <r>   65.1979    0.0000 </r>
       <r>   65.1979    0.0000 </r>
       <r>   68.1187    0.0000 </r>
       <r>   68.1187    0.0000 </r>
       <r>   68.1187    0.0000 </r>
       <r>   68.4259    0.0000 </r>
       <r>   68.4259    0.0000 </r>
       <r>   68.4259    0.0000 </r>
       <r>   69.7173    0.0000 </r>
       <r>   69.7173    0.0000 </r>
       <r>   70.6508    0.0000 </r>
       <r>   70.6508    0.0000 </r>
       <r>   70.6508    0.0000 </r>
       <r>   70.6813    0.0000 </r>
       <r>   70.6813    0.0000 </r>
       <r>   70.6813    0.0000 </r>
       <r>   70.8034    0.0000 </r>
       <r>   70.8034    0.0000 </r>
       <r>   70.8034    0.0000 </r>
       <r>   71.6828    0.0000 </r>
       <r>   71.6828    0.0000 </r>
       <r>   71.6828    0.0000 </r>
       <r>   72.1380    0.0000 </r>
       <r>   72.9885    0.0000 </r>
       <r>   73.9996    0.0000 </r>
       <r>   73.9996    0.0000 </r>
       <r>   74.4507    0.0000 </r>
       <r>   74.4507    0.0000 </r>
       <r>   74.4507    0.0000 </r>
       <r>   74.8501    0.0000 </r>
       <r>   74.8501    0.0000 </r>
       <r>   74.8501    0.0000 </r>
       <r>   74.8725    0.0000 </r>
       <r>   74.8725    0.0000 </r>
       <r>   74.8725    0.0000 </r>
       <r>   75.3272    0.0000 </r>
       <r>   75.8020    0.0000 </r>
       <r>   75.8020    0.0000 </r>
       <r>   78.1080    0.0000 </r>
       <r>   78.1080    0.0000 </r>
       <r>   78.1080    0.0000 </r>
       <r>   78.8193    0.0000 </r>
       <r>   79.0240    0.0000 </r>
       <r>   79.0240    0.0000 </r>
       <r>   79.0240    0.0000 </r>
       <r>   85.6964    0.0000 </r>
       <r>   85.6964    0.0000 </r>
       <r>   85.6964    0.0000 </r>
       <r>   86.2104    0.0000 </r>
       <r>   86.2104    0.0000 </r>
       <r>   86.2104    0.0000 </r>
       <r>   86.4715    0.0000 </r>
       <r>   86.4715    0.0000 </r>
       <r>   89.5821    0.0000 </r>
       <r>   89.5821    0.0000 </r>
       <r>   89.5821    0.0000 </r>
       <r>   89.7829    0.0000 </r>
       <r>   89.7829    0.0000 </r>
       <r>   90.0992    0.0000 </r>
       <r>   90.3378    0.0000 </r>
       <r>   90.3378    0.0000 </r>
       <r>   90.3378    0.0000 </r>
       <r>   91.0781    0.0000 </r>
       <r>   91.0781    0.0000 </r>
       <r>   91.0781    0.0000 </r>
       <r>   92.2326    0.0000 </r>
       <r>   92.2326    0.0000 </r>
       <r>   92.2326    0.0000 </r>
       <r>   94.6476    0.0000 </r>
       <r>   98.0353    0.0000 </r>
       <r>   98.3952    0.0000 </r>
       <r>   98.3952    0.0000 </r>
       <r>   98.3952    0.0000 </r>
       <r>   98.5667    0.0000 </r>
       <r>   98.5667    0.0000 </r>
       <r>   98.5667    0.0000 </r>
       <r>   98.7603    0.0000 </r>
       <r>   98.7603    0.0000 </r>
       <r>   98.7603    0.0000 </r>
       <r>   99.0671    0.0000 </r>
       <r>   99.0671    0.0000 </r>
       <r>  100.5006    0.0000 </r>
       <r>  100.5006    0.0000 </r>
       <r>  100.5006    0.0000 </r>
       <r>  101.7279    0.0000 </r>
       <r>  101.7279    0.0000 </r>
       <r>  101.7279    0.0000 </r>
       <r>  101.8046    0.0000 </r>
       <r>  101.9001    0.0000 </r>
       <r>  101.9001    0.0000 </r>
       <r>  101.9001    0.0000 </r>
       <r>  102.4360    0.0000 </r>
       <r>  102.4360    0.0000 </r>
       <r>  102.4987    0.0000 </r>
       <r>  102.4987    0.0000 </r>
       <r>  102.4987    0.0000 </r>
       <r>  105.3015    0.0000 </r>
       <r>  105.3798    0.0000 </r>
       <r>  105.7918    0.0000 </r>
       <r>  105.7918    0.0000 </r>
       <r>  105.7918    0.0000 </r>
       <r>  114.1420    0.0000 </r>
       <r>  114.1420    0.0000 </r>
       <r>  117.6341    0.0000 </r>
       <r>  117.6341    0.0000 </r>
       <r>  117.6341    0.0000 </r>
       <r>  119.2963    0.0000 </r>
       <r>  119.2963    0.0000 </r>
       <r>  119.2963    0.0000 </r>
       <r>  120.8394    0.0000 </r>
       <r>  120.8394    0.0000 </r>
       <r>  120.8394    0.0000 </r>
       <r>  122.8593    0.0000 </r>
       <r>  122.9854    0.0000 </r>
       <r>  122.9854    0.0000 </r>
       <r>  122.9854    0.0000 </r>
      </set>
      <set comment="kpoint 2">
       <r>  -41.2778    1.0000 </r>
       <r>  -41.2778    1.0000 </r>
       <r>  -41.2778    1.0000 </r>
       <r>  -41.2772    1.0000 </r>
       <r>  -41.2772    1.0000 </r>
       <r>  -17.0914    1.0000 </r>
       <r>   -2.4723    1.0000 </r>
       <r>   -2.0087    1.0000 </r>
       <r>   -2.0087    1.0000 </r>
       <r>    3.5298    0.0000 </r>
       <r>    7.5098    0.0000 </r>
       <r>    8.3325    0.0000 </r>
       <r>    8.3325    0.0000 </r>
       <r>    9.9788    0.0000 </r>
       <r>    9.9788    0.0000 </r>
       <r>   10.7594    0.0000 </r>
       <r>   11.6895    0.0000 </r>
       <r>   13.3031    0.0000 </r>
       <r>   13.3031    0.0000 </r>
       <r>   16.0814    0.0000 </r>
       <r>   18.2504    0.0000 </r>
       <r>   18.2504    0.0000 </r>
       <r>   18.9435    0.0000 </r>
       <r>   20.8325    0.0000 </r>
       <r>   22.3641    0.0000 </r>
       <r>   22.3641    0.0000 </r>
       <r>   23.6033    0.0000 </r>
       <r>   24.5858    0.0000 </r>
       <r>   24.8866    0.0000 </r>
       <r>   24.8866    0.0000 </r>
       <r>   26.3626    0.0000 </r>
       <r>   26.3626    0.0000 </r>
       <r>   27.3585    0.0000 </r>
       <r>   27.9799    0.0000 </r>
       <r>   27.9799    0.0000 </r>
       <r>   31.0286    0.0000 </r>
       <r>   33.3384    0.0000 </r>
       <r>   33.6966    0.0000 </r>
       <r>   33.6966    0.0000 </r>
       <r>   33.7474    0.0000 </r>
       <r>   34.6834    0.0000 </r>
       <r>   34.6834    0.0000 </r>
       <r>   36.5432    0.0000 </r>
       <r>   36.5432    0.0000 </r>
       <r>   37.2352    0.0000 </r>
       <r>   37.2352    0.0000 </r>
       <r>   37.7801    0.0000 </r>
       <r>   37.9522    0.0000 </r>
       <r>   38.0961    0.0000 </r>
       <r>   38.0961    0.0000 </r>
       <r>   38.6014    0.0000 </r>
       <r>   40.2340    0.0000 </r>
       <r>   40.2340    0.0000 </r>
       <r>   40.3278    0.0000 </r>
       <r>   41.8571    0.0000 </r>
       <r>   41.9987    0.0000 </r>
       <r>   41.9987    0.0000 </r>
       <r>   43.6036    0.0000 </r>
       <r>   43.6036    0.0000 </r>
       <r>   44.4545    0.0000 </r>
       <r>   45.0629    0.0000 </r>
       <r>   45.4383    0.0000 </r>
       <r>   45.5814    0.0000 </r>
       <r>   45.5814    0.0000 </r>
       <r>   46.5598    0.0000 </r>
       <r>   46.5598    0.0000 </r>
       <r>   47.3391    0.0000 </r>
       <r>   48.1948    0.0000 </r>
       <r>   48.1948    0.0000 </r>
       <r>   49.3772    0.0000 </r>
       <r>   51.4785    0.0000 </r>
       <r>   55.1793    0.0000 </r>
       <r>   55.1793    0.0000 </r>
       <r>   55.7540    0.0000 </r>
       <r>   60.7228    0.0000 </r>
       <r>   60.7228    0.0000 </r>
       <r>   62.1105    0.0000 </r>
       <r>   62.1105    0.0000 </r>
       <r>   62.3114    0.0000 </r>
       <r>   62.5025    0.0000 </r>
       <r>   64.8445    0.0000 </r>
       <r>   64.8445    0.0000 </r>
       <r>   64.9221    0.0000 </r>
       <r>   65.1492    0.0000 </r>
       <r>   65.8409    0.0000 </r>
       <r>   65.8409    0.0000 </r>
       <r>   66.8750    0.0000 </r>
       <r>   66.8750    0.0000 </r>
       <r>   68.2289    0.0000 </r>
       <r>   68.4704    0.0000 </r>
       <r>   68.4704    0.0000 </r>
       <r>   68.9082    0.0000 </r>
       <r>   68.9082    0.0000 </r>
       <r>   69.3889    0.0000 </r>
       <r>   69.9851    0.0000 </r>
       <r>   69.9851    0.0000 </r>
       <r>   71.0491    0.0000 </r>
       <r>   71.2330    0.0000 </r>
       <r>   71.4045    0.0000 </r>
       <r>   71.4045    0.0000 </r>
       <r>   72.6859    0.0000 </r>
       <r>   72.7003    0.0000 </r>
       <r>   72.7003    0.0000 </r>
       <r>   72.8646    0.0000 </r>
       <r>   72.8646    0.0000 </r>
       <r>   73.6741    0.0000 </r>
       <r>   74.0090    0.0000 </r>
       <r>   75.7997    0.0000 </r>
       <r>   75.7997    0.0000 </r>
       <r>   75.9360    0.0000 </r>
       <r>   75.9360    0.0000 </r>
       <r>   76.7782    0.0000 </r>
       <r>   76.7782    0.0000 </r>
       <r>   76.8807    0.0000 </r>
       <r>   77.9467    0.0000 </r>
       <r>   78.4352    0.0000 </r>
       <r>   78.4352    0.0000 </r>
       <r>   78.5988    0.0000 </r>
       <r>   79.0902    0.0000 </r>
       <r>   79.7004    0.0000 </r>
       <r>   80.1483    0.0000 </r>
       <r>   80.1483    0.0000 </r>
       <r>   81.1806    0.0000 </r>
       <r>   81.1806    0.0000 </r>
       <r>   82.6675    0.0000 </r>
       <r>   83.5073    0.0000 </r>
       <r>   83.5073    0.0000 </r>
       <r>   83.8987    0.0000 </r>
       <r>   83.8987    0.0000 </r>
       <r>   84.1256    0.0000 </r>
       <r>   85.7029    0.0000 </r>
       <r>   85.7813    0.0000 </r>
       <r>   86.1283    0.0000 </r>
       <r>   86.1283    0.0000 </r>
       <r>   87.8284    0.0000 </r>
       <r>   87.8284    0.0000 </r>
       <r>   87.9673    0.0000 </r>
       <r>   90.2490    0.0000 </r>
       <r>   90.2490    0.0000 </r>
       <r>   90.9060    0.0000 </r>
       <r>   92.3313    0.0000 </r>
       <r>   92.3954    0.0000 </r>
       <r>   92.5042    0.0000 </r>
       <r>   92.5042    0.0000 </r>
       <r>   93.1196    0.0000 </r>
       <r>   93.2058    0.0000 </r>
       <r>   93.2058    0.0000 </r>
       <r>   94.1053    0.0000 </r>
       <r>   94.1053    0.0000 </r>
       <r>   94.6954    0.0000 </r>
       <r>   95.3563    0.0000 </r>
       <r>   95.3563    0.0000 </r>
       <r>   95.4961    0.0000 </r>
       <r>   96.3609    0.0000 </r>
       <r>   96.3609    0.0000 </r>
       <r>   97.5363    0.0000 </r>
       <r>   97.7863    0.0000 </r>
       <r>   97.7863    0.0000 </r>
       <r>   98.2709    0.0000 </r>
       <r>   98.2709    0.0000 </r>
       <r>   98.3859    0.0000 </r>
       <r>   98.8907    0.0000 </r>
       <r>   98.8907    0.0000 </r>
       <r>   99.5119    0.0000 </r>
       <r>  102.8999    0.0000 </r>
       <r>  103.0291    0.0000 </r>
       <r>  103.0291    0.0000 </r>
       <r>  103.9690    0.0000 </r>
       <r>  103.9690    0.0000 </r>
       <r>  104.7155    0.0000 </r>
       <r>  104.9924    0.0000 </r>
       <r>  106.0786    0.0000 </r>
       <r>  106.6349    0.0000 </r>
       <r>  106.6349    0.0000 </r>
       <r>  107.3263    0.0000 </r>
       <r>  107.3263    0.0000 </r>
       <r>  107.6509    0.0000 </r>
       <r>  108.7959    0.0000 </r>
       <r>  108.9604    0.0000 </r>
       <r>  108.9604    0.0000 </r>
       <r>  110.7155    0.0000 </r>
       <r>  111.3117    0.0000 </r>
       <r>  111.3117    0.0000 </r>
       <r>  112.7808    0.0000 </r>
       <r>  116.4607    0.0000 </r>
       <r>  116.4607    0.0000 </r>
       <r>  116.4709    0.0000 </r>
       <r>  117.0328    0.0000 </r>
       <r>  117.0328    0.0000 </r>
       <r>  118.7144    0.0000 </r>
       <r>  118.7144    0.0000 </r>
       <r>  119.7048    0.0000 </r>
       <r>  120.8541    0.0000 </r>
       <r>  120.8541    0.0000 </r>
       <r>  121.8605    0.0000 </r>
       <r>  122.4244    0.0000 </r>
      </set>
      <set comment="kpoint 3">
       <r>  -41.2778    1.0000 </r>
       <r>  -41.2778    1.0000 </r>
       <r>  -41.2778    1.0000 </r>
       <r>  -41.2770    1.0000 </r>
       <r>  -41.2770    1.0000 </r>
       <r>  -17.0206    1.0000 </r>
       <r>   -3.3416    1.0000 </r>
       <r>   -2.1147    1.0000 </r>
       <r>   -2.1147    1.0000 </r>
       <r>    4.4678    0.0000 </r>
       <r>    7.5206    0.0000 </r>
       <r>    8.1907    0.0000 </r>
       <r>    8.1907    0.0000 </r>
       <r>   10.0854    0.0000 </r>
       <r>   10.3060    0.0000 </r>
       <r>   10.3060    0.0000 </r>
       <r>   13.9331    0.0000 </r>
       <r>   15.3526    0.0000 </r>
       <r>   15.3526    0.0000 </r>
       <r>   16.3687    0.0000 </r>
       <r>   16.3687    0.0000 </r>
       <r>   17.2888    0.0000 </r>
       <r>   18.6121    0.0000 </r>
       <r>   19.0510    0.0000 </r>
       <r>   22.0004    0.0000 </r>
       <r>   22.0004    0.0000 </r>
       <r>   22.8705    0.0000 </r>
       <r>   24.0299    0.0000 </r>
       <r>   24.0299    0.0000 </r>
       <r>   24.4729    0.0000 </r>
       <r>   26.6756    0.0000 </r>
       <r>   26.6756    0.0000 </r>
       <r>   27.4798    0.0000 </r>
       <r>   28.4144    0.0000 </r>
       <r>   28.4144    0.0000 </r>
       <r>   29.6049    0.0000 </r>
       <r>   32.0109    0.0000 </r>
       <r>   32.0316    0.0000 </r>
       <r>   32.0316    0.0000 </r>
       <r>   32.9614    0.0000 </r>
       <r>   33.1546    0.0000 </r>
       <r>   33.1546    0.0000 </r>
       <r>   35.5261    0.0000 </r>
       <r>   36.2148    0.0000 </r>
       <r>   36.2148    0.0000 </r>
       <r>   36.8687    0.0000 </r>
       <r>   36.8687    0.0000 </r>
       <r>   38.5280    0.0000 </r>
       <r>   38.5280    0.0000 </r>
       <r>   38.5694    0.0000 </r>
       <r>   39.0793    0.0000 </r>
       <r>   40.2767    0.0000 </r>
       <r>   41.3421    0.0000 </r>
       <r>   41.3421    0.0000 </r>
       <r>   42.0728    0.0000 </r>
       <r>   42.9211    0.0000 </r>
       <r>   42.9211    0.0000 </r>
       <r>   45.9431    0.0000 </r>
       <r>   46.7530    0.0000 </r>
       <r>   46.7530    0.0000 </r>
       <r>   47.0333    0.0000 </r>
       <r>   47.5589    0.0000 </r>
       <r>   47.5589    0.0000 </r>
       <r>   48.1126    0.0000 </r>
       <r>   49.5972    0.0000 </r>
       <r>   49.8458    0.0000 </r>
       <r>   49.8458    0.0000 </r>
       <r>   51.0846    0.0000 </r>
       <r>   51.0846    0.0000 </r>
       <r>   51.6838    0.0000 </r>
       <r>   52.3866    0.0000 </r>
       <r>   52.3866    0.0000 </r>
       <r>   54.2152    0.0000 </r>
       <r>   56.1645    0.0000 </r>
       <r>   56.1645    0.0000 </r>
       <r>   56.8985    0.0000 </r>
       <r>   57.3394    0.0000 </r>
       <r>   59.7212    0.0000 </r>
       <r>   60.2211    0.0000 </r>
       <r>   60.2211    0.0000 </r>
       <r>   61.2490    0.0000 </r>
       <r>   61.6375    0.0000 </r>
       <r>   61.6375    0.0000 </r>
       <r>   62.7230    0.0000 </r>
       <r>   63.5052    0.0000 </r>
       <r>   63.5052    0.0000 </r>
       <r>   64.6467    0.0000 </r>
       <r>   64.6467    0.0000 </r>
       <r>   66.7327    0.0000 </r>
       <r>   68.6689    0.0000 </r>
       <r>   68.6689    0.0000 </r>
       <r>   69.0126    0.0000 </r>
       <r>   69.0126    0.0000 </r>
       <r>   69.3856    0.0000 </r>
       <r>   69.3856    0.0000 </r>
       <r>   70.0441    0.0000 </r>
       <r>   70.2422    0.0000 </r>
       <r>   70.2422    0.0000 </r>
       <r>   70.2486    0.0000 </r>
       <r>   71.3247    0.0000 </r>
       <r>   71.4593    0.0000 </r>
       <r>   71.4593    0.0000 </r>
       <r>   73.0185    0.0000 </r>
       <r>   73.4551    0.0000 </r>
       <r>   73.4551    0.0000 </r>
       <r>   74.0873    0.0000 </r>
       <r>   74.6442    0.0000 </r>
       <r>   75.2069    0.0000 </r>
       <r>   75.2069    0.0000 </r>
       <r>   75.8442    0.0000 </r>
       <r>   78.0183    0.0000 </r>
       <r>   78.1409    0.0000 </r>
       <r>   78.1746    0.0000 </r>
       <r>   78.1746    0.0000 </r>
       <r>   79.3367    0.0000 </r>
       <r>   79.3367    0.0000 </r>
       <r>   79.9604    0.0000 </r>
       <r>   79.9604    0.0000 </r>
       <r>   81.0192    0.0000 </r>
       <r>   82.2394    0.0000 </r>
       <r>   82.2394    0.0000 </r>
       <r>   82.7537    0.0000 </r>
       <r>   82.7537    0.0000 </r>
       <r>   83.4023    0.0000 </r>
       <r>   83.7436    0.0000 </r>
       <r>   83.9475    0.0000 </r>
       <r>   83.9475    0.0000 </r>
       <r>   84.3875    0.0000 </r>
       <r>   85.7274    0.0000 </r>
       <r>   85.7274    0.0000 </r>
       <r>   85.7459    0.0000 </r>
       <r>   86.3283    0.0000 </r>
       <r>   88.1612    0.0000 </r>
       <r>   88.3075    0.0000 </r>
       <r>   88.3075    0.0000 </r>
       <r>   88.6027    0.0000 </r>
       <r>   88.6027    0.0000 </r>
       <r>   89.9339    0.0000 </r>
       <r>   89.9339    0.0000 </r>
       <r>   90.0723    0.0000 </r>
       <r>   90.0723    0.0000 </r>
       <r>   90.1010    0.0000 </r>
       <r>   90.5098    0.0000 </r>
       <r>   90.5196    0.0000 </r>
       <r>   91.4732    0.0000 </r>
       <r>   91.4732    0.0000 </r>
       <r>   92.4102    0.0000 </r>
       <r>   92.8609    0.0000 </r>
       <r>   92.8609    0.0000 </r>
       <r>   94.3650    0.0000 </r>
       <r>   95.4850    0.0000 </r>
       <r>   95.4850    0.0000 </r>
       <r>   95.5353    0.0000 </r>
       <r>   95.6727    0.0000 </r>
       <r>   95.6727    0.0000 </r>
       <r>   96.7948    0.0000 </r>
       <r>   97.6643    0.0000 </r>
       <r>   97.8318    0.0000 </r>
       <r>   97.8318    0.0000 </r>
       <r>   99.8603    0.0000 </r>
       <r>   99.8603    0.0000 </r>
       <r>  101.5688    0.0000 </r>
       <r>  103.3658    0.0000 </r>
       <r>  103.3658    0.0000 </r>
       <r>  103.7514    0.0000 </r>
       <r>  105.9659    0.0000 </r>
       <r>  105.9659    0.0000 </r>
       <r>  107.0255    0.0000 </r>
       <r>  107.0255    0.0000 </r>
       <r>  107.0896    0.0000 </r>
       <r>  108.3772    0.0000 </r>
       <r>  108.4949    0.0000 </r>
       <r>  108.4949    0.0000 </r>
       <r>  108.8151    0.0000 </r>
       <r>  108.8248    0.0000 </r>
       <r>  108.8248    0.0000 </r>
       <r>  109.5291    0.0000 </r>
       <r>  109.7497    0.0000 </r>
       <r>  109.7497    0.0000 </r>
       <r>  110.8689    0.0000 </r>
       <r>  112.6418    0.0000 </r>
       <r>  112.6418    0.0000 </r>
       <r>  113.5840    0.0000 </r>
       <r>  113.9038    0.0000 </r>
       <r>  113.9038    0.0000 </r>
       <r>  114.3255    0.0000 </r>
       <r>  115.4228    0.0000 </r>
       <r>  115.5578    0.0000 </r>
       <r>  115.5578    0.0000 </r>
       <r>  115.8519    0.0000 </r>
       <r>  115.8519    0.0000 </r>
       <r>  115.8812    0.0000 </r>
       <r>  116.4375    0.0000 </r>
       <r>  116.4375    0.0000 </r>
       <r>  116.6706    0.0000 </r>
       <r>  118.4123    0.0000 </r>
      </set>
      <set comment="kpoint 4">
       <r>  -41.2779    1.0000 </r>
       <r>  -41.2779    1.0000 </r>
       <r>  -41.2774    1.0000 </r>
       <r>  -41.2767    1.0000 </r>
       <r>  -41.2767    1.0000 </r>
       <r>  -16.9623    1.0000 </r>
       <r>   -3.8949    1.0000 </r>
       <r>   -2.1957    1.0000 </r>
       <r>   -2.1957    1.0000 </r>
       <r>    4.6412    0.0000 </r>
       <r>    7.8352    0.0000 </r>
       <r>    7.8352    0.0000 </r>
       <r>    8.4169    0.0000 </r>
       <r>   10.0864    0.0000 </r>
       <r>   11.8891    0.0000 </r>
       <r>   11.8891    0.0000 </r>
       <r>   14.0216    0.0000 </r>
       <r>   14.0216    0.0000 </r>
       <r>   14.4006    0.0000 </r>
       <r>   16.5502    0.0000 </r>
       <r>   17.1913    0.0000 </r>
       <r>   17.1913    0.0000 </r>
       <r>   19.1417    0.0000 </r>
       <r>   20.7482    0.0000 </r>
       <r>   21.7101    0.0000 </r>
       <r>   22.0201    0.0000 </r>
       <r>   22.0201    0.0000 </r>
       <r>   23.0330    0.0000 </r>
       <r>   23.0330    0.0000 </r>
       <r>   24.7613    0.0000 </r>
       <r>   26.0323    0.0000 </r>
       <r>   26.8187    0.0000 </r>
       <r>   26.8187    0.0000 </r>
       <r>   27.7119    0.0000 </r>
       <r>   27.7119    0.0000 </r>
       <r>   28.6116    0.0000 </r>
       <r>   29.5432    0.0000 </r>
       <r>   31.2404    0.0000 </r>
       <r>   31.2625    0.0000 </r>
       <r>   31.2625    0.0000 </r>
       <r>   32.5244    0.0000 </r>
       <r>   32.5244    0.0000 </r>
       <r>   35.7756    0.0000 </r>
       <r>   35.7756    0.0000 </r>
       <r>   36.2917    0.0000 </r>
       <r>   36.6881    0.0000 </r>
       <r>   36.6881    0.0000 </r>
       <r>   39.2743    0.0000 </r>
       <r>   39.4247    0.0000 </r>
       <r>   39.4247    0.0000 </r>
       <r>   39.5908    0.0000 </r>
       <r>   42.7613    0.0000 </r>
       <r>   42.8140    0.0000 </r>
       <r>   42.8140    0.0000 </r>
       <r>   43.4997    0.0000 </r>
       <r>   44.9450    0.0000 </r>
       <r>   44.9450    0.0000 </r>
       <r>   45.0880    0.0000 </r>
       <r>   47.7871    0.0000 </r>
       <r>   47.7871    0.0000 </r>
       <r>   48.7725    0.0000 </r>
       <r>   49.0246    0.0000 </r>
       <r>   49.0246    0.0000 </r>
       <r>   50.1368    0.0000 </r>
       <r>   50.9543    0.0000 </r>
       <r>   50.9543    0.0000 </r>
       <r>   51.1384    0.0000 </r>
       <r>   51.7277    0.0000 </r>
       <r>   51.7277    0.0000 </r>
       <r>   51.8514    0.0000 </r>
       <r>   53.5854    0.0000 </r>
       <r>   53.5854    0.0000 </r>
       <r>   53.9005    0.0000 </r>
       <r>   55.0513    0.0000 </r>
       <r>   55.8909    0.0000 </r>
       <r>   55.8909    0.0000 </r>
       <r>   56.0172    0.0000 </r>
       <r>   57.3505    0.0000 </r>
       <r>   57.3505    0.0000 </r>
       <r>   58.0672    0.0000 </r>
       <r>   58.8783    0.0000 </r>
       <r>   58.8783    0.0000 </r>
       <r>   59.9039    0.0000 </r>
       <r>   59.9039    0.0000 </r>
       <r>   60.5150    0.0000 </r>
       <r>   63.9863    0.0000 </r>
       <r>   63.9863    0.0000 </r>
       <r>   64.6863    0.0000 </r>
       <r>   64.6863    0.0000 </r>
       <r>   65.0186    0.0000 </r>
       <r>   67.3412    0.0000 </r>
       <r>   68.8050    0.0000 </r>
       <r>   68.8050    0.0000 </r>
       <r>   69.0125    0.0000 </r>
       <r>   69.0125    0.0000 </r>
       <r>   69.1439    0.0000 </r>
       <r>   69.6491    0.0000 </r>
       <r>   71.3318    0.0000 </r>
       <r>   71.3318    0.0000 </r>
       <r>   71.5040    0.0000 </r>
       <r>   71.5823    0.0000 </r>
       <r>   72.8454    0.0000 </r>
       <r>   73.2185    0.0000 </r>
       <r>   73.2655    0.0000 </r>
       <r>   73.2655    0.0000 </r>
       <r>   73.7581    0.0000 </r>
       <r>   73.7581    0.0000 </r>
       <r>   74.4281    0.0000 </r>
       <r>   76.1943    0.0000 </r>
       <r>   76.1943    0.0000 </r>
       <r>   77.3070    0.0000 </r>
       <r>   77.3734    0.0000 </r>
       <r>   77.3734    0.0000 </r>
       <r>   78.7132    0.0000 </r>
       <r>   78.7132    0.0000 </r>
       <r>   79.5879    0.0000 </r>
       <r>   79.7638    0.0000 </r>
       <r>   80.9544    0.0000 </r>
       <r>   80.9544    0.0000 </r>
       <r>   81.5166    0.0000 </r>
       <r>   82.0592    0.0000 </r>
       <r>   82.0592    0.0000 </r>
       <r>   83.4096    0.0000 </r>
       <r>   83.5562    0.0000 </r>
       <r>   83.5562    0.0000 </r>
       <r>   83.6005    0.0000 </r>
       <r>   84.8217    0.0000 </r>
       <r>   84.8217    0.0000 </r>
       <r>   85.9008    0.0000 </r>
       <r>   85.9008    0.0000 </r>
       <r>   86.8720    0.0000 </r>
       <r>   87.7261    0.0000 </r>
       <r>   88.2708    0.0000 </r>
       <r>   88.8075    0.0000 </r>
       <r>   88.8075    0.0000 </r>
       <r>   90.4550    0.0000 </r>
       <r>   90.4550    0.0000 </r>
       <r>   91.1724    0.0000 </r>
       <r>   91.1724    0.0000 </r>
       <r>   91.6344    0.0000 </r>
       <r>   91.9664    0.0000 </r>
       <r>   91.9664    0.0000 </r>
       <r>   93.1890    0.0000 </r>
       <r>   93.1890    0.0000 </r>
       <r>   93.3111    0.0000 </r>
       <r>   93.4317    0.0000 </r>
       <r>   93.6152    0.0000 </r>
       <r>   93.7174    0.0000 </r>
       <r>   93.7174    0.0000 </r>
       <r>   95.6224    0.0000 </r>
       <r>   95.6224    0.0000 </r>
       <r>   95.6814    0.0000 </r>
       <r>   96.7943    0.0000 </r>
       <r>   97.0735    0.0000 </r>
       <r>   97.1393    0.0000 </r>
       <r>   97.1393    0.0000 </r>
       <r>   98.1030    0.0000 </r>
       <r>   98.1030    0.0000 </r>
       <r>  100.3419    0.0000 </r>
       <r>  100.5853    0.0000 </r>
       <r>  100.5853    0.0000 </r>
       <r>  100.7720    0.0000 </r>
       <r>  102.7960    0.0000 </r>
       <r>  102.7960    0.0000 </r>
       <r>  102.8743    0.0000 </r>
       <r>  103.5951    0.0000 </r>
       <r>  103.5951    0.0000 </r>
       <r>  104.1207    0.0000 </r>
       <r>  105.2087    0.0000 </r>
       <r>  105.9736    0.0000 </r>
       <r>  105.9736    0.0000 </r>
       <r>  106.5349    0.0000 </r>
       <r>  106.5349    0.0000 </r>
       <r>  108.2563    0.0000 </r>
       <r>  108.7752    0.0000 </r>
       <r>  109.4652    0.0000 </r>
       <r>  109.4652    0.0000 </r>
       <r>  109.9108    0.0000 </r>
       <r>  110.1692    0.0000 </r>
       <r>  110.1692    0.0000 </r>
       <r>  111.8286    0.0000 </r>
       <r>  111.8286    0.0000 </r>
       <r>  112.4723    0.0000 </r>
       <r>  113.5547    0.0000 </r>
       <r>  113.5757    0.0000 </r>
       <r>  113.5757    0.0000 </r>
       <r>  115.3546    0.0000 </r>
       <r>  115.3546    0.0000 </r>
       <r>  115.9227    0.0000 </r>
       <r>  116.5414    0.0000 </r>
       <r>  116.5414    0.0000 </r>
       <r>  117.0834    0.0000 </r>
       <r>  117.2252    0.0000 </r>
       <r>  117.2252    0.0000 </r>
       <r>  117.2883    0.0000 </r>
       <r>  119.1642    0.0000 </r>
      </set>
      <set comment="kpoint 5">
       <r>  -41.2778    1.0000 </r>
       <r>  -41.2778    1.0000 </r>
       <r>  -41.2778    1.0000 </r>
       <r>  -41.2772    1.0000 </r>
       <r>  -41.2772    1.0000 </r>
       <r>  -17.0914    1.0000 </r>
       <r>   -2.4723    1.0000 </r>
       <r>   -2.0087    1.0000 </r>
       <r>   -2.0087    1.0000 </r>
       <r>    3.5298    0.0000 </r>
       <r>    7.5098    0.0000 </r>
       <r>    8.3325    0.0000 </r>
       <r>    8.3325    0.0000 </r>
       <r>    9.9788    0.0000 </r>
       <r>    9.9788    0.0000 </r>
       <r>   10.7594    0.0000 </r>
       <r>   11.6895    0.0000 </r>
       <r>   13.3031    0.0000 </r>
       <r>   13.3031    0.0000 </r>
       <r>   16.0814    0.0000 </r>
       <r>   18.2504    0.0000 </r>
       <r>   18.2504    0.0000 </r>
       <r>   18.9435    0.0000 </r>
       <r>   20.8325    0.0000 </r>
       <r>   22.3641    0.0000 </r>
       <r>   22.3641    0.0000 </r>
       <r>   23.6033    0.0000 </r>
       <r>   24.5858    0.0000 </r>
       <r>   24.8866    0.0000 </r>
       <r>   24.8866    0.0000 </r>
       <r>   26.3626    0.0000 </r>
       <r>   26.3626    0.0000 </r>
       <r>   27.3585    0.0000 </r>
       <r>   27.9799    0.0000 </r>
       <r>   27.9799    0.0000 </r>
       <r>   31.0286    0.0000 </r>
       <r>   33.3384    0.0000 </r>
       <r>   33.6966    0.0000 </r>
       <r>   33.6966    0.0000 </r>
       <r>   33.7474    0.0000 </r>
       <r>   34.6834    0.0000 </r>
       <r>   34.6834    0.0000 </r>
       <r>   36.5432    0.0000 </r>
       <r>   36.5432    0.0000 </r>
       <r>   37.2352    0.0000 </r>
       <r>   37.2352    0.0000 </r>
       <r>   37.7801    0.0000 </r>
       <r>   37.9522    0.0000 </r>
       <r>   38.0961    0.0000 </r>
       <r>   38.0961    0.0000 </r>
       <r>   38.6014    0.0000 </r>
       <r>   40.2340    0.0000 </r>
       <r>   40.2340    0.0000 </r>
       <r>   40.3278    0.0000 </r>
       <r>   41.8571    0.0000 </r>
       <r>   41.9987    0.0000 </r>
       <r>   41.9987    0.0000 </r>
       <r>   43.6036    0.0000 </r>
       <r>   43.6036    0.0000 </r>
       <r>   44.4545    0.0000 </r>
       <r>   45.0629    0.0000 </r>
       <r>   45.4383    0.0000 </r>
       <r>   45.5814    0.0000 </r>
       <r>   45.5814    0.0000 </r>
       <r>   46.5598    0.0000 </r>
       <r>   46.5598    0.0000 </r>
       <r>   47.3391    0.0000 </r>
       <r>   48.1948    0.0000 </r>
       <r>   48.1948    0.0000 </r>
       <r>   49.3772    0.0000 </r>
       <r>   51.4785    0.0000 </r>
       <r>   55.1793    0.0000 </r>
       <r>   55.1793    0.0000 </r>
       <r>   55.7540    0.0000 </r>
       <r>   60.7228    0.0000 </r>
       <r>   60.7228    0.0000 </r>
       <r>   62.1105    0.0000 </r>
       <r>   62.1105    0.0000 </r>
       <r>   62.3114    0.0000 </r>
       <r>   62.5025    0.0000 </r>
       <r>   64.8445    0.0000 </r>
       <r>   64.8445    0.0000 </r>
       <r>   64.9221    0.0000 </r>
       <r>   65.1492    0.0000 </r>
       <r>   65.8409    0.0000 </r>
       <r>   65.8409    0.0000 </r>
       <r>   66.8750    0.0000 </r>
       <r>   66.8750    0.0000 </r>
       <r>   68.2289    0.0000 </r>
       <r>   68.4704    0.0000 </r>
       <r>   68.4704    0.0000 </r>
       <r>   68.9082    0.0000 </r>
       <r>   68.9082    0.0000 </r>
       <r>   69.3889    0.0000 </r>
       <r>   69.9851    0.0000 </r>
       <r>   69.9851    0.0000 </r>
       <r>   71.0491    0.0000 </r>
       <r>   71.2330    0.0000 </r>
       <r>   71.4045    0.0000 </r>
       <r>   71.4045    0.0000 </r>
       <r>   72.6859    0.0000 </r>
       <r>   72.7003    0.0000 </r>
       <r>   72.7003    0.0000 </r>
       <r>   72.8646    0.0000 </r>
       <r>   72.8646    0.0000 </r>
       <r>   73.6741    0.0000 </r>
       <r>   74.0090    0.0000 </r>
       <r>   75.7997    0.0000 </r>
       <r>   75.7997    0.0000 </r>
       <r>   75.9360    0.0000 </r>
       <r>   75.9360    0.0000 </r>
       <r>   76.7782    0.0000 </r>
       <r>   76.7782    0.0000 </r>
       <r>   76.8807    0.0000 </r>
       <r>   77.9467    0.0000 </r>
       <r>   78.4352    0.0000 </r>
       <r>   78.4352    0.0000 </r>
       <r>   78.5988    0.0000 </r>
       <r>   79.0902    0.0000 </r>
       <r>   79.7004    0.0000 </r>
       <r>   80.1483    0.0000 </r>
       <r>   80.1483    0.0000 </r>
       <r>   81.1806    0.0000 </r>
       <r>   81.1806    0.0000 </r>
       <r>   82.6675    0.0000 </r>
       <r>   83.5073    0.0000 </r>
       <r>   83.5073    0.0000 </r>
       <r>   83.8987    0.0000 </r>
       <r>   83.8987    0.0000 </r>
       <r>   84.1256    0.0000 </r>
       <r>   85.7029    0.0000 </r>
       <r>   85.7813    0.0000 </r>
       <r>   86.1283    0.0000 </r>
       <r>   86.1283    0.0000 </r>
       <r>   87.8284    0.0000 </r>
       <r>   87.8284    0.0000 </r>
       <r>   87.9673    0.0000 </r>
       <r>   90.2490    0.0000 </r>
       <r>   90.2490    0.0000 </r>
       <r>   90.9060    0.0000 </r>
       <r>   92.3313    0.0000 </r>
       <r>   92.3954    0.0000 </r>
       <r>   92.5042    0.0000 </r>
       <r>   92.5042    0.0000 </r>
       <r>   93.1196    0.0000 </r>
       <r>   93.2058    0.0000 </r>
       <r>   93.2058    0.0000 </r>
       <r>   94.1053    0.0000 </r>
       <r>   94.1053    0.0000 </r>
       <r>   94.6954    0.0000 </r>
       <r>   95.3563    0.0000 </r>
       <r>   95.3563    0.0000 </r>
       <r>   95.4961    0.0000 </r>
       <r>   96.3609    0.0000 </r>
       <r>   96.3609    0.0000 </r>
       <r>   97.5363    0.0000 </r>
       <r>   97.7863    0.0000 </r>
       <r>   97.7863    0.0000 </r>
       <r>   98.2709    0.0000 </r>
       <r>   98.2709    0.0000 </r>
       <r>   98.3859    0.0000 </r>
       <r>   98.8907    0.0000 </r>
       <r>   98.8907    0.0000 </r>
       <r>   99.5119    0.0000 </r>
       <r>  102.8999    0.0000 </r>
       <r>  103.0291    0.0000 </r>
       <r>  103.0291    0.0000 </r>
       <r>  103.9690    0.0000 </r>
       <r>  103.9690    0.0000 </r>
       <r>  104.7155    0.0000 </r>
       <r>  104.9924    0.0000 </r>
       <r>  106.0786    0.0000 </r>
       <r>  106.6349    0.0000 </r>
       <r>  106.6349    0.0000 </r>
       <r>  107.3263    0.0000 </r>
       <r>  107.3263    0.0000 </r>
       <r>  107.6509    0.0000 </r>
       <r>  108.7959    0.0000 </r>
       <r>  108.9604    0.0000 </r>
       <r>  108.9604    0.0000 </r>
       <r>  110.7155    0.0000 </r>
       <r>  111.3117    0.0000 </r>
       <r>  111.3117    0.0000 </r>
       <r>  112.7808    0.0000 </r>
       <r>  116.4607    0.0000 </r>
       <r>  116.4607    0.0000 </r>
       <r>  116.4709    0.0000 </r>
       <r>  117.0328    0.0000 </r>
       <r>  117.0328    0.0000 </r>
       <r>  118.7144    0.0000 </r>
       <r>  118.7144    0.0000 </r>
       <r>  119.7048    0.0000 </r>
       <r>  120.8541    0.0000 </r>
       <r>  120.8541    0.0000 </r>
       <r>  121.8605    0.0000 </r>
       <r>  122.4244    0.0000 </r>
      </set>
      <set comment="kpoint 6">
       <r>  -41.2780    1.0000 </r>
       <r>  -41.2775    1.0000 </r>
       <r>  -41.2775    1.0000 </r>
       <r>  -41.2774    1.0000 </r>
       <r>  -41.2770    1.0000 </r>
       <r>  -17.0808    1.0000 </r>
       <r>   -2.4691    1.0000 </r>
       <r>   -2.1100    1.0000 </r>
       <r>   -2.1100    1.0000 </r>
       <r>    3.7721    0.0000 </r>
       <r>    7.1210    0.0000 </r>
       <r>    8.5973    0.0000 </r>
       <r>    8.5973    0.0000 </r>
       <r>    8.7783    0.0000 </r>
       <r>   10.9118    0.0000 </r>
       <r>   11.4221    0.0000 </r>
       <r>   12.5159    0.0000 </r>
       <r>   12.5159    0.0000 </r>
       <r>   13.0229    0.0000 </r>
       <r>   16.6984    0.0000 </r>
       <r>   18.1107    0.0000 </r>
       <r>   18.4594    0.0000 </r>
       <r>   18.4594    0.0000 </r>
       <r>   21.0045    0.0000 </r>
       <r>   21.8427    0.0000 </r>
       <r>   21.8427    0.0000 </r>
       <r>   23.5255    0.0000 </r>
       <r>   24.2980    0.0000 </r>
       <r>   24.2980    0.0000 </r>
       <r>   24.8156    0.0000 </r>
       <r>   26.1103    0.0000 </r>
       <r>   26.7995    0.0000 </r>
       <r>   27.3470    0.0000 </r>
       <r>   28.9245    0.0000 </r>
       <r>   28.9245    0.0000 </r>
       <r>   30.7946    0.0000 </r>
       <r>   32.6190    0.0000 </r>
       <r>   32.6190    0.0000 </r>
       <r>   33.5711    0.0000 </r>
       <r>   34.7313    0.0000 </r>
       <r>   34.7313    0.0000 </r>
       <r>   34.7598    0.0000 </r>
       <r>   34.8832    0.0000 </r>
       <r>   36.2629    0.0000 </r>
       <r>   36.6860    0.0000 </r>
       <r>   37.8009    0.0000 </r>
       <r>   37.8009    0.0000 </r>
       <r>   37.9172    0.0000 </r>
       <r>   38.2809    0.0000 </r>
       <r>   39.5471    0.0000 </r>
       <r>   39.5471    0.0000 </r>
       <r>   39.8053    0.0000 </r>
       <r>   40.8553    0.0000 </r>
       <r>   40.8632    0.0000 </r>
       <r>   40.8632    0.0000 </r>
       <r>   41.1231    0.0000 </r>
       <r>   41.1231    0.0000 </r>
       <r>   42.0519    0.0000 </r>
       <r>   44.0817    0.0000 </r>
       <r>   44.7648    0.0000 </r>
       <r>   45.0542    0.0000 </r>
       <r>   45.7661    0.0000 </r>
       <r>   45.7661    0.0000 </r>
       <r>   46.7786    0.0000 </r>
       <r>   47.6188    0.0000 </r>
       <r>   47.6188    0.0000 </r>
       <r>   47.8444    0.0000 </r>
       <r>   48.7230    0.0000 </r>
       <r>   49.4157    0.0000 </r>
       <r>   49.4157    0.0000 </r>
       <r>   51.2061    0.0000 </r>
       <r>   53.0286    0.0000 </r>
       <r>   57.3958    0.0000 </r>
       <r>   57.6843    0.0000 </r>
       <r>   60.0630    0.0000 </r>
       <r>   60.0630    0.0000 </r>
       <r>   61.0620    0.0000 </r>
       <r>   61.7354    0.0000 </r>
       <r>   61.8923    0.0000 </r>
       <r>   61.8923    0.0000 </r>
       <r>   63.3171    0.0000 </r>
       <r>   63.7259    0.0000 </r>
       <r>   64.1814    0.0000 </r>
       <r>   64.1814    0.0000 </r>
       <r>   65.9054    0.0000 </r>
       <r>   65.9054    0.0000 </r>
       <r>   66.1142    0.0000 </r>
       <r>   66.4430    0.0000 </r>
       <r>   67.4047    0.0000 </r>
       <r>   67.9986    0.0000 </r>
       <r>   68.1155    0.0000 </r>
       <r>   68.1155    0.0000 </r>
       <r>   68.5027    0.0000 </r>
       <r>   69.5052    0.0000 </r>
       <r>   69.6717    0.0000 </r>
       <r>   69.6717    0.0000 </r>
       <r>   70.3071    0.0000 </r>
       <r>   70.6346    0.0000 </r>
       <r>   71.8763    0.0000 </r>
       <r>   72.4025    0.0000 </r>
       <r>   72.4025    0.0000 </r>
       <r>   72.4977    0.0000 </r>
       <r>   73.8580    0.0000 </r>
       <r>   73.8580    0.0000 </r>
       <r>   73.8580    0.0000 </r>
       <r>   74.9904    0.0000 </r>
       <r>   75.3113    0.0000 </r>
       <r>   75.9278    0.0000 </r>
       <r>   75.9278    0.0000 </r>
       <r>   76.6102    0.0000 </r>
       <r>   76.6407    0.0000 </r>
       <r>   77.4647    0.0000 </r>
       <r>   77.4647    0.0000 </r>
       <r>   77.5401    0.0000 </r>
       <r>   78.0447    0.0000 </r>
       <r>   78.0447    0.0000 </r>
       <r>   78.3308    0.0000 </r>
       <r>   78.3308    0.0000 </r>
       <r>   79.0071    0.0000 </r>
       <r>   80.2509    0.0000 </r>
       <r>   80.3921    0.0000 </r>
       <r>   80.8818    0.0000 </r>
       <r>   81.6389    0.0000 </r>
       <r>   81.6389    0.0000 </r>
       <r>   81.6721    0.0000 </r>
       <r>   82.5600    0.0000 </r>
       <r>   83.2716    0.0000 </r>
       <r>   83.8146    0.0000 </r>
       <r>   83.8146    0.0000 </r>
       <r>   84.8221    0.0000 </r>
       <r>   84.8699    0.0000 </r>
       <r>   84.8699    0.0000 </r>
       <r>   86.2977    0.0000 </r>
       <r>   86.2977    0.0000 </r>
       <r>   86.4082    0.0000 </r>
       <r>   87.8002    0.0000 </r>
       <r>   89.1407    0.0000 </r>
       <r>   89.4398    0.0000 </r>
       <r>   89.4398    0.0000 </r>
       <r>   90.0114    0.0000 </r>
       <r>   90.7814    0.0000 </r>
       <r>   91.7916    0.0000 </r>
       <r>   92.1544    0.0000 </r>
       <r>   92.1544    0.0000 </r>
       <r>   93.3023    0.0000 </r>
       <r>   93.7620    0.0000 </r>
       <r>   93.7620    0.0000 </r>
       <r>   93.8302    0.0000 </r>
       <r>   94.0374    0.0000 </r>
       <r>   94.1363    0.0000 </r>
       <r>   94.8604    0.0000 </r>
       <r>   94.8604    0.0000 </r>
       <r>   96.7711    0.0000 </r>
       <r>   97.8922    0.0000 </r>
       <r>   98.0276    0.0000 </r>
       <r>   98.3275    0.0000 </r>
       <r>   98.3661    0.0000 </r>
       <r>   98.3661    0.0000 </r>
       <r>   99.3687    0.0000 </r>
       <r>   99.3687    0.0000 </r>
       <r>   99.3884    0.0000 </r>
       <r>  100.0706    0.0000 </r>
       <r>  100.3307    0.0000 </r>
       <r>  100.8453    0.0000 </r>
       <r>  100.8453    0.0000 </r>
       <r>  103.5461    0.0000 </r>
       <r>  103.5628    0.0000 </r>
       <r>  103.8326    0.0000 </r>
       <r>  103.8326    0.0000 </r>
       <r>  103.8777    0.0000 </r>
       <r>  103.9924    0.0000 </r>
       <r>  105.0060    0.0000 </r>
       <r>  105.0060    0.0000 </r>
       <r>  107.0498    0.0000 </r>
       <r>  107.0498    0.0000 </r>
       <r>  107.1447    0.0000 </r>
       <r>  108.0759    0.0000 </r>
       <r>  109.9217    0.0000 </r>
       <r>  110.5631    0.0000 </r>
       <r>  111.3062    0.0000 </r>
       <r>  111.3062    0.0000 </r>
       <r>  111.3143    0.0000 </r>
       <r>  111.3143    0.0000 </r>
       <r>  113.6578    0.0000 </r>
       <r>  114.1791    0.0000 </r>
       <r>  116.4041    0.0000 </r>
       <r>  116.4041    0.0000 </r>
       <r>  116.8917    0.0000 </r>
       <r>  117.3904    0.0000 </r>
       <r>  117.9808    0.0000 </r>
       <r>  117.9926    0.0000 </r>
       <r>  118.6089    0.0000 </r>
       <r>  119.1815    0.0000 </r>
       <r>  119.1815    0.0000 </r>
       <r>  120.5611    0.0000 </r>
       <r>  121.4055    0.0000 </r>
      </set>
      <set comment="kpoint 7">
       <r>  -41.2780    1.0000 </r>
       <r>  -41.2776    1.0000 </r>
       <r>  -41.2774    1.0000 </r>
       <r>  -41.2772    1.0000 </r>
       <r>  -41.2769    1.0000 </r>
       <r>  -17.0234    1.0000 </r>
       <r>   -3.1168    1.0000 </r>
       <r>   -2.2443    1.0000 </r>
       <r>   -2.2317    1.0000 </r>
       <r>    4.7169    0.0000 </r>
       <r>    6.7828    0.0000 </r>
[...]
     <r>     2.8103     0.0000     0.0000     0.0000     0.0000     0.0000     0.0000 </r>
     <r>     2.8204     0.0000     0.0000     0.0000     0.0000     0.0000     0.0000 </r>
     <r>     2.8304     0.0000     0.0000     0.0000     0.0000     0.0000     0.0000 </r>
     <r>     2.8404     0.0000     0.0000     0.0000     0.0000     0.0000     0.0000 </r>
     <r>     2.8504     0.0000     0.0000     0.0000     0.0000     0.0000     0.0000 </r>
     <r>     2.8604     0.0000     0.0000     0.0000     0.0000     0.0000     0.0000 </r>
     <r>     2.8704     0.0000     0.0000     0.0000     0.0000     0.0000     0.0000 </r>
     <r>     2.8804     0.0000     0.0000     0.0000     0.0000     0.0000     0.0000 </r>
     <r>     2.8904     0.0000     0.0000     0.0000     0.0000     0.0000     0.0000 </r>
     <r>     2.9004     0.0000     0.0000     0.0000     0.0000     0.0000     0.0000 </r>
     <r>     2.9104     0.0000     0.0000     0.0000     0.0000     0.0000     0.0000 </r>
     <r>     2.9205     0.0000     0.0000     0.0000     0.0000     0.0000     0.0000 </r>
     <r>     2.9305     0.0000     0.0000     0.0000     0.0000     0.0000     0.0000 </r>
     <r>     2.9405     0.0000     0.0000     0.0000     0.0000     0.0000     0.0000 </r>
     <r>     2.9505     0.0000     0.0000     0.0000     0.0000     0.0000     0.0000 </r>
     <r>     2.9605     0.0000     0.0000     0.0000     0.0000     0.0000     0.0000 </r>
     <r>     2.9705     0.0000     0.0000     0.0000     0.0000     0.0000     0.0000 </r>
     <r>     2.9805     0.0000     0.0000     0.0000     0.0000     0.0000     0.0000 </r>
     <r>     2.9905     0.0000     0.0000     0.0000     0.0000     0.0000     0.0000 </r>
     <r>     3.0005     0.0000     0.0000     0.0000     0.0000     0.0000     0.0000 </r>
     <r>     3.0105     0.0000     0.0000     0.0000     0.0000     0.0000     0.0000 </r>
     <r>     3.0206     0.0000     0.0000     0.0000     0.0000     0.0000     0.0000 </r>
     <r>     3.0306     0.0000     0.0000     0.0000     0.0000     0.0000     0.0000 </r>
     <r>     3.0406     0.0000     0.0000     0.0000     0.0000     0.0000     0.0000 </r>
     <r>     3.0506     0.0000     0.0000     0.0000     0.0000     0.0000     0.0000 </r>
     <r>     3.0606     0.0000     0.0000     0.0000     0.0000     0.0000     0.0000 </r>
     <r>     3.0706     0.0000     0.0000     0.0000     0.0000     0.0000     0.0000 </r>
     <r>     3.0806     0.0000     0.0000     0.0000     0.0000     0.0000     0.0000 </r>
     <r>     3.0906     0.0000     0.0000     0.0000     0.0000     0.0000     0.0000 </r>
     <r>     3.1006     0.0000     0.0000     0.0000     0.0000     0.0000     0.0000 </r>
     <r>     3.1106     0.0000     0.0000     0.0000     0.0000     0.0000     0.0000 </r>
     <r>     3.1207     0.0000     0.0000     0.0000     0.0000     0.0000     0.0000 </r>
     <r>     3.1307     0.0000     0.0000     0.0000     0.0000     0.0000     0.0000 </r>
     <r>     3.1407     0.0000     0.0000     0.0000     0.0000     0.0000     0.0000 </r>
     <r>     3.1507     0.0000     0.0000     0.0000     0.0000     0.0000     0.0000 </r>
     <r>     3.1607     0.0000     0.0000     0.0000     0.0000     0.0000     0.0000 </r>
     <r>     3.1707     0.0000     0.0000     0.0000     0.0000     0.0000     0.0000 </r>
     <r>     3.1807     0.0000     0.0000     0.0000     0.0000     0.0000     0.0000 </r>
     <r>     3.1907     0.0000     0.0000     0.0000     0.0000     0.0000     0.0000 </r>
     <r>     3.2007     0.0000     0.0000     0.0000     0.0000     0.0000     0.0000 </r>
     <r>     3.2107     0.0000     0.0000     0.0000     0.0000     0.0000     0.0000 </r>
     <r>     3.2208     0.0000     0.0000     0.0000     0.0000     0.0000     0.0000 </r>
     <r>     3.2308     0.0000     0.0000     0.0000     0.0000     0.0000     0.0000 </r>
     <r>     3.2408     0.0000     0.0000     0.0000     0.0000     0.0000     0.0000 </r>
    </set>
   </array>
  </conductivity>
  <dos>
   <i name="efermi">     -1.75922930 </i>
   <total>
    <array>
     <dimension dim="1">gridpoints</dimension>
     <dimension dim="2">spin</dimension>
     <field>energy</field>
     <field>total</field>
     <field>integrated</field>
     <set>
      <set comment="spin 1">
       <r>   -49.4916     0.0000     0.0000 </r>
       <r>   -48.8893     0.0000     0.0000 </r>
       <r>   -48.2870     0.0000     0.0000 </r>
       <r>   -47.6847     0.0000     0.0000 </r>
       <r>   -47.0824     0.0000     0.0000 </r>
       <r>   -46.4801     0.0000     0.0000 </r>
       <r>   -45.8778     0.0000     0.0000 </r>
       <r>   -45.2755     0.0000     0.0000 </r>
       <r>   -44.6732     0.0000     0.0000 </r>
       <r>   -44.0708     0.0000     0.0000 </r>
       <r>   -43.4685     0.0000     0.0000 </r>
       <r>   -42.8662     0.0000     0.0000 </r>
       <r>   -42.2639     0.0000     0.0000 </r>
       <r>   -41.6616     0.0000     0.0000 </r>
       <r>   -41.0593     0.0000    10.0000 </r>
       <r>   -40.4570     0.0000    10.0000 </r>
       <r>   -39.8547     0.0000    10.0000 </r>
       <r>   -39.2524     0.0000    10.0000 </r>
       <r>   -38.6501     0.0000    10.0000 </r>
       <r>   -38.0478     0.0000    10.0000 </r>
       <r>   -37.4455     0.0000    10.0000 </r>
       <r>   -36.8432     0.0000    10.0000 </r>
       <r>   -36.2409     0.0000    10.0000 </r>
       <r>   -35.6386     0.0000    10.0000 </r>
       <r>   -35.0363     0.0000    10.0000 </r>
       <r>   -34.4340     0.0000    10.0000 </r>
       <r>   -33.8317     0.0000    10.0000 </r>
       <r>   -33.2294     0.0000    10.0000 </r>
       <r>   -32.6271     0.0000    10.0000 </r>
       <r>   -32.0248     0.0000    10.0000 </r>
       <r>   -31.4225     0.0000    10.0000 </r>
       <r>   -30.8202     0.0000    10.0000 </r>
       <r>   -30.2179     0.0000    10.0000 </r>
       <r>   -29.6156     0.0000    10.0000 </r>
       <r>   -29.0133     0.0000    10.0000 </r>
       <r>   -28.4110     0.0000    10.0000 </r>
       <r>   -27.8087     0.0000    10.0000 </r>
       <r>   -27.2064     0.0000    10.0000 </r>
       <r>   -26.6041     0.0000    10.0000 </r>
       <r>   -26.0018     0.0000    10.0000 </r>
       <r>   -25.3995     0.0000    10.0000 </r>
       <r>   -24.7972     0.0000    10.0000 </r>
       <r>   -24.1949     0.0000    10.0000 </r>
       <r>   -23.5926     0.0000    10.0000 </r>
       <r>   -22.9903     0.0000    10.0000 </r>
       <r>   -22.3880     0.0000    10.0000 </r>
       <r>   -21.7857     0.0000    10.0000 </r>
       <r>   -21.1834     0.0000    10.0000 </r>
       <r>   -20.5811     0.0000    10.0000 </r>
       <r>   -19.9788     0.0000    10.0000 </r>
       <r>   -19.3765     0.0000    10.0000 </r>
       <r>   -18.7742     0.0000    10.0000 </r>
       <r>   -18.1719     0.0000    10.0000 </r>
       <r>   -17.5696     0.0000    10.0000 </r>
       <r>   -16.9673     0.2323    10.6589 </r>
       <r>   -16.3650     0.0000    12.0000 </r>
       <r>   -15.7627     0.0000    12.0000 </r>
       <r>   -15.1604     0.0000    12.0000 </r>
       <r>   -14.5581     0.0000    12.0000 </r>
       <r>   -13.9558     0.0000    12.0000 </r>
       <r>   -13.3535     0.0000    12.0000 </r>
       <r>   -12.7512     0.0000    12.0000 </r>
       <r>   -12.1489     0.0000    12.0000 </r>
       <r>   -11.5466     0.0000    12.0000 </r>
       <r>   -10.9443     0.0000    12.0000 </r>
       <r>   -10.3420     0.0000    12.0000 </r>
       <r>    -9.7397     0.0000    12.0000 </r>
       <r>    -9.1374     0.0000    12.0000 </r>
       <r>    -8.5351     0.0000    12.0000 </r>
       <r>    -7.9328     0.0000    12.0000 </r>
       <r>    -7.3305     0.0000    12.0000 </r>
       <r>    -6.7282     0.0000    12.0000 </r>
       <r>    -6.1259     0.0000    12.0000 </r>
       <r>    -5.5236     0.0000    12.0000 </r>
       <r>    -4.9213     0.0000    12.0000 </r>
       <r>    -4.3190     0.0000    12.0000 </r>
       <r>    -3.7167     0.0002    12.2217 </r>
       <r>    -3.1144     0.2323    13.9825 </r>
       <r>    -2.5121     0.4636    15.8711 </r>
       <r>    -1.9098     0.0000    18.0000 </r>
       <r>    -1.3075     0.0000    18.0000 </r>
       <r>    -0.7052     0.0000    18.0000 </r>
       <r>    -0.1029     0.0000    18.0000 </r>
       <r>     0.4994     0.0000    18.0000 </r>
       <r>     1.1017     0.0000    18.0000 </r>
       <r>     1.7040     0.0000    18.0000 </r>
       <r>     2.3063     0.0000    18.0000 </r>
       <r>     2.9086     0.0000    18.0058 </r>
       <r>     3.5109     0.0000    18.0058 </r>
       <r>     4.1132     0.0000    18.0875 </r>
       <r>     4.7155     0.0055    18.2890 </r>
       <r>     5.3178     0.0000    19.2303 </r>
       <r>     5.9201     0.0000    19.8251 </r>
       <r>     6.5224     0.0000    20.6997 </r>
       <r>     7.1247     0.0581    21.8542 </r>
       <r>     7.7270     0.0000    22.7172 </r>
       <r>     8.3293     0.0000    24.0058 </r>
       <r>     8.9316     0.0000    24.9504 </r>
       <r>     9.5339     0.0001    25.5802 </r>
       <r>    10.1362     0.0000    26.6472 </r>
       <r>    10.7385     0.0000    27.4519 </r>
       <r>    11.3408     0.0000    28.1633 </r>
       <r>    11.9431     0.0000    30.0525 </r>
       <r>    12.5454     0.0000    30.7697 </r>
       <r>    13.1477     0.0000    31.3294 </r>
       <r>    13.7500     0.0000    32.4023 </r>
       <r>    14.3523     0.2323    34.5714 </r>
       <r>    14.9546     0.0000    35.4636 </r>
       <r>    15.5569     0.0000    37.6560 </r>
       <r>    16.1592     0.0000    38.4373 </r>
       <r>    16.7615     0.0000    39.9417 </r>
       <r>    17.3638     0.0000    42.8805 </r>
       <r>    17.9661     0.0000    44.6647 </r>
       <r>    18.5684     0.0000    45.4927 </r>
       <r>    19.1707     0.0000    46.3615 </r>
       <r>    19.7730     0.0000    47.0612 </r>
       <r>    20.3753     0.0000    48.6356 </r>
       <r>    20.9776     0.0000    49.7784 </r>
       <r>    21.5799     0.0000    51.8076 </r>
       <r>    22.1822     0.0000    53.7201 </r>
       <r>    22.7845     0.0000    55.5277 </r>
       <r>    23.3868     0.0000    57.0845 </r>
       <r>    23.9891     0.0000    57.7668 </r>
       <r>    24.5914     0.0774    59.4927 </r>
       <r>    25.1937     0.0000    60.6122 </r>
       <r>    25.7960     0.0000    61.3994 </r>
       <r>    26.3983     0.0000    62.7813 </r>
       <r>    27.0006     0.0582    64.3441 </r>
       <r>    27.6029     0.0000    66.1166 </r>
       <r>    28.2052     0.2323    68.8221 </r>
       <r>    28.8075     0.0000    69.6327 </r>
       <r>    29.4098     0.0000    71.8367 </r>
       <r>    30.0121     0.0000    72.6297 </r>
       <r>    30.6144     0.1175    73.2953 </r>
       <r>    31.2167     0.0000    74.9854 </r>
       <r>    31.8190     0.0000    76.9446 </r>
       <r>    32.4213     0.4647    79.3236 </r>
       <r>    33.0236     0.0052    80.8661 </r>
       <r>    33.6259     0.0579    82.4722 </r>
       <r>    34.2282     0.0000    83.9067 </r>
       <r>    34.8305     0.0134    85.1801 </r>
       <r>    35.4328     0.0000    86.9913 </r>
       <r>    36.0351     0.2323    88.6006 </r>
       <r>    36.6374     0.0000    89.5802 </r>
       <r>    37.2397     0.1549    91.1020 </r>
       <r>    37.8420     0.0000    93.1778 </r>
       <r>    38.4443     0.0000    95.1720 </r>
       <r>    39.0466     0.1605    96.6098 </r>
       <r>    39.6489     0.0000    98.0408 </r>
       <r>    40.2512     0.0000    99.9359 </r>
       <r>    40.8535     0.0003   101.4463 </r>
       <r>    41.4558     0.0000   103.9534 </r>
       <r>    42.0581     0.0581   105.3178 </r>
       <r>    42.6604     0.1162   106.9038 </r>
       <r>    43.2627     0.0000   108.7638 </r>
       <r>    43.8650     0.0000   110.9738 </r>
       <r>    44.4673     0.0000   112.7055 </r>
       <r>    45.0696     0.3098   114.4898 </r>
       <r>    45.6719     0.0000   116.0758 </r>
       <r>    46.2742     0.0000   118.1516 </r>
       <r>    46.8765     0.0000   119.3178 </r>
       <r>    47.4788     0.0000   121.0904 </r>
       <r>    48.0811     0.0000   122.9388 </r>
       <r>    48.6834     0.1162   125.1778 </r>
       <r>    49.2858     0.1162   126.8222 </r>
       <r>    49.8881     0.0000   128.4781 </r>
       <r>    50.4904     0.0000   130.5598 </r>
       <r>    51.0927     0.0000   132.4606 </r>
       <r>    51.6950     0.0001   134.4549 </r>
       <r>    52.2973     0.2323   136.4140 </r>
       <r>    52.8996     0.2323   138.2566 </r>
       <r>    53.5019     0.1162   139.5860 </r>
       <r>    54.1042     0.2323   141.5452 </r>
       <r>    54.7065     0.0000   143.3411 </r>
       <r>    55.3088     0.0000   145.4402 </r>
       <r>    55.9111     0.0000   147.8192 </r>
       <r>    56.5134     0.0000   149.3236 </r>
       <r>    57.1157     0.0000   151.3003 </r>
       <r>    57.7180     0.0000   153.1312 </r>
       <r>    58.3203     0.0000   155.4519 </r>
       <r>    58.9226     0.0000   157.2245 </r>
       <r>    59.5249     0.0000   160.0933 </r>
       <r>    60.1272     0.0000   161.8076 </r>
       <r>    60.7295     0.1549   163.6327 </r>
       <r>    61.3318     0.0000   165.9883 </r>
       <r>    61.9341     0.2323   168.7755 </r>
       <r>    62.5364     0.0000   170.9913 </r>
       <r>    63.1387     0.0000   172.6822 </r>
       <r>    63.7410     0.0000   173.9417 </r>
       <r>    64.3433     0.1162   175.6093 </r>
       <r>    64.9456     0.0000   178.2449 </r>
       <r>    65.5479     0.0000   180.8397 </r>
       <r>    66.1502     0.0000   182.7872 </r>
       <r>    66.7525     0.0000   184.5481 </r>
       <r>    67.3548     0.0000   186.6122 </r>
       <r>    67.9571     0.0000   188.5015 </r>
       <r>    68.5594     0.0000   191.3003 </r>
       <r>    69.1617     0.0000   193.2128 </r>
       <r>    69.7640     0.0000   195.0904 </r>
       <r>    70.3663     0.0000   197.1895 </r>
       <r>    70.9686     0.0000   199.2012 </r>
       <r>    71.5709     0.0000   202.0117 </r>
       <r>    72.1732     0.0000   204.3207 </r>
       <r>    72.7755     0.0581   206.3149 </r>
       <r>    73.3778     0.1158   208.5362 </r>
       <r>    73.9801     0.0000   210.6939 </r>
       <r>    74.5824     0.0000   213.2420 </r>
       <r>    75.1847     0.0000   215.2128 </r>
       <r>    75.7870     0.0000   217.4111 </r>
       <r>    76.3893     0.2323   220.1633 </r>
       <r>    76.9916     0.0000   222.1924 </r>
       <r>    77.5939     0.0000   224.3965 </r>
       <r>    78.1962     0.0000   227.2012 </r>
       <r>    78.7985     0.2323   228.6939 </r>
       <r>    79.4008     0.0000   231.2362 </r>
       <r>    80.0031     0.0000   233.0787 </r>
       <r>    80.6054     0.0000   235.6910 </r>
       <r>    81.2077     0.0000   238.0233 </r>
       <r>    81.8100     0.0000   240.0292 </r>
       <r>    82.4123     0.0000   242.4548 </r>
       <r>    83.0146     0.0000   245.0087 </r>
       <r>    83.6169     0.0000   247.5743 </r>
       <r>    84.2192     0.0000   250.0583 </r>
       <r>    84.8215     0.0738   252.6334 </r>
       <r>    85.4238     0.0000   254.9913 </r>
       <r>    86.0261     0.0000   257.6093 </r>
       <r>    86.6284     0.0000   260.1574 </r>
       <r>    87.2307     0.0000   262.1283 </r>
       <r>    87.8330     0.1558   264.1580 </r>
       <r>    88.4353     0.0000   266.8746 </r>
       <r>    89.0376     0.0000   269.1603 </r>
       <r>    89.6399     0.2323   271.8017 </r>
       <r>    90.2422     0.2323   273.6268 </r>
       <r>    90.8445     0.0000   276.3382 </r>
       <r>    91.4468     0.0000   279.4694 </r>
       <r>    92.0491     0.0000   281.5219 </r>
       <r>    92.6514     0.0000   283.9417 </r>
       <r>    93.2537     0.0000   286.4373 </r>
       <r>    93.8560     0.0000   289.2945 </r>
       <r>    94.4583     0.0000   291.3236 </r>
       <r>    95.0606     0.0000   293.7201 </r>
       <r>    95.6629     0.0000   296.7172 </r>
       <r>    96.2652     0.0000   299.0612 </r>
       <r>    96.8675     0.0000   301.0321 </r>
       <r>    97.4698     0.2323   303.9359 </r>
       <r>    98.0721     0.0000   306.1458 </r>
       <r>    98.6744     0.0000   308.7580 </r>
       <r>    99.2767     0.0000   311.4694 </r>
       <r>    99.8790     0.0000   314.4082 </r>
       <r>   100.4813     0.0000   317.1137 </r>
       <r>   101.0836     0.0000   319.0904 </r>
       <r>   101.6859     0.0010   321.4467 </r>
       <r>   102.2882     0.0000   323.9359 </r>
       <r>   102.8905     0.0000   326.5190 </r>
       <r>   103.4928     0.0000   329.3411 </r>
       <r>   104.0951     0.0000   332.3382 </r>
       <r>   104.6974     0.0000   334.8688 </r>
       <r>   105.2997     0.0001   337.2478 </r>
       <r>   105.9020     0.2287   339.8637 </r>
       <r>   106.5043     0.0000   342.4781 </r>
       <r>   107.1066     0.0000   345.0087 </r>
       <r>   107.7089     0.0071   348.6515 </r>
       <r>   108.3112     0.0172   351.1182 </r>
       <r>   108.9135     0.0000   354.1749 </r>
       <r>   109.5158     0.1162   357.3353 </r>
       <r>   110.1181     0.0000   359.0262 </r>
       <r>   110.7204     0.3098   361.0204 </r>
       <r>   111.3227     0.0000   363.9942 </r>
       <r>   111.9250     0.0635   366.7496 </r>
       <r>   112.5273     0.0000   368.3673 </r>
       <r>   113.1296     0.4647   372.3557 </r>
       <r>   113.7319     0.0000   374.5364 </r>
       <r>   114.3342     0.0000   377.9067 </r>
       <r>   114.9365     0.0000   380.4956 </r>
       <r>   115.5388     0.0000   383.6443 </r>
       <r>   116.1411     0.0000   385.8134 </r>
       <r>   116.7434     0.0000   388.3557 </r>
       <r>   117.3457     0.0000   390.0350 </r>
       <r>   117.9480     0.1162   390.8571 </r>
       <r>   118.5503     0.0038   391.2209 </r>
       <r>   119.1526     0.0000   391.5219 </r>
       <r>   119.7549     0.0000   391.7026 </r>
       <r>   120.3572     0.0000   391.7026 </r>
       <r>   120.9595     0.0000   391.8484 </r>
       <r>   121.5618     0.0000   391.8834 </r>
       <r>   122.1641     0.0000   391.9300 </r>
       <r>   122.7664     0.0000   391.9767 </r>
       <r>   123.3687     0.0000   392.0000 </r>
       <r>   123.9710     0.0000   392.0000 </r>
       <r>   124.5733     0.0000   392.0000 </r>
       <r>   125.1756     0.0000   392.0000 </r>
       <r>   125.7779     0.0000   392.0000 </r>
       <r>   126.3802     0.0000   392.0000 </r>
       <r>   126.9825     0.0000   392.0000 </r>
       <r>   127.5848     0.0000   392.0000 </r>
       <r>   128.1871     0.0000   392.0000 </r>
       <r>   128.7894     0.0000   392.0000 </r>
       <r>   129.3917     0.0000   392.0000 </r>
       <r>   129.9940     0.0000   392.0000 </r>
       <r>   130.5963     0.0000   392.0000 </r>
       <r>   131.1986     0.0000   392.0000 </r>
      </set>
     </set>
    </array>
   </total>
  </dos>
 </calculation>
 <structure name="finalpos" >
  <crystal>
   <varray name="basis" >
    <v>       4.41457561       0.00000000       0.00000000 </v>
    <v>       2.20728780       3.82313462      -0.00000000 </v>
    <v>       2.20728780       1.27437821       3.60448589 </v>
   </varray>
   <i name="volume">     60.83477135 </i>
   <varray name="rec_basis" >
    <v>       0.22652234      -0.13078273      -0.09247736 </v>
    <v>       0.00000000       0.26156547      -0.09247736 </v>
    <v>      -0.00000000       0.00000000       0.27743208 </v>
   </varray>
  </crystal>
  <varray name="positions" >
   <v>       0.00000000       0.00000000       0.00000000 </v>
  </varray>
  <varray name="velocities" >
   <v>       0.00000000       0.00000000       0.00000000 </v>
  </varray>
 </structure>
</modeling>
