    1    1    1    1
  0.6497030E+02  0.4512425E-09  0.4512425E-09  0.4512425E-09  0.1000000E-15
  1.000000000000000E-004
  CAR 
 Og_FCC                                  
     18     35     13
 
  0.0000000E+00  0.0000000E+00  0.0000000E+00  0.1371742E-02
    1      -29.048247   1.000000
    2      -29.048247   1.000000
    3      -29.048247   1.000000
    4      -29.046220   1.000000
    5      -29.046220   1.000000
    6      -22.044568   1.000000
    7        0.623011   0.794107
    8        0.623011   0.794107
    9        0.623011   0.794106
   10        2.831551  -0.000000
   11        9.745585   0.000000
   12        9.745585   0.000000
   13        9.745589   0.000000
 
  0.1111111E+00 -0.5928623E-17  0.6938894E-17  0.1097394E-01
    1      -29.048094   1.000000
    2      -29.047965   1.000000
    3      -29.047965   1.000000
    4      -29.046157   1.000000
    5      -29.046157   1.000000
    6      -22.037656   1.000000
    7        0.058464   1.000000
    8        0.583026   0.983389
    9        0.583026   0.983389
   10        3.495382   0.000000
   11        9.019866   0.000000
   12        9.865172   0.000000
   13        9.865174   0.000000
 
  0.2222222E+00 -0.3961282E-16  0.0000000E+00  0.1097394E-01
    1      -29.047670   1.000000
    2      -29.047631   1.000000
    3      -29.047631   1.000000
    4      -29.045543   1.000000
    5      -29.045543   1.000000
    6      -22.019929   1.000000
    7       -0.812503   1.000000
    8        0.485065   1.016233
    9        0.485065   1.016233
   10        4.518174   0.000000
   11        8.760083   0.000000
   12        9.895024   0.000000
   13        9.895025   0.000000
 
  0.3333333E+00 -0.2472476E-16  0.2775558E-16  0.1097394E-01
    1      -29.047708   1.000000
    2      -29.047708   1.000000
    3      -29.047192   1.000000
    4      -29.044377   1.000000
    5      -29.044377   1.000000
    6      -21.999569   1.000000
    7       -1.486875   1.000000
    8        0.378842   1.000251
    9        0.378842   1.000251
   10        5.087667   0.000000
   11        9.397037   0.000000
   12        9.579378   0.000000
   13        9.579381   0.000000
 
  0.4444444E+00 -0.7922564E-16  0.0000000E+00  0.1097394E-01
    1      -29.047847   1.000000
    2      -29.047847   1.000000
    3      -29.046896   1.000000
    4      -29.043522   1.000000
    5      -29.043522   1.000000
    6      -21.986228   1.000000
    7       -1.844134   1.000000
    8        0.312168   1.000005
    9        0.312168   1.000005
   10        5.220605   0.000000
   11        9.351872   0.000000
   12        9.351872   0.000000
   13        9.707678   0.000000
 
  0.1111111E+00  0.1111111E+00  0.1387779E-16  0.8230453E-02
    1      -29.048450   1.000000
    2      -29.047622   1.000000
    3      -29.047622   1.000000
    4      -29.046408   1.000000
    5      -29.045954   1.000000
    6      -22.035352   1.000000
    7        0.026868   1.000000
    8        0.496763   1.021333
    9        0.496763   1.021333
   10        3.721223   0.000000
   11        8.734290   0.000000
   12       10.030126   0.000000
   13       10.032106   0.000000
 
  0.2222222E+00  0.1111111E+00  0.1387779E-16  0.3292181E-01
    1      -29.048362   1.000000
    2      -29.047118   1.000000
    3      -29.047091   1.000000
    4      -29.046225   1.000000
    5      -29.045385   1.000000
    6      -22.021210   1.000000
    7       -0.625707   1.000000
    8        0.367411   1.000136
    9        0.402958   1.000820
   10        4.629285   0.000000
   11        8.355214   0.000000
   12        9.496931   0.000000
   13       10.248369   0.000000
 
  0.3333333E+00  0.1111111E+00  0.2775558E-16  0.3292181E-01
    1      -29.048009   1.000000
    2      -29.047095   1.000000
    3      -29.047058   1.000000
    4      -29.045229   1.000000
    5      -29.044267   1.000000
    6      -22.001738   1.000000
    7       -1.283319   1.000000
    8        0.257485   1.000000
    9        0.259004   1.000000
   10        5.388304   0.000000
   11        8.665484   0.000000
   12        8.858818   0.000000
   13       10.061985   0.000000
 
  0.4444444E+00  0.1111111E+00 -0.2775558E-16  0.3292181E-01
    1      -29.047914   1.000000
    2      -29.047278   1.000000
    3      -29.046750   1.000000
    4      -29.044221   1.000000
    5      -29.043466   1.000000
    6      -21.986053   1.000000
    7       -1.700473   1.000000
    8        0.100909   1.000000
    9        0.213569   1.000000
   10        5.654208   0.000000
   11        8.486727   0.000000
   12        9.734417   0.000000
   13        9.825346   0.000000
 
 -0.4444444E+00  0.1111111E+00 -0.1387779E-16  0.3292181E-01
    1      -29.047854   1.000000
    2      -29.047372   1.000000
    3      -29.046599   1.000000
    4      -29.043672   1.000000
    5      -29.043537   1.000000
    6      -21.981564   1.000000
    7       -1.805176   1.000000
    8        0.002272   1.000000
    9        0.252625   1.000000
   10        5.696389   0.000000
   11        8.430182   0.000000
   12        9.560674   0.000000
   13       10.561695   0.000000
 
 -0.3333333E+00  0.1111111E+00  0.0000000E+00  0.3292181E-01
    1      -29.047693   1.000000
    2      -29.047315   1.000000
    3      -29.046888   1.000000
    4      -29.044498   1.000000
    5      -29.043821   1.000000
    6      -21.990501   1.000000
    7       -1.586454   1.000000
    8        0.008705   1.000000
    9        0.359313   1.000087
   10        5.621570   0.000000
   11        8.675219   0.000000
   12        9.557260   0.000000
   13        9.621848   0.000000
 
 -0.2222222E+00  0.1111111E+00  0.2081668E-16  0.3292181E-01
    1      -29.047566   1.000000
    2      -29.047372   1.000000
    3      -29.047194   1.000000
    4      -29.045784   1.000000
    5      -29.044611   1.000000
    6      -22.008501   1.000000
    7       -1.085761   1.000000
    8        0.131737   1.000000
    9        0.488871   1.017829
   10        5.176770   0.000000
   11        8.642498   0.000000
   12        9.191326   0.000000
   13        9.924084   0.000000
 
 -0.1111111E+00  0.1111111E+00 -0.2927685E-17  0.1646091E-01
    1      -29.047980   1.000000
    2      -29.047586   1.000000
    3      -29.047497   1.000000
    4      -29.046307   1.000000
    5      -29.045594   1.000000
    6      -22.027109   1.000000
    7       -0.434339   1.000000
    8        0.355918   1.000072
    9        0.579693   0.992164
   10        4.249922   0.000000
   11        8.626514   0.000000
   12        9.802338   0.000000
   13       10.020108   0.000000
 
  0.2222222E+00  0.2222222E+00  0.0000000E+00  0.8230453E-02
    1      -29.048948   1.000000
    2      -29.046848   1.000000
    3      -29.045966   1.000000
    4      -29.045966   1.000000
    5      -29.045241   1.000000
    6      -22.011775   1.000000
    7       -0.795978   1.000000
    8        0.201295   1.000000
    9        0.201295   1.000000
   10        5.222992   0.000000
   11        7.809790   0.000000
   12        9.026299   0.000000
   13       10.773297   0.000000
 
  0.3333333E+00  0.2222222E+00  0.2775558E-16  0.3292181E-01
    1      -29.048882   1.000000
    2      -29.047053   1.000000
    3      -29.045719   1.000000
    4      -29.045017   1.000000
    5      -29.044221   1.000000
    6      -21.995907   1.000000
    7       -1.200103   1.000000
    8        0.007115   1.000000
    9        0.066110   1.000000
   10        5.857897   0.000000
   11        7.692195   0.000000
   12        8.650791   0.000000
   13       10.932868   0.000000
 
  0.4444444E+00  0.2222222E+00  0.2775558E-16  0.3292181E-01
    1      -29.048425   1.000000
    2      -29.046787   1.000000
    3      -29.045907   1.000000
    4      -29.044459   1.000000
    5      -29.043376   1.000000
    6      -21.981032   1.000000
    7       -1.503831   1.000000
    8       -0.280063   1.000000
    9        0.016878   1.000000
   10        6.236863   0.000000
   11        8.137550   0.000000
   12        8.574590   0.000000
   13       10.620606   0.000000
 
 -0.4444444E+00  0.2222222E+00  0.4163336E-16  0.3292181E-01
    1      -29.048122   1.000000
    2      -29.046081   1.000000
    3      -29.046008   1.000000
    4      -29.044414   1.000000
    5      -29.043468   1.000000
    6      -21.974220   1.000000
    7       -1.593993   1.000000
    8       -0.540960   1.000000
    9        0.071793   1.000000
   10        6.434766   0.000000
   11        8.062632   0.000000
   12        9.758051   0.000000
   13       10.303739   0.000000
 
 -0.3333333E+00  0.2222222E+00  0.3469447E-16  0.3292181E-01
    1      -29.047849   1.000000
    2      -29.046129   1.000000
    3      -29.046006   1.000000
    4      -29.044482   1.000000
    5      -29.044200   1.000000
    6      -21.978639   1.000000
    7       -1.494313   1.000000
    8       -0.608114   1.000000
    9        0.210677   1.000000
   10        6.551016   0.000000
   11        8.074557   0.000000
   12        9.536495   0.000000
   13       10.142204   0.000000
 
 -0.2222222E+00  0.2222222E+00  0.3495140E-16  0.1646091E-01
    1      -29.047564   1.000000
    2      -29.046814   1.000000
    3      -29.046057   1.000000
    4      -29.045898   1.000000
    5      -29.044049   1.000000
    6      -21.992176   1.000000
    7       -1.312658   1.000000
    8       -0.353011   1.000000
    9        0.376459   1.000221
   10        6.142300   0.000000
   11        8.424820   0.000000
   12        8.680673   0.000000
   13       10.111455   0.000000
 
  0.3333333E+00  0.3333333E+00  0.5551115E-16  0.8230453E-02
    1      -29.049500   1.000000
    2      -29.047373   1.000000
    3      -29.044427   1.000000
    4      -29.044090   1.000000
    5      -29.044090   1.000000
    6      -21.984807   1.000000
    7       -1.371620   1.000000
    8       -0.100830   1.000000
    9       -0.100830   1.000000
   10        5.850071   0.000000
   11        7.187458   0.000000
   12        9.307618   0.000000
   13       11.754319   0.000000
 
  0.4444444E+00  0.3333333E+00  0.5551115E-16  0.3292181E-01
    1      -29.049327   1.000000
    2      -29.047407   1.000000
    3      -29.044475   1.000000
    4      -29.043549   1.000000
    5      -29.043224   1.000000
    6      -21.973545   1.000000
    7       -1.526191   1.000000
    8       -0.343177   1.000000
    9       -0.175509   1.000000
   10        5.933339   0.000000
   11        7.259564   0.000000
   12        9.696828   0.000000
   13       11.791167   0.000000
 
 -0.4444444E+00  0.3333333E+00  0.6938894E-17  0.3292181E-01
    1      -29.048705   1.000000
    2      -29.046781   1.000000
    3      -29.044681   1.000000
    4      -29.043812   1.000000
    5      -29.043256   1.000000
    6      -21.967549   1.000000
    7       -1.467903   1.000000
    8       -0.770649   1.000000
    9       -0.131193   1.000000
   10        6.204650   0.000000
   11        7.990548   0.000000
   12        9.695157   0.000000
   13       11.400896   0.000000
 
 -0.3333333E+00  0.3333333E+00  0.2078294E-16  0.1646091E-01
    1      -29.048209   1.000000
    2      -29.045450   1.000000
    3      -29.045046   1.000000
    4      -29.044756   1.000000
    5      -29.044043   1.000000
    6      -21.969580   1.000000
    7       -1.210982   1.000000
    8       -1.140306   1.000000
    9        0.016750   1.000000
   10        6.558556   0.000000
   11        8.555404   0.000000
   12        9.907064   0.000000
   13       10.233048   0.000000
 
  0.4444444E+00  0.4444444E+00  0.0000000E+00  0.8230453E-02
    1      -29.049850   1.000000
    2      -29.047717   1.000000
    3      -29.043882   1.000000
    4      -29.042848   1.000000
    5      -29.042848   1.000000
    6      -21.967088   1.000000
    7       -1.654590   1.000000
    8       -0.282520   1.000000
    9       -0.282520   1.000000
   10        5.589186   0.000000
   11        6.875451   0.000000
   12       11.222974   0.000000
   13       12.640090   0.000000
 
 -0.4444444E+00  0.4444444E+00  0.6990280E-16  0.1646091E-01
    1      -29.049503   1.000000
    2      -29.047570   1.000000
    3      -29.043974   1.000000
    4      -29.042955   1.000000
    5      -29.042856   1.000000
    6      -21.964727   1.000000
    7       -1.624968   1.000000
    8       -0.481825   1.000000
    9       -0.265891   1.000000
   10        5.754289   0.000000
   11        7.112335   0.000000
   12       11.573848   0.000000
   13       11.583289   0.000000
 
  0.3333333E+00  0.2222222E+00  0.1111111E+00  0.3292181E-01
    1      -29.048249   1.000000
    2      -29.047109   1.000000
    3      -29.046258   1.000000
    4      -29.046036   1.000000
    5      -29.044569   1.000000
    6      -22.006207   1.000000
    7       -1.022597   1.000000
    8        0.030644   1.000000
    9        0.349708   1.000050
   10        5.473794   0.000000
   11        8.129134   0.000000
   12        8.804160   0.000000
   13       10.683309   0.000000
 
  0.4444444E+00  0.2222222E+00  0.1111111E+00  0.6584362E-01
    1      -29.047783   1.000000
    2      -29.047165   1.000000
    3      -29.046257   1.000000
    4      -29.044961   1.000000
    5      -29.043839   1.000000
    6      -21.989043   1.000000
    7       -1.404089   1.000000
    8       -0.241753   1.000000
    9        0.226214   1.000000
   10        6.178266   0.000000
   11        8.226843   0.000000
   12        8.554322   0.000000
   13       10.354623   0.000000
 
 -0.4444444E+00  0.2222222E+00  0.1111111E+00  0.6584362E-01
    1      -29.047708   1.000000
    2      -29.046996   1.000000
    3      -29.045951   1.000000
    4      -29.044352   1.000000
    5      -29.043534   1.000000
    6      -21.977783   1.000000
    7       -1.629190   1.000000
    8       -0.372540   1.000000
    9        0.118205   1.000000
   10        6.406472   0.000000
   11        7.907515   0.000000
   12        9.754178   0.000000
   13       10.171473   0.000000
 
  0.4444444E+00  0.3333333E+00  0.1111111E+00  0.3292181E-01
    1      -29.048722   1.000000
    2      -29.047182   1.000000
    3      -29.045395   1.000000
    4      -29.044113   1.000000
    5      -29.043715   1.000000
    6      -21.982366   1.000000
    7       -1.397158   1.000000
    8       -0.296810   1.000000
    9       -0.038556   1.000000
   10        6.268512   0.000000
   11        7.640568   0.000000
   12        8.604330   0.000000
   13       11.465144   0.000000
 
 -0.4444444E+00  0.3333333E+00  0.1111111E+00  0.6584362E-01
    1      -29.048095   1.000000
    2      -29.046864   1.000000
    3      -29.045437   1.000000
    4      -29.044066   1.000000
    5      -29.043320   1.000000
    6      -21.971935   1.000000
    7       -1.457462   1.000000
    8       -0.626206   1.000000
    9       -0.137522   1.000000
   10        6.649815   0.000000
   11        8.102585   0.000000
   12        8.579360   0.000000
   13       11.191935   0.000000
 
 -0.3333333E+00  0.3333333E+00  0.1111111E+00  0.6584362E-01
    1      -29.047738   1.000000
    2      -29.046191   1.000000
    3      -29.045172   1.000000
    4      -29.044969   1.000000
    5      -29.043404   1.000000
    6      -21.969550   1.000000
    7       -1.377239   1.000000
    8       -0.883911   1.000000
    9       -0.093612   1.000000
   10        6.970244   0.000000
   11        7.960292   0.000000
   12        9.591580   0.000000
   13       10.150200   0.000000
 
 -0.2222222E+00  0.3333333E+00  0.1111111E+00  0.3292181E-01
    1      -29.047482   1.000000
    2      -29.046756   1.000000
    3      -29.045755   1.000000
    4      -29.044191   1.000000
    5      -29.044187   1.000000
    6      -21.976339   1.000000
    7       -1.386471   1.000000
    8       -0.728032   1.000000
    9        0.065067   1.000000
   10        7.072421   0.000000
   11        7.746381   0.000000
   12        8.766221   0.000000
   13       10.792547   0.000000
 
 -0.4444444E+00  0.4444444E+00  0.1111111E+00  0.3292181E-01
    1      -29.049022   1.000000
    2      -29.047397   1.000000
    3      -29.044348   1.000000
    4      -29.043488   1.000000
    5      -29.042860   1.000000
    6      -21.966762   1.000000
    7       -1.546640   1.000000
    8       -0.491709   1.000000
    9       -0.323163   1.000000
   10        6.073358   0.000000
   11        7.373450   0.000000
   12       10.020691   0.000000
   13       11.686542   0.000000
 
 -0.3333333E+00  0.4444444E+00  0.1111111E+00  0.3292181E-01
    1      -29.048229   1.000000
    2      -29.046793   1.000000
    3      -29.044540   1.000000
    4      -29.044501   1.000000
    5      -29.042887   1.000000
    6      -21.965211   1.000000
    7       -1.378024   1.000000
    8       -0.859685   1.000000
    9       -0.287094   1.000000
   10        6.524994   0.000000
   11        8.092688   0.000000
   12        9.609805   0.000000
   13       10.314465   0.000000
 
 -0.3333333E+00  0.4444444E+00  0.2222222E+00  0.3292181E-01
    1      -29.046958   1.000000
    2      -29.046915   1.000000
    3      -29.045661   1.000000
    4      -29.044645   1.000000
    5      -29.042874   1.000000
    6      -21.966002   1.000000
    7       -1.253353   1.000000
    8       -0.947142   1.000000
    9       -0.352482   1.000000
   10        7.282149   0.000000
   11        8.227202   0.000000
   12        8.662359   0.000000
   13        9.938959   0.000000
