Og_FCC                                  
           1
     4.512425    0.000000    0.000000
     2.256212    3.907874   -0.000000
     2.256212    1.302625    3.684379
   Og
   1
Direct configuration=     1
   0.00000000  0.00000000  0.00000000
