   1   1   0   0
  0.6008441E+02  0.4396350E-09  0.4396350E-09  0.4396350E-09  0.1000000E-15
  1.000000000000000E-004
  CAR 
 Og_FCC                                  
     26.58660367   -231.82434088  301      3.76931433      1.00000000
   -231.824  0.0000E+00  0.0000E+00
   -230.963  0.0000E+00  0.0000E+00
   -230.102  0.0000E+00  0.0000E+00
   -229.240  0.0000E+00  0.0000E+00
   -228.379  0.0000E+00  0.0000E+00
   -227.517  0.0000E+00  0.0000E+00
   -226.656  0.0000E+00  0.0000E+00
   -225.795  0.0000E+00  0.0000E+00
   -224.933  0.0000E+00  0.0000E+00
   -224.072  0.0000E+00  0.0000E+00
   -223.211  0.0000E+00  0.0000E+00
   -222.349  0.0000E+00  0.0000E+00
   -221.488  0.0000E+00  0.0000E+00
   -220.627  0.0000E+00  0.0000E+00
   -219.765  0.0000E+00  0.2000E+01
   -218.904  0.0000E+00  0.2000E+01
   -218.042  0.0000E+00  0.2000E+01
   -217.181  0.0000E+00  0.2000E+01
   -216.320  0.0000E+00  0.2000E+01
   -215.458  0.0000E+00  0.2000E+01
   -214.597  0.0000E+00  0.2000E+01
   -213.736  0.0000E+00  0.2000E+01
   -212.874  0.0000E+00  0.2000E+01
   -212.013  0.0000E+00  0.2000E+01
   -211.151  0.0000E+00  0.2000E+01
   -210.290  0.0000E+00  0.2000E+01
   -209.429  0.0000E+00  0.2000E+01
   -208.567  0.0000E+00  0.2000E+01
   -207.706  0.0000E+00  0.2000E+01
   -206.845  0.0000E+00  0.2000E+01
   -205.983  0.0000E+00  0.2000E+01
   -205.122  0.0000E+00  0.2000E+01
   -204.261  0.0000E+00  0.2000E+01
   -203.399  0.0000E+00  0.2000E+01
   -202.538  0.0000E+00  0.2000E+01
   -201.676  0.0000E+00  0.2000E+01
   -200.815  0.0000E+00  0.2000E+01
   -199.954  0.0000E+00  0.2000E+01
   -199.092  0.0000E+00  0.2000E+01
   -198.231  0.0000E+00  0.2000E+01
   -197.370  0.0000E+00  0.2000E+01
   -196.508  0.0000E+00  0.2000E+01
   -195.647  0.0000E+00  0.2000E+01
   -194.785  0.0000E+00  0.2000E+01
   -193.924  0.0000E+00  0.2000E+01
   -193.063  0.0000E+00  0.2000E+01
   -192.201  0.0000E+00  0.2000E+01
   -191.340  0.0000E+00  0.2000E+01
   -190.479  0.0000E+00  0.2000E+01
   -189.617  0.0000E+00  0.2000E+01
   -188.756  0.0000E+00  0.2000E+01
   -187.894  0.0000E+00  0.2000E+01
   -187.033  0.0000E+00  0.2000E+01
   -186.172  0.0000E+00  0.2000E+01
   -185.310  0.0000E+00  0.2000E+01
   -184.449  0.0000E+00  0.2000E+01
   -183.588  0.0000E+00  0.2000E+01
   -182.726  0.0000E+00  0.2000E+01
   -181.865  0.0000E+00  0.2000E+01
   -181.004  0.0000E+00  0.2000E+01
   -180.142  0.0000E+00  0.2000E+01
   -179.281  0.0000E+00  0.2000E+01
   -178.419  0.0000E+00  0.2000E+01
   -177.558  0.0000E+00  0.2000E+01
   -176.697  0.0000E+00  0.2000E+01
   -175.835  0.0000E+00  0.2000E+01
   -174.974  0.0000E+00  0.2000E+01
   -174.113  0.0000E+00  0.2000E+01
   -173.251  0.0000E+00  0.2000E+01
   -172.390  0.0000E+00  0.2000E+01
   -171.528  0.0000E+00  0.2000E+01
   -170.667  0.0000E+00  0.2000E+01
   -169.806  0.0000E+00  0.2000E+01
   -168.944  0.0000E+00  0.2000E+01
   -168.083  0.0000E+00  0.2000E+01
   -167.222  0.0000E+00  0.2000E+01
   -166.360  0.0000E+00  0.2000E+01
   -165.499  0.0000E+00  0.2000E+01
   -164.637  0.0000E+00  0.2000E+01
   -163.776  0.0000E+00  0.2000E+01
   -162.915  0.0000E+00  0.2000E+01
   -162.053  0.0000E+00  0.2000E+01
   -161.192  0.0000E+00  0.2000E+01
   -160.331  0.0000E+00  0.2000E+01
   -159.469  0.0000E+00  0.2000E+01
   -158.608  0.0000E+00  0.2000E+01
   -157.747  0.0000E+00  0.2000E+01
   -156.885  0.0000E+00  0.2000E+01
   -156.024  0.0000E+00  0.2000E+01
   -155.162  0.0000E+00  0.2000E+01
   -154.301  0.0000E+00  0.2000E+01
   -153.440  0.0000E+00  0.2000E+01
   -152.578  0.0000E+00  0.2000E+01
   -151.717  0.0000E+00  0.2000E+01
   -150.856  0.0000E+00  0.2000E+01
   -149.994  0.0000E+00  0.2000E+01
   -149.133  0.0000E+00  0.2000E+01
   -148.271  0.0000E+00  0.2000E+01
   -147.410  0.0000E+00  0.2000E+01
   -146.549  0.0000E+00  0.2000E+01
   -145.687  0.0000E+00  0.2000E+01
   -144.826  0.0000E+00  0.2000E+01
   -143.965  0.0000E+00  0.2000E+01
   -143.103  0.0000E+00  0.2000E+01
   -142.242  0.0000E+00  0.2000E+01
   -141.381  0.0000E+00  0.2000E+01
   -140.519  0.0000E+00  0.2000E+01
   -139.658  0.0000E+00  0.2000E+01
   -138.796  0.0000E+00  0.3944E+01
   -137.935  0.0000E+00  0.4000E+01
   -137.074  0.0000E+00  0.4000E+01
   -136.212  0.0000E+00  0.4000E+01
   -135.351  0.0000E+00  0.4000E+01
   -134.490  0.0000E+00  0.4000E+01
   -133.628  0.0000E+00  0.4000E+01
   -132.767  0.0000E+00  0.4000E+01
   -131.905  0.0000E+00  0.4000E+01
   -131.044  0.0000E+00  0.4000E+01
   -130.183  0.0000E+00  0.4000E+01
   -129.321  0.0000E+00  0.4000E+01
   -128.460  0.0000E+00  0.4000E+01
   -127.599  0.0000E+00  0.4000E+01
   -126.737  0.0000E+00  0.4000E+01
   -125.876  0.0000E+00  0.4000E+01
   -125.014  0.0000E+00  0.4000E+01
   -124.153  0.0000E+00  0.4000E+01
   -123.292  0.0000E+00  0.4000E+01
   -122.430  0.0000E+00  0.4000E+01
   -121.569  0.0000E+00  0.4000E+01
   -120.708  0.0000E+00  0.4000E+01
   -119.846  0.0000E+00  0.4000E+01
   -118.985  0.0000E+00  0.4000E+01
   -118.124  0.0000E+00  0.4000E+01
   -117.262  0.0000E+00  0.4000E+01
   -116.401  0.0000E+00  0.4000E+01
   -115.539  0.0000E+00  0.4000E+01
   -114.678  0.0000E+00  0.4000E+01
   -113.817  0.0000E+00  0.4000E+01
   -112.955  0.0000E+00  0.4000E+01
   -112.094  0.0000E+00  0.4000E+01
   -111.233  0.0000E+00  0.4000E+01
   -110.371  0.0000E+00  0.4000E+01
   -109.510  0.0000E+00  0.4000E+01
   -108.648  0.0000E+00  0.4000E+01
   -107.787  0.0000E+00  0.4000E+01
   -106.926  0.0000E+00  0.4000E+01
   -106.064  0.0000E+00  0.4000E+01
   -105.203  0.0000E+00  0.4000E+01
   -104.342  0.0000E+00  0.4000E+01
   -103.480  0.0000E+00  0.4000E+01
   -102.619  0.0000E+00  0.4000E+01
   -101.757  0.0000E+00  0.4000E+01
   -100.896  0.0000E+00  0.4000E+01
   -100.035  0.0000E+00  0.4000E+01
    -99.173  0.0000E+00  0.4000E+01
    -98.312  0.0000E+00  0.4000E+01
    -97.451  0.0000E+00  0.4000E+01
    -96.589  0.0000E+00  0.4000E+01
    -95.728  0.0000E+00  0.4000E+01
    -94.867  0.0000E+00  0.4000E+01
    -94.005  0.0000E+00  0.4000E+01
    -93.144  0.0000E+00  0.4000E+01
    -92.282  0.0000E+00  0.4000E+01
    -91.421  0.0000E+00  0.4000E+01
    -90.560  0.0000E+00  0.8000E+01
    -89.698  0.0000E+00  0.8000E+01
    -88.837  0.0000E+00  0.8000E+01
    -87.976  0.0000E+00  0.8000E+01
    -87.114  0.0000E+00  0.8000E+01
    -86.253  0.0000E+00  0.8000E+01
    -85.391  0.0000E+00  0.8000E+01
    -84.530  0.0000E+00  0.8000E+01
    -83.669  0.0000E+00  0.8000E+01
    -82.807  0.0000E+00  0.8000E+01
    -81.946  0.0000E+00  0.8000E+01
    -81.085  0.0000E+00  0.8000E+01
    -80.223  0.0000E+00  0.8000E+01
    -79.362  0.0000E+00  0.8000E+01
    -78.501  0.0000E+00  0.8000E+01
    -77.639  0.0000E+00  0.8000E+01
    -76.778  0.0000E+00  0.8000E+01
    -75.916  0.0000E+00  0.8000E+01
    -75.055  0.0000E+00  0.8000E+01
    -74.194  0.0000E+00  0.8000E+01
    -73.332  0.0000E+00  0.8000E+01
    -72.471  0.0000E+00  0.8000E+01
    -71.610  0.0000E+00  0.8000E+01
    -70.748  0.0000E+00  0.8000E+01
    -69.887  0.0000E+00  0.8000E+01
    -69.025  0.0000E+00  0.8000E+01
    -68.164  0.0000E+00  0.8000E+01
    -67.303  0.0000E+00  0.8000E+01
    -66.441  0.0000E+00  0.8000E+01
    -65.580  0.0000E+00  0.8000E+01
    -64.719  0.0000E+00  0.8000E+01
    -63.857  0.0000E+00  0.8000E+01
    -62.996  0.0000E+00  0.8000E+01
    -62.134  0.0000E+00  0.8000E+01
    -61.273  0.0000E+00  0.8000E+01
    -60.412  0.0000E+00  0.8000E+01
    -59.550  0.0000E+00  0.8000E+01
    -58.689  0.0000E+00  0.8000E+01
    -57.828  0.0000E+00  0.8000E+01
    -56.966  0.0000E+00  0.8000E+01
    -56.105  0.0000E+00  0.8000E+01
    -55.244  0.0000E+00  0.8000E+01
    -54.382  0.0000E+00  0.8000E+01
    -53.521  0.0000E+00  0.8000E+01
    -52.659  0.0000E+00  0.8000E+01
    -51.798  0.0000E+00  0.8000E+01
    -50.937  0.0000E+00  0.8000E+01
    -50.075  0.0000E+00  0.8000E+01
    -49.214  0.0000E+00  0.8000E+01
    -48.353  0.0000E+00  0.8000E+01
    -47.491  0.0000E+00  0.8000E+01
    -46.630  0.0000E+00  0.8000E+01
    -45.768  0.0000E+00  0.8000E+01
    -44.907  0.0000E+00  0.8000E+01
    -44.046  0.0000E+00  0.8000E+01
    -43.184  0.0000E+00  0.8000E+01
    -42.323  0.0000E+00  0.8000E+01
    -41.462  0.0000E+00  0.8000E+01
    -40.600  0.0000E+00  0.8000E+01
    -39.739  0.0000E+00  0.8000E+01
    -38.878  0.0000E+00  0.8000E+01
    -38.016  0.0000E+00  0.8000E+01
    -37.155  0.0000E+00  0.8000E+01
    -36.293  0.0000E+00  0.8000E+01
    -35.432  0.0000E+00  0.8000E+01
    -34.571  0.0000E+00  0.8000E+01
    -33.709  0.0000E+00  0.8000E+01
    -32.848  0.0000E+00  0.1200E+02
    -31.987  0.0000E+00  0.1200E+02
    -31.125  0.0000E+00  0.1200E+02
    -30.264  0.0000E+00  0.1200E+02
    -29.402  0.0000E+00  0.1200E+02
    -28.541  0.0000E+00  0.1200E+02
    -27.680  0.0000E+00  0.1200E+02
    -26.818  0.0000E+00  0.1200E+02
    -25.957  0.0000E+00  0.1800E+02
    -25.096  0.0000E+00  0.1800E+02
    -24.234  0.0000E+00  0.1800E+02
    -23.373  0.0000E+00  0.1800E+02
    -22.511  0.0000E+00  0.1800E+02
    -21.650  0.0000E+00  0.1800E+02
    -20.789  0.0000E+00  0.2000E+02
    -19.927  0.0000E+00  0.2000E+02
    -19.066  0.0000E+00  0.2000E+02
    -18.205  0.0000E+00  0.2000E+02
    -17.343  0.0000E+00  0.2000E+02
    -16.482  0.0000E+00  0.2000E+02
    -15.621  0.0000E+00  0.2000E+02
    -14.759  0.0000E+00  0.2000E+02
    -13.898  0.0000E+00  0.2000E+02
    -13.036  0.0000E+00  0.2000E+02
    -12.175  0.0000E+00  0.2000E+02
    -11.314  0.0000E+00  0.2000E+02
    -10.452  0.0000E+00  0.2000E+02
     -9.591  0.0000E+00  0.2000E+02
     -8.730  0.0000E+00  0.2000E+02
     -7.868  0.0000E+00  0.2000E+02
     -7.007  0.0000E+00  0.2000E+02
     -6.145  0.0000E+00  0.2000E+02
     -5.284  0.0000E+00  0.2000E+02
     -4.423  0.0000E+00  0.2000E+02
     -3.561  0.0000E+00  0.2145E+02
     -2.700  0.0000E+00  0.2200E+02
     -1.839  0.0000E+00  0.2200E+02
     -0.977  0.0000E+00  0.2200E+02
     -0.116  0.0000E+00  0.2200E+02
      0.746  0.0000E+00  0.2200E+02
      1.607  0.5974E-02  0.2376E+02
      2.468  0.0000E+00  0.2491E+02
      3.330  0.0000E+00  0.2583E+02
      4.191  0.0000E+00  0.2601E+02
      5.052  0.0000E+00  0.2601E+02
      5.914  0.0000E+00  0.2608E+02
      6.775  0.0000E+00  0.2639E+02
      7.636  0.0000E+00  0.2756E+02
      8.498  0.0000E+00  0.2808E+02
      9.359  0.0000E+00  0.2958E+02
     10.221  0.0000E+00  0.3032E+02
     11.082  0.0000E+00  0.3197E+02
     11.943  0.0000E+00  0.3369E+02
     12.805  0.0000E+00  0.3444E+02
     13.666  0.0000E+00  0.3561E+02
     14.527  0.0000E+00  0.3594E+02
     15.389  0.0000E+00  0.3600E+02
     16.250  0.0000E+00  0.3600E+02
     17.112  0.0000E+00  0.3600E+02
     17.973  0.0000E+00  0.3600E+02
     18.834  0.0000E+00  0.3600E+02
     19.696  0.0000E+00  0.3600E+02
     20.557  0.0000E+00  0.3600E+02
     21.418  0.0000E+00  0.3600E+02
     22.280  0.0000E+00  0.3600E+02
     23.141  0.0000E+00  0.3600E+02
     24.002  0.0000E+00  0.3600E+02
     24.864  0.0000E+00  0.3600E+02
     25.725  0.0000E+00  0.3600E+02
     26.587  0.0000E+00  0.3600E+02
