    1    1    1    1
  0.6008441E+02  0.4396350E-09  0.4396350E-09  0.4396350E-09  0.1000000E-15
  1.000000000000000E-004
  CAR 
 Og_FCC                                  
     26    216     36
 
  0.0000000E+00  0.0000000E+00  0.0000000E+00  0.4629630E-02
    1     -220.076196   1.000000
    2     -220.076163   1.000000
    3     -139.434320   1.000000
    4     -139.434300   1.000000
    5      -90.764781   1.000000
    6      -90.764767   1.000000
    7      -90.764625   1.000000
    8      -90.764611   1.000000
    9      -33.269480   1.000000
   10      -33.269426   1.000000
   11      -33.269309   1.000000
   12      -33.269257   1.000000
   13      -26.135055   1.000000
   14      -26.134378   1.000000
   15      -26.113619   1.000000
   16      -26.113232   1.000000
   17      -26.113039   1.000000
   18      -26.112651   1.000000
   19      -21.366062   1.000000
   20      -21.365396   1.000000
   21       -2.927735   1.000000
   22       -2.926512   1.000000
   23        3.676178   1.000000
   24        3.676506   1.000000
   25        3.766961   0.999564
   26        3.766991   0.999491
   27        3.771637   0.000510
   28        3.771668   0.000436
   29       10.742839   0.000000
   30       10.742936   0.000000
   31       10.743592   0.000000
   32       10.743688   0.000000
   33       11.214164   0.000000
   34       11.214701   0.000000
   35       11.223103   0.000000
   36       11.224523   0.000000
 
  0.1666667E+00 -0.4006644E-16 -0.6938894E-17  0.4629630E-02
    1     -220.058432   1.000000
    2     -220.058398   1.000000
    3     -139.159762   1.000000
    4     -139.159743   1.000000
    5      -90.744478   1.000000
    6      -90.744364   1.000000
    7      -90.706784   1.000000
    8      -90.706684   1.000000
    9      -33.258729   1.000000
   10      -33.258586   1.000000
   11      -33.240620   1.000000
   12      -33.240484   1.000000
   13      -26.112220   1.000000
   14      -26.112172   1.000000
   15      -26.080780   1.000000
   16      -26.080147   1.000000
   17      -26.073008   1.000000
   18      -26.072783   1.000000
   19      -21.346133   1.000000
   20      -21.345468   1.000000
   21       -3.115194   1.000000
   22       -3.114029   1.000000
   23        2.238531   1.000000
   24        2.240535   1.000000
   25        3.627317   1.000000
   26        3.630422   1.000000
   27        5.396672   0.000000
   28        5.397489   0.000000
   29        9.873496   0.000000
   30        9.874218   0.000000
   31       10.899662   0.000000
   32       10.900016   0.000000
   33       11.334693   0.000000
   34       11.335099   0.000000
   35       12.221788   0.000000
   36       12.222542   0.000000
 
  0.3333333E+00 -0.2462172E-16  0.4163336E-16  0.4629630E-02
    1     -220.036737   1.000000
    2     -220.036704   1.000000
    3     -138.834888   1.000000
    4     -138.834870   1.000000
    5      -90.691251   1.000000
    6      -90.691151   1.000000
    7      -90.663278   1.000000
    8      -90.663165   1.000000
    9      -33.231552   1.000000
   10      -33.231417   1.000000
   11      -33.218205   1.000000
   12      -33.218061   1.000000
   13      -26.063083   1.000000
   14      -26.062942   1.000000
   15      -26.048957   1.000000
   16      -26.048324   1.000000
   17      -26.037573   1.000000
   18      -26.037341   1.000000
   19      -21.305768   1.000000
   20      -21.305104   1.000000
   21       -3.484141   1.000000
   22       -3.483101   1.000000
   23        1.337135   1.000000
   24        1.339260   1.000000
   25        3.377321   1.000000
   26        3.380223   1.000000
   27        6.153692   0.000000
   28        6.154167   0.000000
   29       10.502460   0.000000
   30       10.502813   0.000000
   31       10.707483   0.000000
   32       10.708295   0.000000
   33       10.992507   0.000000
   34       10.993748   0.000000
   35       11.357983   0.000000
   36       11.358631   0.000000
 
  0.5000000E+00 -0.2305480E-16  0.5551115E-16  0.4629630E-02
    1     -220.067385   1.000000
    2     -220.067351   1.000000
    3     -139.304408   1.000000
    4     -139.304390   1.000000
    5      -90.749599   1.000000
    6      -90.749499   1.000000
    7      -90.742588   1.000000
    8      -90.742474   1.000000
    9      -33.260995   1.000000
   10      -33.260860   1.000000
   11      -33.256285   1.000000
   12      -33.256141   1.000000
   13      -26.105873   1.000000
   14      -26.105423   1.000000
   15      -26.101593   1.000000
   16      -26.100961   1.000000
   17      -26.100633   1.000000
   18      -26.099972   1.000000
   19      -21.285473   1.000000
   20      -21.284810   1.000000
   21       -3.670175   1.000000
   22       -3.669198   1.000000
   23        1.042364   1.000000
   24        1.044494   1.000000
   25        3.255933   1.000000
   26        3.258754   1.000000
   27        6.178791   0.000000
   28        6.179380   0.000000
   29       10.230151   0.000000
   30       10.230638   0.000000
   31       10.685672   0.000000
   32       10.687087   0.000000
   33       10.760547   0.000000
   34       10.761111   0.000000
   35       12.722729   0.000000
   36       12.723267   0.000000
 
 -0.3333333E+00  0.2462172E-16 -0.4163336E-16  0.4629630E-02
    1     -220.036737   1.000000
    2     -220.036704   1.000000
    3     -138.834888   1.000000
    4     -138.834870   1.000000
    5      -90.691251   1.000000
    6      -90.691151   1.000000
    7      -90.663278   1.000000
    8      -90.663165   1.000000
    9      -33.231552   1.000000
   10      -33.231417   1.000000
   11      -33.218205   1.000000
   12      -33.218061   1.000000
   13      -26.063083   1.000000
   14      -26.062942   1.000000
   15      -26.048957   1.000000
   16      -26.048324   1.000000
   17      -26.037573   1.000000
   18      -26.037341   1.000000
   19      -21.305768   1.000000
   20      -21.305104   1.000000
   21       -3.484141   1.000000
   22       -3.483101   1.000000
   23        1.337135   1.000000
   24        1.339260   1.000000
   25        3.377321   1.000000
   26        3.380223   1.000000
   27        6.153692   0.000000
   28        6.154167   0.000000
   29       10.502460   0.000000
   30       10.502813   0.000000
   31       10.707483   0.000000
   32       10.708295   0.000000
   33       10.992507   0.000000
   34       10.993748   0.000000
   35       11.357983   0.000000
   36       11.358631   0.000000
 
 -0.1666667E+00  0.4006644E-16  0.6938894E-17  0.4629630E-02
    1     -220.058432   1.000000
    2     -220.058398   1.000000
    3     -139.159762   1.000000
    4     -139.159743   1.000000
    5      -90.744478   1.000000
    6      -90.744364   1.000000
    7      -90.706784   1.000000
    8      -90.706684   1.000000
    9      -33.258729   1.000000
   10      -33.258586   1.000000
   11      -33.240620   1.000000
   12      -33.240484   1.000000
   13      -26.112220   1.000000
   14      -26.112172   1.000000
   15      -26.080780   1.000000
   16      -26.080147   1.000000
   17      -26.073008   1.000000
   18      -26.072783   1.000000
   19      -21.346133   1.000000
   20      -21.345468   1.000000
   21       -3.115194   1.000000
   22       -3.114029   1.000000
   23        2.238531   1.000000
   24        2.240535   1.000000
   25        3.627317   1.000000
   26        3.630422   1.000000
   27        5.396672   0.000000
   28        5.397489   0.000000
   29        9.873496   0.000000
   30        9.874218   0.000000
   31       10.899662   0.000000
   32       10.900016   0.000000
   33       11.334693   0.000000
   34       11.335099   0.000000
   35       12.221787   0.000000
   36       12.222540   0.000000
 
 -0.1925930E-33  0.1666667E+00  0.0000000E+00  0.4629630E-02
    1     -220.058432   1.000000
    2     -220.058398   1.000000
    3     -139.159762   1.000000
    4     -139.159743   1.000000
    5      -90.744444   1.000000
    6      -90.744398   1.000000
    7      -90.706745   1.000000
    8      -90.706723   1.000000
    9      -33.258669   1.000000
   10      -33.258647   1.000000
   11      -33.240608   1.000000
   12      -33.240495   1.000000
   13      -26.112216   1.000000
   14      -26.112178   1.000000
   15      -26.080550   1.000000
   16      -26.080382   1.000000
   17      -26.072921   1.000000
   18      -26.072864   1.000000
   19      -21.346133   1.000000
   20      -21.345467   1.000000
   21       -3.115207   1.000000
   22       -3.114016   1.000000
   23        2.239195   1.000000
   24        2.239869   1.000000
   25        3.628354   1.000000
   26        3.629387   1.000000
   27        5.396927   0.000000
   28        5.397235   0.000000
   29        9.873767   0.000000
   30        9.873947   0.000000
   31       10.899805   0.000000
   32       10.899873   0.000000
   33       11.334560   0.000000
   34       11.335231   0.000000
   35       12.221671   0.000000
   36       12.222657   0.000000
 
  0.1666667E+00  0.1666667E+00  0.0000000E+00  0.4629630E-02
    1     -220.035384   1.000000
    2     -220.035351   1.000000
    3     -138.766905   1.000000
    4     -138.766887   1.000000
    5      -90.690989   1.000000
    6      -90.690828   1.000000
    7      -90.653738   1.000000
    8      -90.653592   1.000000
    9      -33.233684   1.000000
   10      -33.233492   1.000000
   11      -33.215199   1.000000
   12      -33.215062   1.000000
   13      -26.068678   1.000000
   14      -26.068022   1.000000
   15      -26.036666   1.000000
   16      -26.036046   1.000000
   17      -26.033742   1.000000
   18      -26.033283   1.000000
   19      -21.339370   1.000000
   20      -21.338704   1.000000
   21       -3.163254   1.000000
   22       -3.162109   1.000000
   23        2.120410   1.000000
   24        2.123443   1.000000
   25        3.312885   1.000000
   26        3.317233   1.000000
   27        5.948572   0.000000
   28        5.949615   0.000000
   29        9.246459   0.000000
   30        9.247443   0.000000
   31       10.613388   0.000000
   32       10.614404   0.000000
   33       11.420563   0.000000
   34       11.421534   0.000000
   35       11.929261   0.000000
   36       11.930524   0.000000
 
  0.3333333E+00  0.1666667E+00  0.0000000E+00  0.4629630E-02
    1     -220.061721   1.000000
    2     -220.061688   1.000000
    3     -139.214405   1.000000
    4     -139.214387   1.000000
    5      -90.749672   1.000000
    6      -90.749585   1.000000
    7      -90.717192   1.000000
    8      -90.717092   1.000000
    9      -33.260420   1.000000
   10      -33.260321   1.000000
   11      -33.245203   1.000000
   12      -33.245035   1.000000
   13      -26.110103   1.000000
   14      -26.109738   1.000000
   15      -26.094046   1.000000
   16      -26.093660   1.000000
   17      -26.075891   1.000000
   18      -26.075536   1.000000
   19      -21.306030   1.000000
   20      -21.305365   1.000000
   21       -3.454146   1.000000
   22       -3.453096   1.000000
   23        1.420342   1.000000
   24        1.422642   1.000000
   25        2.931892   1.000000
   26        2.934835   1.000000
   27        6.931166   0.000000
   28        6.931889   0.000000
   29        9.244200   0.000000
   30        9.245401   0.000000
   31        9.666317   0.000000
   32        9.667601   0.000000
   33       11.674732   0.000000
   34       11.675520   0.000000
   35       12.888603   0.000000
   36       12.889509   0.000000
 
  0.5000000E+00  0.1666667E+00  0.0000000E+00  0.4629630E-02
    1     -220.064979   1.000000
    2     -220.064945   1.000000
    3     -139.242579   1.000000
    4     -139.242561   1.000000
    5      -90.753666   1.000000
    6      -90.753573   1.000000
    7      -90.726819   1.000000
    8      -90.726713   1.000000
    9      -33.263072   1.000000
   10      -33.262941   1.000000
   11      -33.249478   1.000000
   12      -33.249331   1.000000
   13      -26.109143   1.000000
   14      -26.108623   1.000000
   15      -26.100083   1.000000
   16      -26.099832   1.000000
   17      -26.081105   1.000000
   18      -26.080842   1.000000
   19      -21.278857   1.000000
   20      -21.278193   1.000000
   21       -3.675053   1.000000
   22       -3.674060   1.000000
   23        1.006403   1.000000
   24        1.008665   1.000000
   25        2.653895   1.000000
   26        2.656638   1.000000
   27        7.166934   0.000000
   28        7.167849   0.000000
   29        9.125113   0.000000
   30        9.126127   0.000000
   31       11.008255   0.000000
   32       11.008946   0.000000
   33       11.288499   0.000000
   34       11.289201   0.000000
   35       13.032572   0.000000
   36       13.033459   0.000000
 
 -0.3333333E+00  0.1666667E+00 -0.4163336E-16  0.4629630E-02
    1     -220.049278   1.000000
    2     -220.049245   1.000000
    3     -139.002174   1.000000
    4     -139.002156   1.000000
    5      -90.721277   1.000000
    6      -90.721166   1.000000
    7      -90.689657   1.000000
    8      -90.689529   1.000000
    9      -33.246978   1.000000
   10      -33.246828   1.000000
   11      -33.231312   1.000000
   12      -33.231153   1.000000
   13      -26.087430   1.000000
   14      -26.087105   1.000000
   15      -26.069539   1.000000
   16      -26.068934   1.000000
   17      -26.052460   1.000000
   18      -26.052102   1.000000
   19      -21.285576   1.000000
   20      -21.284912   1.000000
   21       -3.620335   1.000000
   22       -3.619293   1.000000
   23        1.072904   1.000000
   24        1.075400   1.000000
   25        2.744380   1.000000
   26        2.747507   1.000000
   27        7.226743   0.000000
   28        7.227561   0.000000
   29        9.276576   0.000000
   30        9.277311   0.000000
   31       10.762425   0.000000
   32       10.762903   0.000000
   33       11.176631   0.000000
   34       11.177397   0.000000
   35       12.933492   0.000000
   36       12.934373   0.000000
 
 -0.1666667E+00  0.1666667E+00 -0.3606529E-18  0.4629630E-02
    1     -220.054830   1.000000
    2     -220.054797   1.000000
    3     -139.115942   1.000000
    4     -139.115923   1.000000
    5      -90.733790   1.000000
    6      -90.733629   1.000000
    7      -90.702535   1.000000
    8      -90.702387   1.000000
    9      -33.252163   1.000000
   10      -33.251973   1.000000
   11      -33.238415   1.000000
   12      -33.238284   1.000000
   13      -26.103932   1.000000
   14      -26.103285   1.000000
   15      -26.072239   1.000000
   16      -26.071940   1.000000
   17      -26.070534   1.000000
   18      -26.070224   1.000000
   19      -21.319411   1.000000
   20      -21.318746   1.000000
   21       -3.348451   1.000000
   22       -3.347304   1.000000
   23        1.607654   1.000000
   24        1.610036   1.000000
   25        3.180124   1.000000
   26        3.183441   1.000000
   27        6.567612   0.000000
   28        6.568491   0.000000
   29        9.584221   0.000000
   30        9.584580   0.000000
   31       10.227353   0.000000
   32       10.228001   0.000000
   33       11.353060   0.000000
   34       11.354315   0.000000
   35       11.622607   0.000000
   36       11.623598   0.000000
 
 -0.3851860E-33  0.3333333E+00 -0.1387779E-16  0.4629630E-02
    1     -220.036737   1.000000
    2     -220.036704   1.000000
    3     -138.834888   1.000000
    4     -138.834870   1.000000
    5      -90.691212   1.000000
    6      -90.691190   1.000000
    7      -90.663244   1.000000
    8      -90.663199   1.000000
    9      -33.231541   1.000000
   10      -33.231428   1.000000
   11      -33.218144   1.000000
   12      -33.218121   1.000000
   13      -26.063141   1.000000
   14      -26.062888   1.000000
   15      -26.048723   1.000000
   16      -26.048556   1.000000
   17      -26.037584   1.000000
   18      -26.037329   1.000000
   19      -21.305768   1.000000
   20      -21.305103   1.000000
   21       -3.484184   1.000000
   22       -3.483058   1.000000
   23        1.337774   1.000000
   24        1.338619   1.000000
   25        3.378285   1.000000
   26        3.379261   1.000000
   27        6.153588   0.000000
   28        6.154271   0.000000
   29       10.502587   0.000000
   30       10.502686   0.000000
   31       10.707798   0.000000
   32       10.707980   0.000000
   33       10.992283   0.000000
   34       10.993972   0.000000
   35       11.357891   0.000000
   36       11.358723   0.000000
 
  0.1666667E+00  0.3333333E+00 -0.2775558E-16  0.4629630E-02
    1     -220.061721   1.000000
    2     -220.061688   1.000000
    3     -139.214405   1.000000
    4     -139.214387   1.000000
    5      -90.749683   1.000000
    6      -90.749573   1.000000
    7      -90.717200   1.000000
    8      -90.717084   1.000000
    9      -33.260426   1.000000
   10      -33.260316   1.000000
   11      -33.245183   1.000000
   12      -33.245056   1.000000
   13      -26.110035   1.000000
   14      -26.109803   1.000000
   15      -26.093993   1.000000
   16      -26.093718   1.000000
   17      -26.075884   1.000000
   18      -26.075540   1.000000
   19      -21.306031   1.000000
   20      -21.305365   1.000000
   21       -3.454167   1.000000
   22       -3.453075   1.000000
   23        1.420387   1.000000
   24        1.422597   1.000000
   25        2.931962   1.000000
   26        2.934766   1.000000
   27        6.931169   0.000000
   28        6.931886   0.000000
   29        9.244426   0.000000
   30        9.245175   0.000000
   31        9.666298   0.000000
   32        9.667620   0.000000
   33       11.674620   0.000000
   34       11.675632   0.000000
   35       12.888961   0.000000
   36       12.889151   0.000000
 
  0.3333333E+00  0.3333333E+00  0.2775558E-16  0.4629630E-02
    1     -220.069021   1.000000
    2     -220.068988   1.000000
    3     -139.304250   1.000000
    4     -139.304232   1.000000
    5      -90.750798   1.000000
    6      -90.750649   1.000000
    7      -90.747418   1.000000
    8      -90.747256   1.000000
    9      -33.261617   1.000000
   10      -33.261481   1.000000
   11      -33.260098   1.000000
   12      -33.259908   1.000000
   13      -26.112810   1.000000
   14      -26.112150   1.000000
   15      -26.101302   1.000000
   16      -26.100643   1.000000
   17      -26.098596   1.000000
   18      -26.098141   1.000000
   19      -21.285987   1.000000
   20      -21.285322   1.000000
   21       -3.590226   1.000000
   22       -3.589194   1.000000
   23        1.215477   1.000000
   24        1.218983   1.000000
   25        2.578180   1.000000
   26        2.582174   1.000000
   27        6.924871   0.000000
   28        6.925722   0.000000
   29        8.167622   0.000000
   30        8.168613   0.000000
   31       10.403403   0.000000
   32       10.405183   0.000000
   33       12.794112   0.000000
   34       12.795471   0.000000
   35       13.642562   0.000000
   36       13.643711   0.000000
 
  0.5000000E+00  0.3333333E+00 -0.5551115E-16  0.4629630E-02
    1     -220.061018   1.000000
    2     -220.060984   1.000000
    3     -139.160235   1.000000
    4     -139.160216   1.000000
    5      -90.739206   1.000000
    6      -90.739095   1.000000
    7      -90.722996   1.000000
    8      -90.722867   1.000000
    9      -33.256095   1.000000
   10      -33.255952   1.000000
   11      -33.247989   1.000000
   12      -33.247803   1.000000
   13      -26.102531   1.000000
   14      -26.101963   1.000000
   15      -26.082921   1.000000
   16      -26.082737   1.000000
   17      -26.079324   1.000000
   18      -26.078934   1.000000
   19      -21.265595   1.000000
   20      -21.264930   1.000000
   21       -3.727844   1.000000
   22       -3.726844   1.000000
   23        0.989393   1.000000
   24        0.992623   1.000000
   25        2.183088   1.000000
   26        2.186547   1.000000
   27        7.019568   0.000000
   28        7.020469   0.000000
   29        8.597345   0.000000
   30        8.598403   0.000000
   31       10.772789   0.000000
   32       10.773639   0.000000
   33       12.817658   0.000000
   34       12.818620   0.000000
   35       13.954293   0.000000
   36       13.954679   0.000000
 
 -0.3333333E+00  0.3333333E+00 -0.2812248E-16  0.4629630E-02
    1     -220.071506   1.000000
    2     -220.071473   1.000000
    3     -139.316073   1.000000
    4     -139.316055   1.000000
    5      -90.763468   1.000000
    6      -90.763341   1.000000
    7      -90.744902   1.000000
    8      -90.744755   1.000000
    9      -33.268597   1.000000
   10      -33.268451   1.000000
   11      -33.258727   1.000000
   12      -33.258555   1.000000
   13      -26.115024   1.000000
   14      -26.114690   1.000000
   15      -26.104657   1.000000
   16      -26.104112   1.000000
   17      -26.099543   1.000000
   18      -26.098899   1.000000
   19      -21.265473   1.000000
   20      -21.264808   1.000000
   21       -3.730286   1.000000
   22       -3.729253   1.000000
   23        0.910935   1.000000
   24        0.913479   1.000000
   25        2.123911   1.000000
   26        2.126743   1.000000
   27        7.524090   0.000000
   28        7.525261   0.000000
   29        9.573287   0.000000
   30        9.573898   0.000000
   31       11.312956   0.000000
   32       11.313794   0.000000
   33       11.390492   0.000000
   34       11.391411   0.000000
   35       12.379668   0.000000
   36       12.381560   0.000000
 
 -0.1666667E+00  0.3333333E+00 -0.1387779E-16  0.4629630E-02
    1     -220.049278   1.000000
    2     -220.049245   1.000000
    3     -139.002174   1.000000
    4     -139.002156   1.000000
    5      -90.721252   1.000000
    6      -90.721192   1.000000
    7      -90.689635   1.000000
    8      -90.689550   1.000000
    9      -33.246960   1.000000
   10      -33.246846   1.000000
   11      -33.231272   1.000000
   12      -33.231193   1.000000
   13      -26.087420   1.000000
   14      -26.087115   1.000000
   15      -26.069550   1.000000
   16      -26.068922   1.000000
   17      -26.052487   1.000000
   18      -26.052076   1.000000
   19      -21.285576   1.000000
   20      -21.284911   1.000000
   21       -3.620365   1.000000
   22       -3.619263   1.000000
   23        1.073347   1.000000
   24        1.074955   1.000000
   25        2.744939   1.000000
   26        2.746950   1.000000
   27        7.226660   0.000000
   28        7.227644   0.000000
   29        9.276540   0.000000
   30        9.277347   0.000000
   31       10.762386   0.000000
   32       10.762942   0.000000
   33       11.176407   0.000000
   34       11.177620   0.000000
   35       12.933614   0.000000
   36       12.934251   0.000000
 
  0.0000000E+00  0.5000000E+00 -0.5551115E-16  0.4629630E-02
    1     -220.067385   1.000000
    2     -220.067351   1.000000
    3     -139.304408   1.000000
    4     -139.304391   1.000000
    5      -90.749560   1.000000
    6      -90.749538   1.000000
    7      -90.742554   1.000000
    8      -90.742508   1.000000
    9      -33.260985   1.000000
   10      -33.260872   1.000000
   11      -33.256223   1.000000
   12      -33.256201   1.000000
   13      -26.105960   1.000000
   14      -26.105348   1.000000
   15      -26.101359   1.000000
   16      -26.101193   1.000000
   17      -26.100605   1.000000
   18      -26.099989   1.000000
   19      -21.285474   1.000000
   20      -21.284808   1.000000
   21       -3.670233   1.000000
   22       -3.669140   1.000000
   23        1.042978   1.000000
   24        1.043878   1.000000
   25        3.256868   1.000000
   26        3.257821   1.000000
   27        6.178711   0.000000
   28        6.179460   0.000000
   29       10.230332   0.000000
   30       10.230457   0.000000
   31       10.685418   0.000000
   32       10.687341   0.000000
   33       10.760450   0.000000
   34       10.761207   0.000000
   35       12.722874   0.000000
   36       12.723122   0.000000
 
  0.1666667E+00  0.5000000E+00 -0.2775558E-16  0.4629630E-02
    1     -220.064979   1.000000
    2     -220.064945   1.000000
    3     -139.242579   1.000000
    4     -139.242561   1.000000
    5      -90.753629   1.000000
    6      -90.753610   1.000000
    7      -90.726787   1.000000
    8      -90.726744   1.000000
    9      -33.263061   1.000000
   10      -33.262952   1.000000
   11      -33.249421   1.000000
   12      -33.249389   1.000000
   13      -26.109065   1.000000
   14      -26.108698   1.000000
   15      -26.100096   1.000000
   16      -26.099825   1.000000
   17      -26.081093   1.000000
   18      -26.080851   1.000000
   19      -21.278858   1.000000
   20      -21.278192   1.000000
   21       -3.675092   1.000000
   22       -3.674021   1.000000
   23        1.006863   1.000000
   24        1.008204   1.000000
   25        2.654532   1.000000
   26        2.656002   1.000000
   27        7.166915   0.000000
   28        7.167868   0.000000
   29        9.125098   0.000000
   30        9.126142   0.000000
   31       11.008209   0.000000
   32       11.008993   0.000000
   33       11.288316   0.000000
   34       11.289384   0.000000
   35       13.032614   0.000000
   36       13.033417   0.000000
 
  0.3333333E+00  0.5000000E+00  0.0000000E+00  0.4629630E-02
    1     -220.061017   1.000000
    2     -220.060984   1.000000
    3     -139.160235   1.000000
    4     -139.160216   1.000000
    5      -90.739198   1.000000
    6      -90.739104   1.000000
    7      -90.722987   1.000000
    8      -90.722875   1.000000
    9      -33.256080   1.000000
   10      -33.255968   1.000000
   11      -33.247958   1.000000
   12      -33.247834   1.000000
   13      -26.102450   1.000000
   14      -26.102043   1.000000
   15      -26.083090   1.000000
   16      -26.082567   1.000000
   17      -26.079307   1.000000
   18      -26.078954   1.000000
   19      -21.265595   1.000000
   20      -21.264930   1.000000
   21       -3.727853   1.000000
   22       -3.726835   1.000000
   23        0.989407   1.000000
   24        0.992609   1.000000
   25        2.183123   1.000000
   26        2.186512   1.000000
   27        7.019596   0.000000
   28        7.020441   0.000000
   29        8.597418   0.000000
   30        8.598330   0.000000
   31       10.772730   0.000000
   32       10.773698   0.000000
   33       12.817763   0.000000
   34       12.818514   0.000000
   35       13.954453   0.000000
   36       13.954519   0.000000
 
  0.5000000E+00  0.5000000E+00  0.0000000E+00  0.4629630E-02
    1     -220.078389   1.000000
    2     -220.078355   1.000000
    3     -139.460850   1.000000
    4     -139.460831   1.000000
    5      -90.785282   1.000000
    6      -90.785133   1.000000
    7      -90.755735   1.000000
    8      -90.755573   1.000000
    9      -33.279054   1.000000
   10      -33.278918   1.000000
   11      -33.263362   1.000000
   12      -33.263172   1.000000
   13      -26.142161   1.000000
   14      -26.141580   1.000000
   15      -26.122958   1.000000
   16      -26.122505   1.000000
   17      -26.098110   1.000000
   18      -26.097465   1.000000
   19      -21.259067   1.000000
   20      -21.258401   1.000000
   21       -3.777104   1.000000
   22       -3.776112   1.000000
   23        0.931191   1.000000
   24        0.934858   1.000000
   25        2.271534   1.000000
   26        2.275409   1.000000
   27        6.436319   0.000000
   28        6.436979   0.000000
   29        7.807985   0.000000
   30        7.808978   0.000000
   31       12.196865   0.000000
   32       12.197457   0.000000
   33       14.785934   0.000000
   34       14.787970   0.000000
   35       14.838880   0.000000
   36       14.839698   0.000000
 
 -0.3333333E+00  0.5000000E+00 -0.4857226E-16  0.4629630E-02
    1     -220.061017   1.000000
    2     -220.060984   1.000000
    3     -139.160235   1.000000
    4     -139.160216   1.000000
    5      -90.739198   1.000000
    6      -90.739104   1.000000
    7      -90.722987   1.000000
    8      -90.722875   1.000000
    9      -33.256080   1.000000
   10      -33.255968   1.000000
   11      -33.247958   1.000000
   12      -33.247834   1.000000
   13      -26.102450   1.000000
   14      -26.102043   1.000000
   15      -26.083090   1.000000
   16      -26.082567   1.000000
   17      -26.079307   1.000000
   18      -26.078954   1.000000
   19      -21.265595   1.000000
   20      -21.264930   1.000000
   21       -3.727853   1.000000
   22       -3.726835   1.000000
   23        0.989407   1.000000
   24        0.992609   1.000000
   25        2.183123   1.000000
   26        2.186512   1.000000
   27        7.019596   0.000000
   28        7.020441   0.000000
   29        8.597418   0.000000
   30        8.598330   0.000000
   31       10.772730   0.000000
   32       10.773698   0.000000
   33       12.817763   0.000000
   34       12.818514   0.000000
   35       13.954453   0.000000
   36       13.954519   0.000000
 
 -0.1666667E+00  0.5000000E+00 -0.4163336E-16  0.4629630E-02
    1     -220.064979   1.000000
    2     -220.064945   1.000000
    3     -139.242579   1.000000
    4     -139.242561   1.000000
    5      -90.753629   1.000000
    6      -90.753610   1.000000
    7      -90.726787   1.000000
    8      -90.726744   1.000000
    9      -33.263061   1.000000
   10      -33.262952   1.000000
   11      -33.249421   1.000000
   12      -33.249389   1.000000
   13      -26.109065   1.000000
   14      -26.108698   1.000000
   15      -26.100096   1.000000
   16      -26.099825   1.000000
   17      -26.081093   1.000000
   18      -26.080851   1.000000
   19      -21.278858   1.000000
   20      -21.278192   1.000000
   21       -3.675092   1.000000
   22       -3.674021   1.000000
   23        1.006863   1.000000
   24        1.008204   1.000000
   25        2.654532   1.000000
   26        2.656002   1.000000
   27        7.166915   0.000000
   28        7.167868   0.000000
   29        9.125098   0.000000