   1   1   0   0
  0.5789729E+02  0.4342346E-09  0.4342346E-09  0.4342346E-09  0.1000000E-15
  1.000000000000000E-004
  CAR 
 Og_FCC                                  
     49.16406418    -44.63900808  301      2.96605109      1.00000000
    -44.639  0.0000E+00  0.0000E+00
    -44.326  0.0000E+00  0.0000E+00
    -44.014  0.0000E+00  0.0000E+00
    -43.701  0.0000E+00  0.0000E+00
    -43.388  0.0000E+00  0.0000E+00
    -43.076  0.0000E+00  0.0000E+00
    -42.763  0.0000E+00  0.0000E+00
    -42.450  0.0000E+00  0.0000E+00
    -42.138  0.0000E+00  0.0000E+00
    -41.825  0.0000E+00  0.0000E+00
    -41.512  0.0000E+00  0.0000E+00
    -41.200  0.0000E+00  0.0000E+00
    -40.887  0.0000E+00  0.0000E+00
    -40.574  0.0000E+00  0.0000E+00
    -40.262  0.0000E+00  0.4000E+01
    -39.949  0.0000E+00  0.4000E+01
    -39.636  0.0000E+00  0.4000E+01
    -39.324  0.0000E+00  0.4000E+01
    -39.011  0.0000E+00  0.4000E+01
    -38.698  0.0000E+00  0.4000E+01
    -38.385  0.0000E+00  0.4000E+01
    -38.073  0.0000E+00  0.4000E+01
    -37.760  0.0000E+00  0.4000E+01
    -37.447  0.0000E+00  0.4000E+01
    -37.135  0.0000E+00  0.4000E+01
    -36.822  0.0000E+00  0.4000E+01
    -36.509  0.0000E+00  0.4000E+01
    -36.197  0.0000E+00  0.4000E+01
    -35.884  0.0000E+00  0.4000E+01
    -35.571  0.0000E+00  0.4000E+01
    -35.259  0.0000E+00  0.4000E+01
    -34.946  0.0000E+00  0.4000E+01
    -34.633  0.0000E+00  0.4000E+01
    -34.321  0.0000E+00  0.4000E+01
    -34.008  0.0000E+00  0.4000E+01
    -33.695  0.0000E+00  0.4000E+01
    -33.383  0.0000E+00  0.4000E+01
    -33.070  0.0000E+00  0.4000E+01
    -32.757  0.0000E+00  0.1000E+02
    -32.445  0.0000E+00  0.1000E+02
    -32.132  0.0000E+00  0.1000E+02
    -31.819  0.0000E+00  0.1000E+02
    -31.507  0.0000E+00  0.1000E+02
    -31.194  0.0000E+00  0.1000E+02
    -30.881  0.0000E+00  0.1000E+02
    -30.569  0.0000E+00  0.1000E+02
    -30.256  0.0000E+00  0.1000E+02
    -29.943  0.0000E+00  0.1000E+02
    -29.631  0.0000E+00  0.1000E+02
    -29.318  0.0000E+00  0.1000E+02
    -29.005  0.0000E+00  0.1000E+02
    -28.692  0.0000E+00  0.1000E+02
    -28.380  0.0000E+00  0.1000E+02
    -28.067  0.0000E+00  0.1000E+02
    -27.754  0.0000E+00  0.1000E+02
    -27.442  0.0000E+00  0.1000E+02
    -27.129  0.0000E+00  0.1000E+02
    -26.816  0.0000E+00  0.1000E+02
    -26.504  0.0000E+00  0.1000E+02
    -26.191  0.0000E+00  0.1000E+02
    -25.878  0.0000E+00  0.1000E+02
    -25.566  0.0000E+00  0.1000E+02
    -25.253  0.0000E+00  0.1000E+02
    -24.940  0.0000E+00  0.1003E+02
    -24.628  0.0000E+00  0.1200E+02
    -24.315  0.0000E+00  0.1200E+02
    -24.002  0.0000E+00  0.1200E+02
    -23.690  0.0000E+00  0.1200E+02
    -23.377  0.0000E+00  0.1200E+02
    -23.064  0.0000E+00  0.1200E+02
    -22.752  0.0000E+00  0.1200E+02
    -22.439  0.0000E+00  0.1200E+02
    -22.126  0.0000E+00  0.1200E+02
    -21.814  0.0000E+00  0.1200E+02
    -21.501  0.0000E+00  0.1200E+02
    -21.188  0.0000E+00  0.1200E+02
    -20.876  0.0000E+00  0.1200E+02
    -20.563  0.0000E+00  0.1200E+02
    -20.250  0.0000E+00  0.1200E+02
    -19.938  0.0000E+00  0.1200E+02
    -19.625  0.0000E+00  0.1200E+02
    -19.312  0.0000E+00  0.1200E+02
    -19.000  0.0000E+00  0.1200E+02
    -18.687  0.0000E+00  0.1200E+02
    -18.374  0.0000E+00  0.1200E+02
    -18.061  0.0000E+00  0.1200E+02
    -17.749  0.0000E+00  0.1200E+02
    -17.436  0.0000E+00  0.1200E+02
    -17.123  0.0000E+00  0.1200E+02
    -16.811  0.0000E+00  0.1200E+02
    -16.498  0.0000E+00  0.1200E+02
    -16.185  0.0000E+00  0.1200E+02
    -15.873  0.0000E+00  0.1200E+02
    -15.560  0.0000E+00  0.1200E+02
    -15.247  0.0000E+00  0.1200E+02
    -14.935  0.0000E+00  0.1200E+02
    -14.622  0.0000E+00  0.1200E+02
    -14.309  0.0000E+00  0.1200E+02
    -13.997  0.0000E+00  0.1200E+02
    -13.684  0.0000E+00  0.1200E+02
    -13.371  0.0000E+00  0.1200E+02
    -13.059  0.0000E+00  0.1200E+02
    -12.746  0.0000E+00  0.1200E+02
    -12.433  0.0000E+00  0.1200E+02
    -12.121  0.0000E+00  0.1200E+02
    -11.808  0.0000E+00  0.1200E+02
    -11.495  0.0000E+00  0.1200E+02
    -11.183  0.0000E+00  0.1200E+02
    -10.870  0.0000E+00  0.1200E+02
    -10.557  0.0000E+00  0.1200E+02
    -10.245  0.0000E+00  0.1200E+02
     -9.932  0.0000E+00  0.1200E+02
     -9.619  0.0000E+00  0.1372E+02
     -9.307  0.0000E+00  0.1400E+02
     -8.994  0.0000E+00  0.1400E+02
     -8.681  0.0000E+00  0.1400E+02
     -8.368  0.0000E+00  0.1400E+02
     -8.056  0.0000E+00  0.1400E+02
     -7.743  0.0000E+00  0.1400E+02
     -7.430  0.0000E+00  0.1400E+02
     -7.118  0.0000E+00  0.1400E+02
     -6.805  0.0000E+00  0.1400E+02
     -6.492  0.0000E+00  0.1400E+02
     -6.180  0.0000E+00  0.1400E+02
     -5.867  0.0000E+00  0.1400E+02
     -5.554  0.0000E+00  0.1400E+02
     -5.242  0.0000E+00  0.1400E+02
     -4.929  0.0000E+00  0.1400E+02
     -4.616  0.0000E+00  0.1400E+02
     -4.304  0.0000E+00  0.1400E+02
     -3.991  0.0000E+00  0.1400E+02
     -3.678  0.0000E+00  0.1400E+02
     -3.366  0.0000E+00  0.1400E+02
     -3.053  0.0000E+00  0.1400E+02
     -2.740  0.0000E+00  0.1400E+02
     -2.428  0.0000E+00  0.1400E+02
     -2.115  0.0000E+00  0.1400E+02
     -1.802  0.0000E+00  0.1400E+02
     -1.490  0.0000E+00  0.1400E+02
     -1.177  0.0000E+00  0.1400E+02
     -0.864  0.0000E+00  0.1400E+02
     -0.552  0.0000E+00  0.1497E+02
     -0.239  0.0000E+00  0.1553E+02
      0.074  0.0000E+00  0.1553E+02
      0.386  0.0000E+00  0.1616E+02
      0.699  0.0000E+00  0.1616E+02
      1.012  0.0000E+00  0.1625E+02
      1.324  0.1199E+01  0.1737E+02
      1.637  0.0000E+00  0.1738E+02
      1.950  0.0000E+00  0.1756E+02
      2.263  0.0000E+00  0.1769E+02
      2.575  0.0000E+00  0.1794E+02
      2.888  0.0000E+00  0.1800E+02
      3.201  0.0000E+00  0.1800E+02
      3.513  0.0000E+00  0.1803E+02
      3.826  0.0000E+00  0.1803E+02
      4.139  0.0000E+00  0.1803E+02
      4.451  0.0000E+00  0.1803E+02
      4.764  0.0000E+00  0.1803E+02
      5.077  0.0000E+00  0.1803E+02
      5.389  0.0000E+00  0.1803E+02
      5.702  0.0000E+00  0.1803E+02
      6.015  0.0000E+00  0.1828E+02
      6.327  0.0000E+00  0.1841E+02
      6.640  0.0000E+00  0.1850E+02
      6.953  0.0000E+00  0.1869E+02
      7.265  0.0000E+00  0.1869E+02
      7.578  0.0000E+00  0.1944E+02
      7.891  0.0000E+00  0.2000E+02
      8.203  0.0000E+00  0.2009E+02
      8.516  0.0000E+00  0.2009E+02
      8.829  0.0000E+00  0.2009E+02
      9.141  0.0000E+00  0.2141E+02
      9.454  0.0000E+00  0.2141E+02
      9.767  0.0000E+00  0.2141E+02
     10.079  0.0000E+00  0.2159E+02
     10.392  0.0000E+00  0.2222E+02
     10.705  0.0000E+00  0.2334E+02
     11.017  0.0000E+00  0.2372E+02
     11.330  0.5070E-01  0.2402E+02
     11.643  0.0000E+00  0.2459E+02
     11.956  0.0000E+00  0.2500E+02
     12.268  0.0000E+00  0.2525E+02
     12.581  0.0000E+00  0.2619E+02
     12.894  0.0000E+00  0.2631E+02
     13.206  0.0000E+00  0.2669E+02
     13.519  0.0000E+00  0.2694E+02
     13.832  0.0000E+00  0.2738E+02
     14.144  0.0000E+00  0.2816E+02
     14.457  0.0000E+00  0.2816E+02
     14.770  0.0000E+00  0.2878E+02
     15.082  0.0000E+00  0.2884E+02
     15.395  0.0000E+00  0.2884E+02
     15.708  0.0000E+00  0.2903E+02
     16.020  0.0000E+00  0.3000E+02
     16.333  0.0000E+00  0.3112E+02
     16.646  0.0000E+00  0.3266E+02
     16.958  0.0000E+00  0.3297E+02
     17.271  0.0000E+00  0.3316E+02
     17.584  0.0000E+00  0.3344E+02
     17.896  0.0000E+00  0.3431E+02
     18.209  0.0000E+00  0.3444E+02
     18.522  0.0000E+00  0.3488E+02
     18.834  0.0000E+00  0.3700E+02
     19.147  0.0000E+00  0.3772E+02
     19.460  0.0000E+00  0.3809E+02
     19.772  0.0000E+00  0.3934E+02
     20.085  0.0000E+00  0.4028E+02
     20.398  0.2628E+01  0.4242E+02
     20.710  0.0000E+00  0.4456E+02
     21.023  0.0000E+00  0.4550E+02
     21.336  0.0000E+00  0.4588E+02
     21.648  0.0000E+00  0.4606E+02
     21.961  0.0000E+00  0.4756E+02
     22.274  0.0000E+00  0.4766E+02
     22.587  0.0000E+00  0.4784E+02
     22.899  0.0000E+00  0.4794E+02
     23.212  0.0000E+00  0.4947E+02
     23.525  0.0000E+00  0.4988E+02
     23.837  0.0000E+00  0.4988E+02
     24.150  0.0000E+00  0.5038E+02
     24.463  0.0000E+00  0.5147E+02
     24.775  0.0000E+00  0.5259E+02
     25.088  0.0000E+00  0.5353E+02
     25.401  0.0000E+00  0.5559E+02
     25.713  0.0000E+00  0.5647E+02
     26.026  0.1419E+00  0.5651E+02
     26.339  0.0000E+00  0.5691E+02
     26.651  0.0000E+00  0.5694E+02
     26.964  0.0000E+00  0.5719E+02
     27.277  0.2998E+00  0.5878E+02
     27.589  0.0000E+00  0.5891E+02
     27.902  0.2998E+00  0.6006E+02
     28.215  0.0000E+00  0.6125E+02
     28.527  0.0000E+00  0.6212E+02
     28.840  0.0000E+00  0.6212E+02
     29.153  0.0000E+00  0.6288E+02
     29.465  0.0000E+00  0.6294E+02
     29.778  0.0000E+00  0.6353E+02
     30.091  0.0000E+00  0.6362E+02
     30.403  0.0000E+00  0.6491E+02
     30.716  0.5996E+00  0.6534E+02
     31.029  0.0000E+00  0.6572E+02
     31.341  0.0000E+00  0.6691E+02
     31.654  0.0000E+00  0.6759E+02
     31.967  0.0000E+00  0.6875E+02
     32.280  0.0000E+00  0.7006E+02
     32.592  0.0000E+00  0.7056E+02
     32.905  0.0000E+00  0.7150E+02
     33.218  0.0000E+00  0.7191E+02
     33.530  0.0000E+00  0.7303E+02
     33.843  0.2916E+00  0.7337E+02
     34.156  0.0000E+00  0.7438E+02
     34.468  0.1195E-07  0.7538E+02
     34.781  0.0000E+00  0.7594E+02
     35.094  0.0000E+00  0.7706E+02
     35.406  0.5585E-12  0.7838E+02
     35.719  0.0000E+00  0.7900E+02
     36.032  0.0000E+00  0.8025E+02
     36.344  0.0000E+00  0.8069E+02
     36.657  0.0000E+00  0.8103E+02
     36.970  0.1399E+01  0.8262E+02
     37.282  0.2996E+00  0.8272E+02
     37.595  0.0000E+00  0.8344E+02
     37.908  0.0000E+00  0.8419E+02
     38.220  0.0000E+00  0.8522E+02
     38.533  0.0000E+00  0.8541E+02
     38.846  0.2071E-01  0.8601E+02
     39.158  0.6822E+00  0.8715E+02
     39.471  0.0000E+00  0.8769E+02
     39.784  0.0000E+00  0.8825E+02
     40.096  0.0000E+00  0.8919E+02
     40.409  0.5997E+00  0.8987E+02
     40.722  0.0000E+00  0.9100E+02
     41.034  0.0000E+00  0.9144E+02
     41.347  0.0000E+00  0.9303E+02
     41.660  0.0000E+00  0.9366E+02
     41.972  0.0000E+00  0.9453E+02
     42.285  0.0000E+00  0.9597E+02
     42.598  0.1986E-02  0.9647E+02
     42.911  0.0000E+00  0.9725E+02
     43.223  0.0000E+00  0.9762E+02
     43.536  0.0000E+00  0.9912E+02
     43.849  0.0000E+00  0.9912E+02
     44.161  0.0000E+00  0.9950E+02
     44.474  0.0000E+00  0.9988E+02
     44.787  0.0000E+00  0.9988E+02
     45.099  0.0000E+00  0.1000E+03
     45.412  0.0000E+00  0.1000E+03
     45.725  0.0000E+00  0.1000E+03
     46.037  0.0000E+00  0.1000E+03
     46.350  0.0000E+00  0.1000E+03
     46.663  0.0000E+00  0.1000E+03
     46.975  0.0000E+00  0.1000E+03
     47.288  0.0000E+00  0.1000E+03
     47.601  0.0000E+00  0.1000E+03
     47.913  0.0000E+00  0.1000E+03
     48.226  0.0000E+00  0.1000E+03
     48.539  0.0000E+00  0.1000E+03
     48.851  0.0000E+00  0.1000E+03
     49.164  0.0000E+00  0.1000E+03
