 vasp.5.4.4.18Apr17-6-g9f103f2a35 (build Nov 03 2018 10:20:46) complex          
  
 executed on             LinuxIFC date 2018.11.14  17:16:27
 running on   56 total cores
 distrk:  each k-point on   28 cores,    2 groups
 distr:  one band on NCORES_PER_BAND=   7 cores,    4 groups


--------------------------------------------------------------------------------------------------------


 INCAR:
 POTCAR:    PAW_PBE Xe_GW 08Jan2009               

 ----------------------------------------------------------------------------- 
|                                                                             |
|           W    W    AA    RRRRR   N    N  II  N    N   GGGG   !!!           |
|           W    W   A  A   R    R  NN   N  II  NN   N  G    G  !!!           |
|           W    W  A    A  R    R  N N  N  II  N N  N  G       !!!           |
|           W WW W  AAAAAA  RRRRR   N  N N  II  N  N N  G  GGG   !            |
|           WW  WW  A    A  R   R   N   NN  II  N   NN  G    G                |
|           W    W  A    A  R    R  N    N  II  N    N   GGGG   !!!           |
|                                                                             |
|      You have enabled k-point parallelism (KPAR>1).                         |
|      This developmental code was originally  written by Paul Kent at ORNL,  |
|      and carefully double checked in Vienna.                                |
|      GW as well as linear response parallelism added by Martijn Marsman     |
|      and Georg Kresse.                                                      |
|      Carefully verify results versus KPAR=1.                                |
|      Report problems to Paul Kent and Vienna.                               |
|                                                                             |
 ----------------------------------------------------------------------------- 

 POTCAR:    PAW_PBE Xe_GW 08Jan2009               
   VRHFIN =Xe: s2p6                                                             
   LEXCH  = PE                                                                  
   EATOM  =   429.5160 eV,   31.5685 Ry                                         
                                                                                
   TITEL  = PAW_PBE Xe_GW 08Jan2009                                             
   LULTRA =        F    use ultrasoft PP ?                                      
   IUNSCR =        1    unscreen: 0-lin 1-nonlin 2-no                           
   RPACOR =    1.800    partial core radius                                     
   POMASS =  131.294; ZVAL   =    8.000    mass and valenz                      
   RCORE  =    2.500    outmost cutoff radius                                   
   RWIGS  =    2.500; RWIGS  =    1.323    wigner-seitz radius (au A)           
   ENMAX  =  179.547; ENMIN  =  134.660 eV                                      
   RCLOC  =    2.013    cutoff for local pot                                    
   LCOR   =        T    correct aug charges                                     
   LPAW   =        T    paw PP                                                  
   EAUG   =  605.900                                                            
   DEXC   =    0.000                                                            
   RMAX   =    2.564    core radius for proj-oper                               
   RAUG   =    1.300    factor for augmentation sphere                          
   RDEP   =    2.580    radius for radial grids                                 
   RDEPT  =    2.108    core radius for aug-charge                              
                                                                                
   Atomic configuration                                                         
   13 entries                                                                   
     n  l   j            E        occ.                                          
     1  0  0.50    -34364.0918   2.0000                                         
     2  0  0.50     -5347.7047   2.0000                                         
     2  1  1.50     -4797.8080   6.0000                                         
     3  0  0.50     -1093.8565   2.0000                                         
     3  1  1.50      -916.3531   6.0000                                         
     3  2  2.50      -653.3728  10.0000                                         
     4  0  0.50      -197.4109   2.0000                                         
     4  1  1.50      -141.2234   6.0000                                         
     4  2  2.50       -59.3742  10.0000                                         
     5  0  0.50       -19.7401   2.0000                                         
     5  1  0.50        -8.2334   6.0000                                         
     5  2  1.50        -6.8029   0.0000                                         
     4  3  2.50        -6.8029   0.0000                                         
   Description                                                                  
     l       E           TYP  RCUT    TYP  RCUT                                 
     0    -19.7400602     23  1.800                                             
     0    -13.6058260     23  1.800                                             
     1     -8.2333784     23  2.300                                             
     1      2.7211652     23  2.300                                             
     2     -6.8029130     23  2.500                                             
     2     40.8174780     23  2.500                                             
     3      6.8029130     23  2.500                                             
     3     27.2116520     23  2.500                                             
  local pseudopotential read in
  partial core-charges read in
  partial kinetic energy density read in
  kinetic energy density of atom read in
  atomic valenz-charges read in
  non local Contribution for L=           0  read in
    real space projection operators read in
  non local Contribution for L=           0  read in
    real space projection operators read in
  non local Contribution for L=           1  read in
    real space projection operators read in
  non local Contribution for L=           1  read in
    real space projection operators read in
  non local Contribution for L=           2  read in
    real space projection operators read in
  non local Contribution for L=           2  read in
    real space projection operators read in
  non local Contribution for L=           3  read in
    real space projection operators read in
  non local Contribution for L=           3  read in
    real space projection operators read in
    PAW grid and wavefunctions read in
 
   number of l-projection  operators is LMAX  =           8
   number of lm-projection operators is LMMAX =          32
 
  PAW_PBE Xe_GW 08Jan2009               :
 energy of atom  1       EATOM= -429.5160
 kinetic energy error for atom=    0.0132 (will be added to EATOM!!)
 
 
 POSCAR: Xe_FCC                                  
  positions in direct lattice
  velocities in cartesian coordinates
 exchange correlation table for  LEXCH =        8
   RHO(1)=    0.500       N(1)  =     2000
   RHO(2)=  100.500       N(2)  =     4000
 


--------------------------------------------------------------------------------------------------------


 ion  position               nearest neighbor table
   1  0.000  0.000  0.000-
 

IMPORTANT INFORMATION: All symmetrisations will be switched off!
NOSYMM: (Re-)initialisation of all symmetry stuff for point group C_1.

 
 
 KPOINTS: k-points                                

Automatic generation of k-mesh.
Space group operators:
 irot       det(A)        alpha          n_x          n_y          n_z        tau_x        tau_y        tau_z
    1     1.000000     0.000001     1.000000     0.000000     0.000000     0.000000     0.000000     0.000000
 
 Subroutine IBZKPT returns following result:
 ===========================================
 
 Found    216 irreducible k-points:
 
 Following reciprocal coordinates:
            Coordinates               Weight
  0.000000  0.000000  0.000000      1.000000
  0.166667  0.000000  0.000000      1.000000
  0.333333 -0.000000  0.000000      1.000000
  0.500000  0.000000  0.000000      1.000000
 -0.333333 -0.000000 -0.000000      1.000000
 -0.166667 -0.000000 -0.000000      1.000000
 -0.000000  0.166667  0.000000      1.000000
  0.166667  0.166667  0.000000      1.000000
  0.333333  0.166667  0.000000      1.000000
  0.500000  0.166667  0.000000      1.000000
 -0.333333  0.166667 -0.000000      1.000000
 -0.166667  0.166667  0.000000      1.000000
 -0.000000  0.333333  0.000000      1.000000
  0.166667  0.333333  0.000000      1.000000
  0.333333  0.333333  0.000000      1.000000
  0.500000  0.333333  0.000000      1.000000
 -0.333333  0.333333 -0.000000      1.000000
 -0.166667  0.333333  0.000000      1.000000
  0.000000  0.500000  0.000000      1.000000
  0.166667  0.500000  0.000000      1.000000
  0.333333  0.500000  0.000000      1.000000
  0.500000  0.500000  0.000000      1.000000
 -0.333333  0.500000  0.000000      1.000000
 -0.166667  0.500000 -0.000000      1.000000
  0.000000 -0.333333  0.000000      1.000000
  0.166667 -0.333333  0.000000      1.000000
  0.333333 -0.333333  0.000000      1.000000
  0.500000 -0.333333  0.000000      1.000000
 -0.333333 -0.333333 -0.000000      1.000000
 -0.166667 -0.333333 -0.000000      1.000000
  0.000000 -0.166667  0.000000      1.000000
  0.166667 -0.166667 -0.000000      1.000000
  0.333333 -0.166667  0.000000      1.000000
  0.500000 -0.166667  0.000000      1.000000
 -0.333333 -0.166667 -0.000000      1.000000
 -0.166667 -0.166667 -0.000000      1.000000
 -0.000000 -0.000000  0.166667      1.000000
  0.166667  0.000000  0.166667      1.000000
  0.333333 -0.000000  0.166667      1.000000
  0.500000  0.000000  0.166667      1.000000
 -0.333333 -0.000000  0.166667      1.000000
 -0.166667  0.000000  0.166667      1.000000
 -0.000000  0.166667  0.166667      1.000000
  0.166667  0.166667  0.166667      1.000000
  0.333333  0.166667  0.166667      1.000000
  0.500000  0.166667  0.166667      1.000000
 -0.333333  0.166667  0.166667      1.000000
 -0.166667  0.166667  0.166667      1.000000
 -0.000000  0.333333  0.166667      1.000000
  0.166667  0.333333  0.166667      1.000000
  0.333333  0.333333  0.166667      1.000000
  0.500000  0.333333  0.166667      1.000000
 -0.333333  0.333333  0.166667      1.000000
 -0.166667  0.333333  0.166667      1.000000
 -0.000000  0.500000  0.166667      1.000000
  0.166667  0.500000  0.166667      1.000000
  0.333333  0.500000  0.166667      1.000000
  0.500000  0.500000  0.166667      1.000000
 -0.333333  0.500000  0.166667      1.000000
 -0.166667  0.500000  0.166667      1.000000
 -0.000000 -0.333333  0.166667      1.000000
  0.166667 -0.333333  0.166667      1.000000
  0.333333 -0.333333  0.166667      1.000000
  0.500000 -0.333333  0.166667      1.000000
 -0.333333 -0.333333  0.166667      1.000000
 -0.166667 -0.333333  0.166667      1.000000
  0.000000 -0.166667  0.166667      1.000000
  0.166667 -0.166667  0.166667      1.000000
  0.333333 -0.166667  0.166667      1.000000
  0.500000 -0.166667  0.166667      1.000000
 -0.333333 -0.166667  0.166667      1.000000
 -0.166667 -0.166667  0.166667      1.000000
 -0.000000  0.000000  0.333333      1.000000
  0.166667 -0.000000  0.333333      1.000000
  0.333333  0.000000  0.333333      1.000000
  0.500000 -0.000000  0.333333      1.000000
 -0.333333  0.000000  0.333333      1.000000
 -0.166667  0.000000  0.333333      1.000000
 -0.000000  0.166667  0.333333      1.000000
  0.166667  0.166667  0.333333      1.000000
  0.333333  0.166667  0.333333      1.000000
  0.500000  0.166667  0.333333      1.000000
 -0.333333  0.166667  0.333333      1.000000
 -0.166667  0.166667  0.333333      1.000000
 -0.000000  0.333333  0.333333      1.000000
  0.166667  0.333333  0.333333      1.000000
  0.333333  0.333333  0.333333      1.000000
  0.500000  0.333333  0.333333      1.000000
 -0.333333  0.333333  0.333333      1.000000
 -0.166667  0.333333  0.333333      1.000000
  0.000000  0.500000  0.333333      1.000000
  0.166667  0.500000  0.333333      1.000000
  0.333333  0.500000  0.333333      1.000000
  0.500000  0.500000  0.333333      1.000000
 -0.333333  0.500000  0.333333      1.000000
 -0.166667  0.500000  0.333333      1.000000
 -0.000000 -0.333333  0.333333      1.000000
  0.166667 -0.333333  0.333333      1.000000
  0.333333 -0.333333  0.333333      1.000000
  0.500000 -0.333333  0.333333      1.000000
 -0.333333 -0.333333  0.333333      1.000000
 -0.166667 -0.333333  0.333333      1.000000
 -0.000000 -0.166667  0.333333      1.000000
  0.166667 -0.166667  0.333333      1.000000
  0.333333 -0.166667  0.333333      1.000000
  0.500000 -0.166667  0.333333      1.000000
 -0.333333 -0.166667  0.333333      1.000000
 -0.166667 -0.166667  0.333333      1.000000
  0.000000 -0.000000  0.500000      1.000000
  0.166667  0.000000  0.500000      1.000000
  0.333333  0.000000  0.500000      1.000000
  0.500000 -0.000000  0.500000      1.000000
 -0.333333  0.000000  0.500000      1.000000
 -0.166667  0.000000  0.500000      1.000000
  0.000000  0.166667  0.500000      1.000000
  0.166667  0.166667  0.500000      1.000000
  0.333333  0.166667  0.500000      1.000000
  0.500000  0.166667  0.500000      1.000000
 -0.333333  0.166667  0.500000      1.000000
 -0.166667  0.166667  0.500000      1.000000
  0.000000  0.333333  0.500000      1.000000
  0.166667  0.333333  0.500000      1.000000
  0.333333  0.333333  0.500000      1.000000
  0.500000  0.333333  0.500000      1.000000
 -0.333333  0.333333  0.500000      1.000000
 -0.166667  0.333333  0.500000      1.000000
  0.000000  0.500000  0.500000      1.000000
  0.166667  0.500000  0.500000      1.000000
  0.333333  0.500000  0.500000      1.000000
  0.500000  0.500000  0.500000      1.000000
 -0.333333  0.500000  0.500000      1.000000
 -0.166667  0.500000  0.500000      1.000000
  0.000000 -0.333333  0.500000      1.000000
  0.166667 -0.333333  0.500000      1.000000
  0.333333 -0.333333  0.500000      1.000000
  0.500000 -0.333333  0.500000      1.000000
 -0.333333 -0.333333  0.500000      1.000000
 -0.166667 -0.333333  0.500000      1.000000
  0.000000 -0.166667  0.500000      1.000000
  0.166667 -0.166667  0.500000      1.000000
  0.333333 -0.166667  0.500000      1.000000
  0.500000 -0.166667  0.500000      1.000000
 -0.333333 -0.166667  0.500000      1.000000
 -0.166667 -0.166667  0.500000      1.000000
  0.000000  0.000000 -0.333333      1.000000
  0.166667 -0.000000 -0.333333      1.000000
  0.333333 -0.000000 -0.333333      1.000000
  0.500000  0.000000 -0.333333      1.000000
 -0.333333 -0.000000 -0.333333      1.000000
 -0.166667  0.000000 -0.333333      1.000000
  0.000000  0.166667 -0.333333      1.000000
  0.166667  0.166667 -0.333333      1.000000
  0.333333  0.166667 -0.333333      1.000000
  0.500000  0.166667 -0.333333      1.000000
 -0.333333  0.166667 -0.333333      1.000000
 -0.166667  0.166667 -0.333333      1.000000
  0.000000  0.333333 -0.333333      1.000000
  0.166667  0.333333 -0.333333      1.000000
  0.333333  0.333333 -0.333333      1.000000
  0.500000  0.333333 -0.333333      1.000000
 -0.333333  0.333333 -0.333333      1.000000
 -0.166667  0.333333 -0.333333      1.000000
  0.000000  0.500000 -0.333333      1.000000
  0.166667  0.500000 -0.333333      1.000000
  0.333333  0.500000 -0.333333      1.000000
  0.500000  0.500000 -0.333333      1.000000
 -0.333333  0.500000 -0.333333      1.000000
 -0.166667  0.500000 -0.333333      1.000000
  0.000000 -0.333333 -0.333333      1.000000
  0.166667 -0.333333 -0.333333      1.000000
  0.333333 -0.333333 -0.333333      1.000000
  0.500000 -0.333333 -0.333333      1.000000
 -0.333333 -0.333333 -0.333333      1.000000
 -0.166667 -0.333333 -0.333333      1.000000
  0.000000 -0.166667 -0.333333      1.000000
  0.166667 -0.166667 -0.333333      1.000000
  0.333333 -0.166667 -0.333333      1.000000
  0.500000 -0.166667 -0.333333      1.000000
 -0.333333 -0.166667 -0.333333      1.000000
 -0.166667 -0.166667 -0.333333      1.000000
  0.000000  0.000000 -0.166667      1.000000
  0.166667 -0.000000 -0.166667      1.000000
  0.333333  0.000000 -0.166667      1.000000
  0.500000  0.000000 -0.166667      1.000000
 -0.333333  0.000000 -0.166667      1.000000
 -0.166667 -0.000000 -0.166667      1.000000
 -0.000000  0.166667 -0.166667      1.000000
  0.166667  0.166667 -0.166667      1.000000
  0.333333  0.166667 -0.166667      1.000000
  0.500000  0.166667 -0.166667      1.000000
 -0.333333  0.166667 -0.166667      1.000000
 -0.166667  0.166667 -0.166667      1.000000
  0.000000  0.333333 -0.166667      1.000000
  0.166667  0.333333 -0.166667      1.000000
  0.333333  0.333333 -0.166667      1.000000
  0.500000  0.333333 -0.166667      1.000000
 -0.333333  0.333333 -0.166667      1.000000
 -0.166667  0.333333 -0.166667      1.000000
  0.000000  0.500000 -0.166667      1.000000
  0.166667  0.500000 -0.166667      1.000000
  0.333333  0.500000 -0.166667      1.000000
  0.500000  0.500000 -0.166667      1.000000
 -0.333333  0.500000 -0.166667      1.000000
 -0.166667  0.500000 -0.166667      1.000000
  0.000000 -0.333333 -0.166667      1.000000
  0.166667 -0.333333 -0.166667      1.000000
  0.333333 -0.333333 -0.166667      1.000000
  0.500000 -0.333333 -0.166667      1.000000
 -0.333333 -0.333333 -0.166667      1.000000
 -0.166667 -0.333333 -0.166667      1.000000
  0.000000 -0.166667 -0.166667      1.000000
  0.166667 -0.166667 -0.166667      1.000000
  0.333333 -0.166667 -0.166667      1.000000
  0.500000 -0.166667 -0.166667      1.000000
 -0.333333 -0.166667 -0.166667      1.000000
 -0.166667 -0.166667 -0.166667      1.000000
 
 Following cartesian coordinates:
            Coordinates               Weight
  0.000000  0.000000  0.000000      1.000000
  0.037604 -0.021710 -0.015352      1.000000
  0.075207 -0.043421 -0.030703      1.000000
  0.112811 -0.065131 -0.046055      1.000000
 -0.075207  0.043421  0.030703      1.000000
 -0.037604  0.021710  0.015352      1.000000
  0.000000  0.043421 -0.015352      1.000000
  0.037604  0.021710 -0.030703      1.000000
  0.075207  0.000000 -0.046055      1.000000
  0.112811 -0.021710 -0.061406      1.000000
 -0.075207  0.086842  0.015352      1.000000
 -0.037604  0.065131  0.000000      1.000000
  0.000000  0.086842 -0.030703      1.000000
  0.037604  0.065131 -0.046055      1.000000
  0.075207  0.043421 -0.061406      1.000000
  0.112811  0.021710 -0.076758      1.000000
 -0.075207  0.130263  0.000000      1.000000
 -0.037604  0.108552 -0.015352      1.000000
  0.000000  0.130263 -0.046055      1.000000
  0.037604  0.108552 -0.061406      1.000000
  0.075207  0.086842 -0.076758      1.000000
  0.112811  0.065131 -0.092110      1.000000
 -0.075207  0.173684 -0.015352      1.000000
 -0.037604  0.151973 -0.030703      1.000000
 -0.000000 -0.086842  0.030703      1.000000
  0.037604 -0.108552  0.015352      1.000000
  0.075207 -0.130263 -0.000000      1.000000
  0.112811 -0.151973 -0.015352      1.000000
 -0.075207 -0.043421  0.061406      1.000000
 -0.037604 -0.065131  0.046055      1.000000
 -0.000000 -0.043421  0.015352      1.000000
  0.037604 -0.065131 -0.000000      1.000000
  0.075207 -0.086842 -0.015352      1.000000
  0.112811 -0.108552 -0.030703      1.000000
 -0.075207 -0.000000  0.046055      1.000000
 -0.037604 -0.021710  0.030703      1.000000
 -0.000000  0.000000  0.046055      1.000000
  0.037604 -0.021710  0.030703      1.000000
  0.075207 -0.043421  0.015352      1.000000
  0.112811 -0.065131 -0.000000      1.000000
 -0.075207  0.043421  0.076758      1.000000
 -0.037604  0.021710  0.061406      1.000000
 -0.000000  0.043421  0.030703      1.000000
  0.037604  0.021710  0.015352      1.000000
  0.075207  0.000000  0.000000      1.000000
  0.112811 -0.021710 -0.015352      1.000000
 -0.075207  0.086842  0.061406      1.000000
 -0.037604  0.065131  0.046055      1.000000
 -0.000000  0.086842  0.015352      1.000000
  0.037604  0.065131  0.000000      1.000000
  0.075207  0.043421 -0.015352      1.000000
  0.112811  0.021710 -0.030703      1.000000
 -0.075207  0.130263  0.046055      1.000000
 -0.037604  0.108552  0.030703      1.000000
 -0.000000  0.130263  0.000000      1.000000
  0.037604  0.108552 -0.015352      1.000000
  0.075207  0.086842 -0.030703      1.000000
  0.112811  0.065131 -0.046055      1.000000
 -0.075207  0.173684  0.030703      1.000000
 -0.037604  0.151973  0.015352      1.000000
 -0.000000 -0.086842  0.076758      1.000000
  0.037604 -0.108552  0.061406      1.000000
  0.075207 -0.130263  0.046055      1.000000
  0.112811 -0.151973  0.030703      1.000000
 -0.075207 -0.043421  0.107461      1.000000
 -0.037604 -0.065131  0.092110      1.000000
 -0.000000 -0.043421  0.061406      1.000000
  0.037604 -0.065131  0.046055      1.000000
  0.075207 -0.086842  0.030703      1.000000
  0.112811 -0.108552  0.015352      1.000000
 -0.075207  0.000000  0.092110      1.000000
 -0.037604 -0.021710  0.076758      1.000000
 -0.000000  0.000000  0.092110      1.000000
  0.037604 -0.021710  0.076758      1.000000
  0.075207 -0.043421  0.061406      1.000000
  0.112811 -0.065131  0.046055      1.000000
 -0.075207  0.043421  0.122813      1.000000
 -0.037604  0.021710  0.107461      1.000000
 -0.000000  0.043421  0.076758      1.000000
  0.037604  0.021710  0.061406      1.000000
  0.075207  0.000000  0.046055      1.000000
  0.112811 -0.021710  0.030703      1.000000
 -0.075207  0.086842  0.107461      1.000000
 -0.037604  0.065131  0.092110      1.000000
 -0.000000  0.086842  0.061406      1.000000
  0.037604  0.065131  0.046055      1.000000
  0.075207  0.043421  0.030703      1.000000
  0.112811  0.021710  0.015352      1.000000
 -0.075207  0.130263  0.092110      1.000000
 -0.037604  0.108552  0.076758      1.000000
 -0.000000  0.130263  0.046055      1.000000
  0.037604  0.108552  0.030703      1.000000
  0.075207  0.086842  0.015352      1.000000
  0.112811  0.065131  0.000000      1.000000
 -0.075207  0.173684  0.076758      1.000000
 -0.037604  0.151973  0.061406      1.000000
 -0.000000 -0.086842  0.122813      1.000000
  0.037604 -0.108552  0.107461      1.000000
  0.075207 -0.130263  0.092110      1.000000
  0.112811 -0.151973  0.076758      1.000000
 -0.075207 -0.043421  0.153516      1.000000
 -0.037604 -0.065131  0.138164      1.000000
 -0.000000 -0.043421  0.107461      1.000000
  0.037604 -0.065131  0.092110      1.000000
  0.075207 -0.086842  0.076758      1.000000
  0.112811 -0.108552  0.061406      1.000000
 -0.075207  0.000000  0.138164      1.000000
 -0.037604 -0.021710  0.122813      1.000000
 -0.000000  0.000000  0.138164      1.000000
  0.037604 -0.021710  0.122813      1.000000
  0.075207 -0.043421  0.107461      1.000000
  0.112811 -0.065131  0.092110      1.000000
 -0.075207  0.043421  0.168868      1.000000
 -0.037604  0.021710  0.153516      1.000000
 -0.000000  0.043421  0.122813      1.000000
  0.037604  0.021710  0.107461      1.000000
  0.075207  0.000000  0.092110      1.000000
  0.112811 -0.021710  0.076758      1.000000
 -0.075207  0.086842  0.153516      1.000000
 -0.037604  0.065131  0.138164      1.000000
 -0.000000  0.086842  0.107461      1.000000
  0.037604  0.065131  0.092110      1.000000
  0.075207  0.043421  0.076758      1.000000
  0.112811  0.021710  0.061406      1.000000
 -0.075207  0.130263  0.138164      1.000000
 -0.037604  0.108552  0.122813      1.000000
 -0.000000  0.130263  0.092110      1.000000
  0.037604  0.108552  0.076758      1.000000
  0.075207  0.086842  0.061406      1.000000
  0.112811  0.065131  0.046055      1.000000
 -0.075207  0.173684  0.122813      1.000000
 -0.037604  0.151973  0.107461      1.000000
 -0.000000 -0.086842  0.168868      1.000000
  0.037604 -0.108552  0.153516      1.000000
  0.075207 -0.130263  0.138164      1.000000
  0.112811 -0.151973  0.122813      1.000000
 -0.075207 -0.043421  0.199571      1.000000
 -0.037604 -0.065131  0.184219      1.000000
 -0.000000 -0.043421  0.153516      1.000000
  0.037604 -0.065131  0.138164      1.000000
  0.075207 -0.086842  0.122813      1.000000
  0.112811 -0.108552  0.107461      1.000000
 -0.075207  0.000000  0.184219      1.000000
 -0.037604 -0.021710  0.168868      1.000000
  0.000000 -0.000000 -0.092110      1.000000
  0.037604 -0.021710 -0.107461      1.000000
  0.075207 -0.043421 -0.122813      1.000000
  0.112811 -0.065131 -0.138164      1.000000
 -0.075207  0.043421 -0.061406      1.000000
 -0.037604  0.021710 -0.076758      1.000000
  0.000000  0.043421 -0.107461      1.000000
  0.037604  0.021710 -0.122813      1.000000
  0.075207  0.000000 -0.138164      1.000000
  0.112811 -0.021710 -0.153516      1.000000
 -0.075207  0.086842 -0.076758      1.000000
 -0.037604  0.065131 -0.092110      1.000000
  0.000000  0.086842 -0.122813      1.000000
  0.037604  0.065131 -0.138164      1.000000
  0.075207  0.043421 -0.153516      1.000000
  0.112811  0.021710 -0.168868      1.000000
 -0.075207  0.130263 -0.092110      1.000000
 -0.037604  0.108552 -0.107461      1.000000
  0.000000  0.130263 -0.138164      1.000000
  0.037604  0.108552 -0.153516      1.000000
  0.075207  0.086842 -0.168868      1.000000
  0.112811  0.065131 -0.184219      1.000000
 -0.075207  0.173684 -0.107461      1.000000
 -0.037604  0.151973 -0.122813      1.000000
  0.000000 -0.086842 -0.061406      1.000000
  0.037604 -0.108552 -0.076758      1.000000
  0.075207 -0.130263 -0.092110      1.000000
  0.112811 -0.151973 -0.107461      1.000000
 -0.075207 -0.043421 -0.030703      1.000000
 -0.037604 -0.065131 -0.046055      1.000000
  0.000000 -0.043421 -0.076758      1.000000
  0.037604 -0.065131 -0.092110      1.000000
  0.075207 -0.086842 -0.107461      1.000000
  0.112811 -0.108552 -0.122813      1.000000
 -0.075207 -0.000000 -0.046055      1.000000
 -0.037604 -0.021710 -0.061406      1.000000
  0.000000 -0.000000 -0.046055      1.000000
  0.037604 -0.021710 -0.061406      1.000000
  0.075207 -0.043421 -0.076758      1.000000
  0.112811 -0.065131 -0.092110      1.000000
 -0.075207  0.043421 -0.015352      1.000000
 -0.037604  0.021710 -0.030703      1.000000
  0.000000  0.043421 -0.061406      1.000000
  0.037604  0.021710 -0.076758      1.000000
  0.075207  0.000000 -0.092110      1.000000
  0.112811 -0.021710 -0.107461      1.000000
 -0.075207  0.086842 -0.030703      1.000000
 -0.037604  0.065131 -0.046055      1.000000
  0.000000  0.086842 -0.076758      1.000000
  0.037604  0.065131 -0.092110      1.000000
  0.075207  0.043421 -0.107461      1.000000
  0.112811  0.021710 -0.122813      1.000000
 -0.075207  0.130263 -0.046055      1.000000
 -0.037604  0.108552 -0.061406      1.000000
  0.000000  0.130263 -0.092110      1.000000
  0.037604  0.108552 -0.107461      1.000000
  0.075207  0.086842 -0.122813      1.000000
  0.112811  0.065131 -0.138164      1.000000
 -0.075207  0.173684 -0.061406      1.000000
 -0.037604  0.151973 -0.076758      1.000000
  0.000000 -0.086842 -0.015352      1.000000
  0.037604 -0.108552 -0.030703      1.000000
  0.075207 -0.130263 -0.046055      1.000000
  0.112811 -0.151973 -0.061406      1.000000
 -0.075207 -0.043421  0.015352      1.000000
 -0.037604 -0.065131 -0.000000      1.000000
  0.000000 -0.043421 -0.030703      1.000000
  0.037604 -0.065131 -0.046055      1.000000
  0.075207 -0.086842 -0.061406      1.000000
  0.112811 -0.108552 -0.076758      1.000000
 -0.075207 -0.000000 -0.000000      1.000000
 -0.037604 -0.021710 -0.015352      1.000000
 


--------------------------------------------------------------------------------------------------------




 Dimension of arrays:
   k-points           NKPTS =    216   k-points in BZ     NKDIM =    216   number of bands    NBANDS=     20
   number of dos      NEDOS =    301   number of ions     NIONS =      1
   non local maximal  LDIM  =      8   non local SUM 2l+1 LMDIM =     32
   total plane-waves  NPLWV =  21952
   max r-space proj   IRMAX =      1   max aug-charges    IRDMAX= 141072
   dimension x,y,z NGX =    28 NGY =   28 NGZ =   28
   dimension x,y,z NGXF=    56 NGYF=   56 NGZF=   56
   support grid    NGXF=   112 NGYF=  112 NGZF=  112
   ions per type =               1
   NGX,Y,Z   is equivalent  to a cutoff of  10.50, 10.50, 10.50 a.u.
   NGXF,Y,Z  is equivalent  to a cutoff of  21.00, 21.00, 21.00 a.u.

 SYSTEM =  Og_FCC                                  
 POSCAR =  Xe_FCC                                  

 Startparameter for this run:
   NWRITE =      2    write-flag & timer
   PREC   = accura    normal or accurate (medium, high low for compatibility)
   ISTART =      0    job   : 0-new  1-cont  2-samecut
   ICHARG =      2    charge: 1-file 2-atom 10-const
   ISPIN  =      1    spin polarized calculation?
   LNONCOLLINEAR =      T non collinear calculations
   LSORBIT =      T    spin-orbit coupling
   INIWAV =      1    electr: 0-lowe 1-rand  2-diag
   LASPH  =      F    aspherical Exc in radial PAW
   METAGGA=      F    non-selfconsistent MetaGGA calc.

 Electronic Relaxation 1
   ENCUT  =  300.0 eV  22.05 Ry    4.70 a.u.   6.26  6.26  6.26*2*pi/ulx,y,z
   ENINI  =  300.0     initial cutoff
   ENAUG  =  605.9 eV  augmentation charge cutoff
   NELM   =     50;   NELMIN=  2; NELMDL= -5     # of ELM steps 
   EDIFF  = 0.1E-07   stopping-criterion for ELM
   LREAL  =      F    real-space projection
   NLSPLINE    = F    spline interpolate recip. space projectors
   LCOMPAT=      F    compatible to vasp.4.4
   GGA_COMPAT  = F    GGA compatible to vasp.4.4-vasp.4.6
   LMAXPAW     = -100 max onsite density
   LMAXMIX     =    2 max onsite mixed and CHGCAR
   VOSKOWN=      0    Vosko Wilk Nusair interpolation
   ROPT   =    0.00000
 Ionic relaxation
   EDIFFG = 0.1E-04   stopping-criterion for IOM
   NSW    =      1    number of steps for IOM
   NBLOCK =      1;   KBLOCK =      1    inner block; outer block 
   IBRION =     -1    ionic relax: 0-MD 1-quasi-New 2-CG
   NFREE  =      5    steps in history (QN), initial steepest desc. (CG)
   ISIF   =      3    stress and relaxation
   IWAVPR =     10    prediction:  0-non 1-charg 2-wave 3-comb
   ISYM   =      0    0-nonsym 1-usesym 2-fastsym
   LCORR  =      T    Harris-Foulkes like correction to forces

   POTIM  = 0.1000    time-step for ionic-motion
   TEIN   =    0.0    initial temperature
   TEBEG  =    0.0;   TEEND  =   0.0 temperature during run
   SMASS  =  -3.00    Nose mass-parameter (am)
   estimated Nose-frequenzy (Omega)   =  0.10E-29 period in steps =****** mass=  -0.449E-27a.u.
   SCALEE = 1.0000    scale energy and forces
   NPACO  =    256;   APACO  = 16.0  distance and # of slots for P.C.
   PSTRESS=    0.0 pullay stress

  Mass of Ions in am
   POMASS = 131.29
  Ionic Valenz
   ZVAL   =   8.00
  Atomic Wigner-Seitz radii
   RWIGS  =  -1.00
  virtual crystal weights 
   VCA    =   1.00
   NELECT =       8.0000    total number of electrons
   NUPDOWN=      -1.0000    fix difference up-down

 DOS related values:
   EMIN   =  10.00;   EMAX   =-10.00  energy-range for DOS
   EFERMI =   0.00
   ISMEAR =     0;   SIGMA  =   0.00  broadening in eV -4-tet -1-fermi 0-gaus

 Electronic relaxation 2 (details)
   IALGO  =     38    algorithm
   LDIAG  =      T    sub-space diagonalisation (order eigenvalues)
   LSUBROT=      F    optimize rotation matrix (better conditioning)
   TURBO    =      0    0=normal 1=particle mesh
   IRESTART =      0    0=no restart 2=restart with 2 vectors
   NREBOOT  =      0    no. of reboots
   NMIN     =      0    reboot dimension
   EREF     =   0.00    reference energy to select bands
   IMIX   =      4    mixing-type and parameters
     AMIX     =   0.40;   BMIX     =  1.00
     AMIX_MAG =   1.60;   BMIX_MAG =  1.00
     AMIN     =   0.10
     WC   =   100.;   INIMIX=   1;  MIXPRE=   1;  MAXMIX=  50

 Intra band minimization:
   WEIMIN = 0.0000     energy-eigenvalue tresh-hold
   EBREAK =  0.13E-09  absolut break condition
   DEPER  =   0.30     relativ break condition  

   TIME   =   0.40     timestep for ELM

  volume/ion in A,a.u.               =      61.57       415.47
  Fermi-wavevector in a.u.,A,eV,Ry     =   0.829196  1.566953  9.354901  0.687566
  Thomas-Fermi vector in A             =   1.941701
 
 Write flags
   LWAVE        =      T    write WAVECAR
   LDOWNSAMPLE  =      F    k-point downsampling of WAVECAR
   LCHARG       =      F    write CHGCAR
   LVTOT        =      F    write LOCPOT, total local potential
   LVHAR        =      F    write LOCPOT, Hartree potential only
   LELF         =      F    write electronic localiz. function (ELF)
   LORBIT       =      0    0 simple, 1 ext, 2 COOP (PROOUT), +10 PAW based schemes


 Dipole corrections
   LMONO  =      F    monopole corrections only (constant potential shift)
   LDIPOL =      F    correct potential (dipole corrections)
   IDIPOL =      0    1-x, 2-y, 3-z, 4-all directions 
   EPSILON=  1.0000000 bulk dielectric constant

 Exchange correlation treatment:
   GGA     =    PE    GGA type
   LEXCH   =     8    internal setting for exchange type
   VOSKOWN=      0    Vosko Wilk Nusair interpolation
   LHFCALC =     F    Hartree Fock is set to
   LHFONE  =     F    Hartree Fock one center treatment
   AEXX    =    0.0000 exact exchange contribution

 Linear response parameters
   LEPSILON=     F    determine dielectric tensor
   LRPA    =     F    only Hartree local field effects (RPA)
   LNABLA  =     F    use nabla operator in PAW spheres
   LVEL    =     F    velocity operator in full k-point grid
   LINTERFAST=   F  fast interpolation
   KINTER  =     0    interpolate to denser k-point grid
   CSHIFT  =0.1000    complex shift for real part using Kramers Kronig
   OMEGAMAX=  -1.0    maximum frequency
   DEG_THRESHOLD= 0.2000000E-02 threshold for treating states as degnerate
   RTIME   =   -0.100 relaxation time in fs
  (WPLASMAI=    0.000 imaginary part of plasma frequency in eV, 0.658/RTIME)
   DFIELD  = 0.0000000 0.0000000 0.0000000 field for delta impulse in time
 
 Orbital magnetization related:
   ORBITALMAG=     F  switch on orbital magnetization
   LCHIMAG   =     F  perturbation theory with respect to B field
   DQ        =  0.001000  dq finite difference perturbation B field
   LLRAUG    =     F  two centre corrections for induced B field



--------------------------------------------------------------------------------------------------------


 Static calculation
 charge density and potential will be updated during run
 non collinear spin polarized calculation
 Variant of blocked Davidson
 Davidson routine will perform the subspace rotation
 perform sub-space diagonalisation
    after iterative eigenvector-optimisation
 modified Broyden-mixing scheme, WC =      100.0
 initial mixing is a Kerker type mixing with AMIX =  0.4000 and BMIX =      1.0000
 Hartree-type preconditioning will be used
 using additional bands           16
 reciprocal scheme for non local part
 use partial core corrections
 calculate Harris-corrections to forces 
   (improved forces if not selfconsistent)
 use gradient corrections 
 use of overlap-Matrix (Vanderbilt PP)
 Gauss-broadening in eV      SIGMA  =   0.00


--------------------------------------------------------------------------------------------------------


  energy-cutoff  :      300.00
  volume of cell :       61.57
      direct lattice vectors                 reciprocal lattice vectors
     4.432200126  0.000000000  0.000000000     0.225621581 -0.130262681 -0.092109625
     2.216100063  3.838397904 -0.000000000     0.000000000  0.260525361 -0.092109625
     2.216100063  1.279465968  3.618876249    -0.000000000  0.000000000  0.276328874

  length of vectors
     4.432200126  4.432200126  4.432200126     0.276328874  0.276328874  0.276328874


 
 k-points in units of 2pi/SCALE and weight: k-points                                
   0.00000000  0.00000000  0.00000000       0.005
   0.03760360 -0.02171045 -0.01535160       0.005
   0.07520719 -0.04342089 -0.03070321       0.005
   0.11281079 -0.06513134 -0.04605481       0.005
  -0.07520719  0.04342089  0.03070321       0.005
  -0.03760360  0.02171045  0.01535160       0.005
   0.00000000  0.04342089 -0.01535160       0.005
   0.03760360  0.02171045 -0.03070321       0.005
   0.07520719  0.00000000 -0.04605481       0.005
   0.11281079 -0.02171045 -0.06140642       0.005
  -0.07520719  0.08684179  0.01535160       0.005
  -0.03760360  0.06513134  0.00000000       0.005
   0.00000000  0.08684179 -0.03070321       0.005
   0.03760360  0.06513134 -0.04605481       0.005
   0.07520719  0.04342089 -0.06140642       0.005
   0.11281079  0.02171045 -0.07675802       0.005
  -0.07520719  0.13026268  0.00000000       0.005
  -0.03760360  0.10855223 -0.01535160       0.005
   0.00000000  0.13026268 -0.04605481       0.005
   0.03760360  0.10855223 -0.06140642       0.005
   0.07520719  0.08684179 -0.07675802       0.005
   0.11281079  0.06513134 -0.09210962       0.005
  -0.07520719  0.17368357 -0.01535160       0.005
  -0.03760360  0.15197313 -0.03070321       0.005
  -0.00000000 -0.08684179  0.03070321       0.005
   0.03760360 -0.10855223  0.01535160       0.005
   0.07520719 -0.13026268 -0.00000000       0.005
   0.11281079 -0.15197313 -0.01535160       0.005
  -0.07520719 -0.04342089  0.06140642       0.005
  -0.03760360 -0.06513134  0.04605481       0.005
  -0.00000000 -0.04342089  0.01535160       0.005
   0.03760360 -0.06513134 -0.00000000       0.005
   0.07520719 -0.08684179 -0.01535160       0.005
   0.11281079 -0.10855223 -0.03070321       0.005
  -0.07520719 -0.00000000  0.04605481       0.005
  -0.03760360 -0.02171045  0.03070321       0.005
  -0.00000000  0.00000000  0.04605481       0.005
   0.03760360 -0.02171045  0.03070321       0.005
   0.07520719 -0.04342089  0.01535160       0.005
   0.11281079 -0.06513134 -0.00000000       0.005
  -0.07520719  0.04342089  0.07675802       0.005
  -0.03760360  0.02171045  0.06140642       0.005
  -0.00000000  0.04342089  0.03070321       0.005
   0.03760360  0.02171045  0.01535160       0.005
   0.07520719  0.00000000  0.00000000       0.005
   0.11281079 -0.02171045 -0.01535160       0.005
  -0.07520719  0.08684179  0.06140642       0.005
  -0.03760360  0.06513134  0.04605481       0.005
  -0.00000000  0.08684179  0.01535160       0.005
   0.03760360  0.06513134  0.00000000       0.005
   0.07520719  0.04342089 -0.01535160       0.005
   0.11281079  0.02171045 -0.03070321       0.005
  -0.07520719  0.13026268  0.04605481       0.005
  -0.03760360  0.10855223  0.03070321       0.005
  -0.00000000  0.13026268  0.00000000       0.005
   0.03760360  0.10855223 -0.01535160       0.005
   0.07520719  0.08684179 -0.03070321       0.005
   0.11281079  0.06513134 -0.04605481       0.005
  -0.07520719  0.17368357  0.03070321       0.005
  -0.03760360  0.15197313  0.01535160       0.005
  -0.00000000 -0.08684179  0.07675802       0.005
   0.03760360 -0.10855223  0.06140642       0.005
   0.07520719 -0.13026268  0.04605481       0.005
   0.11281079 -0.15197313  0.03070321       0.005
  -0.07520719 -0.04342089  0.10746123       0.005
  -0.03760360 -0.06513134  0.09210962       0.005
  -0.00000000 -0.04342089  0.06140642       0.005
   0.03760360 -0.06513134  0.04605481       0.005
   0.07520719 -0.08684179  0.03070321       0.005
   0.11281079 -0.10855223  0.01535160       0.005
  -0.07520719  0.00000000  0.09210962       0.005
  -0.03760360 -0.02171045  0.07675802       0.005
  -0.00000000  0.00000000  0.09210962       0.005
   0.03760360 -0.02171045  0.07675802       0.005
   0.07520719 -0.04342089  0.06140642       0.005
   0.11281079 -0.06513134  0.04605481       0.005
  -0.07520719  0.04342089  0.12281283       0.005
  -0.03760360  0.02171045  0.10746123       0.005
  -0.00000000  0.04342089  0.07675802       0.005
   0.03760360  0.02171045  0.06140642       0.005
   0.07520719  0.00000000  0.04605481       0.005
   0.11281079 -0.02171045  0.03070321       0.005
  -0.07520719  0.08684179  0.10746123       0.005
  -0.03760360  0.06513134  0.09210962       0.005
  -0.00000000  0.08684179  0.06140642       0.005
   0.03760360  0.06513134  0.04605481       0.005
   0.07520719  0.04342089  0.03070321       0.005
   0.11281079  0.02171045  0.01535160       0.005
  -0.07520719  0.13026268  0.09210962       0.005
  -0.03760360  0.10855223  0.07675802       0.005
  -0.00000000  0.13026268  0.04605481       0.005
   0.03760360  0.10855223  0.03070321       0.005
   0.07520719  0.08684179  0.01535160       0.005
   0.11281079  0.06513134  0.00000000       0.005
  -0.07520719  0.17368357  0.07675802       0.005
  -0.03760360  0.15197313  0.06140642       0.005
  -0.00000000 -0.08684179  0.12281283       0.005
   0.03760360 -0.10855223  0.10746123       0.005
   0.07520719 -0.13026268  0.09210962       0.005
   0.11281079 -0.15197313  0.07675802       0.005
  -0.07520719 -0.04342089  0.15351604       0.005
  -0.03760360 -0.06513134  0.13816444       0.005
  -0.00000000 -0.04342089  0.10746123       0.005
   0.03760360 -0.06513134  0.09210962       0.005
   0.07520719 -0.08684179  0.07675802       0.005
   0.11281079 -0.10855223  0.06140642       0.005
  -0.07520719  0.00000000  0.13816444       0.005
  -0.03760360 -0.02171045  0.12281283       0.005
  -0.00000000  0.00000000  0.13816444       0.005
   0.03760360 -0.02171045  0.12281283       0.005
   0.07520719 -0.04342089  0.10746123       0.005
   0.11281079 -0.06513134  0.09210962       0.005
  -0.07520719  0.04342089  0.16886765       0.005
  -0.03760360  0.02171045  0.15351604       0.005
  -0.00000000  0.04342089  0.12281283       0.005
   0.03760360  0.02171045  0.10746123       0.005
   0.07520719  0.00000000  0.09210962       0.005
   0.11281079 -0.02171045  0.07675802       0.005
  -0.07520719  0.08684179  0.15351604       0.005
  -0.03760360  0.06513134  0.13816444       0.005
  -0.00000000  0.08684179  0.10746123       0.005
   0.03760360  0.06513134  0.09210962       0.005
   0.07520719  0.04342089  0.07675802       0.005
   0.11281079  0.02171045  0.06140642       0.005
  -0.07520719  0.13026268  0.13816444       0.005
  -0.03760360  0.10855223  0.12281283       0.005
  -0.00000000  0.13026268  0.09210962       0.005
   0.03760360  0.10855223  0.07675802       0.005
   0.07520719  0.08684179  0.06140642       0.005
   0.11281079  0.06513134  0.04605481       0.005
  -0.07520719  0.17368357  0.12281283       0.005
  -0.03760360  0.15197313  0.10746123       0.005
  -0.00000000 -0.08684179  0.16886765       0.005
   0.03760360 -0.10855223  0.15351604       0.005
   0.07520719 -0.13026268  0.13816444       0.005
   0.11281079 -0.15197313  0.12281283       0.005
  -0.07520719 -0.04342089  0.19957085       0.005
  -0.03760360 -0.06513134  0.18421925       0.005
  -0.00000000 -0.04342089  0.15351604       0.005
   0.03760360 -0.06513134  0.13816444       0.005
   0.07520719 -0.08684179  0.12281283       0.005
   0.11281079 -0.10855223  0.10746123       0.005
  -0.07520719  0.00000000  0.18421925       0.005
  -0.03760360 -0.02171045  0.16886765       0.005
   0.00000000 -0.00000000 -0.09210962       0.005
   0.03760360 -0.02171045 -0.10746123       0.005
   0.07520719 -0.04342089 -0.12281283       0.005
   0.11281079 -0.06513134 -0.13816444       0.005
  -0.07520719  0.04342089 -0.06140642       0.005
  -0.03760360  0.02171045 -0.07675802       0.005
   0.00000000  0.04342089 -0.10746123       0.005
   0.03760360  0.02171045 -0.12281283       0.005
   0.07520719  0.00000000 -0.13816444       0.005
   0.11281079 -0.02171045 -0.15351604       0.005
  -0.07520719  0.08684179 -0.07675802       0.005
  -0.03760360  0.06513134 -0.09210962       0.005
   0.00000000  0.08684179 -0.12281283       0.005
   0.03760360  0.06513134 -0.13816444       0.005
   0.07520719  0.04342089 -0.15351604       0.005
   0.11281079  0.02171045 -0.16886765       0.005
  -0.07520719  0.13026268 -0.09210962       0.005
  -0.03760360  0.10855223 -0.10746123       0.005
   0.00000000  0.13026268 -0.13816444       0.005
   0.03760360  0.10855223 -0.15351604       0.005
   0.07520719  0.08684179 -0.16886765       0.005
   0.11281079  0.06513134 -0.18421925       0.005
  -0.07520719  0.17368357 -0.10746123       0.005
  -0.03760360  0.15197313 -0.12281283       0.005
   0.00000000 -0.08684179 -0.06140642       0.005
   0.03760360 -0.10855223 -0.07675802       0.005
   0.07520719 -0.13026268 -0.09210962       0.005
   0.11281079 -0.15197313 -0.10746123       0.005
  -0.07520719 -0.04342089 -0.03070321       0.005
  -0.03760360 -0.06513134 -0.04605481       0.005
   0.00000000 -0.04342089 -0.07675802       0.005
   0.03760360 -0.06513134 -0.09210962       0.005
   0.07520719 -0.08684179 -0.10746123       0.005
   0.11281079 -0.10855223 -0.12281283       0.005
  -0.07520719 -0.00000000 -0.04605481       0.005
  -0.03760360 -0.02171045 -0.06140642       0.005
   0.00000000 -0.00000000 -0.04605481       0.005
   0.03760360 -0.02171045 -0.06140642       0.005
   0.07520719 -0.04342089 -0.07675802       0.005
   0.11281079 -0.06513134 -0.09210962       0.005
  -0.07520719  0.04342089 -0.01535160       0.005
  -0.03760360  0.02171045 -0.03070321       0.005
   0.00000000  0.04342089 -0.06140642       0.005
   0.03760360  0.02171045 -0.07675802       0.005
   0.07520719  0.00000000 -0.09210962       0.005
   0.11281079 -0.02171045 -0.10746123       0.005
  -0.07520719  0.08684179 -0.03070321       0.005
  -0.03760360  0.06513134 -0.04605481       0.005
   0.00000000  0.08684179 -0.07675802       0.005
   0.03760360  0.06513134 -0.09210962       0.005
   0.07520719  0.04342089 -0.10746123       0.005
   0.11281079  0.02171045 -0.12281283       0.005
  -0.07520719  0.13026268 -0.04605481       0.005
  -0.03760360  0.10855223 -0.06140642       0.005
   0.00000000  0.13026268 -0.09210962       0.005
   0.03760360  0.10855223 -0.10746123       0.005
   0.07520719  0.08684179 -0.12281283       0.005
   0.11281079  0.06513134 -0.13816444       0.005
  -0.07520719  0.17368357 -0.06140642       0.005
  -0.03760360  0.15197313 -0.07675802       0.005
   0.00000000 -0.08684179 -0.01535160       0.005
   0.03760360 -0.10855223 -0.03070321       0.005
   0.07520719 -0.13026268 -0.04605481       0.005
   0.11281079 -0.15197313 -0.06140642       0.005
  -0.07520719 -0.04342089  0.01535160       0.005
  -0.03760360 -0.06513134 -0.00000000       0.005
   0.00000000 -0.04342089 -0.03070321       0.005
   0.03760360 -0.06513134 -0.04605481       0.005
   0.07520719 -0.08684179 -0.06140642       0.005
   0.11281079 -0.10855223 -0.07675802       0.005
  -0.07520719 -0.00000000 -0.00000000       0.005
  -0.03760360 -0.02171045 -0.01535160       0.005
 
 k-points in reciprocal lattice and weights: k-points                                
   0.00000000  0.00000000  0.00000000       0.005
   0.16666667  0.00000000  0.00000000       0.005
   0.33333333 -0.00000000  0.00000000       0.005
   0.50000000  0.00000000  0.00000000       0.005
  -0.33333333 -0.00000000 -0.00000000       0.005
  -0.16666667 -0.00000000 -0.00000000       0.005
  -0.00000000  0.16666667  0.00000000       0.005
   0.16666667  0.16666667  0.00000000       0.005
   0.33333333  0.16666667  0.00000000       0.005
   0.50000000  0.16666667  0.00000000       0.005
  -0.33333333  0.16666667 -0.00000000       0.005
  -0.16666667  0.16666667  0.00000000       0.005
  -0.00000000  0.33333333  0.00000000       0.005
   0.16666667  0.33333333  0.00000000       0.005
   0.33333333  0.33333333  0.00000000       0.005
   0.50000000  0.33333333  0.00000000       0.005
  -0.33333333  0.33333333 -0.00000000       0.005
  -0.16666667  0.33333333  0.00000000       0.005
   0.00000000  0.50000000  0.00000000       0.005
   0.16666667  0.50000000  0.00000000       0.005
   0.33333333  0.50000000  0.00000000       0.005
   0.50000000  0.50000000  0.00000000       0.005
  -0.33333333  0.50000000  0.00000000       0.005
  -0.16666667  0.50000000 -0.00000000       0.005
   0.00000000 -0.33333333  0.00000000       0.005
   0.16666667 -0.33333333  0.00000000       0.005
   0.33333333 -0.33333333  0.00000000       0.005
   0.50000000 -0.33333333  0.00000000       0.005
  -0.33333333 -0.33333333 -0.00000000       0.005
  -0.16666667 -0.33333333 -0.00000000       0.005
   0.00000000 -0.16666667  0.00000000       0.005
   0.16666667 -0.16666667 -0.00000000       0.005
   0.33333333 -0.16666667  0.00000000       0.005
   0.50000000 -0.16666667  0.00000000       0.005
  -0.33333333 -0.16666667 -0.00000000       0.005
  -0.16666667 -0.16666667 -0.00000000       0.005
  -0.00000000 -0.00000000  0.16666667       0.005
   0.16666667  0.00000000  0.16666667       0.005
   0.33333333 -0.00000000  0.16666667       0.005
   0.50000000  0.00000000  0.16666667       0.005
  -0.33333333 -0.00000000  0.16666667       0.005
  -0.16666667  0.00000000  0.16666667       0.005
  -0.00000000  0.16666667  0.16666667       0.005
   0.16666667  0.16666667  0.16666667       0.005
   0.33333333  0.16666667  0.16666667       0.005
   0.50000000  0.16666667  0.16666667       0.005
  -0.33333333  0.16666667  0.16666667       0.005
  -0.16666667  0.16666667  0.16666667       0.005
  -0.00000000  0.33333333  0.16666667       0.005
   0.16666667  0.33333333  0.16666667       0.005
   0.33333333  0.33333333  0.16666667       0.005
   0.50000000  0.33333333  0.16666667       0.005
  -0.33333333  0.33333333  0.16666667       0.005
  -0.16666667  0.33333333  0.16666667       0.005
  -0.00000000  0.50000000  0.16666667       0.005
   0.16666667  0.50000000  0.16666667       0.005
   0.33333333  0.50000000  0.16666667       0.005
   0.50000000  0.50000000  0.16666667       0.005
  -0.33333333  0.50000000  0.16666667       0.005
  -0.16666667  0.50000000  0.16666667       0.005
  -0.00000000 -0.33333333  0.16666667       0.005
   0.16666667 -0.33333333  0.16666667       0.005
   0.33333333 -0.33333333  0.16666667       0.005
   0.50000000 -0.33333333  0.16666667       0.005
  -0.33333333 -0.33333333  0.16666667       0.005
  -0.16666667 -0.33333333  0.16666667       0.005
   0.00000000 -0.16666667  0.16666667       0.005
   0.16666667 -0.16666667  0.16666667       0.005
   0.33333333 -0.16666667  0.16666667       0.005
   0.50000000 -0.16666667  0.16666667       0.005
  -0.33333333 -0.16666667  0.16666667       0.005
  -0.16666667 -0.16666667  0.16666667       0.005
  -0.00000000  0.00000000  0.33333333       0.005
   0.16666667 -0.00000000  0.33333333       0.005
   0.33333333  0.00000000  0.33333333       0.005
   0.50000000 -0.00000000  0.33333333       0.005
  -0.33333333  0.00000000  0.33333333       0.005
  -0.16666667  0.00000000  0.33333333       0.005
  -0.00000000  0.16666667  0.33333333       0.005
   0.16666667  0.16666667  0.33333333       0.005
   0.33333333  0.16666667  0.33333333       0.005
   0.50000000  0.16666667  0.33333333       0.005
  -0.33333333  0.16666667  0.33333333       0.005
  -0.16666667  0.16666667  0.33333333       0.005
  -0.00000000  0.33333333  0.33333333       0.005
   0.16666667  0.33333333  0.33333333       0.005
   0.33333333  0.33333333  0.33333333       0.005
   0.50000000  0.33333333  0.33333333       0.005
  -0.33333333  0.33333333  0.33333333       0.005
  -0.16666667  0.33333333  0.33333333       0.005
   0.00000000  0.50000000  0.33333333       0.005
   0.16666667  0.50000000  0.33333333       0.005
   0.33333333  0.50000000  0.33333333       0.005
   0.50000000  0.50000000  0.33333333       0.005
  -0.33333333  0.50000000  0.33333333       0.005
  -0.16666667  0.50000000  0.33333333       0.005
  -0.00000000 -0.33333333  0.33333333       0.005
   0.16666667 -0.33333333  0.33333333       0.005
   0.33333333 -0.33333333  0.33333333       0.005
   0.50000000 -0.33333333  0.33333333       0.005
  -0.33333333 -0.33333333  0.33333333       0.005
  -0.16666667 -0.33333333  0.33333333       0.005
  -0.00000000 -0.16666667  0.33333333       0.005
   0.16666667 -0.16666667  0.33333333       0.005
   0.33333333 -0.16666667  0.33333333       0.005
   0.50000000 -0.16666667  0.33333333       0.005
  -0.33333333 -0.16666667  0.33333333       0.005
  -0.16666667 -0.16666667  0.33333333       0.005
   0.00000000 -0.00000000  0.50000000       0.005
   0.16666667  0.00000000  0.50000000       0.005
   0.33333333  0.00000000  0.50000000       0.005
   0.50000000 -0.00000000  0.50000000       0.005
  -0.33333333  0.00000000  0.50000000       0.005
  -0.16666667  0.00000000  0.50000000       0.005
   0.00000000  0.16666667  0.50000000       0.005
   0.16666667  0.16666667  0.50000000       0.005
   0.33333333  0.16666667  0.50000000       0.005
   0.50000000  0.16666667  0.50000000       0.005
  -0.33333333  0.16666667  0.50000000       0.005
  -0.16666667  0.16666667  0.50000000       0.005
   0.00000000  0.33333333  0.50000000       0.005
   0.16666667  0.33333333  0.50000000       0.005
   0.33333333  0.33333333  0.50000000       0.005
   0.50000000  0.33333333  0.50000000       0.005
  -0.33333333  0.33333333  0.50000000       0.005
  -0.16666667  0.33333333  0.50000000       0.005
   0.00000000  0.50000000  0.50000000       0.005
   0.16666667  0.50000000  0.50000000       0.005
   0.33333333  0.50000000  0.50000000       0.005
   0.50000000  0.50000000  0.50000000       0.005
  -0.33333333  0.50000000  0.50000000       0.005
  -0.16666667  0.50000000  0.50000000       0.005
   0.00000000 -0.33333333  0.50000000       0.005
   0.16666667 -0.33333333  0.50000000       0.005
   0.33333333 -0.33333333  0.50000000       0.005
   0.50000000 -0.33333333  0.50000000       0.005
  -0.33333333 -0.33333333  0.50000000       0.005
  -0.16666667 -0.33333333  0.50000000       0.005
   0.00000000 -0.16666667  0.50000000       0.005
   0.16666667 -0.16666667  0.50000000       0.005
   0.33333333 -0.16666667  0.50000000       0.005
   0.50000000 -0.16666667  0.50000000       0.005
  -0.33333333 -0.16666667  0.50000000       0.005
  -0.16666667 -0.16666667  0.50000000       0.005
   0.00000000  0.00000000 -0.33333333       0.005
   0.16666667 -0.00000000 -0.33333333       0.005
   0.33333333 -0.00000000 -0.33333333       0.005
   0.50000000  0.00000000 -0.33333333       0.005
  -0.33333333 -0.00000000 -0.33333333       0.005
  -0.16666667  0.00000000 -0.33333333       0.005
   0.00000000  0.16666667 -0.33333333       0.005
   0.16666667  0.16666667 -0.33333333       0.005
   0.33333333  0.16666667 -0.33333333       0.005
   0.50000000  0.16666667 -0.33333333       0.005
  -0.33333333  0.16666667 -0.33333333       0.005
  -0.16666667  0.16666667 -0.33333333       0.005
   0.00000000  0.33333333 -0.33333333       0.005
   0.16666667  0.33333333 -0.33333333       0.005
   0.33333333  0.33333333 -0.33333333       0.005
   0.50000000  0.33333333 -0.33333333       0.005
  -0.33333333  0.33333333 -0.33333333       0.005
  -0.16666667  0.33333333 -0.33333333       0.005
   0.00000000  0.50000000 -0.33333333       0.005
   0.16666667  0.50000000 -0.33333333       0.005
   0.33333333  0.50000000 -0.33333333       0.005
   0.50000000  0.50000000 -0.33333333       0.005
  -0.33333333  0.50000000 -0.33333333       0.005
  -0.16666667  0.50000000 -0.33333333       0.005
   0.00000000 -0.33333333 -0.33333333       0.005
   0.16666667 -0.33333333 -0.33333333       0.005
   0.33333333 -0.33333333 -0.33333333       0.005
   0.50000000 -0.33333333 -0.33333333       0.005
  -0.33333333 -0.33333333 -0.33333333       0.005
  -0.16666667 -0.33333333 -0.33333333       0.005
   0.00000000 -0.16666667 -0.33333333       0.005
   0.16666667 -0.16666667 -0.33333333       0.005
   0.33333333 -0.16666667 -0.33333333       0.005
   0.50000000 -0.16666667 -0.33333333       0.005
  -0.33333333 -0.16666667 -0.33333333       0.005
  -0.16666667 -0.16666667 -0.33333333       0.005
   0.00000000  0.00000000 -0.16666667       0.005
   0.16666667 -0.00000000 -0.16666667       0.005
   0.33333333  0.00000000 -0.16666667       0.005
   0.50000000  0.00000000 -0.16666667       0.005
  -0.33333333  0.00000000 -0.16666667       0.005
  -0.16666667 -0.00000000 -0.16666667       0.005
  -0.00000000  0.16666667 -0.16666667       0.005
   0.16666667  0.16666667 -0.16666667       0.005
   0.33333333  0.16666667 -0.16666667       0.005
   0.50000000  0.16666667 -0.16666667       0.005
  -0.33333333  0.16666667 -0.16666667       0.005
  -0.16666667  0.16666667 -0.16666667       0.005
   0.00000000  0.33333333 -0.16666667       0.005
   0.16666667  0.33333333 -0.16666667       0.005
   0.33333333  0.33333333 -0.16666667       0.005
   0.50000000  0.33333333 -0.16666667       0.005
  -0.33333333  0.33333333 -0.16666667       0.005
  -0.16666667  0.33333333 -0.16666667       0.005
   0.00000000  0.50000000 -0.16666667       0.005
   0.16666667  0.50000000 -0.16666667       0.005
   0.33333333  0.50000000 -0.16666667       0.005
   0.50000000  0.50000000 -0.16666667       0.005
  -0.33333333  0.50000000 -0.16666667       0.005
  -0.16666667  0.50000000 -0.16666667       0.005
   0.00000000 -0.33333333 -0.16666667       0.005
   0.16666667 -0.33333333 -0.16666667       0.005
   0.33333333 -0.33333333 -0.16666667       0.005
   0.50000000 -0.33333333 -0.16666667       0.005
  -0.33333333 -0.33333333 -0.16666667       0.005
  -0.16666667 -0.33333333 -0.16666667       0.005
   0.00000000 -0.16666667 -0.16666667       0.005
   0.16666667 -0.16666667 -0.16666667       0.005
   0.33333333 -0.16666667 -0.16666667       0.005
   0.50000000 -0.16666667 -0.16666667       0.005
  -0.33333333 -0.16666667 -0.16666667       0.005
  -0.16666667 -0.16666667 -0.16666667       0.005
 
 position of ions in fractional coordinates (direct lattice) 
   0.00000000  0.00000000  0.00000000
 
 position of ions in cartesian coordinates  (Angst):
   0.00000000  0.00000000  0.00000000
 
 Euler angles ALPHA=     0.0000000  BETA=     0.0000000

 transformation matrix from SAXIS to cartesian coordinates
 ---------------------------------------------------------
     1.0000000 m_x     0.0000000 m_y     0.0000000 m_z
     0.0000000 m_x     1.0000000 m_y     0.0000000 m_z
     0.0000000 m_x     0.0000000 m_y     1.0000000 m_z

 transformation matrix from cartesian coordinates to SAXIS
 ---------------------------------------------------------
     1.0000000 m_x     0.0000000 m_y     0.0000000 m_z
     0.0000000 m_x     1.0000000 m_y     0.0000000 m_z
     0.0000000 m_x     0.0000000 m_y     1.0000000 m_z




--------------------------------------------------------------------------------------------------------


 k-point  1 :   0.0000 0.0000 0.0000  plane waves:    1450
 k-point  2 :   0.1667 0.0000 0.0000  plane waves:    1436
 k-point  3 :   0.3333-0.0000 0.0000  plane waves:    1490
 k-point  4 :   0.5000 0.0000 0.0000  plane waves:    1436
 k-point  5 :  -0.3333-0.0000-0.0000  plane waves:    1490
 k-point  6 :  -0.1667-0.0000-0.0000  plane waves:    1436
 k-point  7 :  -0.0000 0.1667 0.0000  plane waves:    1436
 k-point  8 :   0.1667 0.1667 0.0000  plane waves:    1418
 k-point  9 :   0.3333 0.1667 0.0000  plane waves:    1462
 k-point 10 :   0.5000 0.1667 0.0000  plane waves:    1464
 k-point 11 :  -0.3333 0.1667-0.0000  plane waves:    1452
 k-point 12 :  -0.1667 0.1667 0.0000  plane waves:    1464
 k-point 13 :  -0.0000 0.3333 0.0000  plane waves:    1490
 k-point 14 :   0.1667 0.3333 0.0000  plane waves:    1462
 k-point 15 :   0.3333 0.3333 0.0000  plane waves:    1434
 k-point 16 :   0.5000 0.3333 0.0000  plane waves:    1458
 k-point 17 :  -0.3333 0.3333-0.0000  plane waves:    1436
 k-point 18 :  -0.1667 0.3333 0.0000  plane waves:    1452
 k-point 19 :   0.0000 0.5000 0.0000  plane waves:    1436
 k-point 20 :   0.1667 0.5000 0.0000  plane waves:    1464
 k-point 21 :   0.3333 0.5000 0.0000  plane waves:    1458
 k-point 22 :   0.5000 0.5000 0.0000  plane waves:    1480
 k-point 23 :  -0.3333 0.5000 0.0000  plane waves:    1458
 k-point 24 :  -0.1667 0.5000-0.0000  plane waves:    1464
 k-point 25 :   0.0000-0.3333 0.0000  plane waves:    1490
 k-point 26 :   0.1667-0.3333 0.0000  plane waves:    1452
 k-point 27 :   0.3333-0.3333 0.0000  plane waves:    1436
 k-point 28 :   0.5000-0.3333 0.0000  plane waves:    1458
 k-point 29 :  -0.3333-0.3333-0.0000  plane waves:    1434
 k-point 30 :  -0.1667-0.3333-0.0000  plane waves:    1462
 k-point 31 :   0.0000-0.1667 0.0000  plane waves:    1436
 k-point 32 :   0.1667-0.1667-0.0000  plane waves:    1464
 k-point 33 :   0.3333-0.1667 0.0000  plane waves:    1452
 k-point 34 :   0.5000-0.1667 0.0000  plane waves:    1464
 k-point 35 :  -0.3333-0.1667-0.0000  plane waves:    1462
 k-point 36 :  -0.1667-0.1667-0.0000  plane waves:    1418
 k-point 37 :  -0.0000-0.0000 0.1667  plane waves:    1436
 k-point 38 :   0.1667 0.0000 0.1667  plane waves:    1418
 k-point 39 :   0.3333-0.0000 0.1667  plane waves:    1462
 k-point 40 :   0.5000 0.0000 0.1667  plane waves:    1464
 k-point 41 :  -0.3333-0.0000 0.1667  plane waves:    1452
 k-point 42 :  -0.1667 0.0000 0.1667  plane waves:    1464
 k-point 43 :  -0.0000 0.1667 0.1667  plane waves:    1418
 k-point 44 :   0.1667 0.1667 0.1667  plane waves:    1436
 k-point 45 :   0.3333 0.1667 0.1667  plane waves:    1464
 k-point 46 :   0.5000 0.1667 0.1667  plane waves:    1452
 k-point 47 :  -0.3333 0.1667 0.1667  plane waves:    1464
 k-point 48 :  -0.1667 0.1667 0.1667  plane waves:    1462
 k-point 49 :  -0.0000 0.3333 0.1667  plane waves:    1462
 k-point 50 :   0.1667 0.3333 0.1667  plane waves:    1464
 k-point 51 :   0.3333 0.3333 0.1667  plane waves:    1462
 k-point 52 :   0.5000 0.3333 0.1667  plane waves:    1456
 k-point 53 :  -0.3333 0.3333 0.1667  plane waves:    1460
 k-point 54 :  -0.1667 0.3333 0.1667  plane waves:    1456
 k-point 55 :  -0.0000 0.5000 0.1667  plane waves:    1464
 k-point 56 :   0.1667 0.5000 0.1667  plane waves:    1452
 k-point 57 :   0.3333 0.5000 0.1667  plane waves:    1456
 k-point 58 :   0.5000 0.5000 0.1667  plane waves:    1458
 k-point 59 :  -0.3333 0.5000 0.1667  plane waves:    1436
 k-point 60 :  -0.1667 0.5000 0.1667  plane waves:    1460
 k-point 61 :  -0.0000-0.3333 0.1667  plane waves:    1452
 k-point 62 :   0.1667-0.3333 0.1667  plane waves:    1464
 k-point 63 :   0.3333-0.3333 0.1667  plane waves:    1460
 k-point 64 :   0.5000-0.3333 0.1667  plane waves:    1436
 k-point 65 :  -0.3333-0.3333 0.1667  plane waves:    1458
 k-point 66 :  -0.1667-0.3333 0.1667  plane waves:    1456
 k-point 67 :   0.0000-0.1667 0.1667  plane waves:    1464
 k-point 68 :   0.1667-0.1667 0.1667  plane waves:    1462
 k-point 69 :   0.3333-0.1667 0.1667  plane waves:    1456
 k-point 70 :   0.5000-0.1667 0.1667  plane waves:    1460
 k-point 71 :  -0.3333-0.1667 0.1667  plane waves:    1456
 k-point 72 :  -0.1667-0.1667 0.1667  plane waves:    1462
 k-point 73 :  -0.0000 0.0000 0.3333  plane waves:    1490
 k-point 74 :   0.1667-0.0000 0.3333  plane waves:    1462
 k-point 75 :   0.3333 0.0000 0.3333  plane waves:    1434
 k-point 76 :   0.5000-0.0000 0.3333  plane waves:    1458
 k-point 77 :  -0.3333 0.0000 0.3333  plane waves:    1436
 k-point 78 :  -0.1667 0.0000 0.3333  plane waves:    1452
 k-point 79 :  -0.0000 0.1667 0.3333  plane waves:    1462
 k-point 80 :   0.1667 0.1667 0.3333  plane waves:    1464
 k-point 81 :   0.3333 0.1667 0.3333  plane waves:    1462
 k-point 82 :   0.5000 0.1667 0.3333  plane waves:    1456
 k-point 83 :  -0.3333 0.1667 0.3333  plane waves:    1460
 k-point 84 :  -0.1667 0.1667 0.3333  plane waves:    1456
 k-point 85 :  -0.0000 0.3333 0.3333  plane waves:    1434
 k-point 86 :   0.1667 0.3333 0.3333  plane waves:    1462
 k-point 87 :   0.3333 0.3333 0.3333  plane waves:    1490
 k-point 88 :   0.5000 0.3333 0.3333  plane waves:    1452
 k-point 89 :  -0.3333 0.3333 0.3333  plane waves:    1436
 k-point 90 :  -0.1667 0.3333 0.3333  plane waves:    1458
 k-point 91 :   0.0000 0.5000 0.3333  plane waves:    1458
 k-point 92 :   0.1667 0.5000 0.3333  plane waves:    1456
 k-point 93 :   0.3333 0.5000 0.3333  plane waves:    1452
 k-point 94 :   0.5000 0.5000 0.3333  plane waves:    1464
 k-point 95 :  -0.3333 0.5000 0.3333  plane waves:    1460
 k-point 96 :  -0.1667 0.5000 0.3333  plane waves:    1436
 k-point 97 :  -0.0000-0.3333 0.3333  plane waves:    1436
 k-point 98 :   0.1667-0.3333 0.3333  plane waves:    1460
 k-point 99 :   0.3333-0.3333 0.3333  plane waves:    1436
 k-point ** :   0.5000-0.3333 0.3333  plane waves:    1460
 k-point ** :  -0.3333-0.3333 0.3333  plane waves:    1436
 k-point ** :  -0.1667-0.3333 0.3333  plane waves:    1460
 k-point ** :  -0.0000-0.1667 0.3333  plane waves:    1452
 k-point ** :   0.1667-0.1667 0.3333  plane waves:    1456
 k-point ** :   0.3333-0.1667 0.3333  plane waves:    1458
 k-point ** :   0.5000-0.1667 0.3333  plane waves:    1436
 k-point ** :  -0.3333-0.1667 0.3333  plane waves:    1460
 k-point ** :  -0.1667-0.1667 0.3333  plane waves:    1464
 k-point ** :   0.0000-0.0000 0.5000  plane waves:    1436
 k-point ** :   0.1667 0.0000 0.5000  plane waves:    1464
 k-point ** :   0.3333 0.0000 0.5000  plane waves:    1458
 k-point ** :   0.5000-0.0000 0.5000  plane waves:    1480
 k-point ** :  -0.3333 0.0000 0.5000  plane waves:    1458
 k-point ** :  -0.1667 0.0000 0.5000  plane waves:    1464
 k-point ** :   0.0000 0.1667 0.5000  plane waves:    1464
 k-point ** :   0.1667 0.1667 0.5000  plane waves:    1452
 k-point ** :   0.3333 0.1667 0.5000  plane waves:    1456
 k-point ** :   0.5000 0.1667 0.5000  plane waves:    1458
 k-point ** :  -0.3333 0.1667 0.5000  plane waves:    1436
 k-point ** :  -0.1667 0.1667 0.5000  plane waves:    1460
 k-point ** :   0.0000 0.3333 0.5000  plane waves:    1458
 k-point ** :   0.1667 0.3333 0.5000  plane waves:    1456
 k-point ** :   0.3333 0.3333 0.5000  plane waves:    1452
 k-point ** :   0.5000 0.3333 0.5000  plane waves:    1464
 k-point ** :  -0.3333 0.3333 0.5000  plane waves:    1460
 k-point ** :  -0.1667 0.3333 0.5000  plane waves:    1436
 k-point ** :   0.0000 0.5000 0.5000  plane waves:    1480
 k-point ** :   0.1667 0.5000 0.5000  plane waves:    1458
 k-point ** :   0.3333 0.5000 0.5000  plane waves:    1464
 k-point ** :   0.5000 0.5000 0.5000  plane waves:    1436
 k-point ** :  -0.3333 0.5000 0.5000  plane waves:    1464
 k-point ** :  -0.1667 0.5000 0.5000  plane waves:    1458
 k-point ** :   0.0000-0.3333 0.5000  plane waves:    1458
 k-point ** :   0.1667-0.3333 0.5000  plane waves:    1436
 k-point ** :   0.3333-0.3333 0.5000  plane waves:    1460
 k-point ** :   0.5000-0.3333 0.5000  plane waves:    1464
 k-point ** :  -0.3333-0.3333 0.5000  plane waves:    1452
 k-point ** :  -0.1667-0.3333 0.5000  plane waves:    1456
 k-point ** :   0.0000-0.1667 0.5000  plane waves:    1464
 k-point ** :   0.1667-0.1667 0.5000  plane waves:    1460
 k-point ** :   0.3333-0.1667 0.5000  plane waves:    1436
 k-point ** :   0.5000-0.1667 0.5000  plane waves:    1458
 k-point ** :  -0.3333-0.1667 0.5000  plane waves:    1456
 k-point ** :  -0.1667-0.1667 0.5000  plane waves:    1452
 k-point ** :   0.0000 0.0000-0.3333  plane waves:    1490
 k-point ** :   0.1667-0.0000-0.3333  plane waves:    1452
 k-point ** :   0.3333-0.0000-0.3333  plane waves:    1436
 k-point ** :   0.5000 0.0000-0.3333  plane waves:    1458
 k-point ** :  -0.3333-0.0000-0.3333  plane waves:    1434
 k-point ** :  -0.1667 0.0000-0.3333  plane waves:    1462
 k-point ** :   0.0000 0.1667-0.3333  plane waves:    1452
 k-point ** :   0.1667 0.1667-0.3333  plane waves:    1464
 k-point ** :   0.3333 0.1667-0.3333  plane waves:    1460
 k-point ** :   0.5000 0.1667-0.3333  plane waves:    1436
 k-point ** :  -0.3333 0.1667-0.3333  plane waves:    1458
 k-point ** :  -0.1667 0.1667-0.3333  plane waves:    1456
 k-point ** :   0.0000 0.3333-0.3333  plane waves:    1436
 k-point ** :   0.1667 0.3333-0.3333  plane waves:    1460
 k-point ** :   0.3333 0.3333-0.3333  plane waves:    1436
 k-point ** :   0.5000 0.3333-0.3333  plane waves:    1460
 k-point ** :  -0.3333 0.3333-0.3333  plane waves:    1436
 k-point ** :  -0.1667 0.3333-0.3333  plane waves:    1460
 k-point ** :   0.0000 0.5000-0.3333  plane waves:    1458
 k-point ** :   0.1667 0.5000-0.3333  plane waves:    1436
 k-point ** :   0.3333 0.5000-0.3333  plane waves:    1460
 k-point ** :   0.5000 0.5000-0.3333  plane waves:    1464
 k-point ** :  -0.3333 0.5000-0.3333  plane waves:    1452
 k-point ** :  -0.1667 0.5000-0.3333  plane waves:    1456
 k-point ** :   0.0000-0.3333-0.3333  plane waves:    1434
 k-point ** :   0.1667-0.3333-0.3333  plane waves:    1458
 k-point ** :   0.3333-0.3333-0.3333  plane waves:    1436
 k-point ** :   0.5000-0.3333-0.3333  plane waves:    1452
 k-point ** :  -0.3333-0.3333-0.3333  plane waves:    1490
 k-point ** :  -0.1667-0.3333-0.3333  plane waves:    1462
 k-point ** :   0.0000-0.1667-0.3333  plane waves:    1462
 k-point ** :   0.1667-0.1667-0.3333  plane waves:    1456
 k-point ** :   0.3333-0.1667-0.3333  plane waves:    1460
 k-point ** :   0.5000-0.1667-0.3333  plane waves:    1456
 k-point ** :  -0.3333-0.1667-0.3333  plane waves:    1462
 k-point ** :  -0.1667-0.1667-0.3333  plane waves:    1464
 k-point ** :   0.0000 0.0000-0.1667  plane waves:    1436
 k-point ** :   0.1667-0.0000-0.1667  plane waves:    1464
 k-point ** :   0.3333 0.0000-0.1667  plane waves:    1452
 k-point ** :   0.5000 0.0000-0.1667  plane waves:    1464
 k-point ** :  -0.3333 0.0000-0.1667  plane waves:    1462
 k-point ** :  -0.1667-0.0000-0.1667  plane waves:    1418
 k-point ** :  -0.0000 0.1667-0.1667  plane waves:    1464
 k-point ** :   0.1667 0.1667-0.1667  plane waves:    1462
 k-point ** :   0.3333 0.1667-0.1667  plane waves:    1456
 k-point ** :   0.5000 0.1667-0.1667  plane waves:    1460
 k-point ** :  -0.3333 0.1667-0.1667  plane waves:    1456
 k-point ** :  -0.1667 0.1667-0.1667  plane waves:    1462
 k-point ** :   0.0000 0.3333-0.1667  plane waves:    1452
 k-point ** :   0.1667 0.3333-0.1667  plane waves:    1456
 k-point ** :   0.3333 0.3333-0.1667  plane waves:    1458
 k-point ** :   0.5000 0.3333-0.1667  plane waves:    1436
 k-point ** :  -0.3333 0.3333-0.1667  plane waves:    1460
 k-point ** :  -0.1667 0.3333-0.1667  plane waves:    1464
 k-point ** :   0.0000 0.5000-0.1667  plane waves:    1464
 k-point ** :   0.1667 0.5000-0.1667  plane waves:    1460
 k-point ** :   0.3333 0.5000-0.1667  plane waves:    1436
 k-point ** :   0.5000 0.5000-0.1667  plane waves:    1458
 k-point ** :  -0.3333 0.5000-0.1667  plane waves:    1456
 k-point ** :  -0.1667 0.5000-0.1667  plane waves:    1452
 k-point ** :   0.0000-0.3333-0.1667  plane waves:    1462
 k-point ** :   0.1667-0.3333-0.1667  plane waves:    1456
 k-point ** :   0.3333-0.3333-0.1667  plane waves:    1460
 k-point ** :   0.5000-0.3333-0.1667  plane waves:    1456
 k-point ** :  -0.3333-0.3333-0.1667  plane waves:    1462
 k-point ** :  -0.1667-0.3333-0.1667  plane waves:    1464
 k-point ** :   0.0000-0.1667-0.1667  plane waves:    1418
 k-point ** :   0.1667-0.1667-0.1667  plane waves:    1462
 k-point ** :   0.3333-0.1667-0.1667  plane waves:    1464
 k-point ** :   0.5000-0.1667-0.1667  plane waves:    1452
 k-point ** :  -0.3333-0.1667-0.1667  plane waves:    1464
 k-point ** :  -0.1667-0.1667-0.1667  plane waves:    1436

 maximum and minimum number of plane-waves per node :       230      184

 maximum number of plane-waves:      1490
 maximum index in each direction: 
   IXMAX=    6   IYMAX=    6   IZMAX=    6
   IXMIN=   -6   IYMIN=   -6   IZMIN=   -6


 parallel 3D FFT for wavefunctions:
    minimum data exchange during FFTs selected (reduces bandwidth)
 parallel 3D FFT for charge:
    minimum data exchange during FFTs selected (reduces bandwidth)


 total amount of memory used by VASP MPI-rank0    45462. kBytes
=======================================================================

   base      :      30000. kBytes
   nonl-proj :       6416. kBytes
   fftplans  :       1930. kBytes
   grid      :       1806. kBytes
   one-center:        196. kBytes
   wavefun   :       5114. kBytes
 
     INWAV:  cpu time    0.0000: real time    0.0000
 Broyden mixing: mesh for mixing (old mesh)
   NGX = 13   NGY = 13   NGZ = 13
  (NGX  = 56   NGY  = 56   NGZ  = 56)
  gives a total of   2197 points

 initial charge density was supplied:
 charge density of overlapping atoms calculated
 number of electron       8.0000000 magnetization       1.0000000      1.0000000      1.0000000
 keeping initial charge density in first step


--------------------------------------------------------------------------------------------------------


 Maximum index for augmentation-charges         4993 (set IRDMAX)


--------------------------------------------------------------------------------------------------------


 First call to EWALD:  gamma=   0.449
 Maximum number of real-space cells 3x 3x 3
 Maximum number of reciprocal cells 3x 3x 3

    FEWALD:  cpu time    0.0023: real time    0.0025


--------------------------------------- Iteration      1(   1)  ---------------------------------------


    POTLOK:  cpu time    0.0176: real time    0.0184
    SETDIJ:  cpu time    0.0663: real time    0.0666
     EDDAV:  cpu time    0.9577: real time    0.9573
       DOS:  cpu time    0.0011: real time    0.0011
    --------------------------------------------
      LOOP:  cpu time    1.0427: real time    1.0435

 eigenvalue-minimisations  :  8640
 total energy-change (2. order) : 0.3263751E+02  (-0.2030383E+03)
 number of electron       8.0000000 magnetization       1.0000000      1.0000000      1.0000000
 augmentation part        8.0000000 magnetization       1.0000000      1.0000000      1.0000000

 Free energy of the ion-electron system (eV)
  ---------------------------------------------------
  alpha Z        PSCENC =        21.17661221
  Ewald energy   TEWEN  =      -337.05282163
  -Hartree energ DENC   =       -68.63715467
  -exchange      EXHF   =         0.00000000
  -V(xc)+E(xc)   XCENC  =       -72.62660138
  PAW double counting   =       428.58020317     -340.45230929
  entropy T*S    EENTRO =        -0.00000000
  eigenvalues    EBANDS =       -27.85320047
  atomic energy  EATOM  =       429.50278051
  Solvation  Ediel_sol  =         0.00000000
  ---------------------------------------------------
  free energy    TOTEN  =        32.63750844 eV

  energy without entropy =       32.63750844  energy(sigma->0) =       32.63750844


--------------------------------------------------------------------------------------------------------




--------------------------------------- Iteration      1(   2)  ---------------------------------------


     EDDAV:  cpu time    1.2036: real time    1.2034
       DOS:  cpu time    0.0011: real time    0.0011
    --------------------------------------------
      LOOP:  cpu time    1.2047: real time    1.2045

 eigenvalue-minimisations  : 11828
 total energy-change (2. order) :-0.2992189E+02  (-0.2807319E+02)
 number of electron       8.0000000 magnetization       1.0000000      1.0000000      1.0000000
 augmentation part        8.0000000 magnetization       1.0000000      1.0000000      1.0000000

 Free energy of the ion-electron system (eV)
  ---------------------------------------------------
  alpha Z        PSCENC =        21.17661221
  Ewald energy   TEWEN  =      -337.05282163
  -Hartree energ DENC   =       -68.63715467
  -exchange      EXHF   =         0.00000000
  -V(xc)+E(xc)   XCENC  =       -72.62660138
  PAW double counting   =       428.58020317     -340.45230929
  entropy T*S    EENTRO =         0.00000000
  eigenvalues    EBANDS =       -57.77508805
  atomic energy  EATOM  =       429.50278051
  Solvation  Ediel_sol  =         0.00000000
  ---------------------------------------------------
  free energy    TOTEN  =         2.71562086 eV

  energy without entropy =        2.71562086  energy(sigma->0) =        2.71562086


--------------------------------------------------------------------------------------------------------




--------------------------------------- Iteration      1(   3)  ---------------------------------------


     EDDAV:  cpu time    1.1084: real time    1.1079
       DOS:  cpu time    0.0011: real time    0.0011
    --------------------------------------------
      LOOP:  cpu time    1.1095: real time    1.1089

 eigenvalue-minimisations  : 10648
 total energy-change (2. order) :-0.2398453E+01  (-0.2388302E+01)
 number of electron       8.0000000 magnetization       1.0000000      1.0000000      1.0000000
 augmentation part        8.0000000 magnetization       1.0000000      1.0000000      1.0000000

 Free energy of the ion-electron system (eV)
  ---------------------------------------------------
  alpha Z        PSCENC =        21.17661221
  Ewald energy   TEWEN  =      -337.05282163
  -Hartree energ DENC   =       -68.63715467
  -exchange      EXHF   =         0.00000000
  -V(xc)+E(xc)   XCENC  =       -72.62660138
  PAW double counting   =       428.58020317     -340.45230929
  entropy T*S    EENTRO =         0.00000000
  eigenvalues    EBANDS =       -60.17354056
  atomic energy  EATOM  =       429.50278051
  Solvation  Ediel_sol  =         0.00000000
  ---------------------------------------------------
  free energy    TOTEN  =         0.31716835 eV

  energy without entropy =        0.31716835  energy(sigma->0) =        0.31716835


--------------------------------------------------------------------------------------------------------




--------------------------------------- Iteration      1(   4)  ---------------------------------------


     EDDAV:  cpu time    1.1166: real time    1.1162
       DOS:  cpu time    0.0012: real time    0.0011
    --------------------------------------------
      LOOP:  cpu time    1.1178: real time    1.1173

 eigenvalue-minimisations  : 10476
 total energy-change (2. order) :-0.2481766E-01  (-0.2481447E-01)
 number of electron       8.0000000 magnetization       1.0000000      1.0000000      1.0000000
 augmentation part        8.0000000 magnetization       1.0000000      1.0000000      1.0000000

 Free energy of the ion-electron system (eV)
  ---------------------------------------------------
  alpha Z        PSCENC =        21.17661221
  Ewald energy   TEWEN  =      -337.05282163
  -Hartree energ DENC   =       -68.63715467
  -exchange      EXHF   =         0.00000000
  -V(xc)+E(xc)   XCENC  =       -72.62660138
  PAW double counting   =       428.58020317     -340.45230929
  entropy T*S    EENTRO =         0.00000000
  eigenvalues    EBANDS =       -60.19835823
  atomic energy  EATOM  =       429.50278051
  Solvation  Ediel_sol  =         0.00000000
  ---------------------------------------------------
  free energy    TOTEN  =         0.29235069 eV

  energy without entropy =        0.29235069  energy(sigma->0) =        0.29235069


--------------------------------------------------------------------------------------------------------




--------------------------------------- Iteration      1(   5)  ---------------------------------------


     EDDAV:  cpu time    1.0906: real time    1.0903
       DOS:  cpu time    0.0011: real time    0.0011
    CHARGE:  cpu time    0.0741: real time    0.0741
    MIXING:  cpu time    0.0156: real time    0.0157
    --------------------------------------------
      LOOP:  cpu time    1.1814: real time    1.1812

 eigenvalue-minimisations  : 10524
 total energy-change (2. order) :-0.1862100E-03  (-0.1862081E-03)
 number of electron       8.0000000 magnetization      -0.2010014     -0.2010014     -0.2010012
 augmentation part       -1.3450278 magnetization      -0.2037692     -0.2037546     -0.2037551

 Broyden mixing:
  rms(total) = 0.43497E+00    rms(broyden)= 0.43497E+00
  rms(prec ) = 0.43513E+00
  weight for this iteration     100.00

[...]
    0.000000    8.306598    8.306862    8.307088   -0.024904   -0.026920   -0.032597
    0.332382    0.832675    0.832702    0.832724   -0.002491   -0.002692   -0.003260
    0.664764    0.419418    0.419431    0.419442   -0.001246   -0.001347   -0.001631
    0.997147    0.283093    0.283102    0.283109   -0.000831   -0.000898   -0.001088
    1.329529    0.216071    0.216078    0.216083   -0.000624   -0.000674   -0.000816
    1.661911    0.176853    0.176859    0.176863   -0.000499   -0.000540   -0.000654
    1.994293    0.151635    0.151640    0.151643   -0.000417   -0.000450   -0.000546
    2.326676    0.134531    0.134535    0.134538   -0.000358   -0.000386   -0.000468
    2.659058    0.122634    0.122638    0.122641   -0.000313   -0.000339   -0.000410
    2.991440    0.114375    0.114378    0.114381   -0.000279   -0.000301   -0.000365
    3.323822    0.108869    0.108872    0.108875   -0.000251   -0.000272   -0.000330
    3.656205    0.105636    0.105638    0.105641   -0.000229   -0.000247   -0.000300
    3.988587    0.104475    0.104477    0.104479   -0.000210   -0.000227   -0.000276
    4.320969    0.105448    0.105450    0.105453   -0.000194   -0.000210   -0.000255
    4.653351    0.108983    0.108985    0.108987   -0.000181   -0.000195   -0.000237
    4.985734    0.116337    0.116339    0.116341   -0.000169   -0.000182   -0.000222
    5.318116    0.132294    0.132296    0.132298   -0.000158   -0.000171   -0.000208
    5.650498    0.213787    0.213789    0.213791   -0.000149   -0.000161   -0.000196
    5.982880    0.213665    0.213667    0.213669   -0.000140   -0.000151   -0.000184
    6.315262    0.345486    0.345488    0.345490   -0.000130   -0.000140   -0.000172
    6.647645    0.694950    0.694951    0.694953   -0.000117   -0.000126   -0.000157
    6.980027    0.711713    0.711714    0.711716   -0.000111   -0.000121   -0.000150
    7.312409    1.038275    1.038277    1.038278   -0.000112   -0.000121   -0.000149
    7.644791    1.510399    1.510401    1.510403   -0.000118   -0.000126   -0.000153
    7.977174    3.378396    3.378397    3.378399   -0.000050   -0.000058   -0.000086
    8.309556    4.068050    4.068051    4.068053   -0.000100   -0.000108   -0.000132
    8.641938    3.563395    3.563396    3.563398   -0.000097   -0.000105   -0.000128
    8.974320    3.342557    3.342558    3.342560   -0.000094   -0.000102   -0.000124
    9.306703    5.350379    5.350379    5.350381    0.000019    0.000015   -0.000010
    9.639085    3.937664    3.937665    3.937668   -0.000082   -0.000087   -0.000109
    9.971467    3.970579    3.970580    3.970583   -0.000072   -0.000077   -0.000097
   10.303849    3.125897    3.125897    3.125901   -0.000063   -0.000068   -0.000087
   10.636231    2.961361    2.961361    2.961365   -0.000051   -0.000055   -0.000074
   10.968614    3.930141    3.930139    3.930144   -0.000077   -0.000082   -0.000099
   11.300996    2.858526    2.858525    2.858530   -0.000026   -0.000029   -0.000045
   11.633378    2.770578    2.770576    2.770582   -0.000018   -0.000019   -0.000034
   11.965760    2.474077    2.474073    2.474081    0.000006    0.000006   -0.000007
   12.298143    1.802988    1.802981    1.802991    0.000033    0.000033    0.000023
   12.630525    2.081722    2.081709    2.081723    0.000069    0.000069    0.000063
   12.962907    1.133219    1.133190    1.133213    0.000125    0.000130    0.000124
   13.295289    1.342923    1.342883    1.342916    0.000220    0.000228    0.000229
   13.627672    1.190997    1.190896    1.190965    0.000427    0.000406    0.000429
   13.960054    1.111788    1.111446    1.111671    0.000999    0.000845    0.000953
   14.292436    0.805644    0.802219    0.804829    0.005707    0.002473    0.004485
   14.624818    0.859650    0.858473    0.859020    0.001480    0.000128    0.001452
   14.957201    0.800834    0.803013    0.804182   -0.002958   -0.002799   -0.002413
   15.289583    0.536372    0.537129    0.536983   -0.002536   -0.001980   -0.002892
   15.621965    0.413299    0.418286    0.416073    0.001734    0.005627    0.002361
   15.954347    0.222981    0.226105    0.224718   -0.011202   -0.006018   -0.015935
   16.286729    0.380737    0.382458    0.383050   -0.008633   -0.007286   -0.010673
   16.619112    0.382902    0.383590    0.383595   -0.003519   -0.003520   -0.005857
   16.951494    0.226989    0.226566    0.226151    0.009188    0.001746    0.004872
   17.283876    0.043280    0.043003    0.043204    0.004379    0.004102    0.005403
   17.616258    0.020734    0.020706    0.020739    0.001894    0.001955    0.002478
   17.948641    0.013539    0.013538    0.013549    0.001138    0.001199    0.001501
   18.281023    0.009945    0.009948    0.009954    0.000781    0.000831    0.001032
   18.613405    0.007798    0.007802    0.007805    0.000578    0.000618    0.000763
   18.945787    0.006569    0.006572    0.006574    0.000450    0.000482    0.000593
   19.278170    0.006398    0.006401    0.006402    0.000362    0.000389    0.000477
   19.610552    0.005020    0.005022    0.005023    0.000299    0.000322    0.000393
   19.942934    0.007765    0.007767    0.007768    0.000252    0.000272    0.000331
   20.275316    0.006270    0.006272    0.006273    0.000215    0.000232    0.000283
   20.607698    0.005901    0.005903    0.005903    0.000187    0.000202    0.000245
   20.940081    0.004640    0.004641    0.004642    0.000164    0.000177    0.000215
   21.272463    0.005369    0.005370    0.005370    0.000145    0.000157    0.000190
   21.604845    0.006099    0.006100    0.006100    0.000129    0.000140    0.000169
   21.937227    0.003490    0.003491    0.003491    0.000116    0.000126    0.000152
   22.269610    0.005867    0.005868    0.005868    0.000105    0.000114    0.000137
   22.601992    0.004550    0.004551    0.004551    0.000095    0.000103    0.000125
   22.934374    0.004462    0.004463    0.004463    0.000087    0.000094    0.000114
   23.266756    0.002097    0.002097    0.002098    0.000080    0.000086    0.000104
   23.599139    0.001945    0.001946    0.001946    0.000074    0.000080    0.000096
   23.931521    0.001600    0.001600    0.001600    0.000068    0.000074    0.000089
   24.263903    0.001287    0.001287    0.001287    0.000063    0.000068    0.000082
   24.596285    0.001699    0.001700    0.001700    0.000059    0.000063    0.000076
   24.928668    0.001286    0.001287    0.001287    0.000055    0.000059    0.000071
   25.261050    0.000808    0.000808    0.000808    0.000051    0.000055    0.000067
   25.593432    0.000824    0.000825    0.000825    0.000048    0.000052    0.000063
   25.925814    0.001275    0.001275    0.001275    0.000045    0.000049    0.000059
   26.258196    0.000592    0.000593    0.000593    0.000043    0.000046    0.000056
   26.590579    0.000593    0.000594    0.000594    0.000041    0.000044    0.000053
   26.922961    0.000908    0.000908    0.000908    0.000040    0.000043    0.000052
   27.255343    0.000493    0.000493    0.000494    0.000042    0.000045    0.000053
   27.587725    0.000397    0.000397    0.000397    0.000027    0.000029    0.000035
   27.920108    0.000352    0.000352    0.000352    0.000028    0.000031    0.000037
   28.252490    0.000323    0.000323    0.000323    0.000028    0.000030    0.000036
   28.584872    0.000299    0.000299    0.000299    0.000027    0.000029    0.000035
   28.917254    0.000278    0.000278    0.000278    0.000026    0.000028    0.000034
   29.249637    0.000259    0.000259    0.000259    0.000025    0.000027    0.000032
   29.582019    0.000242    0.000242    0.000242    0.000023    0.000025    0.000031
   29.914401    0.000226    0.000226    0.000226    0.000022    0.000024    0.000029
   30.246783    0.000211    0.000211    0.000211    0.000021    0.000023    0.000028
   30.579165    0.000198    0.000198    0.000198    0.000021    0.000022    0.000027
   30.911548    0.000186    0.000186    0.000186    0.000020    0.000021    0.000026
   31.243930    0.000174    0.000174    0.000174    0.000019    0.000020    0.000025
   31.576312    0.000164    0.000164    0.000164    0.000018    0.000020    0.000024
   31.908694    0.000154    0.000154    0.000154    0.000017    0.000019    0.000023
   32.241077    0.000145    0.000145    0.000145    0.000017    0.000018    0.000022
   32.573459    0.000137    0.000137    0.000137    0.000016    0.000017    0.000021
   32.905841    0.000129    0.000129    0.000129    0.000015    0.000017    0.000020

  frequency dependent      REAL DIELECTRIC FUNCTION (independent particle, no local field effects) current-current (2nd set in vasprun.xml)
     E(ev)        X           Y           Z          XY          YZ          ZX
  --------------------------------------------------------------------------------------------------------------
    0.000000    2.379855    2.379898    2.379936    0.000122    0.000101    0.000030
    0.332382    2.381526    2.381570    2.381607    0.000122    0.000101    0.000030
    0.664764    2.386620    2.386664    2.386701    0.000122    0.000101    0.000030
    0.997147    2.395207    2.395251    2.395289    0.000123    0.000101    0.000030
    1.329529    2.407437    2.407482    2.407519    0.000123    0.000102    0.000030
    1.661911    2.423533    2.423578    2.423616    0.000124    0.000102    0.000030
    1.994293    2.443799    2.443843    2.443882    0.000124    0.000102    0.000030
    2.326676    2.468640    2.468685    2.468723    0.000125    0.000103    0.000030
    2.659058    2.498589    2.498634    2.498673    0.000126    0.000104    0.000031
    2.991440    2.534344    2.534389    2.534428    0.000127    0.000105    0.000031
    3.323822    2.576826    2.576871    2.576911    0.000128    0.000105    0.000031
    3.656205    2.627272    2.627317    2.627357    0.000129    0.000106    0.000031
    3.988587    2.687382    2.687427    2.687468    0.000131    0.000108    0.000032
    4.320969    2.759589    2.759635    2.759677    0.000133    0.000109    0.000032
    4.653351    2.847600    2.847646    2.847688    0.000134    0.000110    0.000033
    4.985734    2.957710    2.957757    2.957799    0.000136    0.000112    0.000033
    5.318116    3.103343    3.103390    3.103433    0.000139    0.000113    0.000034
    5.650498    3.325450    3.325498    3.325542    0.000141    0.000115    0.000034
    5.982880    3.397240    3.397288    3.397334    0.000143    0.000117    0.000035
    6.315262    3.874250    3.874298    3.874345    0.000145    0.000117    0.000034
    6.647645    3.840490    3.840539    3.840587    0.000129    0.000100    0.000016
    6.980027    3.905384    3.905432    3.905482    0.000184    0.000156    0.000067
    7.312409    4.956503    4.956553    4.956604    0.000159    0.000129    0.000040
    7.644791    4.788124    4.788173    4.788226    0.000171    0.000139    0.000049
    7.977174    4.788059    4.788108    4.788164    0.000152    0.000118    0.000027
    8.309556    2.136895    2.136945    2.137003    0.000173    0.000137    0.000043
    8.641938    3.023771    3.023821    3.023882    0.000185    0.000148    0.000050
    8.974320    2.361508    2.361558    2.361622    0.000190    0.000150    0.000051
    9.306703    3.748451    3.748507    3.748572    0.000222    0.000186    0.000080
    9.639085    1.299931    1.299981    1.300052    0.000196    0.000150    0.000044
    9.971467    0.945807    0.945856    0.945931    0.000208    0.000159    0.000049
   10.303849    0.714296    0.714345    0.714425    0.000227    0.000172    0.000060
   10.636231    0.976552    0.976598    0.976685    0.000234    0.000174    0.000058
   10.968614   -0.520407   -0.520362   -0.520268    0.000218    0.000153    0.000031
   11.300996   -1.630524   -1.630485   -1.630381    0.000282    0.000205    0.000081
   11.633378   -0.885175   -0.885143   -0.885026    0.000301    0.000211    0.000083
   11.965760   -0.586588   -0.586567   -0.586434    0.000331    0.000224    0.000094
   12.298143   -0.758615   -0.758612   -0.758457    0.000369    0.000238    0.000106
   12.630525    0.047797    0.047770    0.047955    0.000434    0.000267    0.000138
   12.962907   -1.019807   -1.019873   -1.019646    0.000516    0.000300    0.000177
   13.295289   -0.364902   -0.365063   -0.364761    0.000654    0.000329    0.000244
   13.627672   -0.859886   -0.860252   -0.859801    0.000917    0.000373    0.000383
   13.960054   -0.397734   -0.398654   -0.397842    0.001581    0.000454    0.000778
   14.292436   -0.434279   -0.437280   -0.435778    0.002776   -0.000697    0.001146
   14.624818   -0.343124   -0.338721   -0.339722   -0.005051   -0.001858   -0.004184
   14.957201   -0.098184   -0.095219   -0.095637   -0.007373   -0.005325   -0.008484
   15.289583   -0.640516   -0.637995   -0.639543    0.000018    0.002440   -0.000535
   15.621965   -0.471709   -0.471149   -0.471397   -0.000052    0.001166   -0.000410
   15.954347   -0.240605   -0.242468   -0.241635   -0.010391   -0.012067   -0.013694
   16.286729    0.139721    0.140163    0.141019    0.006589    0.006400    0.008215
   16.619112   -0.205976   -0.208354   -0.208387    0.004812    0.001087    0.004244
   16.951494   -0.221203   -0.224999   -0.223131    0.020036    0.013704    0.024501
   17.283876   -0.059165   -0.059095   -0.059515   -0.001726    0.000371    0.000118
   17.616258    0.072199    0.072012    0.071829   -0.001004   -0.000308   -0.000192
   17.948641    0.159935    0.159725    0.159609   -0.000695   -0.000343   -0.000175
   18.281023    0.227754    0.227558    0.227471   -0.000530   -0.000315   -0.000143
   18.613405    0.283674    0.283497    0.283426   -0.000428   -0.000282   -0.000118
   18.945787    0.331634    0.331475    0.331415   -0.000359   -0.000252   -0.000099
   19.278170    0.372605    0.372463    0.372410   -0.000309   -0.000226   -0.000085
   19.610552    0.409469    0.409341    0.409293   -0.000270   -0.000204   -0.000074
   19.942934    0.442640    0.442523    0.442480   -0.000240   -0.000186   -0.000065
   20.275316    0.469023    0.468917    0.468877   -0.000216   -0.000170   -0.000058
   20.607698    0.496005    0.495907    0.495870   -0.000196   -0.000156   -0.000053
   20.940081    0.518551    0.518461    0.518427   -0.000180   -0.000145   -0.000048
   21.272463    0.542619    0.542536    0.542504   -0.000165   -0.000134   -0.000044
   21.604845    0.560671    0.560593    0.560563   -0.000153   -0.000125   -0.000040
   21.937227    0.579573    0.579501    0.579473   -0.000142   -0.000117   -0.000037
   22.269610    0.599457    0.599389    0.599363   -0.000133   -0.000110   -0.000035
   22.601992    0.612657    0.612594    0.612569   -0.000125   -0.000104   -0.000032
   22.934374    0.628001    0.627942    0.627918   -0.000117   -0.000098   -0.000030
   23.266756    0.640856    0.640800    0.640777   -0.000111   -0.000092   -0.000029
   23.599139    0.654882    0.654829    0.654808   -0.000105   -0.000088   -0.000027
   23.931521    0.668162    0.668112    0.668091   -0.000099   -0.000083   -0.000025
   24.263903    0.679912    0.679865    0.679845   -0.000094   -0.000079   -0.000024
   24.596285    0.691440    0.691395    0.691376   -0.000090   -0.000076   -0.000023
   24.928668    0.701553    0.701510    0.701492   -0.000085   -0.000072   -0.000022
   25.261050    0.711830    0.711789    0.711772   -0.000082   -0.000069   -0.000021
   25.593432    0.721514    0.721475    0.721458   -0.000078   -0.000066   -0.000020
   25.925814    0.729908    0.729871    0.729855   -0.000075   -0.000063   -0.000019
   26.258196    0.738617    0.738581    0.738565   -0.000072   -0.000061   -0.000018
   26.590579    0.746845    0.746810    0.746795   -0.000069   -0.000059   -0.000018
   26.922961    0.754464    0.754431    0.754417   -0.000067   -0.000057   -0.000018
   27.255343    0.761587    0.761556    0.761542   -0.000068   -0.000059   -0.000023
   27.587725    0.768605    0.768575    0.768561   -0.000065   -0.000056   -0.000019
   27.920108    0.775298    0.775268    0.775255   -0.000060   -0.000051   -0.000015
   28.252490    0.781660    0.781632    0.781619   -0.000057   -0.000049   -0.000014
   28.584872    0.787729    0.787702    0.787689   -0.000055   -0.000047   -0.000014
   28.917254    0.793528    0.793502    0.793490   -0.000053   -0.000045   -0.000013
   29.249637    0.799076    0.799050    0.799038   -0.000051   -0.000044   -0.000013
   29.582019    0.804387    0.804362    0.804351   -0.000050   -0.000043   -0.000012
   29.914401    0.809478    0.809454    0.809443   -0.000048   -0.000041   -0.000012
   30.246783    0.814360    0.814337    0.814326   -0.000047   -0.000040   -0.000012
   30.579165    0.819046    0.819024    0.819013   -0.000045   -0.000039   -0.000011
   30.911548    0.823547    0.823525    0.823515   -0.000044   -0.000038   -0.000011
   31.243930    0.827873    0.827852    0.827842   -0.000043   -0.000037   -0.000011
   31.576312    0.832034    0.832013    0.832004   -0.000041   -0.000035   -0.000010
   31.908694    0.836038    0.836018    0.836009   -0.000040   -0.000034   -0.000010
   32.241077    0.839894    0.839874    0.839865   -0.000039   -0.000034   -0.000010
   32.573459    0.843609    0.843590    0.843581   -0.000038   -0.000033   -0.000009
   32.905841    0.847190    0.847171    0.847163   -0.000037   -0.000032   -0.000009
 
 The outermost node in the dielectric function lies at epsilon=  17.4


--------------------------------------------------------------------------------------------------------


    OPTICS:  cpu time    0.2792: real time    0.2824
    4ORBIT:  cpu time    0.0000: real time    0.0000

 Spin-Orbit-Coupling matrix elements

 Ion:    1  E_soc:     -0.2996647
 l=   1
     0.0000000    -0.0499392    -0.0499392
    -0.0499392     0.0000000    -0.0499392
    -0.0499392    -0.0499392     0.0000000
 l=   2
     0.0000000    -0.0000009     0.0000000    -0.0000009    -0.0000040
    -0.0000009     0.0000000    -0.0000030    -0.0000009    -0.0000009
     0.0000000    -0.0000030     0.0000000    -0.0000030     0.0000000
    -0.0000009    -0.0000009    -0.0000030     0.0000000    -0.0000009
    -0.0000040    -0.0000009     0.0000000    -0.0000009     0.0000000
 l=   3
     0.0000000     0.0000000     0.0000000     0.0000000     0.0000000     0.0000000    -0.0000000
     0.0000000     0.0000000    -0.0000000     0.0000000    -0.0000000    -0.0000000    -0.0000000
     0.0000000    -0.0000000     0.0000000    -0.0000000    -0.0000000    -0.0000000     0.0000000
     0.0000000     0.0000000    -0.0000000     0.0000000    -0.0000000     0.0000000     0.0000000
     0.0000000    -0.0000000    -0.0000000    -0.0000000     0.0000000    -0.0000000     0.0000000
     0.0000000    -0.0000000    -0.0000000     0.0000000    -0.0000000     0.0000000    -0.0000000
    -0.0000000    -0.0000000     0.0000000     0.0000000     0.0000000    -0.0000000     0.0000000

 total amount of memory used by VASP MPI-rank0    45462. kBytes
=======================================================================

   base      :      30000. kBytes
   nonl-proj :       6416. kBytes
   fftplans  :       1930. kBytes
   grid      :       1806. kBytes
   one-center:        196. kBytes
   wavefun   :       5114. kBytes
 
  
  
 General timing and accounting informations for this job:
 ========================================================
  
                  Total CPU time used (sec):       23.578
                            User time (sec):       21.656
                          System time (sec):        1.922
                         Elapsed time (sec):       23.645
  
                   Maximum memory used (kb):      174300.
                   Average memory used (kb):           0.
  
                          Minor page faults:        51295
                          Major page faults:            0
                 Voluntary context switches:         3360
