    1    1    1    1
  0.6083477E+02  0.4414576E-09  0.4414576E-09  0.4414576E-09  0.1000000E-15
  1.000000000000000E-004
  CAR 
 Og_FCC                                  
     18    343    196
 
  0.0000000E+00  0.0000000E+00  0.0000000E+00  0.2915452E-02
    1      -43.766572   1.000000
    2      -43.766572   1.000000
    3      -43.766570   1.000000
    4      -43.766570   1.000000
    5      -39.363253   1.000000
    6      -39.363253   1.000000
    7      -39.362476   1.000000
    8      -39.362476   1.000000
    9      -39.362475   1.000000
   10      -39.362475   1.000000
   11      -17.061909   1.000000
   12      -17.061909   1.000000
   13       -4.660934   1.000000
   14       -4.660934   1.000000
   15       -0.892155   1.000000
   16       -0.892155   1.000000
   17       -0.892155   1.000000
   18       -0.892155   1.000000
   19        2.822522   0.000000
   20        2.822522   0.000000
   21        8.076267   0.000000
   22        8.076267   0.000000
   23        8.076267   0.000000
   24        8.076267   0.000000
   25        8.242034   0.000000
   26        8.242034   0.000000
   27        9.834404   0.000000
   28        9.834404   0.000000
   29       10.687849   0.000000
   30       10.687849   0.000000
   31       10.687849   0.000000
   32       10.687849   0.000000
   33       11.902983   0.000000
   34       11.902983   0.000000
   35       11.998316   0.000000
   36       11.998316   0.000000
   37       11.998316   0.000000
   38       11.998316   0.000000
   39       14.654196   0.000000
   40       14.654196   0.000000
   41       18.918922   0.000000
   42       18.918922   0.000000
   43       18.953737   0.000000
   44       18.953737   0.000000
   45       18.953737   0.000000
   46       18.953737   0.000000
   47       21.982305   0.000000
   48       21.982305   0.000000
   49       23.165480   0.000000
   50       23.165480   0.000000
   51       23.165481   0.000000
   52       23.165481   0.000000
   53       23.921109   0.000000
   54       23.921109   0.000000
   55       25.553118   0.000000
   56       25.553118   0.000000
   57       25.602293   0.000000
   58       25.602293   0.000000
   59       25.602293   0.000000
   60       25.602293   0.000000
   61       25.971901   0.000000
   62       25.971901   0.000000
   63       26.494191   0.000000
   64       26.494191   0.000000
   65       26.494191   0.000000
   66       26.494191   0.000000
   67       26.790526   0.000000
   68       26.790526   0.000000
   69       26.790526   0.000000
   70       26.790526   0.000000
   71       28.433721   0.000000
   72       28.433721   0.000000
   73       34.322273   0.000000
   74       34.322273   0.000000
   75       34.352929   0.000000
   76       34.352929   0.000000
   77       34.352930   0.000000
   78       34.352930   0.000000
   79       36.520380   0.000000
   80       36.520380   0.000000
   81       36.520380   0.000000
   82       36.520380   0.000000
   83       36.675031   0.000000
   84       36.675031   0.000000
   85       36.976175   0.000000
   86       36.976175   0.000000
   87       36.976175   0.000000
   88       36.976175   0.000000
   89       36.976175   0.000000
   90       36.976175   0.000000
   91       37.684166   0.000000
   92       37.684166   0.000000
   93       37.684167   0.000000
   94       37.684167   0.000000
   95       37.867779   0.000000
   96       37.867779   0.000000
   97       38.242775   0.000000
   98       38.242775   0.000000
   99       38.242775   0.000000
  100       38.242775   0.000000
  101       39.950584   0.000000
  102       39.950584   0.000000
  103       39.950584   0.000000
  104       39.950584   0.000000
  105       39.987638   0.000000
  106       39.987638   0.000000
  107       40.684676   0.000000
  108       40.684676   0.000000
  109       40.684676   0.000000
  110       40.684676   0.000000
  111       40.693862   0.000000
  112       40.693862   0.000000
  113       42.794436   0.000000
  114       42.794436   0.000000
  115       42.814179   0.000000
  116       42.814179   0.000000
  117       42.814179   0.000000
  118       42.814179   0.000000
  119       43.246620   0.000000
  120       43.246620   0.000000
  121       43.806425   0.000000
  122       43.806425   0.000000
  123       44.159609   0.000000
  124       44.159609   0.000000
  125       44.159609   0.000000
  126       44.159609   0.000000
  127       44.176725   0.000000
  128       44.176725   0.000000
  129       44.446704   0.000000
  130       44.446704   0.000000
  131       44.497804   0.000000
  132       44.497804   0.000000
  133       44.497805   0.000000
  134       44.497805   0.000000
  135       47.653090   0.000000
  136       47.653090   0.000000
  137       47.653091   0.000000
  138       47.653091   0.000000
  139       47.771266   0.000000
  140       47.771266   0.000000
  141       50.349196   0.000000
  142       50.349196   0.000000
  143       56.929636   0.000000
  144       56.929636   0.000000
  145       57.201844   0.000000
  146       57.201844   0.000000
  147       57.201844   0.000000
  148       57.201844   0.000000
  149       60.357961   0.000000
  150       60.357961   0.000000
  151       60.668028   0.000000
  152       60.668028   0.000000
  153       60.668028   0.000000
  154       60.668028   0.000000
  155       63.720742   0.000000
  156       63.720742   0.000000
  157       63.720742   0.000000
  158       63.720742   0.000000
  159       65.173541   0.000000
  160       65.173541   0.000000
  161       65.173542   0.000000
  162       65.173542   0.000000
  163       65.259679   0.000000
  164       65.259679   0.000000
  165       67.565512   0.000000
  166       67.565512   0.000000
  167       68.109909   0.000000
  168       68.109909   0.000000
  169       68.109909   0.000000
  170       68.109909   0.000000
  171       68.109909   0.000000
  172       68.109909   0.000000
  173       68.666367   0.000000
  174       68.666367   0.000000
  175       68.666367   0.000000
  176       68.666367   0.000000
  177       69.695985   0.000000
  178       69.695985   0.000000
  179       69.695986   0.000000
  180       69.695986   0.000000
  181       70.512769   0.000000
  182       70.512769   0.000000
  183       70.512769   0.000000
  184       70.512769   0.000000
  185       70.670221   0.000000
  186       70.670221   0.000000
  187       70.678080   0.000000
  188       70.678080   0.000000
  189       70.678080   0.000000
  190       70.678080   0.000000
  191       70.798374   0.000000
  192       70.798374   0.000000
  193       70.798374   0.000000
  194       70.798374   0.000000
  195       70.798374   0.000000
  196       70.798374   0.000000
 
  0.1428571E+00 -0.1258766E-16 -0.6938894E-17  0.2915452E-02
    1      -43.766547   1.000000
    2      -43.766547   1.000000
    3      -43.766488   1.000000
    4      -43.766488   1.000000
    5      -39.362886   1.000000
    6      -39.362886   1.000000
    7      -39.362324   1.000000
    8      -39.362324   1.000000
    9      -39.362105   1.000000
   10      -39.362105   1.000000
   11      -17.030140   1.000000
   12      -17.030140   1.000000
   13       -4.782385   1.000000
   14       -4.782385   1.000000
   15       -1.358956   1.000000
   16       -1.358956   1.000000
   17       -0.951810   1.000000
   18       -0.951810   1.000000
   19        3.520873   0.000000
   20        3.520873   0.000000
   21        7.477362   0.000000
   22        7.477362   0.000000
   23        8.246773   0.000000
   24        8.246773   0.000000
   25        8.393597   0.000000
   26        8.393597   0.000000
   27        9.945252   0.000000
   28        9.945252   0.000000
   29       10.011297   0.000000
   30       10.011297   0.000000
   31       10.722841   0.000000
   32       10.722841   0.000000
   33       11.661030   0.000000
   34       11.661030   0.000000
   35       13.265847   0.000000
   36       13.265847   0.000000
   37       13.316443   0.000000
   38       13.316443   0.000000
   39       16.016448   0.000000
   40       16.016448   0.000000
   41       18.245495   0.000000
   42       18.245495   0.000000
   43       18.309012   0.000000
   44       18.309012   0.000000
   45       18.989164   0.000000
   46       18.989164   0.000000
   47       20.483052   0.000000
   48       20.483052   0.000000
   49       22.146999   0.000000
   50       22.146999   0.000000
   51       22.672442   0.000000
   52       22.672442   0.000000
   53       23.642766   0.000000
   54       23.642766   0.000000
   55       24.610948   0.000000
   56       24.610948   0.000000
   57       24.844155   0.000000
   58       24.844155   0.000000
   59       24.968855   0.000000
   60       24.968855   0.000000
   61       26.243928   0.000000
   62       26.243928   0.000000
   63       26.474126   0.000000
   64       26.474126   0.000000
   65       27.226076   0.000000
   66       27.226076   0.000000
   67       27.671337   0.000000
   68       27.671337   0.000000
   69       28.324203   0.000000
   70       28.324203   0.000000
   71       31.055267   0.000000
   72       31.055267   0.000000
   73       33.330553   0.000000
   74       33.330553   0.000000
   75       33.509029   0.000000
   76       33.509029   0.000000
   77       33.727336   0.000000
   78       33.727336   0.000000
   79       33.793681   0.000000
   80       33.793681   0.000000
   81       34.592615   0.000000
   82       34.592615   0.000000
   83       34.841855   0.000000
   84       34.841855   0.000000
   85       36.482266   0.000000
   86       36.482266   0.000000
   87       36.600700   0.000000
   88       36.600700   0.000000
   89       37.184979   0.000000
   90       37.184979   0.000000
   91       37.300531   0.000000
   92       37.300531   0.000000
   93       37.741597   0.000000
   94       37.741597   0.000000
   95       37.968750   0.000000
   96       37.968750   0.000000
   97       38.040645   0.000000
   98       38.040645   0.000000
   99       38.097209   0.000000
  100       38.097209   0.000000
  101       38.571790   0.000000
  102       38.571790   0.000000
  103       39.927401   0.000000
  104       39.927401   0.000000
  105       40.287601   0.000000
  106       40.287601   0.000000
  107       40.540789   0.000000
  108       40.540789   0.000000
  109       41.824785   0.000000
  110       41.824785   0.000000
  111       41.971104   0.000000
  112       41.971104   0.000000
  113       41.977250   0.000000
  114       41.977250   0.000000
  115       43.552917   0.000000
  116       43.552917   0.000000
  117       43.609310   0.000000
  118       43.609310   0.000000
  119       44.440262   0.000000
  120       44.440262   0.000000
  121       45.075477   0.000000
  122       45.075477   0.000000
  123       45.436678   0.000000
  124       45.436678   0.000000
  125       45.548781   0.000000
  126       45.548781   0.000000
  127       45.590192   0.000000
  128       45.590192   0.000000
  129       46.509322   0.000000
  130       46.509322   0.000000
  131       46.572770   0.000000
  132       46.572770   0.000000
  133       47.325131   0.000000
  134       47.325131   0.000000
  135       48.164679   0.000000
  136       48.164679   0.000000
  137       48.228859   0.000000
  138       48.228859   0.000000
  139       49.370398   0.000000
  140       49.370398   0.000000
  141       51.467592   0.000000
  142       51.467592   0.000000
  143       55.138828   0.000000
  144       55.138828   0.000000
  145       55.190586   0.000000
  146       55.190586   0.000000
  147       55.726544   0.000000
  148       55.726544   0.000000
  149       60.510407   0.000000
  150       60.510407   0.000000
  151       60.836404   0.000000
  152       60.836404   0.000000
  153       62.086717   0.000000
  154       62.086717   0.000000
  155       62.100043   0.000000
  156       62.100043   0.000000
  157       62.257994   0.000000
  158       62.257994   0.000000
  159       62.493695   0.000000
  160       62.493695   0.000000
  161       64.797119   0.000000
  162       64.797119   0.000000
  163       64.843650   0.000000
  164       64.843650   0.000000
  165       64.915281   0.000000
  166       64.915281   0.000000
  167       65.106157   0.000000
  168       65.106157   0.000000
  169       65.815158   0.000000
  170       65.815158   0.000000
  171       65.881821   0.000000
  172       65.881821   0.000000
  173       66.737510   0.000000
  174       66.737510   0.000000
  175       66.954750   0.000000
  176       66.954750   0.000000
  177       68.137305   0.000000
  178       68.137305   0.000000
  179       68.431117   0.000000
  180       68.431117   0.000000
  181       68.452176   0.000000
  182       68.452176   0.000000
  183       68.628948   0.000000
  184       68.628948   0.000000
  185       69.123398   0.000000
  186       69.123398   0.000000
  187       69.377366   0.000000
  188       69.377366   0.000000
  189       69.931186   0.000000
  190       69.931186   0.000000
  191       69.977130   0.000000
  192       69.977130   0.000000
  193       71.041333   0.000000
  194       71.041333   0.000000
  195       71.139621   0.000000
  196       71.139621   0.000000
 
  0.2857143E+00  0.2580261E-17 -0.1387779E-16  0.2915452E-02
    1      -43.766491   1.000000
    2      -43.766491   1.000000
    3      -43.766278   1.000000
    4      -43.766278   1.000000
    5      -39.362908   1.000000
    6      -39.362908   1.000000
    7      -39.362417   1.000000
    8      -39.362417   1.000000
    9      -39.361942   1.000000
   10      -39.361942   1.000000
   11      -16.958419   1.000000
   12      -16.958419   1.000000
   13       -5.072575   1.000000
   14       -5.072575   1.000000
   15       -2.042578   1.000000
   16       -2.042578   1.000000
   17       -1.078929   1.000000
   18       -1.078929   1.000000
   19        4.450643   0.000000
   20        4.450643   0.000000
   21        7.472963   0.000000
   22        7.472963   0.000000
   23        8.088579   0.000000
   24        8.088579   0.000000
   25        8.268218   0.000000
   26        8.268218   0.000000
   27       10.042776   0.000000
   28       10.042776   0.000000
   29       10.240000   0.000000
   30       10.240000   0.000000
   31       10.372076   0.000000
   32       10.372076   0.000000
   33       13.913328   0.000000
   34       13.913328   0.000000
   35       15.333931   0.000000
   36       15.333931   0.000000
   37       15.376252   0.000000
   38       15.376252   0.000000
   39       16.216304   0.000000
   40       16.216304   0.000000
   41       16.453775   0.000000
   42       16.453775   0.000000
   43       17.267596   0.000000
   44       17.267596   0.000000
   45       18.564376   0.000000
   46       18.564376   0.000000
   47       19.099128   0.000000
   48       19.099128   0.000000
   49       21.656239   0.000000
   50       21.656239   0.000000
   51       22.267073   0.000000
   52       22.267073   0.000000
   53       22.885320   0.000000
   54       22.885320   0.000000
   55       23.908180   0.000000
   56       23.908180   0.000000
   57       24.188950   0.000000
   58       24.188950   0.000000
   59       24.504981   0.000000
   60       24.504981   0.000000
   61       26.541377   0.000000
   62       26.541377   0.000000
   63       26.753994   0.000000
   64       26.753994   0.000000
   65       27.454290   0.000000
   66       27.454290   0.000000
   67       28.131845   0.000000
   68       28.131845   0.000000
   69       28.664044   0.000000
   70       28.664044   0.000000
   71       29.647632   0.000000
   72       29.647632   0.000000
   73       31.958556   0.000000
   74       31.958556   0.000000
   75       31.995387   0.000000
   76       31.995387   0.000000
   77       32.085165   0.000000
   78       32.085165   0.000000
   79       32.885825   0.000000
   80       32.885825   0.000000
   81       33.029810   0.000000
   82       33.029810   0.000000
   83       33.269078   0.000000
   84       33.269078   0.000000
   85       35.491721   0.000000
   86       35.491721   0.000000
   87       36.135340   0.000000
   88       36.135340   0.000000
   89       36.286380   0.000000
   90       36.286380   0.000000
   91       36.817259   0.000000
   92       36.817259   0.000000
   93       36.920656   0.000000
   94       36.920656   0.000000
   95       38.310664   0.000000
   96       38.310664   0.000000
   97       38.637625   0.000000
   98       38.637625   0.000000
   99       38.642797   0.000000
  100       38.642797   0.000000
  101       39.122246   0.000000
  102       39.122246   0.000000
  103       40.239013   0.000000
  104       40.239013   0.000000
  105       41.199203   0.000000
  106       41.199203   0.000000
  107       41.475918   0.000000
  108       41.475918   0.000000
  109       42.041416   0.000000
  110       42.041416   0.000000
  111       42.829022   0.000000
  112       42.829022   0.000000
  113       42.970818   0.000000
  114       42.970818   0.000000
  115       45.937463   0.000000
  116       45.937463   0.000000
  117       46.622910   0.000000
  118       46.622910   0.000000
  119       46.847434   0.000000
  120       46.847434   0.000000
  121       47.039664   0.000000
  122       47.039664   0.000000
  123       47.506226   0.000000
  124       47.506226   0.000000
  125       47.591818   0.000000
  126       47.591818   0.000000
  127       48.091417   0.000000
  128       48.091417   0.000000
  129       49.547961   0.000000
  130       49.547961   0.000000
  131       49.816892   0.000000
  132       49.816892   0.000000
  133       49.817036   0.000000
  134       49.817036   0.000000
  135       51.023818   0.000000
  136       51.023818   0.000000
  137       51.094479   0.000000
  138       51.094479   0.000000
  139       51.657504   0.000000
  140       51.657504   0.000000
  141       52.362749   0.000000
  142       52.362749   0.000000
  143       52.413287   0.000000
  144       52.413287   0.000000
  145       54.194986   0.000000
  146       54.194986   0.000000
  147       56.052763   0.000000
  148       56.052763   0.000000
  149       56.215565   0.000000
  150       56.215565   0.000000
  151       56.884086   0.000000
  152       56.884086   0.000000
  153       57.304558   0.000000
  154       57.304558   0.000000
  155       59.714260   0.000000
  156       59.714260   0.000000
  157       60.145798   0.000000
  158       60.145798   0.000000
  159       60.297544   0.000000
  160       60.297544   0.000000
  161       61.244786   0.000000
  162       61.244786   0.000000
  163       61.572002   0.000000
  164       61.572002   0.000000
  165       61.676797   0.000000
  166       61.676797   0.000000
  167       62.657853   0.000000
  168       62.657853   0.000000
  169       63.372487   0.000000
  170       63.372487   0.000000
  171       63.605403   0.000000
  172       63.605403   0.000000
  173       64.550788   0.000000
  174       64.550788   0.000000
  175       64.748439   0.000000
  176       64.748439   0.000000
  177       66.670401   0.000000
  178       66.670401   0.000000
  179       68.645738   0.000000
  180       68.645738   0.000000
  181       68.649393   0.000000
  182       68.649393   0.000000
  183       68.834208   0.000000
  184       68.834208   0.000000
  185       69.088487   0.000000
  186       69.088487   0.000000
  187       69.362439   0.000000
  188       69.362439   0.000000
  189       69.365118   0.000000
  190       69.365118   0.000000
  191       70.030794   0.000000
  192       70.030794   0.000000
  193       70.222052   0.000000
  194       70.222052   0.000000
  195       70.230416   0.000000
  196       70.230416   0.000000
 
  0.4285714E+00  0.3870391E-17  0.2775558E-16  0.2915452E-02
    1      -43.766451   1.000000
    2      -43.766451   1.000000
    3      -43.766116   1.000000
    4      -43.766116   1.000000
    5      -39.363122   1.000000
    6      -39.363122   1.000000
    7      -39.361938   1.000000
    8      -39.361938   1.000000
    9      -39.361906   1.000000
   10      -39.361906   1.000000
   11      -16.899307   1.000000
   12      -16.899307   1.000000
   13       -5.319592   1.000000
   14       -5.319592   1.000000
   15       -2.415333   1.000000
   16       -2.415333   1.000000
   17       -1.174742   1.000000
   18       -1.174742   1.000000
   19        4.613348   0.000000
   20        4.613348   0.000000
   21        7.736439   0.000000
   22        7.736439   0.000000
   23        7.901400   0.000000
   24        7.901400   0.000000
   25        8.336784   0.000000
   26        8.336784   0.000000
   27       10.023993   0.000000
   28       10.023993   0.000000
   29       11.822595   0.000000
   30       11.822595   0.000000
   31       11.970212   0.000000
   32       11.970212   0.000000
   33       13.854651   0.000000
   34       13.854651   0.000000
   35       14.111573   0.000000
   36       14.111573   0.000000
   37       14.458726   0.000000
   38       14.458726   0.000000
   39       16.529080   0.000000
   40       16.529080   0.000000
   41       17.211365   0.000000
   42       17.211365   0.000000
   43       17.232122   0.000000
   44       17.232122   0.000000
   45       19.189966   0.000000
   46       19.189966   0.000000
   47       20.720264   0.000000
   48       20.720264   0.000000
   49       21.561646   0.000000
   50       21.561646   0.000000
   51       21.913794   0.000000
   52       21.913794   0.000000
   53       22.067469   0.000000
   54       22.067469   0.000000
   55       22.711747   0.000000
   56       22.711747   0.000000
   57       23.440313   0.000000
   58       23.440313   0.000000
   59       24.753926   0.000000
   60       24.753926   0.000000
   61       26.014938   0.000000
   62       26.014938   0.000000
   63       26.751482   0.000000
   64       26.751482   0.000000
   65       26.869104   0.000000
   66       26.869104   0.000000
   67       27.652512   0.000000
   68       27.652512   0.000000
   69       27.830234   0.000000
   70       27.830234   0.000000
   71       28.580188   0.000000
   72       28.580188   0.000000
   73       29.526457   0.000000
   74       29.526457   0.000000
   75       31.210055   0.000000
   76       31.210055   0.000000
   77       31.220415   0.000000
   78       31.220415   0.000000
   79       31.273655   0.000000
   80       31.273655   0.000000
   81       32.345276   0.000000
   82       32.345276   0.000000
   83       32.688451   0.000000
   84       32.688451   0.000000
   85       35.736317   0.000000
   86       35.736317   0.000000
   87       35.820251   0.000000
   88       35.820251   0.000000
   89       36.270019   0.000000
   90       36.270019   0.000000
   91       36.605597   0.000000
   92       36.605597   0.000000
   93       36.767905   0.000000
   94       36.767905   0.000000
   95       39.038027   0.000000
   96       39.038027   0.000000
   97       39.257971   0.000000
   98       39.257971   0.000000
   99       39.645757   0.000000
  100       39.645757   0.000000
  101       39.662102   0.000000
  102       39.662102   0.000000
  103       42.736998   0.000000
  104       42.736998   0.000000
  105       42.805795   0.000000
  106       42.805795   0.000000
  107       42.837973   0.000000
  108       42.837973   0.000000
  109       43.450778   0.000000
  110       43.450778   0.000000
  111       44.870703   0.000000
  112       44.870703   0.000000
  113       44.976714   0.000000
  114       44.976714   0.000000
  115       45.087753   0.000000
  116       45.087753   0.000000
  117       47.617400   0.000000
  118       47.617400   0.000000
  119       47.849164   0.000000
  120       47.849164   0.000000
  121       48.796364   0.000000
  122       48.796364   0.000000
  123       48.979653   0.000000
  124       48.979653   0.000000
  125       49.062425   0.000000
  126       49.062425   0.000000
  127       50.127192   0.000000
  128       50.127192   0.000000
  129       50.927701   0.000000
  130       50.927701   0.000000
  131       50.944866   0.000000
  132       50.944866   0.000000
  133       51.122129   0.000000
  134       51.122129   0.000000
  135       51.622728   0.000000
  136       51.622728   0.000000
  137       51.781397   0.000000
  138       51.781397   0.000000
  139       51.875081   0.000000
  140       51.875081   0.000000
  141       53.532791   0.000000
  142       53.532791   0.000000
  143       53.569642   0.000000
  144       53.569642   0.000000
  145       53.863092   0.000000
  146       53.863092   0.000000
  147       55.048004   0.000000
  148       55.048004   0.000000
  149       55.626962   0.000000
  150       55.626962   0.000000
  151       55.995114   0.000000
  152       55.995114   0.000000
  153       56.083702   0.000000
  154       56.083702   0.000000
  155       57.301517   0.000000
  156       57.301517   0.000000
  157       57.338991   0.000000
  158       57.338991   0.000000
  159       58.017040   0.000000
  160       58.017040   0.000000
  161       58.771579   0.000000
  162       58.771579   0.000000
  163       58.982075   0.000000
  164       58.982075   0.000000
  165       59.915243   0.000000
  166       59.915243   0.000000
  167       59.921951   0.000000
  168       59.921951   0.000000
  169       60.512729   0.000000
  170       60.512729   0.000000
  171       63.914821   0.000000
  172       63.914821   0.000000
  173       64.016545   0.000000
  174       64.016545   0.000000
  175       64.576105   0.000000
  176       64.576105   0.000000
  177       64.776101   0.000000
  178       64.776101   0.000000
  179       65.002152   0.000000
  180       65.002152   0.000000
  181       67.323932   0.000000
  182       67.323932   0.000000
  183       68.762433   0.000000
  184       68.762433   0.000000
  185       68.778279   0.000000
  186       68.778279   0.000000
  187       68.960210   0.000000
  188       68.960210   0.000000
  189       69.035709   0.000000
  190       69.035709   0.000000
  191       69.128134   0.000000
  192       69.128134   0.000000
  193       69.635977   0.000000
  194       69.635977   0.000000
  195       71.136546   0.000000
  196       71.136546   0.000000
 
 -0.4285714E+00 -0.3870391E-17 -0.2775558E-16  0.2915452E-02
    1      -43.766451   1.000000
    2      -43.766451   1.000000
    3      -43.766116   1.000000
    4      -43.766116   1.000000
    5      -39.363122   1.000000
    6      -39.363122   1.000000
    7      -39.361938   1.000000
    8      -39.361938   1.000000
    9      -39.361906   1.000000
   10      -39.361906   1.000000
   11      -16.899307   1.000000
   12      -16.899307   1.000000
   13       -5.319592   1.000000
   14       -5.319592   1.000000
   15       -2.415333   1.000000
   16       -2.415333   1.000000
   17       -1.174742   1.000000
   18       -1.174742   1.000000
   19        4.613348   0.000000
   20        4.613348   0.000000
   21        7.736439   0.000000
   22        7.736439   0.000000
   23        7.901400   0.000000
   24        7.901400   0.000000
   25        8.336784   0.000000
   26        8.336784   0.000000
   27       10.023993   0.000000
   28       10.023993   0.000000
   29       11.822595   0.000000
   30       11.822595   0.000000
   31       11.970212   0.000000
   32       11.970212   0.000000
   33       13.854651   0.000000
   34       13.854651   0.000000
   35       14.111573   0.000000
   36       14.111573   0.000000
   37       14.458726   0.000000
   38       14.458726   0.000000
   39       16.529080   0.000000
   40       16.529080   0.000000
   41       17.211365   0.000000
   42       17.211365   0.000000
   43       17.232122   0.000000
   44       17.232122   0.000000
   45       19.189966   0.000000
   46       19.189966   0.000000
   47       20.720264   0.000000
   48       20.720264   0.000000
   49       21.561646   0.000000
   50       21.561646   0.000000
   51       21.913794   0.000000
   52       21.913794   0.000000
   53       22.067469   0.000000
   54       22.067469   0.000000
   55       22.711747   0.000000
   56       22.711747   0.000000
   57       23.440313   0.000000
   58       23.440313   0.000000
   59       24.753926   0.000000
   60       24.753926   0.000000
   61       26.014938   0.000000
   62       26.014938   0.000000
   63       26.751482   0.000000
   64       26.751482   0.000000
   65       26.869104   0.000000
   66       26.869104   0.000000
   67       27.652512   0.000000
   68       27.652512   0.000000
   69       27.830234   0.000000
   70       27.830234   0.000000
   71       28.580188   0.000000
   72       28.580188   0.000000
   73       29.526457   0.000000
   74       29.526457   0.000000
   75       31.210055   0.000000
   76       31.210055   0.000000
   77       31.220415   0.000000
   78       31.220415   0.000000
   79       31.273655   0.000000
   80       31.273655   0.000000
   81       32.345276   0.000000
   82       32.345276   0.000000
   83       32.688451   0.000000
   84       32.688451   0.000000
   85       35.736317   0.000000
   86       35.736317   0.000000
   87       35.820251   0.000000
   88       35.820251   0.000000
   89       36.270019   0.000000
   90       36.270019   0.000000
   91       36.605597   0.000000
   92       36.605597   0.000000
   93       36.767905   0.000000
   94       36.767905   0.000000
   95       39.038027   0.000000
   96       39.038027   0.000000
   97       39.257971   0.000000
   98       39.257971   0.000000
   99       39.645757   0.000000
  100       39.645757   0.000000
  101       39.662102   0.000000
  102       39.662102   0.000000
  103       42.736998   0.000000
  104       42.736998   0.000000
  105       42.805795   0.000000
  106       42.805795   0.000000
  107       42.837973   0.000000
  108       42.837973   0.000000
  109       43.450778   0.000000