   1   1   0   0
  0.2224118E+02  0.3156634E-09  0.3156634E-09  0.3156634E-09  0.1000000E-15
  1.000000000000000E-004
  CAR 
 Og_FCC                                  
     22.28252294    -38.26044791  301    -11.11701598      1.00000000
    -38.260  0.0000E+00  0.0000E+00
    -38.059  0.0000E+00  0.0000E+00
    -37.857  0.0000E+00  0.0000E+00
    -37.655  0.0000E+00  0.0000E+00
    -37.453  0.0000E+00  0.0000E+00
    -37.251  0.0000E+00  0.0000E+00
    -37.050  0.0000E+00  0.0000E+00
    -36.848  0.0000E+00  0.0000E+00
    -36.646  0.0000E+00  0.0000E+00
    -36.444  0.0000E+00  0.0000E+00
    -36.242  0.0000E+00  0.0000E+00
    -36.041  0.0000E+00  0.0000E+00
    -35.839  0.0000E+00  0.0000E+00
    -35.637  0.0000E+00  0.0000E+00
    -35.435  0.1354E+01  0.9438E+00
    -35.233  0.0000E+00  0.2000E+01
    -35.031  0.0000E+00  0.2000E+01
    -34.830  0.0000E+00  0.2000E+01
    -34.628  0.0000E+00  0.2000E+01
    -34.426  0.0000E+00  0.2000E+01
    -34.224  0.0000E+00  0.2000E+01
    -34.022  0.0000E+00  0.2000E+01
    -33.821  0.0000E+00  0.2000E+01
    -33.619  0.0000E+00  0.2000E+01
    -33.417  0.0000E+00  0.2000E+01
    -33.215  0.0000E+00  0.2000E+01
    -33.013  0.0000E+00  0.2000E+01
    -32.812  0.0000E+00  0.2000E+01
    -32.610  0.0000E+00  0.2000E+01
    -32.408  0.0000E+00  0.2000E+01
    -32.206  0.0000E+00  0.2000E+01
    -32.004  0.0000E+00  0.2000E+01
    -31.803  0.0000E+00  0.2000E+01
    -31.601  0.0000E+00  0.2000E+01
    -31.399  0.0000E+00  0.2000E+01
    -31.197  0.0000E+00  0.2000E+01
    -30.995  0.0000E+00  0.2000E+01
    -30.793  0.0000E+00  0.2000E+01
    -30.592  0.0000E+00  0.2000E+01
    -30.390  0.0000E+00  0.2000E+01
    -30.188  0.0000E+00  0.2000E+01
    -29.986  0.0000E+00  0.2000E+01
    -29.784  0.0000E+00  0.2000E+01
    -29.583  0.0000E+00  0.2000E+01
    -29.381  0.0000E+00  0.2000E+01
    -29.179  0.0000E+00  0.2000E+01
    -28.977  0.0000E+00  0.2000E+01
    -28.775  0.0000E+00  0.2000E+01
    -28.574  0.0000E+00  0.2000E+01
    -28.372  0.0000E+00  0.2000E+01
    -28.170  0.0000E+00  0.2000E+01
    -27.968  0.0000E+00  0.2000E+01
    -27.766  0.0000E+00  0.2000E+01
    -27.565  0.0000E+00  0.2000E+01
    -27.363  0.0000E+00  0.2000E+01
    -27.161  0.0000E+00  0.2000E+01
    -26.959  0.0000E+00  0.2000E+01
    -26.757  0.0000E+00  0.2000E+01
    -26.555  0.0000E+00  0.2000E+01
    -26.354  0.0000E+00  0.2000E+01
    -26.152  0.0000E+00  0.2000E+01
    -25.950  0.0000E+00  0.2000E+01
    -25.748  0.0000E+00  0.2000E+01
    -25.546  0.0000E+00  0.2000E+01
    -25.345  0.0000E+00  0.2000E+01
    -25.143  0.0000E+00  0.2000E+01
    -24.941  0.0000E+00  0.2000E+01
    -24.739  0.0000E+00  0.2000E+01
    -24.537  0.0000E+00  0.2000E+01
    -24.336  0.0000E+00  0.2000E+01
    -24.134  0.0000E+00  0.2000E+01
    -23.932  0.0000E+00  0.2000E+01
    -23.730  0.0000E+00  0.2000E+01
    -23.528  0.0000E+00  0.2000E+01
    -23.327  0.0000E+00  0.2000E+01
    -23.125  0.0000E+00  0.2000E+01
    -22.923  0.0000E+00  0.2000E+01
    -22.721  0.0000E+00  0.2000E+01
    -22.519  0.0000E+00  0.2000E+01
    -22.317  0.0000E+00  0.2000E+01
    -22.116  0.0000E+00  0.2000E+01
    -21.914  0.0000E+00  0.2000E+01
    -21.712  0.0000E+00  0.2000E+01
    -21.510  0.0000E+00  0.2000E+01
    -21.308  0.0000E+00  0.2000E+01
    -21.107  0.0000E+00  0.2000E+01
    -20.905  0.0000E+00  0.2000E+01
    -20.703  0.0000E+00  0.2000E+01
    -20.501  0.0000E+00  0.2000E+01
    -20.299  0.0000E+00  0.2000E+01
    -20.098  0.0000E+00  0.2000E+01
    -19.896  0.0000E+00  0.2000E+01
    -19.694  0.0000E+00  0.2000E+01
    -19.492  0.0000E+00  0.2000E+01
    -19.290  0.0000E+00  0.2000E+01
    -19.089  0.0000E+00  0.2000E+01
    -18.887  0.0000E+00  0.2000E+01
    -18.685  0.0000E+00  0.2000E+01
    -18.483  0.0000E+00  0.2000E+01
    -18.281  0.0000E+00  0.2000E+01
    -18.079  0.0000E+00  0.2000E+01
    -17.878  0.0000E+00  0.2000E+01
    -17.676  0.0000E+00  0.2000E+01
    -17.474  0.0000E+00  0.2000E+01
    -17.272  0.0000E+00  0.2000E+01
    -17.070  0.0000E+00  0.2000E+01
    -16.869  0.0000E+00  0.2000E+01
    -16.667  0.0000E+00  0.2000E+01
    -16.465  0.0000E+00  0.2000E+01
    -16.263  0.0000E+00  0.2000E+01
    -16.061  0.0000E+00  0.2000E+01
    -15.860  0.0000E+00  0.2000E+01
    -15.658  0.0000E+00  0.2000E+01
    -15.456  0.0000E+00  0.2000E+01
    -15.254  0.0000E+00  0.2000E+01
    -15.052  0.0000E+00  0.2000E+01
    -14.850  0.0000E+00  0.2000E+01
    -14.649  0.0000E+00  0.2000E+01
    -14.447  0.0000E+00  0.2000E+01
    -14.245  0.0000E+00  0.2000E+01
    -14.043  0.0000E+00  0.2000E+01
    -13.841  0.0000E+00  0.2000E+01
    -13.640  0.0000E+00  0.2000E+01
    -13.438  0.0000E+00  0.2000E+01
    -13.236  0.0000E+00  0.2000E+01
    -13.034  0.0000E+00  0.2000E+01
    -12.832  0.0000E+00  0.2000E+01
    -12.631  0.0000E+00  0.2000E+01
    -12.429  0.0000E+00  0.2000E+01
    -12.227  0.0000E+00  0.2000E+01
    -12.025  0.0000E+00  0.2000E+01
    -11.823  0.0000E+00  0.2070E+01
    -11.622  0.1387E+01  0.3668E+01
    -11.420  0.7221E+00  0.6192E+01
    -11.218  0.0000E+00  0.7983E+01
    -11.016  0.0000E+00  0.8000E+01
    -10.814  0.0000E+00  0.8000E+01
    -10.612  0.0000E+00  0.8000E+01
    -10.411  0.0000E+00  0.8000E+01
    -10.209  0.0000E+00  0.8000E+01
    -10.007  0.0000E+00  0.8000E+01
     -9.805  0.0000E+00  0.8000E+01
     -9.603  0.0000E+00  0.8000E+01
     -9.402  0.0000E+00  0.8000E+01
     -9.200  0.0000E+00  0.8000E+01
     -8.998  0.0000E+00  0.8000E+01
     -8.796  0.0000E+00  0.8000E+01
     -8.594  0.0000E+00  0.8000E+01
     -8.393  0.0000E+00  0.8000E+01
     -8.191  0.0000E+00  0.8000E+01
     -7.989  0.0000E+00  0.8000E+01
     -7.787  0.0000E+00  0.8000E+01
     -7.585  0.0000E+00  0.8000E+01
     -7.384  0.0000E+00  0.8000E+01
     -7.182  0.0000E+00  0.8000E+01
     -6.980  0.0000E+00  0.8000E+01
     -6.778  0.0000E+00  0.8000E+01
     -6.576  0.0000E+00  0.8000E+01
     -6.374  0.0000E+00  0.8000E+01
     -6.173  0.0000E+00  0.8000E+01
     -5.971  0.0000E+00  0.8000E+01
     -5.769  0.0000E+00  0.8000E+01
     -5.567  0.0000E+00  0.8000E+01
     -5.365  0.0000E+00  0.8000E+01
     -5.164  0.0000E+00  0.8000E+01
     -4.962  0.0000E+00  0.8000E+01
     -4.760  0.0000E+00  0.8000E+01
     -4.558  0.0000E+00  0.8000E+01
     -4.356  0.0000E+00  0.8000E+01
     -4.155  0.0000E+00  0.8000E+01
     -3.953  0.0000E+00  0.8000E+01
     -3.751  0.0000E+00  0.8000E+01
     -3.549  0.0000E+00  0.8000E+01
     -3.347  0.0000E+00  0.8000E+01
     -3.146  0.0000E+00  0.8000E+01
     -2.944  0.0000E+00  0.8000E+01
     -2.742  0.0000E+00  0.8000E+01
     -2.540  0.0000E+00  0.8000E+01
     -2.338  0.0000E+00  0.8000E+01
     -2.136  0.0000E+00  0.8000E+01
     -1.935  0.0000E+00  0.8000E+01
     -1.733  0.0000E+00  0.8000E+01
     -1.531  0.0000E+00  0.8000E+01
     -1.329  0.0000E+00  0.8000E+01
     -1.127  0.0000E+00  0.8000E+01
     -0.926  0.0000E+00  0.8000E+01
     -0.724  0.0000E+00  0.8000E+01
     -0.522  0.0000E+00  0.8000E+01
     -0.320  0.0000E+00  0.8000E+01
     -0.118  0.0000E+00  0.8000E+01
      0.083  0.0000E+00  0.8000E+01
      0.285  0.0000E+00  0.8000E+01
      0.487  0.0000E+00  0.8006E+01
      0.689  0.0000E+00  0.8006E+01
      0.891  0.0000E+00  0.8006E+01
      1.092  0.0000E+00  0.8052E+01
      1.294  0.0000E+00  0.8087E+01
      1.496  0.0000E+00  0.8087E+01
      1.698  0.0000E+00  0.8087E+01
      1.900  0.0000E+00  0.8157E+01
      2.102  0.0000E+00  0.8157E+01
      2.303  0.0000E+00  0.8157E+01
      2.505  0.0000E+00  0.8297E+01
      2.707  0.0000E+00  0.8344E+01
      2.909  0.0000E+00  0.8344E+01
      3.111  0.0000E+00  0.8344E+01
      3.312  0.0000E+00  0.8379E+01
      3.514  0.0000E+00  0.8379E+01
      3.716  0.0000E+00  0.8519E+01
      3.918  0.0000E+00  0.8659E+01
      4.120  0.0000E+00  0.8659E+01
      4.321  0.0000E+00  0.8659E+01
      4.523  0.0000E+00  0.8799E+01
      4.725  0.0000E+00  0.8799E+01
      4.927  0.0000E+00  0.8985E+01
      5.129  0.0000E+00  0.8985E+01
      5.330  0.0000E+00  0.8985E+01
      5.532  0.0000E+00  0.8985E+01
      5.734  0.0000E+00  0.9055E+01
      5.936  0.0000E+00  0.9055E+01
      6.138  0.0000E+00  0.9370E+01
      6.340  0.0000E+00  0.9510E+01
      6.541  0.0000E+00  0.9510E+01
      6.743  0.0000E+00  0.9650E+01
      6.945  0.0000E+00  0.9650E+01
      7.147  0.0000E+00  0.9790E+01
      7.349  0.0000E+00  0.9930E+01
      7.550  0.0000E+00  0.9930E+01
      7.752  0.0000E+00  0.1000E+02
      7.954  0.0000E+00  0.1019E+02
      8.156  0.0000E+00  0.1019E+02
      8.358  0.0000E+00  0.1033E+02
      8.559  0.0000E+00  0.1040E+02
      8.761  0.0000E+00  0.1040E+02
      8.963  0.0000E+00  0.1068E+02
      9.165  0.0000E+00  0.1082E+02
      9.367  0.0000E+00  0.1096E+02
      9.568  0.6934E+00  0.1113E+02
      9.770  0.6934E+00  0.1127E+02
      9.972  0.0000E+00  0.1134E+02
     10.174  0.0000E+00  0.1134E+02
     10.376  0.0000E+00  0.1148E+02
     10.578  0.0000E+00  0.1162E+02
     10.779  0.1647E-10  0.1169E+02
     10.981  0.0000E+00  0.1204E+02
     11.183  0.9288E-04  0.1204E+02
     11.385  0.0000E+00  0.1209E+02
     11.587  0.0000E+00  0.1223E+02
     11.788  0.0000E+00  0.1223E+02
     11.990  0.0000E+00  0.1268E+02
     12.192  0.0000E+00  0.1268E+02
     12.394  0.0000E+00  0.1268E+02
     12.596  0.0000E+00  0.1296E+02
     12.797  0.0000E+00  0.1296E+02
     12.999  0.0000E+00  0.1296E+02
     13.201  0.1734E+00  0.1300E+02
     13.403  0.0000E+00  0.1307E+02
     13.605  0.0000E+00  0.1310E+02
     13.807  0.0000E+00  0.1324E+02
     14.008  0.0000E+00  0.1366E+02
     14.210  0.0000E+00  0.1366E+02
     14.412  0.0000E+00  0.1366E+02
     14.614  0.0000E+00  0.1380E+02
     14.816  0.0000E+00  0.1380E+02
     15.017  0.0000E+00  0.1380E+02
     15.219  0.0000E+00  0.1420E+02
     15.421  0.0000E+00  0.1420E+02
     15.623  0.0000E+00  0.1423E+02
     15.825  0.0000E+00  0.1448E+02
     16.026  0.0000E+00  0.1462E+02
     16.228  0.0000E+00  0.1493E+02
     16.430  0.0000E+00  0.1493E+02
     16.632  0.0000E+00  0.1507E+02
     16.834  0.0000E+00  0.1542E+02
     17.035  0.0000E+00  0.1542E+02
     17.237  0.0000E+00  0.1552E+02
     17.439  0.0000E+00  0.1559E+02
     17.641  0.0000E+00  0.1559E+02
     17.843  0.0000E+00  0.1582E+02
     18.045  0.0000E+00  0.1582E+02
     18.246  0.0000E+00  0.1582E+02
     18.448  0.5758E-07  0.1591E+02
     18.650  0.0000E+00  0.1593E+02
     18.852  0.0000E+00  0.1593E+02
     19.054  0.0000E+00  0.1593E+02
     19.255  0.0000E+00  0.1593E+02
     19.457  0.0000E+00  0.1593E+02
     19.659  0.0000E+00  0.1600E+02
     19.861  0.0000E+00  0.1600E+02
     20.063  0.0000E+00  0.1600E+02
     20.264  0.0000E+00  0.1600E+02
     20.466  0.0000E+00  0.1600E+02
     20.668  0.0000E+00  0.1600E+02
     20.870  0.0000E+00  0.1600E+02
     21.072  0.0000E+00  0.1600E+02
     21.273  0.0000E+00  0.1600E+02
     21.475  0.0000E+00  0.1600E+02
     21.677  0.0000E+00  0.1600E+02
     21.879  0.0000E+00  0.1600E+02
     22.081  0.0000E+00  0.1600E+02
     22.283  0.0000E+00  0.1600E+02
