    1    1    1    1
  0.2224118E+02  0.3156634E-09  0.3156634E-09  0.3156634E-09  0.1000000E-15
  1.000000000000000E-004
  CAR 
 Og_FCC                                  
      8    172      8
 
  0.0000000E+00  0.0000000E+00  0.0000000E+00  0.2915452E-02
    1      -35.502013   1.000000
    2      -11.146599   1.000000
    3      -11.146599   1.000000
    4      -11.146597   1.000000
    5        0.388567   0.000000
    6       18.451532   0.000000
    7       18.451537   0.000000
    8       18.451603   0.000000
 
  0.1428571E+00 -0.1387779E-16 -0.1387779E-16  0.5830904E-02
    1      -35.508495   1.000000
    2      -11.501399   1.000000
    3      -11.408396   1.000000
    4      -11.408393   1.000000
    5        0.953826   0.000000
    6       15.036379   0.000000
    7       18.275419   0.000000
    8       18.275464   0.000000
 
  0.2857143E+00 -0.2775558E-16 -0.1387779E-16  0.5830904E-02
    1      -35.473326   1.000000
    2      -11.673014   1.000000
    3      -11.414858   1.000000
    4      -11.414855   1.000000
    5        2.556705   0.000000
    6       11.185344   0.000000
    7       17.691414   0.000000
    8       17.691445   0.000000
 
  0.4285714E+00  0.0000000E+00  0.2775558E-16  0.5830904E-02
    1      -35.454759   1.000000
    2      -11.796314   1.000000
    3      -11.549875   1.000000
    4      -11.549872   1.000000
    5        4.914158   0.000000
    6        7.787878   0.000000
    7       17.155142   0.000000
    8       17.155185   0.000000
 
  0.0000000E+00  0.1428571E+00  0.6938894E-17  0.5830904E-02
    1      -35.508495   1.000000
    2      -11.501399   1.000000
    3      -11.408395   1.000000
    4      -11.408394   1.000000
    5        0.953827   0.000000
    6       15.036386   0.000000
    7       18.275412   0.000000
    8       18.275457   0.000000
 
  0.1428571E+00  0.1428571E+00  0.0000000E+00  0.5830904E-02
    1      -35.495094   1.000000
    2      -11.520463   1.000000
    3      -11.296447   1.000000
    4      -11.296446   1.000000
    5        1.134941   0.000000
    6       15.606551   0.000000
    7       17.351607   0.000000
    8       17.351643   0.000000
 
  0.2857143E+00  0.1428571E+00  0.0000000E+00  0.5830904E-02
    1      -35.471229   1.000000
    2      -11.601290   1.000000
    3      -11.423165   1.000000
    4      -11.387340   1.000000
    5        2.393121   0.000000
    6       12.582301   0.000000
    7       15.696849   0.000000
    8       16.779149   0.000000
 
  0.4285714E+00  0.1428571E+00 -0.2775558E-16  0.5830904E-02
    1      -35.441218   1.000000
    2      -11.691725   1.000000
    3      -11.410828   1.000000
    4      -11.383292   1.000000
    5        4.481674   0.000000
    6        9.172981   0.000000
    7       14.550157   0.000000
    8       16.554077   0.000000
 
 -0.4285714E+00  0.1428571E+00  0.1387779E-16  0.5830904E-02
    1      -35.435485   1.000000
    2      -11.708047   1.000000
    3      -11.475470   1.000000
    4      -11.418504   1.000000
    5        6.177248   0.000000
    6        7.174945   0.000000
    7       13.965335   0.000000
    8       16.810993   0.000000
 
 -0.2857143E+00  0.1428571E+00  0.2081668E-16  0.5830904E-02
    1      -35.452178   1.000000
    2      -11.665661   1.000000
    3      -11.439630   1.000000
    4      -11.400829   1.000000
    5        3.707906   0.000000
    6       10.289389   0.000000
    7       13.968819   0.000000
    8       17.775892   0.000000
 
 -0.1428571E+00  0.1428571E+00 -0.1300971E-17  0.5830904E-02
    1      -35.500887   1.000000
    2      -11.874447   1.000000
    3      -11.583407   1.000000
    4      -11.474832   1.000000
    5        1.840054   0.000000
    6       13.373196   0.000000
    7       15.154864   0.000000
    8       19.530518   0.000000
 
  0.0000000E+00  0.2857143E+00  0.0000000E+00  0.5830904E-02
    1      -35.473326   1.000000
    2      -11.673014   1.000000
    3      -11.414858   1.000000
    4      -11.414856   1.000000
    5        2.556707   0.000000
    6       11.185350   0.000000
    7       17.691400   0.000000
    8       17.691440   0.000000
 
  0.1428571E+00  0.2857143E+00 -0.2775558E-16  0.5830904E-02
    1      -35.471229   1.000000
    2      -11.601290   1.000000
    3      -11.423166   1.000000
    4      -11.387340   1.000000
    5        2.393121   0.000000
    6       12.582311   0.000000
    7       15.696860   0.000000
    8       16.779157   0.000000
 
  0.2857143E+00  0.2857143E+00 -0.2775558E-16  0.5830904E-02
    1      -35.441927   1.000000
    2      -11.506451   1.000000
    3      -11.273844   1.000000
    4      -11.273842   1.000000
    5        3.232556   0.000000
    6       13.198066   0.000000
    7       13.537898   0.000000
    8       16.199032   0.000000
 
  0.4285714E+00  0.2857143E+00 -0.2775558E-16  0.5830904E-02
    1      -35.432719   1.000000
    2      -11.628587   1.000000
    3      -11.507538   1.000000
    4      -11.477859   1.000000
    5        4.895998   0.000000
    6       10.810066   0.000000
    7       11.975752   0.000000
    8       15.902836   0.000000
 
 -0.4285714E+00  0.2857143E+00  0.0000000E+00  0.5830904E-02
    1      -35.414998   1.000000
    2      -11.590553   1.000000
    3      -11.473036   1.000000
    4      -11.343172   1.000000
    5        7.099478   0.000000
    6        8.273207   0.000000
    7       10.889694   0.000000
    8       16.105823   0.000000
 
 -0.2857143E+00  0.2857143E+00  0.8054332E-17  0.5830904E-02
    1      -35.424346   1.000000
    2      -11.561163   1.000000
    3      -11.513352   1.000000
    4      -11.313290   1.000000
    5        5.640789   0.000000
    6        9.854034   0.000000
    7       10.692085   0.000000
    8       16.774754   0.000000
 
 -0.1428571E+00  0.2857143E+00 -0.1387779E-16  0.5830904E-02
    1      -35.452177   1.000000
    2      -11.665661   1.000000
    3      -11.439631   1.000000
    4      -11.400829   1.000000
    5        3.707907   0.000000
    6       10.289393   0.000000
    7       13.968812   0.000000
    8       17.775909   0.000000
 
  0.0000000E+00  0.4285714E+00  0.0000000E+00  0.5830904E-02
    1      -35.454758   1.000000
    2      -11.796314   1.000000
    3      -11.549875   1.000000
    4      -11.549873   1.000000
    5        4.914159   0.000000
    6        7.787884   0.000000
    7       17.155131   0.000000
    8       17.155170   0.000000
 
  0.1428571E+00  0.4285714E+00 -0.2775558E-16  0.5830904E-02
    1      -35.441218   1.000000
    2      -11.691725   1.000000
    3      -11.410829   1.000000
    4      -11.383292   1.000000
    5        4.481673   0.000000
    6        9.172994   0.000000
    7       14.550151   0.000000
    8       16.554091   0.000000
 
  0.2857143E+00  0.4285714E+00  0.0000000E+00  0.5830904E-02
    1      -35.432719   1.000000
    2      -11.628587   1.000000
    3      -11.507538   1.000000
    4      -11.477859   1.000000
    5        4.895996   0.000000
    6       10.810098   0.000000
    7       11.975734   0.000000
    8       15.902841   0.000000
 
  0.4285714E+00  0.4285714E+00  0.0000000E+00  0.5830904E-02
    1      -35.413075   1.000000
    2      -11.785436   1.000000
    3      -11.319518   1.000000
    4      -11.319515   1.000000
    5        6.062222   0.000000
    6        9.555152   0.000000
    7       11.979810   0.000000
    8       15.669609   0.000000
 
 -0.4285714E+00  0.4285714E+00  0.2494736E-16  0.5830904E-02
    1      -35.406490   1.000000
    2      -11.638532   1.000000
    3      -11.438259   1.000000
    4      -11.300334   1.000000
    5        7.598643   0.000000
    6        8.402733   0.000000
    7       10.783926   0.000000
    8       15.726244   0.000000
 
 -0.2857143E+00  0.4285714E+00 -0.1387779E-16  0.5830904E-02
    1      -35.414998   1.000000
    2      -11.590553   1.000000
    3      -11.473036   1.000000
    4      -11.343172   1.000000
    5        7.099454   0.000000
    6        8.273252   0.000000
    7       10.889677   0.000000
    8       16.105828   0.000000
 
 -0.1428571E+00  0.4285714E+00 -0.2775558E-16  0.5830904E-02
    1      -35.435485   1.000000
    2      -11.708047   1.000000
    3      -11.475470   1.000000
    4      -11.418505   1.000000
    5        6.177241   0.000000
    6        7.174961   0.000000
    7       13.965325   0.000000
    8       16.811009   0.000000
 
  0.0000000E+00  0.0000000E+00  0.1428571E+00  0.5830904E-02
    1      -35.508495   1.000000
    2      -11.501398   1.000000
    3      -11.408395   1.000000
    4      -11.408395   1.000000
    5        0.953828   0.000000
    6       15.036397   0.000000
    7       18.275409   0.000000
    8       18.275425   0.000000
 
  0.1428571E+00 -0.1387779E-16  0.1428571E+00  0.5830904E-02
    1      -35.495094   1.000000
    2      -11.520462   1.000000
    3      -11.296447   1.000000
    4      -11.296446   1.000000
    5        1.134941   0.000000
    6       15.606576   0.000000
    7       17.351609   0.000000
    8       17.351612   0.000000
 
  0.2857143E+00 -0.2775558E-16  0.1428571E+00  0.5830904E-02
    1      -35.471229   1.000000
    2      -11.601292   1.000000
    3      -11.423164   1.000000
    4      -11.387341   1.000000
    5        2.393123   0.000000
    6       12.582308   0.000000
    7       15.696841   0.000000
    8       16.779148   0.000000
 
  0.4285714E+00  0.0000000E+00  0.1428571E+00  0.5830904E-02
    1      -35.441218   1.000000
    2      -11.691725   1.000000
    3      -11.410826   1.000000
    4      -11.383293   1.000000
    5        4.481674   0.000000
    6        9.172981   0.000000
    7       14.550151   0.000000
    8       16.554093   0.000000
 
 -0.4285714E+00  0.0000000E+00  0.1428571E+00  0.5830904E-02
    1      -35.435485   1.000000
    2      -11.708047   1.000000
    3      -11.475472   1.000000
    4      -11.418501   1.000000
    5        6.177247   0.000000
    6        7.174943   0.000000
    7       13.965332   0.000000
    8       16.811019   0.000000
 
 -0.2857143E+00  0.2775558E-16  0.1428571E+00  0.5830904E-02
    1      -35.452178   1.000000
    2      -11.665659   1.000000
    3      -11.439629   1.000000
    4      -11.400830   1.000000
    5        3.707902   0.000000
    6       10.289386   0.000000
    7       13.968829   0.000000
    8       17.775925   0.000000
 
 -0.1428571E+00 -0.1387779E-16  0.1428571E+00  0.5830904E-02
    1      -35.500888   1.000000
    2      -11.874445   1.000000
    3      -11.583407   1.000000
    4      -11.474833   1.000000
    5        1.840053   0.000000
    6       13.373186   0.000000
    7       15.154892   0.000000
    8       19.530555   0.000000
 
  0.0000000E+00  0.1428571E+00  0.1428571E+00  0.5830904E-02
    1      -35.495094   1.000000
    2      -11.520464   1.000000
    3      -11.296447   1.000000
    4      -11.296445   1.000000
    5        1.134942   0.000000
    6       15.606552   0.000000
    7       17.351592   0.000000
    8       17.351657   0.000000
 
  0.1428571E+00  0.1428571E+00  0.1428571E+00  0.5830904E-02
    1      -35.508495   1.000000
    2      -11.501400   1.000000
    3      -11.408395   1.000000
    4      -11.408393   1.000000
    5        0.953827   0.000000
    6       15.036386   0.000000
    7       18.275420   0.000000
    8       18.275472   0.000000
 
  0.2857143E+00  0.1428571E+00  0.1428571E+00  0.5830904E-02
    1      -35.500887   1.000000
    2      -11.874447   1.000000
    3      -11.583408   1.000000
    4      -11.474830   1.000000
    5        1.840054   0.000000
    6       13.373196   0.000000
    7       15.154861   0.000000
    8       19.530570   0.000000
 
  0.4285714E+00  0.1428571E+00  0.1428571E+00  0.5830904E-02
    1      -35.452178   1.000000
    2      -11.665661   1.000000
    3      -11.439632   1.000000
    4      -11.400827   1.000000
    5        3.707906   0.000000
    6       10.289388   0.000000
    7       13.968812   0.000000
    8       17.775933   0.000000
 
 -0.4285714E+00  0.1428571E+00  0.1428571E+00  0.5830904E-02
    1      -35.435485   1.000000
    2      -11.708048   1.000000
    3      -11.475469   1.000000
    4      -11.418505   1.000000
    5        6.177249   0.000000
    6        7.174945   0.000000
    7       13.965321   0.000000
    8       16.811031   0.000000
 
 -0.2857143E+00  0.1428571E+00  0.1428571E+00  0.5830904E-02
    1      -35.441218   1.000000
    2      -11.691725   1.000000
    3      -11.410830   1.000000
    4      -11.383290   1.000000
    5        4.481674   0.000000
    6        9.172984   0.000000
    7       14.550140   0.000000
    8       16.554110   0.000000
 
 -0.1428571E+00  0.1428571E+00  0.1428571E+00  0.5830904E-02
    1      -35.471229   1.000000
    2      -11.601290   1.000000
    3      -11.423166   1.000000
    4      -11.387339   1.000000
    5        2.393121   0.000000
    6       12.582303   0.000000
    7       15.696830   0.000000
    8       16.779176   0.000000
 
  0.0000000E+00  0.2857143E+00  0.1428571E+00  0.5830904E-02
    1      -35.471229   1.000000
    2      -11.601292   1.000000
    3      -11.423163   1.000000
    4      -11.387341   1.000000
    5        2.393124   0.000000
    6       12.582301   0.000000
    7       15.696874   0.000000
    8       16.779131   0.000000
 
  0.1428571E+00  0.2857143E+00  0.1428571E+00  0.5830904E-02
    1      -35.500887   1.000000
    2      -11.874448   1.000000
    3      -11.583406   1.000000
    4      -11.474832   1.000000
    5        1.840055   0.000000
    6       13.373183   0.000000
    7       15.154910   0.000000
    8       19.530510   0.000000
 
  0.2857143E+00  0.2857143E+00  0.1428571E+00  0.5830904E-02
    1      -35.471229   1.000000
    2      -11.601293   1.000000
    3      -11.423164   1.000000
    4      -11.387341   1.000000
    5        2.393123   0.000000
    6       12.582303   0.000000
    7       15.696863   0.000000
    8       16.779160   0.000000
 
  0.4285714E+00  0.2857143E+00  0.1428571E+00  0.5830904E-02
    1      -35.451655   1.000000
    2      -11.638259   1.000000
    3      -11.545243   1.000000
    4      -11.519947   1.000000
    5        3.860695   0.000000
    6       11.472733   0.000000
    7       12.582021   0.000000
    8       16.169176   0.000000
 
 -0.4285714E+00  0.2857143E+00  0.1428571E+00  0.5830904E-02
    1      -35.425615   1.000000
    2      -11.657969   1.000000
    3      -11.478639   1.000000
    4      -11.398995   1.000000
    5        6.037779   0.000000
    6        8.793946   0.000000
    7       11.850668   0.000000
    8       15.105939   0.000000
 
 -0.2857143E+00  0.2857143E+00  0.1428571E+00  0.5830904E-02
    1      -35.425615   1.000000
    2      -11.657969   1.000000
    3      -11.478639   1.000000
    4      -11.398995   1.000000
    5        6.037779   0.000000
    6        8.793949   0.000000
    7       11.850668   0.000000
    8       15.105932   0.000000
 
 -0.1428571E+00  0.2857143E+00  0.1428571E+00  0.5830904E-02
    1      -35.451655   1.000000
    2      -11.638259   1.000000
    3      -11.545242   1.000000
    4      -11.519948   1.000000
    5        3.860696   0.000000
    6       11.472734   0.000000
    7       12.582026   0.000000
    8       16.169155   0.000000
 
  0.0000000E+00  0.4285714E+00  0.1428571E+00  0.5830904E-02
    1      -35.441218   1.000000
    2      -11.691725   1.000000
    3      -11.410827   1.000000
    4      -11.383293   1.000000
    5        4.481677   0.000000
    6        9.172983   0.000000
    7       14.550174   0.000000
    8       16.554073   0.000000
 
  0.1428571E+00  0.4285714E+00  0.1428571E+00  0.5830904E-02
    1      -35.452177   1.000000
    2      -11.665662   1.000000
    3      -11.439630   1.000000
    4      -11.400828   1.000000
    5        3.707907   0.000000
    6       10.289392   0.000000
    7       13.968842   0.000000
    8       17.775883   0.000000
 
  0.2857143E+00  0.4285714E+00  0.1428571E+00  0.5830904E-02
    1      -35.451655   1.000000
    2      -11.638260   1.000000
    3      -11.545241   1.000000
    4      -11.519949   1.000000
    5        3.860694   0.000000
    6       11.472721   0.000000
    7       12.582068   0.000000
    8       16.169145   0.000000
 
  0.4285714E+00  0.4285714E+00  0.1428571E+00  0.5830904E-02
    1      -35.432719   1.000000
    2      -11.628590   1.000000
    3      -11.507536   1.000000
    4      -11.477860   1.000000
    5        4.895999   0.000000
    6       10.810062   0.000000
    7       11.975770   0.000000
    8       15.902855   0.000000
 
 -0.4285714E+00  0.4285714E+00  0.1428571E+00  0.5830904E-02
    1      -35.415159   1.000000
    2      -11.637862   1.000000
    3      -11.503772   1.000000
    4      -11.395342   1.000000
    5        6.629915   0.000000
    6        9.766234   0.000000
    7       10.542534   0.000000
    8       13.969995   0.000000
 
 -0.2857143E+00  0.4285714E+00  0.1428571E+00  0.5830904E-02
    1      -35.419976   1.000000
    2      -11.674281   1.000000
    3      -11.628829   1.000000
    4      -11.467002   1.000000
    5        7.777263   0.000000
    6        9.051246   0.000000
    7        9.561790   0.000000
    8       13.646243   0.000000
 
 -0.1428571E+00  0.4285714E+00  0.1428571E+00  0.5830904E-02
    1      -35.425615   1.000000
    2      -11.657967   1.000000
    3      -11.478638   1.000000
    4      -11.398997   1.000000
    5        6.037777   0.000000
    6        8.793954   0.000000
    7       11.850681   0.000000
    8       15.105913   0.000000
 
  0.0000000E+00 -0.4285714E+00  0.1428571E+00  0.5830904E-02
    1      -35.435485   1.000000
    2      -11.708047   1.000000
    3      -11.475472   1.000000
    4      -11.418502   1.000000
    5        6.177234   0.000000
    6        7.174964   0.000000
    7       13.965350   0.000000
    8       16.810995   0.000000
 
  0.1428571E+00 -0.4285714E+00  0.1428571E+00  0.5830904E-02
    1      -35.435485   1.000000
    2      -11.708047   1.000000
    3      -11.475470   1.000000
    4      -11.418505   1.000000
    5        6.177240   0.000000
    6        7.174962   0.000000
    7       13.965350   0.000000
    8       16.810982   0.000000
 
  0.2857143E+00 -0.4285714E+00  0.1428571E+00  0.5830904E-02
    1      -35.425615   1.000000
    2      -11.657968   1.000000
    3      -11.478639   1.000000
    4      -11.398996   1.000000
    5        6.037773   0.000000
    6        8.793967   0.000000
    7       11.850676   0.000000
    8       15.105923   0.000000
 
  0.4285714E+00 -0.4285714E+00  0.1428571E+00  0.5830904E-02
    1      -35.415159   1.000000
    2      -11.637863   1.000000
    3      -11.503771   1.000000
    4      -11.395343   1.000000
    5        6.629911   0.000000
    6        9.766258   0.000000
    7       10.542523   0.000000
    8       13.969998   0.000000
 
 -0.4285714E+00 -0.4285714E+00  0.1428571E+00  0.5830904E-02
    1      -35.406490   1.000000
    2      -11.638532   1.000000
    3      -11.438258   1.000000
    4      -11.300335   1.000000
    5        7.598637   0.000000
    6        8.402734   0.000000
    7       10.783938   0.000000
    8       15.726257   0.000000
 
 -0.2857143E+00 -0.4285714E+00  0.1428571E+00  0.5830904E-02
    1      -35.415159   1.000000
    2      -11.637862   1.000000
    3      -11.503773   1.000000
    4      -11.395342   1.000000
    5        6.629905   0.000000
    6        9.766267   0.000000
    7       10.542533   0.000000
    8       13.969967   0.000000
 
 -0.1428571E+00 -0.4285714E+00  0.1428571E+00  0.5830904E-02
    1      -35.425615   1.000000
    2      -11.657969   1.000000
    3      -11.478636   1.000000
    4      -11.398996   1.000000
    5        6.037766   0.000000
    6        8.793969   0.000000
    7       11.850686   0.000000
    8       15.105896   0.000000
 
  0.0000000E+00 -0.2857143E+00  0.1428571E+00  0.5830904E-02
    1      -35.452178   1.000000
    2      -11.665659   1.000000
    3      -11.439630   1.000000
    4      -11.400830   1.000000
    5        3.707902   0.000000
    6       10.289399   0.000000
    7       13.968842   0.000000
    8       17.775898   0.000000
 
  0.1428571E+00 -0.2857143E+00  0.1428571E+00  0.5830904E-02
    1      -35.441218   1.000000
    2      -11.691724   1.000000
    3      -11.410829   1.000000
    4      -11.383291   1.000000
    5        4.481674   0.000000
    6        9.172992   0.000000
    7       14.550175   0.000000
    8       16.554065   0.000000
 
  0.2857143E+00 -0.2857143E+00  0.1428571E+00  0.5830904E-02
    1      -35.425615   1.000000
    2      -11.657969   1.000000
    3      -11.478638   1.000000
    4      -11.398996   1.000000
    5        6.037775   0.000000
    6        8.793962   0.000000
    7       11.850669   0.000000
    8       15.105930   0.000000
 
  0.4285714E+00 -0.2857143E+00  0.1428571E+00  0.5830904E-02
    1      -35.419976   1.000000
    2      -11.674281   1.000000
    3      -11.628828   1.000000
    4      -11.467003   1.000000
    5        7.777265   0.000000
    6        9.051246   0.000000
    7        9.561785   0.000000
    8       13.646254   0.000000
 
 -0.4285714E+00 -0.2857143E+00  0.1428571E+00  0.5830904E-02
    1      -35.415159   1.000000
    2      -11.637862   1.000000
    3      -11.503771   1.000000
    4      -11.395344   1.000000
    5        6.629913   0.000000
    6        9.766246   0.000000
    7       10.542523   0.000000
    8       13.970006   0.000000
 
 -0.2857143E+00 -0.2857143E+00  0.1428571E+00  0.5830904E-02
    1      -35.432719   1.000000
    2      -11.628584   1.000000
    3      -11.507539   1.000000
    4      -11.477859   1.000000
    5        4.895995   0.000000
    6       10.810075   0.000000
    7       11.975761   0.000000
    8       15.902844   0.000000
 
 -0.1428571E+00 -0.2857143E+00  0.1428571E+00  0.5830904E-02
    1      -35.451655   1.000000
    2      -11.638255   1.000000
    3      -11.545243   1.000000
    4      -11.519949   1.000000
    5        3.860689   0.000000
    6       11.472732   0.000000
    7       12.582067   0.000000
    8       16.169117   0.000000
 
  0.0000000E+00 -0.1428571E+00  0.1428571E+00  0.5830904E-02
    1      -35.500887   1.000000
    2      -11.874444   1.000000
    3      -11.583409   1.000000
    4      -11.474833   1.000000
    5        1.840053   0.000000
    6       13.373199   0.000000
    7       15.154898   0.000000
    8       19.530509   0.000000
 
  0.1428571E+00 -0.1428571E+00  0.1428571E+00  0.5830904E-02
    1      -35.471229   1.000000
    2      -11.601289   1.000000
    3      -11.423166   1.000000
    4      -11.387340   1.000000
    5        2.393122   0.000000
    6       12.582312   0.000000
    7       15.696874   0.000000
    8       16.779133   0.000000
 
  0.2857143E+00 -0.1428571E+00  0.1428571E+00  0.5830904E-02
    1      -35.451655   1.000000
    2      -11.638258   1.000000
    3      -11.545242   1.000000
    4      -11.519949   1.000000
    5        3.860695   0.000000
    6       11.472739   0.000000
    7       12.582029   0.000000
    8       16.169157   0.000000
 
  0.4285714E+00 -0.1428571E+00  0.1428571E+00  0.5830904E-02
    1      -35.425615   1.000000
    2      -11.657968   1.000000
    3      -11.478636   1.000000
    4      -11.398997   1.000000
    5        6.037779   0.000000
    6        8.793944   0.000000
    7       11.850682   0.000000
    8       15.105922   0.000000
 
 -0.4285714E+00 -0.1428571E+00  0.1428571E+00  0.5830904E-02
    1      -35.425615   1.000000
    2      -11.657969   1.000000
    3      -11.478636   1.000000
    4      -11.398997   1.000000
    5        6.037776   0.000000
    6        8.793944   0.000000
    7       11.850683   0.000000
    8       15.105924   0.000000
 
 -0.2857143E+00 -0.1428571E+00  0.1428571E+00  0.5830904E-02
    1      -35.451655   1.000000
    2      -11.638255   1.000000
    3      -11.545242   1.000000
    4      -11.519949   1.000000
    5        3.860689   0.000000
    6       11.472722   0.000000
    7       12.582046   0.000000
    8       16.169169   0.000000
 
 -0.1428571E+00 -0.1428571E+00  0.1428571E+00  0.5830904E-02
    1      -35.471229   1.000000
    2      -11.601288   1.000000
    3      -11.423166   1.000000
    4      -11.387340   1.000000
    5        2.393118   0.000000
    6       12.582308   0.000000
    7       15.696866   0.000000
    8       16.779149   0.000000
 
  0.0000000E+00  0.0000000E+00  0.2857143E+00  0.5830904E-02
    1      -35.473326   1.000000
    2      -11.673011   1.000000
    3      -11.414858   1.000000
    4      -11.414857   1.000000
    5        2.556703   0.000000
    6       11.185348   0.000000
    7       17.691391   0.000000
    8       17.691442   0.000000
 
  0.1428571E+00 -0.1387779E-16  0.2857143E+00  0.5830904E-02
    1      -35.471229   1.000000
    2      -11.601288   1.000000
    3      -11.423166   1.000000
    4      -11.387341   1.000000
    5        2.393118   0.000000
    6       12.582322   0.000000
    7       15.696856   0.000000
    8       16.779149   0.000000
 
  0.2857143E+00 -0.2775558E-16  0.2857143E+00  0.5830904E-02
    1      -35.441927   1.000000
    2      -11.506450   1.000000
    3      -11.273844   1.000000
    4      -11.273843   1.000000
    5        3.232557   0.000000
    6       13.198090   0.000000
    7       13.537894   0.000000
    8       16.199015   0.000000
 
  0.4285714E+00  0.0000000E+00  0.2857143E+00  0.5830904E-02
    1      -35.432719   1.000000
    2      -11.628589   1.000000
    3      -11.507536   1.000000
    4      -11.477861   1.000000
    5        4.896001   0.000000
    6       10.810067   0.000000
    7       11.975758   0.000000
    8       15.902845   0.000000
 
 -0.4285714E+00  0.0000000E+00  0.2857143E+00  0.5830904E-02
    1      -35.414998   1.000000
    2      -11.590553   1.000000
    3      -11.473035   1.000000
    4      -11.343174   1.000000
    5        7.099480   0.000000
    6        8.273202   0.000000
    7       10.889699   0.000000
    8       16.105838   0.000000
 
 -0.2857143E+00  0.2775558E-16  0.2857143E+00  0.5830904E-02
    1      -35.424346   1.000000
    2      -11.561164   1.000000
    3      -11.513350   1.000000
    4      -11.313292   1.000000
    5        5.640787   0.000000
    6        9.854020   0.000000
    7       10.692104   0.000000
    8       16.774774   0.000000
 
 -0.1428571E+00 -0.1387779E-16  0.2857143E+00  0.5830904E-02
    1      -35.452177   1.000000
    2      -11.665657   1.000000
    3      -11.439630   1.000000
    4      -11.400830   1.000000
    5        3.707901   0.000000
    6       10.289387   0.000000
    7       13.968819   0.000000
    8       17.775932   0.000000
 
  0.0000000E+00  0.1428571E+00  0.2857143E+00  0.5830904E-02
    1      -35.471229   1.000000
    2      -11.601289   1.000000
    3      -11.423165   1.000000
    4      -11.387341   1.000000
    5        2.393119   0.000000
    6       12.582307   0.000000
    7       15.696880   0.000000
    8       16.779121   0.000000
 
  0.1428571E+00  0.1428571E+00  0.2857143E+00  0.5830904E-02
    1      -35.500887   1.000000
    2      -11.874446   1.000000
    3      -11.583408   1.000000
    4      -11.474832   1.000000
    5        1.840053   0.000000
    6       13.373202   0.000000
    7       15.154891   0.000000
    8       19.530556   0.000000
 
  0.2857143E+00  0.1428571E+00  0.2857143E+00  0.5830904E-02
    1      -35.471229   1.000000
    2      -11.601291   1.000000
    3      -11.423166   1.000000
    4      -11.387340   1.000000
    5        2.393121   0.000000
    6       12.582312   0.000000
    7       15.696875   0.000000
    8       16.779137   0.000000
 
  0.4285714E+00  0.1428571E+00  0.2857143E+00  0.5830904E-02
    1      -35.451655   1.000000
    2      -11.638259   1.000000
    3      -11.545243   1.000000
    4      -11.519947   1.000000
    5        3.860695   0.000000
    6       11.472739   0.000000
    7       12.582020   0.000000
    8       16.169181   0.000000
 
 -0.4285714E+00  0.1428571E+00  0.2857143E+00  0.5830904E-02
    1      -35.425615   1.000000
    2      -11.657968   1.000000
    3      -11.478637   1.000000
    4      -11.398996   1.000000
    5        6.037780   0.000000
    6        8.793944   0.000000
    7       11.850671   0.000000
    8       15.105944   0.000000
 
 -0.2857143E+00  0.1428571E+00  0.2857143E+00  0.5830904E-02
    1      -35.425615   1.000000
    2      -11.657969   1.000000
    3      -11.478637   1.000000
    4      -11.398995   1.000000
    5        6.037776   0.000000
    6        8.793947   0.000000
    7       11.850673   0.000000
    8       15.105939   0.000000
 
 -0.1428571E+00  0.1428571E+00  0.2857143E+00  0.5830904E-02
    1      -35.451655   1.000000
    2      -11.638256   1.000000
    3      -11.545242   1.000000
    4      -11.519949   1.000000
    5        3.860690   0.000000
    6       11.472722   0.000000
    7       12.582045   0.000000
    8       16.169169   0.000000
 
  0.0000000E+00  0.2857143E+00  0.2857143E+00  0.5830904E-02
    1      -35.441927   1.000000
    2      -11.506452   1.000000
    3      -11.273844   1.000000
    4      -11.273842   1.000000
    5        3.232557   0.000000
    6       13.198068   0.000000
    7       13.537895   0.000000
    8       16.199034   0.000000
 
  0.1428571E+00  0.2857143E+00  0.2857143E+00  0.5830904E-02
    1      -35.471229   1.000000
    2      -11.601292   1.000000
    3      -11.423166   1.000000
    4      -11.387339   1.000000
    5        2.393122   0.000000
    6       12.582312   0.000000
    7       15.696843   0.000000
    8       16.779188   0.000000
 
  0.2857143E+00  0.2857143E+00  0.2857143E+00  0.5830904E-02
    1      -35.473326   1.000000
    2      -11.673016   1.000000
    3      -11.414858   1.000000
    4      -11.414855   1.000000
    5        2.556707   0.000000
    6       11.185351   0.000000
    7       17.691414   0.000000
    8       17.691485   0.000000
 