   1   1   0   0
  0.1860393E+02  0.2974221E-09  0.2974221E-09  0.2974221E-09  0.1000000E-15
  1.000000000000000E-004
  CAR 
 Og_FCC                                  
    136.97020389    -45.62349352  301    -10.77852960      1.00000000
    -45.623  0.0000E+00  0.0000E+00
    -45.015  0.0000E+00  0.0000E+00
    -44.406  0.0000E+00  0.0000E+00
    -43.798  0.0000E+00  0.0000E+00
    -43.189  0.0000E+00  0.0000E+00
    -42.580  0.0000E+00  0.0000E+00
    -41.972  0.0000E+00  0.0000E+00
    -41.363  0.0000E+00  0.0000E+00
    -40.754  0.0000E+00  0.0000E+00
    -40.146  0.0000E+00  0.0000E+00
    -39.537  0.0000E+00  0.0000E+00
    -38.928  0.0000E+00  0.0000E+00
    -38.320  0.0000E+00  0.0000E+00
    -37.711  0.0000E+00  0.0000E+00
    -37.102  0.0000E+00  0.2000E+01
    -36.494  0.0000E+00  0.2000E+01
    -35.885  0.0000E+00  0.2000E+01
    -35.277  0.0000E+00  0.2000E+01
    -34.668  0.0000E+00  0.2000E+01
    -34.059  0.0000E+00  0.2000E+01
    -33.451  0.0000E+00  0.2000E+01
    -32.842  0.0000E+00  0.2000E+01
    -32.233  0.0000E+00  0.2000E+01
    -31.625  0.0000E+00  0.2000E+01
    -31.016  0.0000E+00  0.2000E+01
    -30.407  0.0000E+00  0.2000E+01
    -29.799  0.0000E+00  0.2000E+01
    -29.190  0.0000E+00  0.2000E+01
    -28.581  0.0000E+00  0.2000E+01
    -27.973  0.0000E+00  0.2000E+01
    -27.364  0.0000E+00  0.2000E+01
    -26.755  0.0000E+00  0.2000E+01
    -26.147  0.0000E+00  0.2000E+01
    -25.538  0.0000E+00  0.2000E+01
    -24.930  0.0000E+00  0.2000E+01
    -24.321  0.0000E+00  0.2000E+01
    -23.712  0.0000E+00  0.2000E+01
    -23.104  0.0000E+00  0.2000E+01
    -22.495  0.0000E+00  0.2000E+01
    -21.886  0.0000E+00  0.2000E+01
    -21.278  0.0000E+00  0.2000E+01
    -20.669  0.0000E+00  0.2000E+01
    -20.060  0.0000E+00  0.2000E+01
    -19.452  0.0000E+00  0.2000E+01
    -18.843  0.0000E+00  0.2000E+01
    -18.234  0.0000E+00  0.2000E+01
    -17.626  0.0000E+00  0.2000E+01
    -17.017  0.0000E+00  0.2000E+01
    -16.409  0.0000E+00  0.2000E+01
    -15.800  0.0000E+00  0.2000E+01
    -15.191  0.0000E+00  0.2000E+01
    -14.583  0.0000E+00  0.2000E+01
    -13.974  0.0000E+00  0.2000E+01
    -13.365  0.0000E+00  0.2000E+01
    -12.757  0.0000E+00  0.2000E+01
    -12.148  0.0000E+00  0.3417E+01
    -11.539  0.0000E+00  0.6722E+01
    -10.931  0.0000E+00  0.8000E+01
    -10.322  0.0000E+00  0.8000E+01
     -9.713  0.0000E+00  0.8000E+01
     -9.105  0.0000E+00  0.8000E+01
     -8.496  0.0000E+00  0.8000E+01
     -7.887  0.0000E+00  0.8000E+01
     -7.279  0.0000E+00  0.8000E+01
     -6.670  0.0000E+00  0.8000E+01
     -6.062  0.0000E+00  0.8000E+01
     -5.453  0.0000E+00  0.8000E+01
     -4.844  0.0000E+00  0.8000E+01
     -4.236  0.0000E+00  0.8000E+01
     -3.627  0.0000E+00  0.8000E+01
     -3.018  0.0000E+00  0.8000E+01
     -2.410  0.0000E+00  0.8000E+01
     -1.801  0.0000E+00  0.8000E+01
     -1.192  0.0000E+00  0.8000E+01
     -0.584  0.0000E+00  0.8000E+01
      0.025  0.0000E+00  0.8000E+01
      0.634  0.0000E+00  0.8000E+01
      1.242  0.0000E+00  0.8000E+01
      1.851  0.0000E+00  0.8009E+01
      2.460  0.0000E+00  0.8009E+01
      3.068  0.0000E+00  0.8139E+01
      3.677  0.0000E+00  0.8139E+01
      4.285  0.0000E+00  0.8250E+01
      4.894  0.0000E+00  0.8472E+01
      5.503  0.0000E+00  0.8546E+01
      6.111  0.0000E+00  0.8602E+01
      6.720  0.2073E-04  0.8824E+01
      7.329  0.0000E+00  0.9046E+01
      7.937  0.0000E+00  0.9269E+01
      8.546  0.0000E+00  0.9565E+01
      9.155  0.0000E+00  0.9926E+01
      9.763  0.0000E+00  0.9926E+01
     10.372  0.0000E+00  0.1026E+02
     10.981  0.0000E+00  0.1051E+02
     11.589  0.0000E+00  0.1095E+02
     12.198  0.0000E+00  0.1129E+02
     12.806  0.0000E+00  0.1147E+02
     13.415  0.0000E+00  0.1192E+02
     14.024  0.0000E+00  0.1236E+02
     14.632  0.0000E+00  0.1267E+02
     15.241  0.0000E+00  0.1272E+02
     15.850  0.0000E+00  0.1283E+02
     16.458  0.0000E+00  0.1328E+02
     17.067  0.0000E+00  0.1339E+02
     17.676  0.0000E+00  0.1402E+02
     18.284  0.0000E+00  0.1407E+02
     18.893  0.0000E+00  0.1430E+02
     19.502  0.0000E+00  0.1469E+02
     20.110  0.0000E+00  0.1546E+02
     20.719  0.0000E+00  0.1607E+02
     21.328  0.0000E+00  0.1619E+02
     21.936  0.0000E+00  0.1658E+02
     22.545  0.0000E+00  0.1681E+02
     23.153  0.0000E+00  0.1736E+02
     23.762  0.0000E+00  0.1748E+02
     24.371  0.0000E+00  0.1778E+02
     24.979  0.0000E+00  0.1803E+02
     25.588  0.0000E+00  0.1814E+02
     26.197  0.0000E+00  0.1888E+02
     26.805  0.0000E+00  0.1901E+02
     27.414  0.0000E+00  0.1981E+02
     28.023  0.0000E+00  0.2026E+02
     28.631  0.0000E+00  0.2067E+02
     29.240  0.0000E+00  0.2119E+02
     29.849  0.0000E+00  0.2151E+02
     30.457  0.0000E+00  0.2208E+02
     31.066  0.0000E+00  0.2208E+02
     31.675  0.0000E+00  0.2256E+02
     32.283  0.0000E+00  0.2301E+02
     32.892  0.0000E+00  0.2418E+02
     33.500  0.0000E+00  0.2494E+02
     34.109  0.0000E+00  0.2534E+02
     34.718  0.0000E+00  0.2612E+02
     35.326  0.0000E+00  0.2697E+02
     35.935  0.0000E+00  0.2733E+02
     36.544  0.0000E+00  0.2761E+02
     37.152  0.0000E+00  0.2761E+02
     37.761  0.0000E+00  0.2862E+02
     38.370  0.0000E+00  0.2912E+02
     38.978  0.0000E+00  0.2934E+02
     39.587  0.0000E+00  0.2971E+02
     40.196  0.0000E+00  0.2985E+02
     40.804  0.0000E+00  0.3019E+02
     41.413  0.6381E-06  0.3019E+02
     42.021  0.0000E+00  0.3127E+02
     42.630  0.0000E+00  0.3216E+02
     43.239  0.0000E+00  0.3289E+02
     43.847  0.0000E+00  0.3333E+02
     44.456  0.0000E+00  0.3396E+02
     45.065  0.0000E+00  0.3430E+02
     45.673  0.0000E+00  0.3463E+02
     46.282  0.0000E+00  0.3463E+02
     46.891  0.0000E+00  0.3550E+02
     47.499  0.0000E+00  0.3628E+02
     48.108  0.0000E+00  0.3656E+02
     48.717  0.0000E+00  0.3731E+02
     49.325  0.0000E+00  0.3798E+02
     49.934  0.0000E+00  0.3843E+02
     50.543  0.0000E+00  0.3920E+02
     51.151  0.0000E+00  0.3931E+02
     51.760  0.1217E+00  0.4017E+02
     52.368  0.0000E+00  0.4085E+02
     52.977  0.0000E+00  0.4119E+02
     53.586  0.0000E+00  0.4169E+02
     54.194  0.0000E+00  0.4286E+02
     54.803  0.0000E+00  0.4351E+02
     55.412  0.0000E+00  0.4388E+02
     56.020  0.0000E+00  0.4440E+02
     56.629  0.3514E+00  0.4483E+02
     57.238  0.0000E+00  0.4551E+02
     57.846  0.0000E+00  0.4584E+02
     58.455  0.0000E+00  0.4584E+02
     59.064  0.0000E+00  0.4647E+02
     59.672  0.0000E+00  0.4724E+02
     60.281  0.0000E+00  0.4824E+02
     60.889  0.0000E+00  0.4903E+02
     61.498  0.0000E+00  0.4919E+02
     62.107  0.0000E+00  0.5025E+02
     62.715  0.0000E+00  0.5123E+02
     63.324  0.0000E+00  0.5218E+02
     63.933  0.0000E+00  0.5251E+02
     64.541  0.0000E+00  0.5284E+02
     65.150  0.0000E+00  0.5344E+02
     65.759  0.1075E+00  0.5428E+02
     66.367  0.0000E+00  0.5498E+02
     66.976  0.0000E+00  0.5561E+02
     67.585  0.0000E+00  0.5591E+02
     68.193  0.0000E+00  0.5681E+02
     68.802  0.9082E-01  0.5770E+02
     69.411  0.7823E-03  0.5824E+02
     70.019  0.0000E+00  0.5969E+02
     70.628  0.0000E+00  0.5971E+02
     71.236  0.0000E+00  0.6045E+02
     71.845  0.0000E+00  0.6094E+02
     72.454  0.0000E+00  0.6215E+02
     73.062  0.0000E+00  0.6227E+02
     73.671  0.0000E+00  0.6300E+02
     74.280  0.3651E+00  0.6367E+02
     74.888  0.0000E+00  0.6437E+02
     75.497  0.0000E+00  0.6522E+02
     76.106  0.0000E+00  0.6548E+02
     76.714  0.0000E+00  0.6686E+02
     77.323  0.0000E+00  0.6747E+02
     77.932  0.0000E+00  0.6818E+02
     78.540  0.0000E+00  0.6864E+02
     79.149  0.0000E+00  0.6864E+02
     79.758  0.0000E+00  0.6933E+02
     80.366  0.6085E-01  0.7041E+02
     80.975  0.0000E+00  0.7110E+02
     81.583  0.0000E+00  0.7180E+02
     82.192  0.3651E+00  0.7223E+02
     82.801  0.0000E+00  0.7249E+02
     83.409  0.0000E+00  0.7330E+02
     84.018  0.0000E+00  0.7396E+02
     84.627  0.0000E+00  0.7522E+02
     85.235  0.0000E+00  0.7614E+02
     85.844  0.0000E+00  0.7668E+02
     86.453  0.0000E+00  0.7734E+02
     87.061  0.0000E+00  0.7858E+02
     87.670  0.0000E+00  0.7942E+02
     88.279  0.0000E+00  0.8012E+02
     88.887  0.0000E+00  0.8128E+02
     89.496  0.0000E+00  0.8173E+02
     90.104  0.0000E+00  0.8237E+02
     90.713  0.0000E+00  0.8315E+02
     91.322  0.0000E+00  0.8347E+02
     91.930  0.0000E+00  0.8372E+02
     92.539  0.0000E+00  0.8441E+02
     93.148  0.0000E+00  0.8504E+02
     93.756  0.0000E+00  0.8596E+02
     94.365  0.0000E+00  0.8709E+02
     94.974  0.0000E+00  0.8769E+02
     95.582  0.0000E+00  0.8852E+02
     96.191  0.0000E+00  0.8941E+02
     96.800  0.0000E+00  0.8994E+02
     97.408  0.0000E+00  0.9106E+02
     98.017  0.0000E+00  0.9158E+02
     98.626  0.0000E+00  0.9227E+02
     99.234  0.0000E+00  0.9280E+02
     99.843  0.0000E+00  0.9451E+02
    100.451  0.0000E+00  0.9514E+02
    101.060  0.0000E+00  0.9592E+02
    101.669  0.0000E+00  0.9736E+02
    102.277  0.0000E+00  0.9786E+02
    102.886  0.0000E+00  0.9886E+02
    103.495  0.0000E+00  0.9908E+02
    104.103  0.0000E+00  0.1002E+03
    104.712  0.0000E+00  0.1011E+03
    105.321  0.0000E+00  0.1018E+03
    105.929  0.0000E+00  0.1025E+03
    106.538  0.0000E+00  0.1032E+03
    107.147  0.0000E+00  0.1040E+03
    107.755  0.0000E+00  0.1045E+03
    108.364  0.0000E+00  0.1050E+03
    108.973  0.0000E+00  0.1056E+03
    109.581  0.0000E+00  0.1065E+03
    110.190  0.0000E+00  0.1072E+03
    110.798  0.0000E+00  0.1083E+03
    111.407  0.0000E+00  0.1091E+03
    112.016  0.2775E-02  0.1101E+03
    112.624  0.0000E+00  0.1111E+03
    113.233  0.0000E+00  0.1122E+03
    113.842  0.0000E+00  0.1132E+03
    114.450  0.0000E+00  0.1146E+03
    115.059  0.6201E-01  0.1155E+03
    115.668  0.0000E+00  0.1159E+03
    116.276  0.0000E+00  0.1169E+03
    116.885  0.0000E+00  0.1178E+03
    117.494  0.0000E+00  0.1184E+03
    118.102  0.0000E+00  0.1192E+03
    118.711  0.0000E+00  0.1200E+03
    119.319  0.0000E+00  0.1205E+03
    119.928  0.0000E+00  0.1211E+03
    120.537  0.0000E+00  0.1217E+03
    121.145  0.0000E+00  0.1219E+03
    121.754  0.2133E-13  0.1229E+03
    122.363  0.1664E-15  0.1240E+03
    122.971  0.0000E+00  0.1249E+03
    123.580  0.0000E+00  0.1261E+03
    124.189  0.0000E+00  0.1267E+03
    124.797  0.0000E+00  0.1277E+03
    125.406  0.0000E+00  0.1277E+03
    126.015  0.0000E+00  0.1278E+03
    126.623  0.0000E+00  0.1279E+03
    127.232  0.0000E+00  0.1279E+03
    127.841  0.0000E+00  0.1279E+03
    128.449  0.0000E+00  0.1279E+03
    129.058  0.0000E+00  0.1280E+03
    129.666  0.0000E+00  0.1280E+03
    130.275  0.0000E+00  0.1280E+03
    130.884  0.0000E+00  0.1280E+03
    131.492  0.0000E+00  0.1280E+03
    132.101  0.0000E+00  0.1280E+03
    132.710  0.0000E+00  0.1280E+03
    133.318  0.0000E+00  0.1280E+03
    133.927  0.0000E+00  0.1280E+03
    134.536  0.0000E+00  0.1280E+03
    135.144  0.0000E+00  0.1280E+03
    135.753  0.0000E+00  0.1280E+03
    136.362  0.0000E+00  0.1280E+03
    136.970  0.0000E+00  0.1280E+03
