   1   1   0   0
  0.2224118E+02  0.3156634E-09  0.3156634E-09  0.3156634E-09  0.1000000E-15
  1.000000000000000E-004
  CAR 
 Og_FCC                                  
    119.66208314    -42.90755929  301    -10.80005491      1.00000000
    -42.908  0.0000E+00  0.0000E+00
    -42.366  0.0000E+00  0.0000E+00
    -41.824  0.0000E+00  0.0000E+00
    -41.282  0.0000E+00  0.0000E+00
    -40.740  0.0000E+00  0.0000E+00
    -40.198  0.0000E+00  0.0000E+00
    -39.656  0.0000E+00  0.0000E+00
    -39.114  0.0000E+00  0.0000E+00
    -38.572  0.0000E+00  0.0000E+00
    -38.030  0.0000E+00  0.0000E+00
    -37.489  0.0000E+00  0.0000E+00
    -36.947  0.0000E+00  0.0000E+00
    -36.405  0.0000E+00  0.0000E+00
    -35.863  0.0000E+00  0.0000E+00
    -35.321  0.0000E+00  0.2000E+01
    -34.779  0.0000E+00  0.2000E+01
    -34.237  0.0000E+00  0.2000E+01
    -33.695  0.0000E+00  0.2000E+01
    -33.153  0.0000E+00  0.2000E+01
    -32.611  0.0000E+00  0.2000E+01
    -32.070  0.0000E+00  0.2000E+01
    -31.528  0.0000E+00  0.2000E+01
    -30.986  0.0000E+00  0.2000E+01
    -30.444  0.0000E+00  0.2000E+01
    -29.902  0.0000E+00  0.2000E+01
    -29.360  0.0000E+00  0.2000E+01
    -28.818  0.0000E+00  0.2000E+01
    -28.276  0.0000E+00  0.2000E+01
    -27.734  0.0000E+00  0.2000E+01
    -27.192  0.0000E+00  0.2000E+01
    -26.651  0.0000E+00  0.2000E+01
    -26.109  0.0000E+00  0.2000E+01
    -25.567  0.0000E+00  0.2000E+01
    -25.025  0.0000E+00  0.2000E+01
    -24.483  0.0000E+00  0.2000E+01
    -23.941  0.0000E+00  0.2000E+01
    -23.399  0.0000E+00  0.2000E+01
    -22.857  0.0000E+00  0.2000E+01
    -22.315  0.0000E+00  0.2000E+01
    -21.774  0.0000E+00  0.2000E+01
    -21.232  0.0000E+00  0.2000E+01
    -20.690  0.0000E+00  0.2000E+01
    -20.148  0.0000E+00  0.2000E+01
    -19.606  0.0000E+00  0.2000E+01
    -19.064  0.0000E+00  0.2000E+01
    -18.522  0.0000E+00  0.2000E+01
    -17.980  0.0000E+00  0.2000E+01
    -17.438  0.0000E+00  0.2000E+01
    -16.896  0.0000E+00  0.2000E+01
    -16.355  0.0000E+00  0.2000E+01
    -15.813  0.0000E+00  0.2000E+01
    -15.271  0.0000E+00  0.2000E+01
    -14.729  0.0000E+00  0.2000E+01
    -14.187  0.0000E+00  0.2000E+01
    -13.645  0.0000E+00  0.2000E+01
    -13.103  0.0000E+00  0.2000E+01
    -12.561  0.0000E+00  0.2000E+01
    -12.019  0.0000E+00  0.2000E+01
    -11.477  0.1455E+00  0.5348E+01
    -10.936  0.0000E+00  0.8000E+01
    -10.394  0.0000E+00  0.8000E+01
     -9.852  0.0000E+00  0.8000E+01
     -9.310  0.0000E+00  0.8000E+01
     -8.768  0.0000E+00  0.8000E+01
     -8.226  0.0000E+00  0.8000E+01
     -7.684  0.0000E+00  0.8000E+01
     -7.142  0.0000E+00  0.8000E+01
     -6.600  0.0000E+00  0.8000E+01
     -6.058  0.0000E+00  0.8000E+01
     -5.517  0.0000E+00  0.8000E+01
     -4.975  0.0000E+00  0.8000E+01
     -4.433  0.0000E+00  0.8000E+01
     -3.891  0.0000E+00  0.8000E+01
     -3.349  0.0000E+00  0.8000E+01
     -2.807  0.0000E+00  0.8000E+01
     -2.265  0.0000E+00  0.8000E+01
     -1.723  0.0000E+00  0.8000E+01
     -1.181  0.0000E+00  0.8000E+01
     -0.639  0.0000E+00  0.8000E+01
     -0.098  0.0000E+00  0.8000E+01
      0.444  0.0000E+00  0.8004E+01
      0.986  0.0000E+00  0.8059E+01
      1.528  0.8650E-01  0.8105E+01
      2.070  0.0000E+00  0.8230E+01
      2.612  0.0000E+00  0.8230E+01
      3.154  0.0000E+00  0.8441E+01
      3.696  0.0000E+00  0.8535E+01
      4.238  0.0000E+00  0.8660E+01
      4.780  0.0000E+00  0.8707E+01
      5.321  0.0000E+00  0.9012E+01
      5.863  0.0000E+00  0.9293E+01
      6.405  0.0000E+00  0.9324E+01
      6.947  0.0000E+00  0.9699E+01
      7.489  0.0000E+00  0.1009E+02
      8.031  0.0000E+00  0.1018E+02
      8.573  0.0000E+00  0.1045E+02
      9.115  0.0000E+00  0.1081E+02
      9.657  0.0000E+00  0.1109E+02
     10.199  0.0000E+00  0.1137E+02
     10.740  0.0000E+00  0.1175E+02
     11.282  0.0000E+00  0.1214E+02
     11.824  0.1145E-05  0.1238E+02
     12.366  0.0000E+00  0.1263E+02
     12.908  0.0000E+00  0.1294E+02
     13.450  0.0000E+00  0.1312E+02
     13.992  0.2106E-01  0.1330E+02
     14.534  0.0000E+00  0.1362E+02
     15.076  0.0000E+00  0.1402E+02
     15.618  0.2163E-01  0.1425E+02
     16.159  0.0000E+00  0.1498E+02
     16.701  0.1730E+00  0.1545E+02
     17.243  0.0000E+00  0.1586E+02
     17.785  0.0000E+00  0.1616E+02
     18.327  0.1153E+00  0.1656E+02
     18.869  0.0000E+00  0.1676E+02
     19.411  0.0000E+00  0.1716E+02
     19.953  0.8103E-11  0.1734E+02
     20.495  0.1728E+00  0.1777E+02
     21.037  0.0000E+00  0.1801E+02
     21.578  0.0000E+00  0.1829E+02
     22.120  0.0000E+00  0.1868E+02
     22.662  0.1730E+00  0.1961E+02
     23.204  0.0000E+00  0.1991E+02
     23.746  0.6620E-10  0.2012E+02
     24.288  0.0000E+00  0.2059E+02
     24.830  0.4552E-13  0.2113E+02
     25.372  0.0000E+00  0.2156E+02
     25.914  0.0000E+00  0.2204E+02
     26.455  0.0000E+00  0.2250E+02
     26.997  0.0000E+00  0.2334E+02
     27.539  0.4092E-05  0.2371E+02
     28.081  0.0000E+00  0.2438E+02
     28.623  0.0000E+00  0.2505E+02
     29.165  0.0000E+00  0.2571E+02
     29.707  0.3865E-01  0.2630E+02
     30.249  0.0000E+00  0.2673E+02
     30.791  0.0000E+00  0.2721E+02
     31.333  0.0000E+00  0.2771E+02
     31.874  0.0000E+00  0.2824E+02
     32.416  0.5754E-01  0.2849E+02
     32.958  0.0000E+00  0.2903E+02
     33.500  0.0000E+00  0.2981E+02
     34.042  0.0000E+00  0.3002E+02
     34.584  0.0000E+00  0.3006E+02
     35.126  0.0000E+00  0.3030E+02
     35.668  0.0000E+00  0.3086E+02
     36.210  0.0000E+00  0.3148E+02
     36.752  0.0000E+00  0.3220E+02
     37.293  0.0000E+00  0.3260E+02
     37.835  0.0000E+00  0.3335E+02
     38.377  0.2619E-04  0.3384E+02
     38.919  0.0000E+00  0.3427E+02
     39.461  0.0000E+00  0.3478E+02
     40.003  0.0000E+00  0.3532E+02
     40.545  0.1458E-02  0.3602E+02
     41.087  0.0000E+00  0.3633E+02
     41.629  0.0000E+00  0.3705E+02
     42.171  0.0000E+00  0.3770E+02
     42.712  0.0000E+00  0.3812E+02
     43.254  0.0000E+00  0.3884E+02
     43.796  0.0000E+00  0.3939E+02
     44.338  0.0000E+00  0.4021E+02
     44.880  0.0000E+00  0.4096E+02
     45.422  0.0000E+00  0.4105E+02
     45.964  0.1730E+00  0.4202E+02
     46.506  0.0000E+00  0.4242E+02
     47.048  0.0000E+00  0.4275E+02
     47.590  0.0000E+00  0.4342E+02
     48.131  0.0000E+00  0.4417E+02
     48.673  0.0000E+00  0.4432E+02
     49.215  0.0000E+00  0.4493E+02
     49.757  0.0000E+00  0.4551E+02
     50.299  0.0000E+00  0.4687E+02
     50.841  0.0000E+00  0.4752E+02
     51.383  0.0000E+00  0.4766E+02
     51.925  0.0000E+00  0.4838E+02
     52.467  0.0000E+00  0.4896E+02
     53.009  0.8650E-01  0.4923E+02
     53.550  0.0000E+00  0.5057E+02
     54.092  0.0000E+00  0.5097E+02
     54.634  0.0000E+00  0.5132E+02
     55.176  0.0000E+00  0.5221E+02
     55.718  0.1730E+00  0.5297E+02
     56.260  0.2450E-01  0.5335E+02
     56.802  0.0000E+00  0.5471E+02
     57.344  0.0000E+00  0.5527E+02
     57.886  0.0000E+00  0.5598E+02
     58.428  0.0000E+00  0.5658E+02
     58.969  0.3460E+00  0.5744E+02
     59.511  0.4325E-01  0.5819E+02
     60.053  0.0000E+00  0.5880E+02
     60.595  0.0000E+00  0.5914E+02
     61.137  0.0000E+00  0.5978E+02
     61.679  0.0000E+00  0.6076E+02
     62.221  0.0000E+00  0.6157E+02
     62.763  0.0000E+00  0.6210E+02
     63.305  0.0000E+00  0.6274E+02
     63.847  0.0000E+00  0.6305E+02
     64.388  0.0000E+00  0.6391E+02
     64.930  0.0000E+00  0.6472E+02
     65.472  0.0000E+00  0.6527E+02
     66.014  0.0000E+00  0.6577E+02
     66.556  0.7274E-05  0.6624E+02
     67.098  0.0000E+00  0.6680E+02
     67.640  0.0000E+00  0.6740E+02
     68.182  0.0000E+00  0.6806E+02
     68.724  0.0000E+00  0.6892E+02
     69.265  0.0000E+00  0.6946E+02
     69.807  0.9893E-07  0.7050E+02
     70.349  0.1730E+00  0.7146E+02
     70.891  0.1730E+00  0.7209E+02
     71.433  0.0000E+00  0.7282E+02
     71.975  0.1725E+00  0.7378E+02
     72.517  0.0000E+00  0.7438E+02
     73.059  0.0000E+00  0.7520E+02
     73.601  0.0000E+00  0.7594E+02
     74.143  0.0000E+00  0.7646E+02
     74.684  0.0000E+00  0.7696E+02
     75.226  0.1730E+00  0.7797E+02
     75.768  0.0000E+00  0.7860E+02
     76.310  0.0000E+00  0.7967E+02
     76.852  0.0000E+00  0.8015E+02
     77.394  0.0000E+00  0.8085E+02
     77.936  0.0000E+00  0.8144E+02
     78.478  0.3459E+00  0.8243E+02
     79.020  0.3431E+00  0.8297E+02
     79.562  0.1442E-01  0.8421E+02
     80.103  0.1730E+00  0.8509E+02
     80.645  0.0000E+00  0.8595E+02
     81.187  0.1153E+00  0.8692E+02
     81.729  0.0000E+00  0.8735E+02
     82.271  0.0000E+00  0.8754E+02
     82.813  0.0000E+00  0.8837E+02
     83.355  0.0000E+00  0.8930E+02
     83.897  0.0000E+00  0.9000E+02
     84.439  0.0000E+00  0.9059E+02
     84.981  0.0000E+00  0.9136E+02
     85.522  0.2171E-04  0.9227E+02
     86.064  0.5767E-01  0.9355E+02
     86.606  0.0000E+00  0.9415E+02
     87.148  0.0000E+00  0.9532E+02
     87.690  0.0000E+00  0.9563E+02
     88.232  0.1730E+00  0.9675E+02
     88.774  0.0000E+00  0.9775E+02
     89.316  0.8255E-02  0.9855E+02
     89.858  0.0000E+00  0.9945E+02
     90.400  0.0000E+00  0.1002E+03
     90.941  0.2585E+00  0.1010E+03
     91.483  0.0000E+00  0.1018E+03
     92.025  0.0000E+00  0.1025E+03
     92.567  0.1730E+00  0.1034E+03
     93.109  0.0000E+00  0.1041E+03
     93.651  0.0000E+00  0.1048E+03
     94.193  0.0000E+00  0.1055E+03
     94.735  0.0000E+00  0.1061E+03
     95.277  0.0000E+00  0.1063E+03
     95.819  0.0000E+00  0.1076E+03
     96.360  0.0000E+00  0.1088E+03
     96.902  0.0000E+00  0.1098E+03
     97.444  0.0000E+00  0.1107E+03
     97.986  0.0000E+00  0.1117E+03
     98.528  0.0000E+00  0.1128E+03
     99.070  0.0000E+00  0.1133E+03
     99.612  0.0000E+00  0.1143E+03
    100.154  0.0000E+00  0.1151E+03
    100.696  0.0000E+00  0.1159E+03
    101.238  0.0000E+00  0.1171E+03
    101.779  0.0000E+00  0.1176E+03
    102.321  0.0000E+00  0.1184E+03
    102.863  0.7203E-17  0.1191E+03
    103.405  0.9996E-06  0.1198E+03
    103.947  0.0000E+00  0.1204E+03
    104.489  0.5767E-01  0.1211E+03
    105.031  0.1548E+00  0.1220E+03
    105.573  0.0000E+00  0.1228E+03
    106.115  0.0000E+00  0.1240E+03
    106.657  0.0000E+00  0.1253E+03
    107.198  0.8650E-01  0.1262E+03
    107.740  0.0000E+00  0.1269E+03
    108.282  0.0000E+00  0.1276E+03
    108.824  0.0000E+00  0.1278E+03
    109.366  0.0000E+00  0.1279E+03
    109.908  0.0000E+00  0.1279E+03
    110.450  0.0000E+00  0.1280E+03
    110.992  0.0000E+00  0.1280E+03
    111.534  0.0000E+00  0.1280E+03
    112.075  0.0000E+00  0.1280E+03
    112.617  0.0000E+00  0.1280E+03
    113.159  0.0000E+00  0.1280E+03
    113.701  0.0000E+00  0.1280E+03
    114.243  0.0000E+00  0.1280E+03
    114.785  0.0000E+00  0.1280E+03
    115.327  0.0000E+00  0.1280E+03
    115.869  0.0000E+00  0.1280E+03
    116.411  0.0000E+00  0.1280E+03
    116.953  0.0000E+00  0.1280E+03
    117.494  0.0000E+00  0.1280E+03
    118.036  0.0000E+00  0.1280E+03
    118.578  0.0000E+00  0.1280E+03
    119.120  0.0000E+00  0.1280E+03
    119.662  0.0000E+00  0.1280E+03
