   1   1   0   0
  0.6008441E+02  0.4396350E-09  0.4396350E-09  0.4396350E-09  0.1000000E-15
  1.000000000000000E-004
  CAR 
 Og_FCC                                  
     63.77000537   -233.01815445  301      3.68288421      1.00000000
   -233.018  0.0000E+00  0.0000E+00
   -232.029  0.0000E+00  0.0000E+00
   -231.040  0.0000E+00  0.0000E+00
   -230.050  0.0000E+00  0.0000E+00
   -229.061  0.0000E+00  0.0000E+00
   -228.072  0.0000E+00  0.0000E+00
   -227.082  0.0000E+00  0.0000E+00
   -226.093  0.0000E+00  0.0000E+00
   -225.104  0.0000E+00  0.0000E+00
   -224.115  0.0000E+00  0.0000E+00
   -223.125  0.0000E+00  0.0000E+00
   -222.136  0.0000E+00  0.0000E+00
   -221.147  0.0000E+00  0.0000E+00
   -220.157  0.0000E+00  0.0000E+00
   -219.168  0.0000E+00  0.2000E+01
   -218.179  0.0000E+00  0.2000E+01
   -217.189  0.0000E+00  0.2000E+01
   -216.200  0.0000E+00  0.2000E+01
   -215.211  0.0000E+00  0.2000E+01
   -214.222  0.0000E+00  0.2000E+01
   -213.232  0.0000E+00  0.2000E+01
   -212.243  0.0000E+00  0.2000E+01
   -211.254  0.0000E+00  0.2000E+01
   -210.264  0.0000E+00  0.2000E+01
   -209.275  0.0000E+00  0.2000E+01
   -208.286  0.0000E+00  0.2000E+01
   -207.297  0.0000E+00  0.2000E+01
   -206.307  0.0000E+00  0.2000E+01
   -205.318  0.0000E+00  0.2000E+01
   -204.329  0.0000E+00  0.2000E+01
   -203.339  0.0000E+00  0.2000E+01
   -202.350  0.0000E+00  0.2000E+01
   -201.361  0.0000E+00  0.2000E+01
   -200.371  0.0000E+00  0.2000E+01
   -199.382  0.0000E+00  0.2000E+01
   -198.393  0.0000E+00  0.2000E+01
   -197.404  0.0000E+00  0.2000E+01
   -196.414  0.0000E+00  0.2000E+01
   -195.425  0.0000E+00  0.2000E+01
   -194.436  0.0000E+00  0.2000E+01
   -193.446  0.0000E+00  0.2000E+01
   -192.457  0.0000E+00  0.2000E+01
   -191.468  0.0000E+00  0.2000E+01
   -190.479  0.0000E+00  0.2000E+01
   -189.489  0.0000E+00  0.2000E+01
   -188.500  0.0000E+00  0.2000E+01
   -187.511  0.0000E+00  0.2000E+01
   -186.521  0.0000E+00  0.2000E+01
   -185.532  0.0000E+00  0.2000E+01
   -184.543  0.0000E+00  0.2000E+01
   -183.553  0.0000E+00  0.2000E+01
   -182.564  0.0000E+00  0.2000E+01
   -181.575  0.0000E+00  0.2000E+01
   -180.586  0.0000E+00  0.2000E+01
   -179.596  0.0000E+00  0.2000E+01
   -178.607  0.0000E+00  0.2000E+01
   -177.618  0.0000E+00  0.2000E+01
   -176.628  0.0000E+00  0.2000E+01
   -175.639  0.0000E+00  0.2000E+01
   -174.650  0.0000E+00  0.2000E+01
   -173.661  0.0000E+00  0.2000E+01
   -172.671  0.0000E+00  0.2000E+01
   -171.682  0.0000E+00  0.2000E+01
   -170.693  0.0000E+00  0.2000E+01
   -169.703  0.0000E+00  0.2000E+01
   -168.714  0.0000E+00  0.2000E+01
   -167.725  0.0000E+00  0.2000E+01
   -166.735  0.0000E+00  0.2000E+01
   -165.746  0.0000E+00  0.2000E+01
   -164.757  0.0000E+00  0.2000E+01
   -163.768  0.0000E+00  0.2000E+01
   -162.778  0.0000E+00  0.2000E+01
   -161.789  0.0000E+00  0.2000E+01
   -160.800  0.0000E+00  0.2000E+01
   -159.810  0.0000E+00  0.2000E+01
   -158.821  0.0000E+00  0.2000E+01
   -157.832  0.0000E+00  0.2000E+01
   -156.843  0.0000E+00  0.2000E+01
   -155.853  0.0000E+00  0.2000E+01
   -154.864  0.0000E+00  0.2000E+01
   -153.875  0.0000E+00  0.2000E+01
   -152.885  0.0000E+00  0.2000E+01
   -151.896  0.0000E+00  0.2000E+01
   -150.907  0.0000E+00  0.2000E+01
   -149.917  0.0000E+00  0.2000E+01
   -148.928  0.0000E+00  0.2000E+01
   -147.939  0.0000E+00  0.2000E+01
   -146.950  0.0000E+00  0.2000E+01
   -145.960  0.0000E+00  0.2000E+01
   -144.971  0.0000E+00  0.2000E+01
   -143.982  0.0000E+00  0.2000E+01
   -142.992  0.0000E+00  0.2000E+01
   -142.003  0.0000E+00  0.2000E+01
   -141.014  0.0000E+00  0.2000E+01
   -140.025  0.0000E+00  0.2000E+01
   -139.035  0.0000E+00  0.2000E+01
   -138.046  0.0000E+00  0.2037E+01
   -137.057  0.0000E+00  0.4000E+01
   -136.067  0.0000E+00  0.4000E+01
   -135.078  0.0000E+00  0.4000E+01
   -134.089  0.0000E+00  0.4000E+01
   -133.099  0.0000E+00  0.4000E+01
   -132.110  0.0000E+00  0.4000E+01
   -131.121  0.0000E+00  0.4000E+01
   -130.132  0.0000E+00  0.4000E+01
   -129.142  0.0000E+00  0.4000E+01
   -128.153  0.0000E+00  0.4000E+01
   -127.164  0.0000E+00  0.4000E+01
   -126.174  0.0000E+00  0.4000E+01
   -125.185  0.0000E+00  0.4000E+01
   -124.196  0.0000E+00  0.4000E+01
   -123.207  0.0000E+00  0.4000E+01
   -122.217  0.0000E+00  0.4000E+01
   -121.228  0.0000E+00  0.4000E+01
   -120.239  0.0000E+00  0.4000E+01
   -119.249  0.0000E+00  0.4000E+01
   -118.260  0.0000E+00  0.4000E+01
   -117.271  0.0000E+00  0.4000E+01
   -116.281  0.0000E+00  0.4000E+01
   -115.292  0.0000E+00  0.4000E+01
   -114.303  0.0000E+00  0.4000E+01
   -113.314  0.0000E+00  0.4000E+01
   -112.324  0.0000E+00  0.4000E+01
   -111.335  0.0000E+00  0.4000E+01
   -110.346  0.0000E+00  0.4000E+01
   -109.356  0.0000E+00  0.4000E+01
   -108.367  0.0000E+00  0.4000E+01
   -107.378  0.0000E+00  0.4000E+01
   -106.389  0.0000E+00  0.4000E+01
   -105.399  0.0000E+00  0.4000E+01
   -104.410  0.0000E+00  0.4000E+01
   -103.421  0.0000E+00  0.4000E+01
   -102.431  0.0000E+00  0.4000E+01
   -101.442  0.0000E+00  0.4000E+01
   -100.453  0.0000E+00  0.4000E+01
    -99.463  0.0000E+00  0.4000E+01
    -98.474  0.0000E+00  0.4000E+01
    -97.485  0.0000E+00  0.4000E+01
    -96.496  0.0000E+00  0.4000E+01
    -95.506  0.0000E+00  0.4000E+01
    -94.517  0.0000E+00  0.4000E+01
    -93.528  0.0000E+00  0.4000E+01
    -92.538  0.0000E+00  0.4000E+01
    -91.549  0.0000E+00  0.4000E+01
    -90.560  0.0000E+00  0.4000E+01
    -89.571  0.0000E+00  0.8000E+01
    -88.581  0.0000E+00  0.8000E+01
    -87.592  0.0000E+00  0.8000E+01
    -86.603  0.0000E+00  0.8000E+01
    -85.613  0.0000E+00  0.8000E+01
    -84.624  0.0000E+00  0.8000E+01
    -83.635  0.0000E+00  0.8000E+01
    -82.645  0.0000E+00  0.8000E+01
    -81.656  0.0000E+00  0.8000E+01
    -80.667  0.0000E+00  0.8000E+01
    -79.678  0.0000E+00  0.8000E+01
    -78.688  0.0000E+00  0.8000E+01
    -77.699  0.0000E+00  0.8000E+01
    -76.710  0.0000E+00  0.8000E+01
    -75.720  0.0000E+00  0.8000E+01
    -74.731  0.0000E+00  0.8000E+01
    -73.742  0.0000E+00  0.8000E+01
    -72.753  0.0000E+00  0.8000E+01
    -71.763  0.0000E+00  0.8000E+01
    -70.774  0.0000E+00  0.8000E+01
    -69.785  0.0000E+00  0.8000E+01
    -68.795  0.0000E+00  0.8000E+01
    -67.806  0.0000E+00  0.8000E+01
    -66.817  0.0000E+00  0.8000E+01
    -65.827  0.0000E+00  0.8000E+01
    -64.838  0.0000E+00  0.8000E+01
    -63.849  0.0000E+00  0.8000E+01
    -62.860  0.0000E+00  0.8000E+01
    -61.870  0.0000E+00  0.8000E+01
    -60.881  0.0000E+00  0.8000E+01
    -59.892  0.0000E+00  0.8000E+01
    -58.902  0.0000E+00  0.8000E+01
    -57.913  0.0000E+00  0.8000E+01
    -56.924  0.0000E+00  0.8000E+01
    -55.935  0.0000E+00  0.8000E+01
    -54.945  0.0000E+00  0.8000E+01
    -53.956  0.0000E+00  0.8000E+01
    -52.967  0.0000E+00  0.8000E+01
    -51.977  0.0000E+00  0.8000E+01
    -50.988  0.0000E+00  0.8000E+01
    -49.999  0.0000E+00  0.8000E+01
    -49.009  0.0000E+00  0.8000E+01
    -48.020  0.0000E+00  0.8000E+01
    -47.031  0.0000E+00  0.8000E+01
    -46.042  0.0000E+00  0.8000E+01
    -45.052  0.0000E+00  0.8000E+01
    -44.063  0.0000E+00  0.8000E+01
    -43.074  0.0000E+00  0.8000E+01
    -42.084  0.0000E+00  0.8000E+01
    -41.095  0.0000E+00  0.8000E+01
    -40.106  0.0000E+00  0.8000E+01
    -39.117  0.0000E+00  0.8000E+01
    -38.127  0.0000E+00  0.8000E+01
    -37.138  0.0000E+00  0.8000E+01
    -36.149  0.0000E+00  0.8000E+01
    -35.159  0.0000E+00  0.8000E+01
    -34.170  0.0000E+00  0.8000E+01
    -33.181  0.0000E+00  0.1200E+02
    -32.191  0.0000E+00  0.1200E+02
    -31.202  0.0000E+00  0.1200E+02
    -30.213  0.0000E+00  0.1200E+02
    -29.224  0.0000E+00  0.1200E+02
    -28.234  0.0000E+00  0.1200E+02
    -27.245  0.0000E+00  0.1200E+02
    -26.256  0.0000E+00  0.1200E+02
    -25.266  0.0000E+00  0.1800E+02
    -24.277  0.0000E+00  0.1800E+02
    -23.288  0.0000E+00  0.1800E+02
    -22.299  0.0000E+00  0.1800E+02
    -21.309  0.1123E+00  0.1825E+02
    -20.320  0.0000E+00  0.2000E+02
    -19.331  0.0000E+00  0.2000E+02
    -18.341  0.0000E+00  0.2000E+02
    -17.352  0.0000E+00  0.2000E+02
    -16.363  0.0000E+00  0.2000E+02
    -15.374  0.0000E+00  0.2000E+02
    -14.384  0.0000E+00  0.2000E+02
    -13.395  0.0000E+00  0.2000E+02
    -12.406  0.0000E+00  0.2000E+02
    -11.416  0.0000E+00  0.2000E+02
    -10.427  0.0000E+00  0.2000E+02
     -9.438  0.0000E+00  0.2000E+02
     -8.448  0.0000E+00  0.2000E+02
     -7.459  0.0000E+00  0.2000E+02
     -6.470  0.0000E+00  0.2000E+02
     -5.481  0.0000E+00  0.2000E+02
     -4.491  0.0000E+00  0.2000E+02
     -3.502  0.0000E+00  0.2175E+02
     -2.513  0.0000E+00  0.2200E+02
     -1.523  0.0000E+00  0.2200E+02
     -0.534  0.0000E+00  0.2200E+02
      0.455  0.0000E+00  0.2200E+02
      1.444  0.0000E+00  0.2375E+02
      2.434  0.0000E+00  0.2491E+02
      3.423  0.0000E+00  0.2591E+02
      4.412  0.0000E+00  0.2601E+02
      5.402  0.0000E+00  0.2608E+02
      6.391  0.0000E+00  0.2628E+02
      7.380  0.0000E+00  0.2733E+02
      8.370  0.0000E+00  0.2808E+02
      9.359  0.0000E+00  0.2981E+02
     10.348  0.0000E+00  0.3053E+02
     11.337  0.0000E+00  0.3297E+02
     12.327  0.0000E+00  0.3420E+02
     13.316  0.1123E+00  0.3631E+02
     14.305  0.0000E+00  0.3825E+02
     15.295  0.0000E+00  0.3957E+02
     16.284  0.0000E+00  0.4174E+02
     17.273  0.0000E+00  0.4358E+02
     18.262  0.0000E+00  0.4798E+02
     19.252  0.0000E+00  0.5136E+02
     20.241  0.0000E+00  0.5356E+02
     21.230  0.0000E+00  0.5441E+02
     22.220  0.0000E+00  0.5560E+02
     23.209  0.0000E+00  0.5706E+02
     24.198  0.2246E+00  0.6074E+02
     25.188  0.4831E-04  0.6395E+02
     26.177  0.5616E-01  0.6567E+02
     27.166  0.0000E+00  0.6777E+02
     28.155  0.0000E+00  0.6969E+02
     29.145  0.4575E-06  0.7155E+02
     30.134  0.5041E-01  0.7355E+02
     31.123  0.0000E+00  0.7644E+02
     32.113  0.2456E-03  0.7975E+02
     33.102  0.0000E+00  0.8183E+02
     34.091  0.0000E+00  0.8364E+02
     35.080  0.0000E+00  0.8724E+02
     36.070  0.0000E+00  0.9021E+02
     37.059  0.0000E+00  0.9191E+02
     38.048  0.1113E+00  0.9401E+02
     39.038  0.0000E+00  0.9712E+02
     40.027  0.0000E+00  0.9919E+02
     41.016  0.1022E+00  0.1027E+03
     42.006  0.0000E+00  0.1057E+03
     42.995  0.0000E+00  0.1079E+03
     43.984  0.0000E+00  0.1104E+03
     44.973  0.0000E+00  0.1137E+03
     45.963  0.7488E-01  0.1167E+03
     46.952  0.0000E+00  0.1194E+03
     47.941  0.0000E+00  0.1223E+03
     48.931  0.0000E+00  0.1246E+03
     49.920  0.0000E+00  0.1276E+03
     50.909  0.0000E+00  0.1280E+03
     51.898  0.0000E+00  0.1280E+03
     52.888  0.0000E+00  0.1280E+03
     53.877  0.0000E+00  0.1280E+03
     54.866  0.0000E+00  0.1280E+03
     55.856  0.0000E+00  0.1280E+03
     56.845  0.0000E+00  0.1280E+03
     57.834  0.0000E+00  0.1280E+03
     58.824  0.0000E+00  0.1280E+03
     59.813  0.0000E+00  0.1280E+03
     60.802  0.0000E+00  0.1280E+03
     61.791  0.0000E+00  0.1280E+03
     62.781  0.0000E+00  0.1280E+03
     63.770  0.0000E+00  0.1280E+03
