       N       E                     dE             d eps       ncg     rms          rms(c)
DIA:   1    -0.158871168595E+02   -0.15887E+02    0.00000E+00     0   0.000E+00
DIA:   2    -0.158871168596E+02   -0.50932E-10    0.00000E+00     0   0.000E+00
DIA:   3    -0.158871168596E+02   -0.90949E-11    0.00000E+00     0   0.000E+00
DIA:   4    -0.158871168596E+02    0.72760E-11    0.00000E+00     0   0.000E+00
DIA:   5    -0.158871168596E+02    0.14552E-10    0.00000E+00     0   0.000E+00    0.642E-05
DIA:   6    -0.158871168679E+02   -0.83473E-08    0.00000E+00     0   0.000E+00
   1 F= -.16310599E+02 E0= -.16310599E+02  d E =-.211136E-07  mag=    -0.0017    -0.0002    -0.0001
 imaginary and real dielectric function
