<?xml version="1.0" encoding="ISO-8859-1"?>
<modeling>
 <generator>
  <i name="program" type="string">vasp </i>
  <i name="version" type="string">5.4.4.18Apr17-6-g9f103f2a35  </i>
  <i name="subversion" type="string">(build Nov 03 2018 10:20:46) complex            parallel </i>
  <i name="platform" type="string">LinuxIFC </i>
  <i name="date" type="string">2019 01 03 </i>
  <i name="time" type="string">10:21:44 </i>
 </generator>
 <incar>
  <i type="string" name="SYSTEM">   Og_FCC</i>
  <i type="string" name="PREC">accurate</i>
  <i type="string" name="ALGO">   EXACT</i>
  <i type="logical" name="ADDGRID"> T  </i>
  <i type="logical" name="LSORBIT"> T  </i>
  <i type="int" name="ISPIN">     1</i>
  <i type="int" name="MAXMIX">    50</i>
  <i type="int" name="NELM">    50</i>
  <i type="int" name="NELMDL">    -5</i>
  <i type="int" name="NELMIN">     2</i>
  <i type="int" name="IBRION">    -1</i>
  <i type="int" name="NFREE">     5</i>
  <i name="EDIFF">      0.00000001</i>
  <i name="EDIFFG">      0.00001000</i>
  <i type="int" name="NSW">     1</i>
  <i type="int" name="ISIF">     3</i>
  <i type="int" name="ISYM">     0</i>
  <i name="SYMPREC">      0.00000010</i>
  <i name="ENCUT">    300.00000000</i>
  <i type="int" name="NBANDS">   128</i>
  <i name="POTIM">      0.10000000</i>
  <i type="logical" name="LREAL"> F  </i>
  <i type="int" name="ISMEAR">     0</i>
  <i name="SIGMA">      0.00100000</i>
  <i type="int" name="NWRITE">     2</i>
  <i type="logical" name="LWAVE"> T  </i>
  <i type="logical" name="LCHARG"> F  </i>
  <i type="logical" name="LVTOT"> F  </i>
  <i type="logical" name="LOPTICS"> T  </i>
  <i type="logical" name="GGA_COMPAT"> F  </i>
  <v type="int" name="KPOINT_BSE">    -1     0     0     0</v>
  <i type="int" name="NELM">    50</i>
  <i type="string" name="GGA"> PE</i>
 </incar>
 <structure name="primitive_cell" >
  <crystal>
   <varray name="basis" >
    <v>       4.39635018       0.00000000       0.00000000 </v>
    <v>       2.19817509       3.80735094      -0.00000000 </v>
    <v>       2.19817509       1.26911698       3.58960489 </v>
   </varray>
   <i name="volume">     60.08441465 </i>
   <varray name="rec_basis" >
    <v>       0.22746141      -0.13132490      -0.09286073 </v>
    <v>       0.00000000       0.26264981      -0.09286073 </v>
    <v>      -0.00000000       0.00000000       0.27858219 </v>
   </varray>
  </crystal>
  <varray name="positions" >
   <v>       0.00000000       0.00000000       0.00000000 </v>
  </varray>
 </structure>
 <varray name="primitive_index" >
  <v type="int" >        1 </v>
 </varray>
 <kpoints>
  <generation param="Gamma">
   <v type="int" name="divisions">       6        6        6 </v>
   <v name="usershift">      0.00000000       0.00000000       0.00000000 </v>
   <v name="genvec1">      0.16666667       0.00000000       0.00000000 </v>
   <v name="genvec2">      0.00000000       0.16666667       0.00000000 </v>
   <v name="genvec3">      0.00000000      -0.00000000       0.16666667 </v>
   <v name="shift">      0.00000000       0.00000000       0.00000000 </v>
  </generation>
  <varray name="kpointlist" >
   <v>       0.00000000       0.00000000       0.00000000 </v>
   <v>       0.16666667      -0.00000000      -0.00000000 </v>
   <v>       0.33333333      -0.00000000       0.00000000 </v>
   <v>       0.50000000      -0.00000000       0.00000000 </v>
   <v>      -0.33333333       0.00000000      -0.00000000 </v>
   <v>      -0.16666667       0.00000000       0.00000000 </v>
   <v>      -0.00000000       0.16666667       0.00000000 </v>
   <v>       0.16666667       0.16666667       0.00000000 </v>
   <v>       0.33333333       0.16666667       0.00000000 </v>
   <v>       0.50000000       0.16666667       0.00000000 </v>
   <v>      -0.33333333       0.16666667      -0.00000000 </v>
   <v>      -0.16666667       0.16666667      -0.00000000 </v>
   <v>      -0.00000000       0.33333333      -0.00000000 </v>
   <v>       0.16666667       0.33333333      -0.00000000 </v>
   <v>       0.33333333       0.33333333       0.00000000 </v>
   <v>       0.50000000       0.33333333      -0.00000000 </v>
   <v>      -0.33333333       0.33333333      -0.00000000 </v>
   <v>      -0.16666667       0.33333333      -0.00000000 </v>
   <v>       0.00000000       0.50000000      -0.00000000 </v>
   <v>       0.16666667       0.50000000      -0.00000000 </v>
   <v>       0.33333333       0.50000000       0.00000000 </v>
   <v>       0.50000000       0.50000000       0.00000000 </v>
   <v>      -0.33333333       0.50000000      -0.00000000 </v>
   <v>      -0.16666667       0.50000000      -0.00000000 </v>
   <v>       0.00000000      -0.33333333       0.00000000 </v>
   <v>       0.16666667      -0.33333333       0.00000000 </v>
   <v>       0.33333333      -0.33333333       0.00000000 </v>
   <v>       0.50000000      -0.33333333       0.00000000 </v>
   <v>      -0.33333333      -0.33333333      -0.00000000 </v>
   <v>      -0.16666667      -0.33333333       0.00000000 </v>
   <v>       0.00000000      -0.16666667       0.00000000 </v>
   <v>       0.16666667      -0.16666667       0.00000000 </v>
   <v>       0.33333333      -0.16666667       0.00000000 </v>
   <v>       0.50000000      -0.16666667       0.00000000 </v>
   <v>      -0.33333333      -0.16666667       0.00000000 </v>
   <v>      -0.16666667      -0.16666667       0.00000000 </v>
   <v>       0.00000000       0.00000000       0.16666667 </v>
   <v>       0.16666667      -0.00000000       0.16666667 </v>
   <v>       0.33333333      -0.00000000       0.16666667 </v>
   <v>       0.50000000      -0.00000000       0.16666667 </v>
   <v>      -0.33333333       0.00000000       0.16666667 </v>
   <v>      -0.16666667       0.00000000       0.16666667 </v>
   <v>      -0.00000000       0.16666667       0.16666667 </v>
   <v>       0.16666667       0.16666667       0.16666667 </v>
   <v>       0.33333333       0.16666667       0.16666667 </v>
   <v>       0.50000000       0.16666667       0.16666667 </v>
   <v>      -0.33333333       0.16666667       0.16666667 </v>
   <v>      -0.16666667       0.16666667       0.16666667 </v>
   <v>       0.00000000       0.33333333       0.16666667 </v>
   <v>       0.16666667       0.33333333       0.16666667 </v>
   <v>       0.33333333       0.33333333       0.16666667 </v>
   <v>       0.50000000       0.33333333       0.16666667 </v>
   <v>      -0.33333333       0.33333333       0.16666667 </v>
   <v>      -0.16666667       0.33333333       0.16666667 </v>
   <v>       0.00000000       0.50000000       0.16666667 </v>
   <v>       0.16666667       0.50000000       0.16666667 </v>
   <v>       0.33333333       0.50000000       0.16666667 </v>
   <v>       0.50000000       0.50000000       0.16666667 </v>
   <v>      -0.33333333       0.50000000       0.16666667 </v>
   <v>      -0.16666667       0.50000000       0.16666667 </v>
   <v>       0.00000000      -0.33333333       0.16666667 </v>
   <v>       0.16666667      -0.33333333       0.16666667 </v>
   <v>       0.33333333      -0.33333333       0.16666667 </v>
   <v>       0.50000000      -0.33333333       0.16666667 </v>
   <v>      -0.33333333      -0.33333333       0.16666667 </v>
   <v>      -0.16666667      -0.33333333       0.16666667 </v>
   <v>       0.00000000      -0.16666667       0.16666667 </v>
   <v>       0.16666667      -0.16666667       0.16666667 </v>
   <v>       0.33333333      -0.16666667       0.16666667 </v>
   <v>       0.50000000      -0.16666667       0.16666667 </v>
   <v>      -0.33333333      -0.16666667       0.16666667 </v>
   <v>      -0.16666667      -0.16666667       0.16666667 </v>
   <v>       0.00000000       0.00000000       0.33333333 </v>
   <v>       0.16666667      -0.00000000       0.33333333 </v>
   <v>       0.33333333      -0.00000000       0.33333333 </v>
   <v>       0.50000000      -0.00000000       0.33333333 </v>
   <v>      -0.33333333       0.00000000       0.33333333 </v>
   <v>      -0.16666667       0.00000000       0.33333333 </v>
   <v>      -0.00000000       0.16666667       0.33333333 </v>
   <v>       0.16666667       0.16666667       0.33333333 </v>
   <v>       0.33333333       0.16666667       0.33333333 </v>
   <v>       0.50000000       0.16666667       0.33333333 </v>
   <v>      -0.33333333       0.16666667       0.33333333 </v>
   <v>      -0.16666667       0.16666667       0.33333333 </v>
   <v>       0.00000000       0.33333333       0.33333333 </v>
   <v>       0.16666667       0.33333333       0.33333333 </v>
   <v>       0.33333333       0.33333333       0.33333333 </v>
   <v>       0.50000000       0.33333333       0.33333333 </v>
   <v>      -0.33333333       0.33333333       0.33333333 </v>
   <v>      -0.16666667       0.33333333       0.33333333 </v>
   <v>       0.00000000       0.50000000       0.33333333 </v>
   <v>       0.16666667       0.50000000       0.33333333 </v>
   <v>       0.33333333       0.50000000       0.33333333 </v>
   <v>       0.50000000       0.50000000       0.33333333 </v>
   <v>      -0.33333333       0.50000000       0.33333333 </v>
   <v>      -0.16666667       0.50000000       0.33333333 </v>
   <v>      -0.00000000      -0.33333333       0.33333333 </v>
   <v>       0.16666667      -0.33333333       0.33333333 </v>
   <v>       0.33333333      -0.33333333       0.33333333 </v>
   <v>       0.50000000      -0.33333333       0.33333333 </v>
   <v>      -0.33333333      -0.33333333       0.33333333 </v>
   <v>      -0.16666667      -0.33333333       0.33333333 </v>
   <v>       0.00000000      -0.16666667       0.33333333 </v>
   <v>       0.16666667      -0.16666667       0.33333333 </v>
   <v>       0.33333333      -0.16666667       0.33333333 </v>
   <v>       0.50000000      -0.16666667       0.33333333 </v>
   <v>      -0.33333333      -0.16666667       0.33333333 </v>
   <v>      -0.16666667      -0.16666667       0.33333333 </v>
   <v>       0.00000000       0.00000000       0.50000000 </v>
   <v>       0.16666667       0.00000000       0.50000000 </v>
   <v>       0.33333333      -0.00000000       0.50000000 </v>
   <v>       0.50000000      -0.00000000       0.50000000 </v>
   <v>      -0.33333333       0.00000000       0.50000000 </v>
   <v>      -0.16666667       0.00000000       0.50000000 </v>
   <v>      -0.00000000       0.16666667       0.50000000 </v>
   <v>       0.16666667       0.16666667       0.50000000 </v>
   <v>       0.33333333       0.16666667       0.50000000 </v>
   <v>       0.50000000       0.16666667       0.50000000 </v>
   <v>      -0.33333333       0.16666667       0.50000000 </v>
   <v>      -0.16666667       0.16666667       0.50000000 </v>
   <v>       0.00000000       0.33333333       0.50000000 </v>
   <v>       0.16666667       0.33333333       0.50000000 </v>
   <v>       0.33333333       0.33333333       0.50000000 </v>
   <v>       0.50000000       0.33333333       0.50000000 </v>
   <v>      -0.33333333       0.33333333       0.50000000 </v>
   <v>      -0.16666667       0.33333333       0.50000000 </v>
   <v>       0.00000000       0.50000000       0.50000000 </v>
   <v>       0.16666667       0.50000000       0.50000000 </v>
   <v>       0.33333333       0.50000000       0.50000000 </v>
   <v>       0.50000000       0.50000000       0.50000000 </v>
   <v>      -0.33333333       0.50000000       0.50000000 </v>
   <v>      -0.16666667       0.50000000       0.50000000 </v>
   <v>       0.00000000      -0.33333333       0.50000000 </v>
   <v>       0.16666667      -0.33333333       0.50000000 </v>
   <v>       0.33333333      -0.33333333       0.50000000 </v>
   <v>       0.50000000      -0.33333333       0.50000000 </v>
   <v>      -0.33333333      -0.33333333       0.50000000 </v>
   <v>      -0.16666667      -0.33333333       0.50000000 </v>
   <v>       0.00000000      -0.16666667       0.50000000 </v>
   <v>       0.16666667      -0.16666667       0.50000000 </v>
   <v>       0.33333333      -0.16666667       0.50000000 </v>
   <v>       0.50000000      -0.16666667       0.50000000 </v>
   <v>      -0.33333333      -0.16666667       0.50000000 </v>
   <v>      -0.16666667      -0.16666667       0.50000000 </v>
   <v>       0.00000000      -0.00000000      -0.33333333 </v>
   <v>       0.16666667      -0.00000000      -0.33333333 </v>
   <v>       0.33333333      -0.00000000      -0.33333333 </v>
   <v>       0.50000000      -0.00000000      -0.33333333 </v>
   <v>      -0.33333333       0.00000000      -0.33333333 </v>
   <v>      -0.16666667       0.00000000      -0.33333333 </v>
   <v>      -0.00000000       0.16666667      -0.33333333 </v>
   <v>       0.16666667       0.16666667      -0.33333333 </v>
   <v>       0.33333333       0.16666667      -0.33333333 </v>
   <v>       0.50000000       0.16666667      -0.33333333 </v>
   <v>      -0.33333333       0.16666667      -0.33333333 </v>
   <v>      -0.16666667       0.16666667      -0.33333333 </v>
   <v>       0.00000000       0.33333333      -0.33333333 </v>
   <v>       0.16666667       0.33333333      -0.33333333 </v>
   <v>       0.33333333       0.33333333      -0.33333333 </v>
   <v>       0.50000000       0.33333333      -0.33333333 </v>
   <v>      -0.33333333       0.33333333      -0.33333333 </v>
   <v>      -0.16666667       0.33333333      -0.33333333 </v>
   <v>       0.00000000       0.50000000      -0.33333333 </v>
   <v>       0.16666667       0.50000000      -0.33333333 </v>
   <v>       0.33333333       0.50000000      -0.33333333 </v>
   <v>       0.50000000       0.50000000      -0.33333333 </v>
   <v>      -0.33333333       0.50000000      -0.33333333 </v>
   <v>      -0.16666667       0.50000000      -0.33333333 </v>
   <v>       0.00000000      -0.33333333      -0.33333333 </v>
   <v>       0.16666667      -0.33333333      -0.33333333 </v>
   <v>       0.33333333      -0.33333333      -0.33333333 </v>
   <v>       0.50000000      -0.33333333      -0.33333333 </v>
   <v>      -0.33333333      -0.33333333      -0.33333333 </v>
   <v>      -0.16666667      -0.33333333      -0.33333333 </v>
   <v>       0.00000000      -0.16666667      -0.33333333 </v>
   <v>       0.16666667      -0.16666667      -0.33333333 </v>
   <v>       0.33333333      -0.16666667      -0.33333333 </v>
   <v>       0.50000000      -0.16666667      -0.33333333 </v>
   <v>      -0.33333333      -0.16666667      -0.33333333 </v>
   <v>      -0.16666667      -0.16666667      -0.33333333 </v>
   <v>       0.00000000      -0.00000000      -0.16666667 </v>
   <v>       0.16666667      -0.00000000      -0.16666667 </v>
   <v>       0.33333333      -0.00000000      -0.16666667 </v>
   <v>       0.50000000      -0.00000000      -0.16666667 </v>
   <v>      -0.33333333       0.00000000      -0.16666667 </v>
   <v>      -0.16666667       0.00000000      -0.16666667 </v>
   <v>       0.00000000       0.16666667      -0.16666667 </v>
   <v>       0.16666667       0.16666667      -0.16666667 </v>
   <v>       0.33333333       0.16666667      -0.16666667 </v>
   <v>       0.50000000       0.16666667      -0.16666667 </v>
   <v>      -0.33333333       0.16666667      -0.16666667 </v>
   <v>      -0.16666667       0.16666667      -0.16666667 </v>
   <v>       0.00000000       0.33333333      -0.16666667 </v>
   <v>       0.16666667       0.33333333      -0.16666667 </v>
   <v>       0.33333333       0.33333333      -0.16666667 </v>
   <v>       0.50000000       0.33333333      -0.16666667 </v>
   <v>      -0.33333333       0.33333333      -0.16666667 </v>
   <v>      -0.16666667       0.33333333      -0.16666667 </v>
   <v>       0.00000000       0.50000000      -0.16666667 </v>
   <v>       0.16666667       0.50000000      -0.16666667 </v>
   <v>       0.33333333       0.50000000      -0.16666667 </v>
   <v>       0.50000000       0.50000000      -0.16666667 </v>
   <v>      -0.33333333       0.50000000      -0.16666667 </v>
   <v>      -0.16666667       0.50000000      -0.16666667 </v>
   <v>      -0.00000000      -0.33333333      -0.16666667 </v>
   <v>       0.16666667      -0.33333333      -0.16666667 </v>
   <v>       0.33333333      -0.33333333      -0.16666667 </v>
   <v>       0.50000000      -0.33333333      -0.16666667 </v>
   <v>      -0.33333333      -0.33333333      -0.16666667 </v>
   <v>      -0.16666667      -0.33333333      -0.16666667 </v>
   <v>       0.00000000      -0.16666667      -0.16666667 </v>
   <v>       0.16666667      -0.16666667      -0.16666667 </v>
   <v>       0.33333333      -0.16666667      -0.16666667 </v>
   <v>       0.50000000      -0.16666667      -0.16666667 </v>
   <v>      -0.33333333      -0.16666667      -0.16666667 </v>
   <v>      -0.16666667      -0.16666667      -0.16666667 </v>
  </varray>
  <varray name="weights" >
   <v>       0.00462963 </v>
   <v>       0.00462963 </v>
   <v>       0.00462963 </v>
   <v>       0.00462963 </v>
   <v>       0.00462963 </v>
   <v>       0.00462963 </v>
   <v>       0.00462963 </v>
   <v>       0.00462963 </v>
   <v>       0.00462963 </v>
   <v>       0.00462963 </v>
   <v>       0.00462963 </v>
   <v>       0.00462963 </v>
   <v>       0.00462963 </v>
   <v>       0.00462963 </v>
   <v>       0.00462963 </v>
   <v>       0.00462963 </v>
   <v>       0.00462963 </v>
   <v>       0.00462963 </v>
   <v>       0.00462963 </v>
   <v>       0.00462963 </v>
   <v>       0.00462963 </v>
   <v>       0.00462963 </v>
   <v>       0.00462963 </v>
   <v>       0.00462963 </v>
   <v>       0.00462963 </v>
   <v>       0.00462963 </v>
   <v>       0.00462963 </v>
   <v>       0.00462963 </v>
   <v>       0.00462963 </v>
   <v>       0.00462963 </v>
   <v>       0.00462963 </v>
   <v>       0.00462963 </v>
   <v>       0.00462963 </v>
   <v>       0.00462963 </v>
   <v>       0.00462963 </v>
   <v>       0.00462963 </v>
   <v>       0.00462963 </v>
   <v>       0.00462963 </v>
   <v>       0.00462963 </v>
   <v>       0.00462963 </v>
   <v>       0.00462963 </v>
   <v>       0.00462963 </v>
   <v>       0.00462963 </v>
   <v>       0.00462963 </v>
   <v>       0.00462963 </v>
   <v>       0.00462963 </v>
   <v>       0.00462963 </v>
   <v>       0.00462963 </v>
   <v>       0.00462963 </v>
   <v>       0.00462963 </v>
   <v>       0.00462963 </v>
   <v>       0.00462963 </v>
   <v>       0.00462963 </v>
   <v>       0.00462963 </v>
   <v>       0.00462963 </v>
   <v>       0.00462963 </v>
   <v>       0.00462963 </v>
   <v>       0.00462963 </v>
   <v>       0.00462963 </v>
   <v>       0.00462963 </v>
   <v>       0.00462963 </v>
   <v>       0.00462963 </v>
   <v>       0.00462963 </v>
   <v>       0.00462963 </v>
   <v>       0.00462963 </v>
   <v>       0.00462963 </v>
   <v>       0.00462963 </v>
   <v>       0.00462963 </v>
   <v>       0.00462963 </v>
   <v>       0.00462963 </v>
   <v>       0.00462963 </v>
   <v>       0.00462963 </v>
   <v>       0.00462963 </v>
   <v>       0.00462963 </v>
   <v>       0.00462963 </v>
   <v>       0.00462963 </v>
   <v>       0.00462963 </v>
   <v>       0.00462963 </v>
   <v>       0.00462963 </v>
   <v>       0.00462963 </v>
   <v>       0.00462963 </v>
   <v>       0.00462963 </v>
   <v>       0.00462963 </v>
   <v>       0.00462963 </v>
   <v>       0.00462963 </v>
   <v>       0.00462963 </v>
   <v>       0.00462963 </v>
   <v>       0.00462963 </v>
   <v>       0.00462963 </v>
   <v>       0.00462963 </v>
   <v>       0.00462963 </v>
   <v>       0.00462963 </v>
   <v>       0.00462963 </v>
   <v>       0.00462963 </v>
   <v>       0.00462963 </v>
   <v>       0.00462963 </v>
   <v>       0.00462963 </v>
   <v>       0.00462963 </v>
   <v>       0.00462963 </v>
   <v>       0.00462963 </v>
   <v>       0.00462963 </v>
   <v>       0.00462963 </v>
   <v>       0.00462963 </v>
   <v>       0.00462963 </v>
   <v>       0.00462963 </v>
   <v>       0.00462963 </v>
   <v>       0.00462963 </v>
   <v>       0.00462963 </v>
   <v>       0.00462963 </v>
   <v>       0.00462963 </v>
   <v>       0.00462963 </v>
   <v>       0.00462963 </v>
   <v>       0.00462963 </v>
   <v>       0.00462963 </v>
   <v>       0.00462963 </v>
   <v>       0.00462963 </v>
   <v>       0.00462963 </v>
   <v>       0.00462963 </v>
   <v>       0.00462963 </v>
   <v>       0.00462963 </v>
   <v>       0.00462963 </v>
   <v>       0.00462963 </v>
   <v>       0.00462963 </v>
   <v>       0.00462963 </v>
   <v>       0.00462963 </v>
   <v>       0.00462963 </v>
   <v>       0.00462963 </v>
   <v>       0.00462963 </v>
   <v>       0.00462963 </v>
   <v>       0.00462963 </v>
   <v>       0.00462963 </v>
   <v>       0.00462963 </v>
   <v>       0.00462963 </v>
   <v>       0.00462963 </v>
   <v>       0.00462963 </v>
   <v>       0.00462963 </v>
   <v>       0.00462963 </v>
   <v>       0.00462963 </v>
   <v>       0.00462963 </v>
   <v>       0.00462963 </v>
   <v>       0.00462963 </v>
   <v>       0.00462963 </v>
   <v>       0.00462963 </v>
   <v>       0.00462963 </v>
   <v>       0.00462963 </v>
   <v>       0.00462963 </v>
   <v>       0.00462963 </v>
   <v>       0.00462963 </v>
   <v>       0.00462963 </v>
   <v>       0.00462963 </v>
   <v>       0.00462963 </v>
   <v>       0.00462963 </v>
   <v>       0.00462963 </v>
   <v>       0.00462963 </v>
   <v>       0.00462963 </v>
   <v>       0.00462963 </v>
   <v>       0.00462963 </v>
   <v>       0.00462963 </v>
   <v>       0.00462963 </v>
   <v>       0.00462963 </v>
   <v>       0.00462963 </v>
   <v>       0.00462963 </v>
   <v>       0.00462963 </v>
   <v>       0.00462963 </v>
   <v>       0.00462963 </v>
   <v>       0.00462963 </v>
   <v>       0.00462963 </v>
   <v>       0.00462963 </v>
   <v>       0.00462963 </v>
   <v>       0.00462963 </v>
   <v>       0.00462963 </v>
   <v>       0.00462963 </v>
   <v>       0.00462963 </v>
   <v>       0.00462963 </v>
   <v>       0.00462963 </v>
   <v>       0.00462963 </v>
   <v>       0.00462963 </v>
   <v>       0.00462963 </v>
   <v>       0.00462963 </v>
   <v>       0.00462963 </v>
   <v>       0.00462963 </v>
   <v>       0.00462963 </v>
   <v>       0.00462963 </v>
   <v>       0.00462963 </v>
   <v>       0.00462963 </v>
   <v>       0.00462963 </v>
   <v>       0.00462963 </v>
   <v>       0.00462963 </v>
   <v>       0.00462963 </v>
   <v>       0.00462963 </v>
   <v>       0.00462963 </v>
   <v>       0.00462963 </v>
   <v>       0.00462963 </v>
   <v>       0.00462963 </v>
   <v>       0.00462963 </v>
   <v>       0.00462963 </v>
   <v>       0.00462963 </v>
   <v>       0.00462963 </v>
   <v>       0.00462963 </v>
   <v>       0.00462963 </v>
   <v>       0.00462963 </v>
   <v>       0.00462963 </v>
   <v>       0.00462963 </v>
   <v>       0.00462963 </v>
   <v>       0.00462963 </v>
   <v>       0.00462963 </v>
   <v>       0.00462963 </v>
   <v>       0.00462963 </v>
   <v>       0.00462963 </v>
   <v>       0.00462963 </v>
   <v>       0.00462963 </v>
   <v>       0.00462963 </v>
   <v>       0.00462963 </v>
   <v>       0.00462963 </v>
   <v>       0.00462963 </v>
   <v>       0.00462963 </v>
  </varray>
 </kpoints>
 <parameters>
  <separator name="general" >
   <i type="string" name="SYSTEM">Og_FCC</i>
   <i type="logical" name="LCOMPAT"> F  </i>
  </separator>
  <separator name="electronic" >
   <i type="string" name="PREC">accura</i>
   <i name="ENMAX">    300.00000000</i>
   <i name="ENAUG">    440.95700000</i>
   <i name="EDIFF">      0.00000001</i>
   <i type="int" name="IALGO">    90</i>
   <i type="int" name="IWAVPR">    10</i>
   <i type="int" name="NBANDS">   128</i>
   <i name="NELECT">     26.00000000</i>
   <i type="int" name="TURBO">     0</i>
   <i type="int" name="IRESTART">     0</i>
   <i type="int" name="NREBOOT">     0</i>
   <i type="int" name="NMIN">     0</i>
   <i name="EREF">      0.00000000</i>
   <separator name="electronic smearing" >
    <i type="int" name="ISMEAR">     0</i>
    <i name="SIGMA">      0.00100000</i>
    <i name="KSPACING">      0.50000000</i>
    <i type="logical" name="KGAMMA"> T  </i>
   </separator>
   <separator name="electronic projectors" >
    <i type="logical" name="LREAL"> F  </i>
    <v name="ROPT">      0.00000000</v>
    <i type="int" name="LMAXPAW">  -100</i>
    <i type="int" name="LMAXMIX">     2</i>
    <i type="logical" name="NLSPLINE"> F  </i>
   </separator>
   <separator name="electronic startup" >
    <i type="int" name="ISTART">     1</i>
    <i type="int" name="ICHARG">     0</i>
    <i type="int" name="INIWAV">     1</i>
   </separator>
   <separator name="electronic spin" >
    <i type="int" name="ISPIN">     1</i>
    <i type="logical" name="LNONCOLLINEAR"> T  </i>
    <v name="MAGMOM">      1.00000000      1.00000000      1.00000000</v>
    <i name="NUPDOWN">     -1.00000000</i>
    <i type="logical" name="LSORBIT"> T  </i>
    <v name="SAXIS">      0.00000000      0.00000000      1.00000000</v>
    <i type="logical" name="LSPIRAL"> F  </i>
    <v name="QSPIRAL">      0.00000000      0.00000000      0.00000000</v>
    <i type="logical" name="LZEROZ"> F  </i>
   </separator>
   <separator name="electronic exchange-correlation" >
    <i type="logical" name="LASPH"> F  </i>
    <i type="logical" name="LMETAGGA"> F  </i>
   </separator>
   <separator name="electronic convergence" >
    <i type="int" name="NELM">    50</i>
    <i type="int" name="NELMDL">    -5</i>
    <i type="int" name="NELMIN">     2</i>
    <i name="ENINI">    300.00000000</i>
    <separator name="electronic convergence detail" >
     <i type="logical" name="LDIAG"> T  </i>
     <i type="logical" name="LSUBROT"> F  </i>
     <i name="WEIMIN">      0.00000000</i>
     <i name="EBREAK">      0.00000000</i>
     <i name="DEPER">      0.30000000</i>
     <i type="int" name="NRMM">     4</i>
     <i name="TIME">      0.40000000</i>
    </separator>
   </separator>
   <separator name="electronic mixer" >
    <i name="AMIX">      0.40000000</i>
    <i name="BMIX">      1.00000000</i>
    <i name="AMIN">      0.10000000</i>
    <i name="AMIX_MAG">      1.60000000</i>
    <i name="BMIX_MAG">      1.00000000</i>
    <separator name="electronic mixer details" >
     <i type="int" name="IMIX">     4</i>
     <i type="logical" name="MIXFIRST"> F  </i>
     <i type="int" name="MAXMIX">    50</i>
     <i name="WC">    100.00000000</i>
     <i type="int" name="INIMIX">     1</i>
     <i type="int" name="MIXPRE">     1</i>
     <i type="int" name="MREMOVE">     5</i>
    </separator>
   </separator>
   <separator name="electronic dipolcorrection" >
    <i type="logical" name="LDIPOL"> F  </i>
    <i type="logical" name="LMONO"> F  </i>
    <i type="int" name="IDIPOL">     0</i>
    <i name="EPSILON">      1.00000000</i>
    <v name="DIPOL">   -100.00000000   -100.00000000   -100.00000000</v>
    <i name="EFIELD">      0.00000000</i>
   </separator>
  </separator>
  <separator name="grids" >
   <i type="int" name="NGX">    28</i>
   <i type="int" name="NGY">    28</i>
   <i type="int" name="NGZ">    28</i>
   <i type="int" name="NGXF">    56</i>
   <i type="int" name="NGYF">    56</i>
   <i type="int" name="NGZF">    56</i>
   <i type="logical" name="ADDGRID"> T  </i>
  </separator>
  <separator name="ionic" >
   <i type="int" name="NSW">     1</i>
   <i type="int" name="IBRION">    -1</i>
   <i type="int" name="MDALGO">     0</i>
   <i type="int" name="ISIF">     3</i>
   <i name="PSTRESS">      0.00000000</i>
   <i name="EDIFFG">      0.00001000</i>
   <i type="int" name="NFREE">     5</i>
   <i name="POTIM">      0.10000000</i>
   <i name="SMASS">     -3.00000000</i>
   <i name="SCALEE">      1.00000000</i>
  </separator>
  <separator name="ionic md" >
   <i name="TEBEG">      0.00010000</i>
   <i name="TEEND">      0.00010000</i>
   <i type="int" name="NBLOCK">     1</i>
   <i type="int" name="KBLOCK">     1</i>
   <i type="int" name="NPACO">   256</i>
   <i name="APACO">     16.00000000</i>
  </separator>
  <separator name="symmetry" >
   <i type="int" name="ISYM">     0</i>
   <i name="SYMPREC">      0.00000010</i>
  </separator>
  <separator name="dos" >
   <i type="int" name="LORBIT">     0</i>
   <v name="RWIGS">     -1.00000000</v>
   <i type="int" name="NEDOS">   301</i>
   <i name="EMIN">     10.00000000</i>
   <i name="EMAX">    -10.00000000</i>
   <i name="EFERMI">      0.00000000</i>
  </separator>
  <separator name="writing" >
   <i type="int" name="NWRITE">     2</i>
   <i type="logical" name="LWAVE"> T  </i>
   <i type="logical" name="LDOWNSAMPLE"> F  </i>
   <i type="logical" name="LCHARG"> F  </i>
   <i type="logical" name="LPARD"> F  </i>
   <i type="logical" name="LVTOT"> F  </i>
   <i type="logical" name="LVHAR"> F  </i>
   <i type="logical" name="LELF"> F  </i>
   <i type="logical" name="LOPTICS"> T  </i>
   <v name="STM">      0.00000000      0.00000000      0.00000000      0.00000000      0.00000000      0.00000000      0.00000000</v>
  </separator>
  <separator name="performance" >
   <i type="int" name="NPAR">     4</i>
   <i type="int" name="NSIM">     4</i>
   <i type="int" name="NBLK">    -1</i>
   <i type="logical" name="LPLANE"> T  </i>
   <i type="logical" name="LSCALAPACK"> T  </i>
   <i type="logical" name="LSCAAWARE"> T  </i>
   <i type="logical" name="LSCALU"> F  </i>
   <i type="logical" name="LASYNC"> F  </i>
   <i type="logical" name="LORBITALREAL"> F  </i>
  </separator>
  <separator name="miscellaneous" >
   <i type="int" name="IDIOT">     3</i>
   <i type="int" name="ISPECIAL">     0</i>
   <i type="logical" name="LMUSIC"> F  </i>
   <v name="POMASS">      0.01000000</v>
   <v name="DARWINR">      0.00000000</v>
   <v name="DARWINV">      1.00000000</v>
   <i type="logical" name="LCORR"> T  </i>
  </separator>
  <i type="logical" name="GGA_COMPAT"> F  </i>
  <i type="logical" name="LBERRY"> F  </i>
  <i type="int" name="ICORELEVEL">     0</i>
  <i type="logical" name="LDAU"> F  </i>
  <i type="int" name="I_CONSTRAINED_M">     0</i>
  <separator name="electronic exchange-correlation" >
   <i type="string" name="GGA">PE</i>
   <i type="int" name="VOSKOWN">     0</i>
   <i type="logical" name="LHFCALC"> F  </i>
   <i type="string" name="PRECFOCK"></i>
   <i type="logical" name="LSYMGRAD"> F  </i>
   <i type="logical" name="LHFONE"> F  </i>
   <i type="logical" name="LRHFCALC"> F  </i>
   <i type="logical" name="LTHOMAS"> F  </i>
   <i type="logical" name="LMODELHF"> F  </i>
   <i name="ENCUT4O">     -1.00000000</i>
   <i type="int" name="EXXOEP">     0</i>
   <i type="int" name="FOURORBIT">     0</i>
   <i name="AEXX">      0.00000000</i>
   <i name="HFALPHA">      0.00000000</i>
   <i name="MCALPHA">      0.00000000</i>
   <i name="ALDAX">      1.00000000</i>
   <i name="AGGAX">      1.00000000</i>
   <i name="ALDAC">      1.00000000</i>
   <i name="AGGAC">      1.00000000</i>
   <i type="int" name="NKREDX">     1</i>
   <i type="int" name="NKREDY">     1</i>
   <i type="int" name="NKREDZ">     1</i>
   <i type="logical" name="SHIFTRED"> F  </i>
   <i type="logical" name="ODDONLY"> F  </i>
   <i type="logical" name="EVENONLY"> F  </i>
   <i type="int" name="LMAXFOCK">     0</i>
   <i type="int" name="NMAXFOCKAE">     0</i>
   <i type="logical" name="LFOCKAEDFT"> F  </i>
   <i name="HFSCREEN">      0.00000000</i>
   <i name="HFSCREENC">      0.00000000</i>
   <i type="int" name="NBANDSGWLOW">     0</i>
  </separator>
  <separator name="vdW DFT" >
   <i type="logical" name="LUSE_VDW"> F  </i>
   <i name="Zab_VDW">     -0.84910000</i>
   <i name="PARAM1">      0.12340000</i>
   <i name="PARAM2">      1.00000000</i>
   <i name="PARAM3">      0.00000000</i>
  </separator>
  <separator name="model GW" >
   <i type="int" name="MODEL_GW">     0</i>
   <i name="MODEL_EPS0">     36.05064879</i>
   <i name="MODEL_ALPHA">      1.00000000</i>
  </separator>
  <separator name="linear response parameters" >
   <i type="logical" name="LEPSILON"> F  </i>
   <i type="logical" name="LRPA"> F  </i>
   <i type="logical" name="LNABLA"> F  </i>
   <i type="logical" name="LVEL"> F  </i>
   <i type="int" name="KINTER">     0</i>
   <i name="CSHIFT">      0.10000000</i>
   <i name="OMEGAMAX">     -1.00000000</i>
   <i name="DEG_THRESHOLD">      0.00200000</i>
   <i name="RTIME">     -0.10000000</i>
   <i name="WPLASMAI">      0.00000000</i>
   <v name="DFIELD">      0.00000000      0.00000000      0.00000000</v>
   <v name="WPLASMA">      0.00000000      0.00000000      0.00000000      0.00000000      0.00000000      0.00000000      0.00000000      0.00000000      0.00000000</v>
  </separator>
  <separator name="orbital magnetization" >
   <i type="logical" name="NUCIND"> F  </i>
   <v name="MAGPOS">      0.00000000      0.00000000      0.00000000</v>
   <i type="logical" name="LNICSALL"> T  </i>
   <i type="logical" name="ORBITALMAG"> F  </i>
   <i type="logical" name="LMAGBLOCH"> F  </i>
   <i type="logical" name="LCHIMAG"> F  </i>
   <i type="logical" name="LGAUGE"> T  </i>
   <i type="int" name="MAGATOM">     0</i>
   <v name="MAGDIPOL">      0.00000000      0.00000000      0.00000000</v>
   <v name="AVECCONST">      0.00000000      0.00000000      0.00000000</v>
  </separator>
  <separator name="response functions" >
   <i type="logical" name="LADDER"> F  </i>
   <i type="logical" name="LRPAFORCE"> F  </i>
   <i type="logical" name="LFXC"> F  </i>
   <i type="logical" name="LHARTREE"> T  </i>
   <i type="int" name="IBSE">     0</i>
   <v type="int" name="KPOINT">    -1     0     0     0</v>
   <i type="logical" name="LTCTE"> F  </i>
   <i type="logical" name="LTETE"> F  </i>
   <i type="logical" name="LTRIPLET"> F  </i>
   <i type="logical" name="LFXCEPS"> F  </i>
   <i type="logical" name="LFXHEG"> F  </i>
   <i type="int" name="NATURALO">     2</i>
   <i type="logical" name="L2ORDER"> F  </i>
   <i type="logical" name="LMP2LT"> F  </i>
   <i type="logical" name="LUSEW"> F  </i>
   <i name="ENCUTGW">     -2.00000000</i>
   <i name="ENCUTGWSOFT">     -2.00000000</i>
   <i name="ENCUTLF">     -1.00000000</i>
   <i type="int" name="LMAXMP2">    -1</i>
   <i name="SCISSOR">      0.00000000</i>
   <i type="int" name="NOMEGA">     0</i>
   <i type="int" name="NOMEGAR">     0</i>
   <i type="int" name="NBANDSGW">    -1</i>
   <i type="int" name="NBANDSO">    -1</i>
   <i type="int" name="NBANDSV">    -1</i>
   <i type="int" name="NELM">    50</i>
   <i type="int" name="NELMHF">     1</i>
   <i type="int" name="DIM">     3</i>
   <i type="int" name="ANTIRES">     0</i>
   <i name="OMEGAMAX">    -30.00000000</i>
   <i name="OMEGAMIN">    -30.00000000</i>
   <i name="OMEGATL">   -200.00000000</i>
   <i type="int" name="OMEGAGRID">   140</i>
   <i name="CSHIFT">     -0.10000000</i>
   <i type="logical" name="SELFENERGY"> F  </i>
   <i type="logical" name="LSPECTRAL"> F  </i>
   <i type="logical" name="LSPECTRALGW"> F  </i>
   <i type="logical" name="LSINGLES"> F  </i>
   <i type="logical" name="LFERMIGW"> F  </i>
   <i type="logical" name="ODDONLYGW"> F  </i>
   <i type="logical" name="EVENONLYGW"> F  </i>
   <i type="int" name="NKREDLFX">     1</i>
   <i type="int" name="NKREDLFY">     1</i>
   <i type="int" name="NKREDLFZ">     1</i>
   <i type="int" name="MAXMEM">  2800</i>
   <i type="int" name="TELESCOPE">     0</i>
   <i type="int" name="TAUPAR">     1</i>
   <i type="int" name="OMEGAPAR">    -1</i>
   <i name="LAMBDA">      1.00000000</i>
  </separator>
  <separator name="External order field" >
   <i name="OFIELD_KAPPA">      0.00000000</i>
   <v name="OFIELD_K">      0.00000000      0.00000000      0.00000000</v>
   <i name="OFIELD_Q6_NEAR">      0.00000000</i>
   <i name="OFIELD_Q6_FAR">      0.00000000</i>
   <i name="OFIELD_A">      0.00000000</i>
  </separator>
 </parameters>
 <atominfo>
  <atoms>       1 </atoms>
  <types>       1 </types>
  <array name="atoms" >
   <dimension dim="1">ion</dimension>
   <field type="string">element</field>
   <field type="int">atomtype</field>
   <set>
    <rc><c>Og</c><c>   1</c></rc>
   </set>
  </array>
  <array name="atomtypes" >
   <dimension dim="1">type</dimension>
   <field type="int">atomspertype</field>
   <field type="string">element</field>
   <field>mass</field>
   <field>valence</field>
   <field type="string">pseudopotential</field>
   <set>
    <rc><c>   1</c><c>Og</c><c>      0.01000000</c><c>     26.00000000</c><c>  PAW-PBE Og 26VE, fit to 4cPBE, JanMewe</c></rc>
   </set>
  </array>
 </atominfo>
 <structure name="initialpos" >
  <crystal>
   <varray name="basis" >
    <v>       4.39635018       0.00000000       0.00000000 </v>
    <v>       2.19817509       3.80735094      -0.00000000 </v>
    <v>       2.19817509       1.26911698       3.58960489 </v>
   </varray>
   <i name="volume">     60.08441465 </i>
   <varray name="rec_basis" >
    <v>       0.22746141      -0.13132490      -0.09286073 </v>
    <v>       0.00000000       0.26264981      -0.09286073 </v>
    <v>      -0.00000000       0.00000000       0.27858219 </v>
   </varray>
  </crystal>
  <varray name="positions" >
   <v>       0.00000000       0.00000000       0.00000000 </v>
  </varray>
  <varray name="velocities" >
   <v>       0.00000000       0.00000000       0.00000000 </v>
  </varray>
 </structure>
 <calculation>
  <scstep>
   <time name="diag">  113.23  113.22</time>
   <time name="total">  113.31  113.30</time>
   <energy>
    <i name="alphaZ">    107.29892365 </i>
    <i name="ewald">  -3589.15135869 </i>
    <i name="hartreedc">  -2380.45516530 </i>
    <i name="XCdc">    113.30601244 </i>
    <i name="pawpsdc">   5549.38465426 </i>
    <i name="pawaedc">  -5456.76366872 </i>
    <i name="eentropy">     -0.00000002 </i>
    <i name="bandstr">  -1407.71782478 </i>
    <i name="atom">   7048.21131030 </i>
    <i name="e_fr_energy">    -15.88711686 </i>
    <i name="e_wo_entrp">    -15.88711684 </i>
    <i name="e_0_energy">    -15.88711685 </i>
   </energy>
  </scstep>
  <scstep>
   <time name="diag">  113.41  113.55</time>
   <time name="total">  113.41  113.55</time>
   <energy>
    <i name="e_fr_energy">    -15.88711686 </i>
    <i name="e_wo_entrp">    -15.88711684 </i>
    <i name="e_0_energy">    -15.88711685 </i>
   </energy>
  </scstep>
  <scstep>
   <time name="diag">  113.11  113.09</time>
   <time name="total">  113.11  113.10</time>
   <energy>
    <i name="e_fr_energy">    -15.88711686 </i>
    <i name="e_wo_entrp">    -15.88711684 </i>
    <i name="e_0_energy">    -15.88711685 </i>
   </energy>
  </scstep>
  <scstep>
   <time name="diag">  113.79  113.91</time>
   <time name="total">  113.80  113.91</time>
   <energy>
    <i name="e_fr_energy">    -15.88711686 </i>
    <i name="e_wo_entrp">    -15.88711684 </i>
    <i name="e_0_energy">    -15.88711685 </i>
   </energy>
  </scstep>
  <scstep>
   <time name="diag">  115.50  115.94</time>
   <time name="total">  115.65  116.09</time>
   <energy>
    <i name="e_fr_energy">    -15.88711686 </i>
    <i name="e_wo_entrp">    -15.88711684 </i>
    <i name="e_0_energy">    -15.88711685 </i>
   </energy>
  </scstep>
  <scstep>
   <time name="diag">  113.26  113.24</time>
   <time name="total">  113.37  113.35</time>
   <energy>
    <i name="alphaZ">    107.29892365 </i>
    <i name="ewald">  -3589.15135869 </i>
    <i name="hartreedc">  -2380.45514693 </i>
    <i name="XCdc">    113.30601205 </i>
    <i name="pawpsdc">   5549.38488361 </i>
    <i name="pawaedc">  -5456.76386540 </i>
    <i name="eentropy">     -0.00000002 </i>
    <i name="bandstr">  -1407.71787544 </i>
    <i name="atom">   7048.21131030 </i>
    <i name="e_fr_energy">    -15.88711687 </i>
    <i name="e_wo_entrp">    -15.88711685 </i>
    <i name="e_0_energy">    -15.88711686 </i>
   </energy>
  </scstep>
  <structure>
   <crystal>
    <varray name="basis" >
     <v>       4.39635018       0.00000000       0.00000000 </v>
     <v>       2.19817509       3.80735094      -0.00000000 </v>
     <v>       2.19817509       1.26911698       3.58960489 </v>
    </varray>
    <i name="volume">     60.08441465 </i>
    <varray name="rec_basis" >
     <v>       0.22746141      -0.13132490      -0.09286073 </v>
     <v>       0.00000000       0.26264981      -0.09286073 </v>
     <v>      -0.00000000       0.00000000       0.27858219 </v>
    </varray>
   </crystal>
   <varray name="positions" >
    <v>       0.00000000       0.00000000       0.00000000 </v>
   </varray>
  </structure>
  <varray name="forces" >
   <v>       0.00000001      -0.00000001      -0.00000004 </v>
  </varray>
  <varray name="stress" >
   <v>   -1489.86666412      -0.00021901      -0.00015664 </v>
   <v>      -0.00021888   -1489.86609199      -0.00013097 </v>
   <v>      -0.00015795      -0.00013234   -1489.86595377 </v>
  </varray>
  <energy>
   <i name="e_fr_energy">    -16.31059928 </i>
   <i name="e_wo_entrp">    -16.31059927 </i>
   <i name="e_0_energy">     -0.00000002 </i>
  </energy>
  <time name="totalsc">  686.45  687.59</time>
  <eigenvalues>
   <array>
    <dimension dim="1">band</dimension>
    <dimension dim="2">kpoint</dimension>
    <dimension dim="3">spin</dimension>
    <field>eigene</field>
    <field>occ</field>
    <set>
     <set comment="spin 1">
      <set comment="kpoint 1">
       <r> -219.5258    1.0000 </r>
       <r> -219.5258    1.0000 </r>
       <r> -138.1479    1.0000 </r>
       <r> -138.1479    1.0000 </r>
       <r>  -90.2484    1.0000 </r>
       <r>  -90.2484    1.0000 </r>
       <r>  -90.2483    1.0000 </r>
       <r>  -90.2483    1.0000 </r>
       <r>  -33.2167    1.0000 </r>
       <r>  -33.2166    1.0000 </r>
       <r>  -33.2165    1.0000 </r>
       <r>  -33.2165    1.0000 </r>
       <r>  -26.1405    1.0000 </r>
       <r>  -26.1399    1.0000 </r>
       <r>  -26.1384    1.0000 </r>
       <r>  -26.1381    1.0000 </r>
       <r>  -26.1379    1.0000 </r>
       <r>  -26.1375    1.0000 </r>
       <r>  -21.3626    1.0000 </r>
       <r>  -21.3619    1.0000 </r>
       <r>   -3.0632    1.0000 </r>
       <r>   -3.0620    1.0000 </r>
       <r>    3.6209    1.0000 </r>
       <r>    3.6215    1.0000 </r>
       <r>    3.6805    0.9996 </r>
       <r>    3.6806    0.9995 </r>
       <r>    3.6852    0.0005 </r>
       <r>    3.6852    0.0004 </r>
       <r>   10.5843    0.0000 </r>
       <r>   10.5845    0.0000 </r>
       <r>   10.5850    0.0000 </r>
       <r>   10.5852    0.0000 </r>
       <r>   10.9572    0.0000 </r>
       <r>   10.9586    0.0000 </r>
       <r>   11.1626    0.0000 </r>
       <r>   11.1632    0.0000 </r>
       <r>   13.2723    0.0000 </r>
       <r>   13.2746    0.0000 </r>
       <r>   13.4569    0.0000 </r>
       <r>   13.4570    0.0000 </r>
       <r>   13.4580    0.0000 </r>
       <r>   13.4581    0.0000 </r>
       <r>   13.7954    0.0000 </r>
       <r>   13.7969    0.0000 </r>
       <r>   13.7976    0.0000 </r>
       <r>   13.7991    0.0000 </r>
       <r>   16.2460    0.0000 </r>
       <r>   16.2465    0.0000 </r>
       <r>   19.9149    0.0000 </r>
       <r>   19.9152    0.0000 </r>
       <r>   19.9154    0.0000 </r>
       <r>   19.9164    0.0000 </r>
       <r>   19.9166    0.0000 </r>
       <r>   19.9169    0.0000 </r>
       <r>   24.2467    0.0000 </r>
       <r>   24.2487    0.0000 </r>
       <r>   25.5646    0.0000 </r>
       <r>   25.5647    0.0000 </r>
       <r>   25.5666    0.0000 </r>
       <r>   25.5667    0.0000 </r>
       <r>   25.7011    0.0000 </r>
       <r>   25.7018    0.0000 </r>
       <r>   27.9271    0.0000 </r>
       <r>   27.9276    0.0000 </r>
       <r>   28.7226    0.0000 </r>
       <r>   28.7234    0.0000 </r>
       <r>   28.7238    0.0000 </r>
       <r>   28.7246    0.0000 </r>
       <r>   29.2341    0.0000 </r>
       <r>   29.2347    0.0000 </r>
       <r>   29.4688    0.0000 </r>
       <r>   29.4692    0.0000 </r>
       <r>   29.4698    0.0000 </r>
       <r>   29.4702    0.0000 </r>
       <r>   29.8709    0.0000 </r>
       <r>   29.8712    0.0000 </r>
       <r>   30.8005    0.0000 </r>
       <r>   30.8006    0.0000 </r>
       <r>   30.8018    0.0000 </r>
       <r>   30.8019    0.0000 </r>
       <r>   36.9154    0.0000 </r>
       <r>   36.9156    0.0000 </r>
       <r>   36.9161    0.0000 </r>
       <r>   36.9164    0.0000 </r>
       <r>   36.9168    0.0000 </r>
       <r>   36.9171    0.0000 </r>
       <r>   37.9401    0.0000 </r>
       <r>   37.9403    0.0000 </r>
       <r>   37.9412    0.0000 </r>
       <r>   37.9427    0.0000 </r>
       <r>   37.9436    0.0000 </r>
       <r>   37.9439    0.0000 </r>
       <r>   39.2344    0.0000 </r>
       <r>   39.2358    0.0000 </r>
       <r>   40.2306    0.0000 </r>
       <r>   40.2308    0.0000 </r>
       <r>   40.2311    0.0000 </r>
       <r>   40.2313    0.0000 </r>
       <r>   40.5179    0.0000 </r>
       <r>   40.5186    0.0000 </r>
       <r>   41.5330    0.0000 </r>
       <r>   41.5342    0.0000 </r>
       <r>   41.5349    0.0000 </r>
       <r>   41.5361    0.0000 </r>
       <r>   41.5473    0.0000 </r>
       <r>   41.5481    0.0000 </r>
       <r>   42.4057    0.0000 </r>
       <r>   42.4062    0.0000 </r>
       <r>   42.4065    0.0000 </r>
       <r>   42.4070    0.0000 </r>
       <r>   42.8289    0.0000 </r>
       <r>   42.8290    0.0000 </r>
       <r>   42.8309    0.0000 </r>
       <r>   42.8310    0.0000 </r>
       <r>   42.8539    0.0000 </r>
       <r>   42.8544    0.0000 </r>
       <r>   42.8549    0.0000 </r>
       <r>   42.8554    0.0000 </r>
       <r>   43.1118    0.0000 </r>
       <r>   43.1125    0.0000 </r>
       <r>   44.2044    0.0000 </r>
       <r>   44.2052    0.0000 </r>
       <r>   44.8425    0.0000 </r>
       <r>   44.8437    0.0000 </r>
       <r>   45.0984    0.0000 </r>
       <r>   45.0986    0.0000 </r>
       <r>   45.0998    0.0000 </r>
       <r>   45.0999    0.0000 </r>
      </set>
      <set comment="kpoint 2">
       <r> -219.5059    1.0000 </r>
       <r> -219.5059    1.0000 </r>
       <r> -137.7826    1.0000 </r>
       <r> -137.7825    1.0000 </r>
       <r>  -90.2116    1.0000 </r>
       <r>  -90.2115    1.0000 </r>
       <r>  -90.1450    1.0000 </r>
       <r>  -90.1449    1.0000 </r>
       <r>  -33.2144    1.0000 </r>
       <r>  -33.2143    1.0000 </r>
       <r>  -33.2102    1.0000 </r>
       <r>  -33.2101    1.0000 </r>
       <r>  -26.1390    1.0000 </r>
       <r>  -26.1387    1.0000 </r>
       <r>  -26.1371    1.0000 </r>
       <r>  -26.1369    1.0000 </r>
       <r>  -26.1363    1.0000 </r>
       <r>  -26.1357    1.0000 </r>
       <r>  -21.3424    1.0000 </r>
       <r>  -21.3417    1.0000 </r>
       <r>   -3.2487    1.0000 </r>
       <r>   -3.2476    1.0000 </r>
       <r>    2.1639    1.0000 </r>
       <r>    2.1660    1.0000 </r>
       <r>    3.5412    1.0000 </r>
       <r>    3.5443    1.0000 </r>
       <r>    5.3239    0.0000 </r>
       <r>    5.3249    0.0000 </r>
       <r>    9.7433    0.0000 </r>
       <r>    9.7441    0.0000 </r>
       <r>   10.7674    0.0000 </r>
       <r>   10.7678    0.0000 </r>
       <r>   11.0988    0.0000 </r>
       <r>   11.0994    0.0000 </r>
       <r>   12.1542    0.0000 </r>
       <r>   12.1551    0.0000 </r>
       <r>   12.2828    0.0000 </r>
       <r>   12.2844    0.0000 </r>
       <r>   12.4227    0.0000 </r>
       <r>   12.4242    0.0000 </r>
       <r>   13.6083    0.0000 </r>
       <r>   13.6094    0.0000 </r>
       <r>   15.5712    0.0000 </r>
       <r>   15.5728    0.0000 </r>
       <r>   15.6589    0.0000 </r>
       <r>   15.6606    0.0000 </r>
       <r>   17.9491    0.0000 </r>
       <r>   17.9496    0.0000 </r>
       <r>   19.4593    0.0000 </r>
       <r>   19.4605    0.0000 </r>
       <r>   19.5446    0.0000 </r>
       <r>   19.5460    0.0000 </r>
       <r>   19.9796    0.0000 </r>
       <r>   19.9809    0.0000 </r>
       <r>   22.5085    0.0000 </r>
       <r>   22.5090    0.0000 </r>
       <r>   24.5868    0.0000 </r>
       <r>   24.5875    0.0000 </r>
       <r>   25.0382    0.0000 </r>
       <r>   25.0395    0.0000 </r>
       <r>   25.3297    0.0000 </r>
       <r>   25.3308    0.0000 </r>
       <r>   26.5818    0.0000 </r>
       <r>   26.5828    0.0000 </r>
       <r>   27.3451    0.0000 </r>
       <r>   27.3455    0.0000 </r>
       <r>   27.9211    0.0000 </r>
       <r>   27.9218    0.0000 </r>
       <r>   29.3772    0.0000 </r>
       <r>   29.3787    0.0000 </r>
       <r>   29.8056    0.0000 </r>
       <r>   29.8063    0.0000 </r>
       <r>   29.9682    0.0000 </r>
       <r>   29.9690    0.0000 </r>
       <r>   30.5741    0.0000 </r>
       <r>   30.5742    0.0000 </r>
       <r>   32.1143    0.0000 </r>
       <r>   32.1157    0.0000 </r>
       <r>   34.8211    0.0000 </r>
       <r>   34.8218    0.0000 </r>
       <r>   35.0062    0.0000 </r>
       <r>   35.0070    0.0000 </r>
       <r>   35.7127    0.0000 </r>
       <r>   35.7131    0.0000 </r>
       <r>   35.8189    0.0000 </r>
       <r>   35.8198    0.0000 </r>
       <r>   35.9603    0.0000 </r>
       <r>   35.9606    0.0000 </r>
       <r>   37.5011    0.0000 </r>
       <r>   37.5014    0.0000 </r>
       <r>   38.1585    0.0000 </r>
       <r>   38.1601    0.0000 </r>
       <r>   38.5753    0.0000 </r>
       <r>   38.5761    0.0000 </r>
       <r>   38.6117    0.0000 </r>
       <r>   38.6126    0.0000 </r>
       <r>   38.7275    0.0000 </r>
       <r>   38.7279    0.0000 </r>
       <r>   39.5630    0.0000 </r>
       <r>   39.5633    0.0000 </r>
       <r>   39.5989    0.0000 </r>
       <r>   39.5992    0.0000 </r>
       <r>   40.5334    0.0000 </r>
       <r>   40.5341    0.0000 </r>
       <r>   40.5446    0.0000 </r>
       <r>   40.5453    0.0000 </r>
       <r>   41.4658    0.0000 </r>
       <r>   41.4662    0.0000 </r>
       <r>   42.0352    0.0000 </r>
       <r>   42.0361    0.0000 </r>
       <r>   42.3151    0.0000 </r>
       <r>   42.3159    0.0000 </r>
       <r>   43.3382    0.0000 </r>
       <r>   43.3389    0.0000 </r>
       <r>   43.8191    0.0000 </r>
       <r>   43.8197    0.0000 </r>
       <r>   43.9249    0.0000 </r>
       <r>   43.9259    0.0000 </r>
       <r>   44.0063    0.0000 </r>
       <r>   44.0073    0.0000 </r>
       <r>   45.1898    0.0000 </r>
       <r>   45.1907    0.0000 </r>
       <r>   46.2322    0.0000 </r>
       <r>   46.2326    0.0000 </r>
       <r>   46.4767    0.0000 </r>
       <r>   46.4774    0.0000 </r>
       <r>   47.5197    0.0000 </r>
       <r>   47.5204    0.0000 </r>
      </set>
      <set comment="kpoint 3">
       <r> -219.4831    1.0000 </r>
       <r> -219.4830    1.0000 </r>
       <r> -137.3506    1.0000 </r>
       <r> -137.3505    1.0000 </r>
       <r>  -90.1163    1.0000 </r>
       <r>  -90.1162    1.0000 </r>
       <r>  -90.0702    1.0000 </r>
       <r>  -90.0701    1.0000 </r>
       <r>  -33.2072    1.0000 </r>
       <r>  -33.2071    1.0000 </r>
       <r>  -33.2052    1.0000 </r>
       <r>  -33.2051    1.0000 </r>
       <r>  -26.1370    1.0000 </r>
       <r>  -26.1368    1.0000 </r>
       <r>  -26.1344    1.0000 </r>
       <r>  -26.1340    1.0000 </r>
       <r>  -26.1325    1.0000 </r>
       <r>  -26.1318    1.0000 </r>
       <r>  -21.3015    1.0000 </r>
       <r>  -21.3008    1.0000 </r>
       <r>   -3.6136    1.0000 </r>
       <r>   -3.6125    1.0000 </r>
       <r>    1.2583    1.0000 </r>
       <r>    1.2604    1.0000 </r>
       <r>    3.2925    1.0000 </r>
       <r>    3.2954    1.0000 </r>
       <r>    6.0593    0.0000 </r>
       <r>    6.0600    0.0000 </r>
       <r>   10.3728    0.0000 </r>
       <r>   10.3734    0.0000 </r>
       <r>   10.5706    0.0000 </r>
       <r>   10.5714    0.0000 </r>
       <r>   10.7950    0.0000 </r>
       <r>   10.7959    0.0000 </r>
       <r>   11.3001    0.0000 </r>
       <r>   11.3009    0.0000 </r>
       <r>   13.0810    0.0000 </r>
       <r>   13.0816    0.0000 </r>
       <r>   13.2930    0.0000 </r>
       <r>   13.2940    0.0000 </r>
       <r>   16.5542    0.0000 </r>
       <r>   16.5555    0.0000 </r>
       <r>   17.4740    0.0000 </r>
       <r>   17.4755    0.0000 </r>
       <r>   17.6204    0.0000 </r>
       <r>   17.6223    0.0000 </r>
       <r>   17.8190    0.0000 </r>
       <r>   17.8204    0.0000 </r>
       <r>   18.1347    0.0000 </r>
       <r>   18.1360    0.0000 </r>
       <r>   18.6436    0.0000 </r>
       <r>   18.6452    0.0000 </r>
       <r>   20.1821    0.0000 </r>
       <r>   20.1835    0.0000 </r>
       <r>   20.9724    0.0000 </r>
       <r>   20.9730    0.0000 </r>
       <r>   24.0907    0.0000 </r>
       <r>   24.0915    0.0000 </r>
       <r>   24.6371    0.0000 </r>
       <r>   24.6382    0.0000 </r>
       <r>   24.7222    0.0000 </r>
       <r>   24.7233    0.0000 </r>
       <r>   26.0930    0.0000 </r>
       <r>   26.0936    0.0000 </r>
       <r>   26.4443    0.0000 </r>
       <r>   26.4450    0.0000 </r>
       <r>   26.9080    0.0000 </r>
       <r>   26.9086    0.0000 </r>
       <r>   29.5290    0.0000 </r>
       <r>   29.5294    0.0000 </r>
       <r>   30.1328    0.0000 </r>
       <r>   30.1343    0.0000 </r>
       <r>   30.6680    0.0000 </r>
       <r>   30.6690    0.0000 </r>
       <r>   30.9926    0.0000 </r>
       <r>   30.9935    0.0000 </r>
       <r>   31.1409    0.0000 </r>
       <r>   31.1419    0.0000 </r>
       <r>   31.3418    0.0000 </r>
       <r>   31.3429    0.0000 </r>
       <r>   33.1385    0.0000 </r>
       <r>   33.1393    0.0000 </r>
       <r>   33.3002    0.0000 </r>
       <r>   33.3008    0.0000 </r>
       <r>   34.3688    0.0000 </r>
       <r>   34.3699    0.0000 </r>
       <r>   34.7968    0.0000 </r>
       <r>   34.7982    0.0000 </r>
       <r>   35.1933    0.0000 </r>
       <r>   35.1936    0.0000 </r>
       <r>   35.6226    0.0000 </r>
       <r>   35.6235    0.0000 </r>
       <r>   38.4798    0.0000 </r>
       <r>   38.4809    0.0000 </r>
       <r>   38.5035    0.0000 </r>
       <r>   38.5044    0.0000 </r>
       <r>   39.4336    0.0000 </r>
       <r>   39.4341    0.0000 </r>
       <r>   39.5550    0.0000 </r>
       <r>   39.5553    0.0000 </r>
       <r>   39.9677    0.0000 </r>
       <r>   39.9680    0.0000 </r>
       <r>   41.2982    0.0000 </r>
       <r>   41.2988    0.0000 </r>
       <r>   41.8529    0.0000 </r>
       <r>   41.8535    0.0000 </r>
       <r>   42.0736    0.0000 </r>
       <r>   42.0744    0.0000 </r>
       <r>   42.8472    0.0000 </r>
       <r>   42.8483    0.0000 </r>
       <r>   43.4802    0.0000 </r>
       <r>   43.4809    0.0000 </r>
       <r>   44.0253    0.0000 </r>
       <r>   44.0259    0.0000 </r>
       <r>   44.9084    0.0000 </r>
       <r>   44.9086    0.0000 </r>
       <r>   45.2280    0.0000 </r>
       <r>   45.2287    0.0000 </r>
       <r>   45.6376    0.0000 </r>
       <r>   45.6387    0.0000 </r>
       <r>   45.9576    0.0000 </r>
       <r>   45.9583    0.0000 </r>
       <r>   48.4852    0.0000 </r>
       <r>   48.4860    0.0000 </r>
       <r>   50.2618    0.0000 </r>
       <r>   50.2625    0.0000 </r>
       <r>   50.2791    0.0000 </r>
       <r>   50.2796    0.0000 </r>
      </set>
      <set comment="kpoint 4">
       <r> -219.5165    1.0000 </r>
       <r> -219.5164    1.0000 </r>
       <r> -137.9777    1.0000 </r>
       <r> -137.9777    1.0000 </r>
       <r>  -90.2190    1.0000 </r>
       <r>  -90.2189    1.0000 </r>
       <r>  -90.2137    1.0000 </r>
       <r>  -90.2136    1.0000 </r>
       <r>  -33.2136    1.0000 </r>
       <r>  -33.2135    1.0000 </r>
       <r>  -33.2131    1.0000 </r>
       <r>  -33.2130    1.0000 </r>
       <r>  -26.1386    1.0000 </r>
       <r>  -26.1383    1.0000 </r>
       <r>  -26.1345    1.0000 </r>
       <r>  -26.1340    1.0000 </r>
       <r>  -26.1323    1.0000 </r>
       <r>  -26.1317    1.0000 </r>
       <r>  -21.2810    1.0000 </r>
       <r>  -21.2804    1.0000 </r>
       <r>   -3.7966    1.0000 </r>
       <r>   -3.7956    1.0000 </r>
       <r>    0.9620    1.0000 </r>
       <r>    0.9642    1.0000 </r>
       <r>    3.1721    1.0000 </r>
       <r>    3.1750    1.0000 </r>
       <r>    6.0739    0.0000 </r>
       <r>    6.0746    0.0000 </r>
       <r>   10.0914    0.0000 </r>
       <r>   10.0921    0.0000 </r>
       <r>   10.4501    0.0000 </r>
       <r>   10.4514    0.0000 </r>
       <r>   10.6986    0.0000 </r>
       <r>   10.6993    0.0000 </r>
       <r>   12.6505    0.0000 </r>
       <r>   12.6510    0.0000 </r>
       <r>   14.4901    0.0000 </r>
       <r>   14.4905    0.0000 </r>
       <r>   14.5943    0.0000 </r>
       <r>   14.5950    0.0000 </r>
       <r>   15.5090    0.0000 </r>
       <r>   15.5096    0.0000 </r>
       <r>   16.3915    0.0000 </r>
       <r>   16.3922    0.0000 </r>
       <r>   16.5466    0.0000 </r>
       <r>   16.5483    0.0000 </r>
       <r>   18.4167    0.0000 </r>
       <r>   18.4183    0.0000 </r>
       <r>   18.6754    0.0000 </r>
       <r>   18.6776    0.0000 </r>
       <r>   18.7209    0.0000 </r>
       <r>   18.7229    0.0000 </r>
       <r>   20.2091    0.0000 </r>
       <r>   20.2105    0.0000 </r>
       <r>   23.2821    0.0000 </r>
       <r>   23.2830    0.0000 </r>
       <r>   23.3289    0.0000 </r>
       <r>   23.3299    0.0000 </r>
       <r>   24.8567    0.0000 </r>
       <r>   24.8574    0.0000 </r>
       <r>   24.8849    0.0000 </r>
       <r>   24.8855    0.0000 </r>
       <r>   25.2129    0.0000 </r>
       <r>   25.2135    0.0000 </r>
       <r>   26.4902    0.0000 </r>
       <r>   26.4910    0.0000 </r>
       <r>   26.6684    0.0000 </r>
       <r>   26.6691    0.0000 </r>
       <r>   27.7981    0.0000 </r>
       <r>   27.7986    0.0000 </r>
       <r>   29.1336    0.0000 </r>
       <r>   29.1344    0.0000 </r>
       <r>   30.1188    0.0000 </r>
       <r>   30.1200    0.0000 </r>
       <r>   30.2704    0.0000 </r>
       <r>   30.2707    0.0000 </r>
       <r>   30.7686    0.0000 </r>
       <r>   30.7701    0.0000 </r>
       <r>   31.4656    0.0000 </r>
       <r>   31.4658    0.0000 </r>
       <r>   31.6381    0.0000 </r>
       <r>   31.6391    0.0000 </r>
       <r>   32.5329    0.0000 </r>
       <r>   32.5337    0.0000 </r>
       <r>   33.2708    0.0000 </r>
       <r>   33.2720    0.0000 </r>
       <r>   33.3673    0.0000 </r>
       <r>   33.3688    0.0000 </r>
       <r>   35.2200    0.0000 </r>
       <r>   35.2202    0.0000 </r>
       <r>   35.7587    0.0000 </r>
       <r>   35.7595    0.0000 </r>
       <r>   38.6055    0.0000 </r>
       <r>   38.6065    0.0000 </r>
       <r>   38.6386    0.0000 </r>
       <r>   38.6401    0.0000 </r>
       <r>   38.8357    0.0000 </r>
       <r>   38.8361    0.0000 </r>
       <r>   39.2692    0.0000 </r>
       <r>   39.2702    0.0000 </r>
       <r>   39.5177    0.0000 </r>
       <r>   39.5183    0.0000 </r>
       <r>   41.1457    0.0000 </r>
       <r>   41.1465    0.0000 </r>
       <r>   42.0220    0.0000 </r>
       <r>   42.0222    0.0000 </r>
       <r>   43.5323    0.0000 </r>
       <r>   43.5327    0.0000 </r>
       <r>   44.6032    0.0000 </r>
       <r>   44.6039    0.0000 </r>
       <r>   45.1659    0.0000 </r>
       <r>   45.1665    0.0000 </r>
       <r>   45.3021    0.0000 </r>
       <r>   45.3028    0.0000 </r>
       <r>   45.5758    0.0000 </r>
       <r>   45.5769    0.0000 </r>
       <r>   46.5106    0.0000 </r>
       <r>   46.5112    0.0000 </r>
       <r>   48.9070    0.0000 </r>
       <r>   48.9077    0.0000 </r>
       <r>   48.9385    0.0000 </r>
       <r>   48.9393    0.0000 </r>
       <r>   49.1491    0.0000 </r>
       <r>   49.1497    0.0000 </r>
       <r>   49.7660    0.0000 </r>
       <r>   49.7672    0.0000 </r>
       <r>   50.1409    0.0000 </r>
       <r>   50.1416    0.0000 </r>
      </set>
      <set comment="kpoint 5">
       <r> -219.4831    1.0000 </r>
       <r> -219.4830    1.0000 </r>
       <r> -137.3506    1.0000 </r>
       <r> -137.3505    1.0000 </r>
       <r>  -90.1163    1.0000 </r>
       <r>  -90.1162    1.0000 </r>
       <r>  -90.0702    1.0000 </r>
       <r>  -90.0701    1.0000 </r>
       <r>  -33.2072    1.0000 </r>
       <r>  -33.2071    1.0000 </r>
       <r>  -33.2052    1.0000 </r>
       <r>  -33.2051    1.0000 </r>
       <r>  -26.1370    1.0000 </r>
       <r>  -26.1368    1.0000 </r>
       <r>  -26.1344    1.0000 </r>
       <r>  -26.1340    1.0000 </r>
       <r>  -26.1325    1.0000 </r>
       <r>  -26.1318    1.0000 </r>
       <r>  -21.3015    1.0000 </r>
       <r>  -21.3008    1.0000 </r>
       <r>   -3.6136    1.0000 </r>
       <r>   -3.6125    1.0000 </r>
       <r>    1.2583    1.0000 </r>
       <r>    1.2604    1.0000 </r>
       <r>    3.2925    1.0000 </r>
       <r>    3.2954    1.0000 </r>
       <r>    6.0593    0.0000 </r>
       <r>    6.0600    0.0000 </r>
       <r>   10.3728    0.0000 </r>
       <r>   10.3734    0.0000 </r>
       <r>   10.5706    0.0000 </r>
       <r>   10.5714    0.0000 </r>
       <r>   10.7950    0.0000 </r>
       <r>   10.7959    0.0000 </r>
       <r>   11.3001    0.0000 </r>
       <r>   11.3009    0.0000 </r>
       <r>   13.0810    0.0000 </r>
       <r>   13.0816    0.0000 </r>
       <r>   13.2930    0.0000 </r>
       <r>   13.2940    0.0000 </r>
       <r>   16.5542    0.0000 </r>
       <r>   16.5555    0.0000 </r>
       <r>   17.4740    0.0000 </r>
       <r>   17.4755    0.0000 </r>
       <r>   17.6204    0.0000 </r>
       <r>   17.6223    0.0000 </r>
       <r>   17.8190    0.0000 </r>
       <r>   17.8204    0.0000 </r>
       <r>   18.1347    0.0000 </r>
       <r>   18.1360    0.0000 </r>
       <r>   18.6436    0.0000 </r>
       <r>   18.6452    0.0000 </r>
       <r>   20.1821    0.0000 </r>
       <r>   20.1835    0.0000 </r>
       <r>   20.9724    0.0000 </r>
       <r>   20.9730    0.0000 </r>
       <r>   24.0907    0.0000 </r>
       <r>   24.0915    0.0000 </r>
       <r>   24.6371    0.0000 </r>
       <r>   24.6382    0.0000 </r>
       <r>   24.7222    0.0000 </r>
       <r>   24.7233    0.0000 </r>
       <r>   26.0930    0.0000 </r>
       <r>   26.0936    0.0000 </r>
       <r>   26.4443    0.0000 </r>
       <r>   26.4450    0.0000 </r>
       <r>   26.9080    0.0000 </r>
       <r>   26.9086    0.0000 </r>
       <r>   29.5290    0.0000 </r>
       <r>   29.5294    0.0000 </r>
       <r>   30.1328    0.0000 </r>
       <r>   30.1343    0.0000 </r>
       <r>   30.6680    0.0000 </r>
       <r>   30.6690    0.0000 </r>
       <r>   30.9926    0.0000 </r>
       <r>   30.9935    0.0000 </r>
       <r>   31.1409    0.0000 </r>
       <r>   31.1419    0.0000 </r>
       <r>   31.3418    0.0000 </r>
       <r>   31.3429    0.0000 </r>
       <r>   33.1385    0.0000 </r>
       <r>   33.1393    0.0000 </r>
       <r>   33.3002    0.0000 </r>
       <r>   33.3008    0.0000 </r>
       <r>   34.3688    0.0000 </r>
       <r>   34.3699    0.0000 </r>
       <r>   34.7968    0.0000 </r>
       <r>   34.7982    0.0000 </r>
       <r>   35.1933    0.0000 </r>
       <r>   35.1936    0.0000 </r>
       <r>   35.6226    0.0000 </r>
       <r>   35.6235    0.0000 </r>
       <r>   38.4798    0.0000 </r>
       <r>   38.4809    0.0000 </r>
       <r>   38.5035    0.0000 </r>
       <r>   38.5044    0.0000 </r>
       <r>   39.4336    0.0000 </r>
       <r>   39.4341    0.0000 </r>
       <r>   39.5550    0.0000 </r>
       <r>   39.5553    0.0000 </r>
       <r>   39.9677    0.0000 </r>
       <r>   39.9680    0.0000 </r>
       <r>   41.2982    0.0000 </r>
       <r>   41.2988    0.0000 </r>
       <r>   41.8529    0.0000 </r>
       <r>   41.8535    0.0000 </r>
       <r>   42.0736    0.0000 </r>
       <r>   42.0744    0.0000 </r>
       <r>   42.8472    0.0000 </r>
       <r>   42.8483    0.0000 </r>
       <r>   43.4802    0.0000 </r>
       <r>   43.4809    0.0000 </r>
       <r>   44.0253    0.0000 </r>
       <r>   44.0259    0.0000 </r>
       <r>   44.9084    0.0000 </r>
       <r>   44.9086    0.0000 </r>
       <r>   45.2280    0.0000 </r>
       <r>   45.2287    0.0000 </r>
       <r>   45.6376    0.0000 </r>
       <r>   45.6387    0.0000 </r>
       <r>   45.9576    0.0000 </r>
       <r>   45.9583    0.0000 </r>
       <r>   48.4852    0.0000 </r>
       <r>   48.4860    0.0000 </r>
       <r>   50.2618    0.0000 </r>
       <r>   50.2625    0.0000 </r>
       <r>   50.2791    0.0000 </r>
       <r>   50.2796    0.0000 </r>
      </set>
      <set comment="kpoint 6">
       <r> -219.5059    1.0000 </r>
       <r> -219.5059    1.0000 </r>
       <r> -137.7826    1.0000 </r>
       <r> -137.7825    1.0000 </r>
       <r>  -90.2116    1.0000 </r>
       <r>  -90.2115    1.0000 </r>
       <r>  -90.1450    1.0000 </r>
       <r>  -90.1449    1.0000 </r>
       <r>  -33.2144    1.0000 </r>
       <r>  -33.2143    1.0000 </r>
       <r>  -33.2102    1.0000 </r>
       <r>  -33.2101    1.0000 </r>
       <r>  -26.1390    1.0000 </r>
       <r>  -26.1387    1.0000 </r>
       <r>  -26.1371    1.0000 </r>
       <r>  -26.1369    1.0000 </r>
       <r>  -26.1363    1.0000 </r>
       <r>  -26.1357    1.0000 </r>
       <r>  -21.3424    1.0000 </r>
       <r>  -21.3417    1.0000 </r>
       <r>   -3.2487    1.0000 </r>
       <r>   -3.2476    1.0000 </r>
       <r>    2.1639    1.0000 </r>
       <r>    2.1660    1.0000 </r>
       <r>    3.5412    1.0000 </r>
       <r>    3.5443    1.0000 </r>
       <r>    5.3239    0.0000 </r>
       <r>    5.3249    0.0000 </r>
       <r>    9.7433    0.0000 </r>
       <r>    9.7441    0.0000 </r>
       <r>   10.7674    0.0000 </r>
       <r>   10.7678    0.0000 </r>
       <r>   11.0988    0.0000 </r>
       <r>   11.0994    0.0000 </r>
       <r>   12.1542    0.0000 </r>
       <r>   12.1551    0.0000 </r>
       <r>   12.2828    0.0000 </r>
       <r>   12.2844    0.0000 </r>
       <r>   12.4227    0.0000 </r>
       <r>   12.4242    0.0000 </r>
       <r>   13.6083    0.0000 </r>
       <r>   13.6094    0.0000 </r>
       <r>   15.5712    0.0000 </r>
       <r>   15.5728    0.0000 </r>
       <r>   15.6589    0.0000 </r>
       <r>   15.6606    0.0000 </r>
       <r>   17.9491    0.0000 </r>
       <r>   17.9496    0.0000 </r>
       <r>   19.4593    0.0000 </r>
       <r>   19.4605    0.0000 </r>
       <r>   19.5446    0.0000 </r>
       <r>   19.5460    0.0000 </r>
       <r>   19.9796    0.0000 </r>
       <r>   19.9809    0.0000 </r>
       <r>   22.5085    0.0000 </r>
       <r>   22.5090    0.0000 </r>
       <r>   24.5868    0.0000 </r>
       <r>   24.5875    0.0000 </r>
       <r>   25.0382    0.0000 </r>
       <r>   25.0395    0.0000 </r>
       <r>   25.3297    0.0000 </r>
       <r>   25.3308    0.0000 </r>
       <r>   26.5818    0.0000 </r>
       <r>   26.5828    0.0000 </r>
       <r>   27.3451    0.0000 </r>
       <r>   27.3455    0.0000 </r>
       <r>   27.9211    0.0000 </r>
       <r>   27.9218    0.0000 </r>
       <r>   29.3772    0.0000 </r>
       <r>   29.3787    0.0000 </r>
       <r>   29.8056    0.0000 </r>
       <r>   29.8063    0.0000 </r>
       <r>   29.9682    0.0000 </r>
       <r>   29.9690    0.0000 </r>
       <r>   30.5741    0.0000 </r>
       <r>   30.5742    0.0000 </r>
       <r>   32.1143    0.0000 </r>
       <r>   32.1157    0.0000 </r>
       <r>   34.8211    0.0000 </r>
       <r>   34.8218    0.0000 </r>
       <r>   35.0062    0.0000 </r>
       <r>   35.0070    0.0000 </r>
       <r>   35.7127    0.0000 </r>
       <r>   35.7131    0.0000 </r>
       <r>   35.8189    0.0000 </r>
       <r>   35.8198    0.0000 </r>
       <r>   35.9603    0.0000 </r>
       <r>   35.9606    0.0000 </r>
       <r>   37.5011    0.0000 </r>
       <r>   37.5014    0.0000 </r>
       <r>   38.1585    0.0000 </r>
       <r>   38.1601    0.0000 </r>
       <r>   38.5753    0.0000 </r>
       <r>   38.5761    0.0000 </r>
       <r>   38.6117    0.0000 </r>
       <r>   38.6126    0.0000 </r>
       <r>   38.7275    0.0000 </r>
       <r>   38.7279    0.0000 </r>
       <r>   39.5630    0.0000 </r>
       <r>   39.5633    0.0000 </r>
       <r>   39.5989    0.0000 </r>
       <r>   39.5992    0.0000 </r>
       <r>   40.5334    0.0000 </r>
       <r>   40.5341    0.0000 </r>
       <r>   40.5446    0.0000 </r>
       <r>   40.5453    0.0000 </r>
       <r>   41.4658    0.0000 </r>
       <r>   41.4662    0.0000 </r>
       <r>   42.0352    0.0000 </r>
       <r>   42.0361    0.0000 </r>
       <r>   42.3151    0.0000 </r>
       <r>   42.3159    0.0000 </r>
       <r>   43.3382    0.0000 </r>
       <r>   43.3389    0.0000 </r>
       <r>   43.8191    0.0000 </r>
       <r>   43.8197    0.0000 </r>
       <r>   43.9249    0.0000 </r>
       <r>   43.9259    0.0000 </r>
       <r>   44.0063    0.0000 </r>
       <r>   44.0073    0.0000 </r>
       <r>   45.1898    0.0000 </r>
       <r>   45.1907    0.0000 </r>
       <r>   46.2322    0.0000 </r>
       <r>   46.2326    0.0000 </r>
       <r>   46.4767    0.0000 </r>
       <r>   46.4774    0.0000 </r>
       <r>   47.5197    0.0000 </r>
       <r>   47.5204    0.0000 </r>
      </set>
      <set comment="kpoint 7">
       <r> -219.5059    1.0000 </r>
       <r> -219.5059    1.0000 </r>
       <r> -137.7826    1.0000 </r>
       <r> -137.7825    1.0000 </r>
       <r>  -90.2116    1.0000 </r>
       <r>  -90.2116    1.0000 </r>
       <r>  -90.1450    1.0000 </r>
       <r>  -90.1450    1.0000 </r>
       <r>  -33.2143    1.0000 </r>
       <r>  -33.2143    1.0000 </r>
       <r>  -33.2102    1.0000 </r>
       <r>  -33.2101    1.0000 </r>
       <r>  -26.1391    1.0000 </r>
       <r>  -26.1387    1.0000 </r>
       <r>  -26.1372    1.0000 </r>
       <r>  -26.1368    1.0000 </r>
       <r>  -26.1360    1.0000 </r>
       <r>  -26.1359    1.0000 </r>
       <r>  -21.3424    1.0000 </r>
       <r>  -21.3417    1.0000 </r>
       <r>   -3.2487    1.0000 </r>
       <r>   -3.2475    1.0000 </r>
       <r>    2.1647    1.0000 </r>
       <r>    2.1652    1.0000 </r>
       <r>    3.5422    1.0000 </r>
       <r>    3.5432    1.0000 </r>
       <r>    5.3242    0.0000 </r>
       <r>    5.3246    0.0000 </r>
       <r>    9.7435    0.0000 </r>
       <r>    9.7439    0.0000 </r>
       <r>   10.7676    0.0000 </r>
       <r>   10.7676    0.0000 </r>
       <r>   11.0987    0.0000 </r>
       <r>   11.0995    0.0000 </r>
       <r>   12.1542    0.0000 </r>
       <r>   12.1551    0.0000 </r>
       <r>   12.2828    0.0000 </r>
       <r>   12.2844    0.0000 </r>
       <r>   12.4233    0.0000 </r>
       <r>   12.4236    0.0000 </r>
       <r>   13.6087    0.0000 </r>
       <r>   13.6090    0.0000 </r>
       <r>   15.5709    0.0000 </r>
       <r>   15.5731    0.0000 </r>
       <r>   15.6596    0.0000 </r>
       <r>   15.6600    0.0000 </r>
       <r>   17.9490    0.0000 </r>
       <r>   17.9496    0.0000 </r>
       <r>   19.4595    0.0000 </r>
       <r>   19.4603    0.0000 </r>
       <r>   19.5451    0.0000 </r>
       <r>   19.5455    0.0000 </r>
       <r>   19.9795    0.0000 </r>
       <r>   19.9810    0.0000 </r>
       <r>   22.5083    0.0000 </r>
       <r>   22.5091    0.0000 </r>
       <r>   24.5867    0.0000 </r>
       <r>   24.5876    0.0000 </r>
       <r>   25.0388    0.0000 </r>
       <r>   25.0390    0.0000 </r>
       <r>   25.3300    0.0000 </r>
       <r>   25.3304    0.0000 </r>
       <r>   26.5818    0.0000 </r>
       <r>   26.5828    0.0000 </r>
       <r>   27.3452    0.0000 </r>
       <r>   27.3455    0.0000 </r>
       <r>   27.9212    0.0000 </r>
       <r>   27.9216    0.0000 </r>
       <r>   29.3778    0.0000 </r>
       <r>   29.3782    0.0000 </r>
       <r>   29.8054    0.0000 </r>
       <r>   29.8065    0.0000 </r>
       <r>   29.9681    0.0000 </r>
       <r>   29.9691    0.0000 </r>
       <r>   30.5741    0.0000 </r>
       <r>   30.5743    0.0000 </r>
       <r>   32.1148    0.0000 </r>
       <r>   32.1152    0.0000 </r>
       <r>   34.8210    0.0000 </r>
       <r>   34.8218    0.0000 </r>
       <r>   35.0060    0.0000 </r>
       <r>   35.0072    0.0000 </r>
       <r>   35.7128    0.0000 </r>
       <r>   35.7131    0.0000 </r>
       <r>   35.8192    0.0000 </r>
       <r>   35.8195    0.0000 </r>
       <r>   35.9603    0.0000 </r>
       <r>   35.9605    0.0000 </r>
       <r>   37.5010    0.0000 </r>
       <r>   37.5015    0.0000 </r>
       <r>   38.1592    0.0000 </r>
       <r>   38.1595    0.0000 </r>
       <r>   38.5752    0.0000 </r>
       <r>   38.5761    0.0000 </r>
       <r>   38.6120    0.0000 </r>
       <r>   38.6123    0.0000 </r>
       <r>   38.7274    0.0000 </r>
       <r>   38.7280    0.0000 </r>
       <r>   39.5631    0.0000 </r>
       <r>   39.5632    0.0000 </r>
       <r>   39.5989    0.0000 </r>
       <r>   39.5993    0.0000 </r>
       <r>   40.5335    0.0000 </r>
       <r>   40.5340    0.0000 </r>
       <r>   40.5445    0.0000 </r>
       <r>   40.5454    0.0000 </r>
       <r>   41.4660    0.0000 </r>
       <r>   41.4660    0.0000 </r>
       <r>   42.0351    0.0000 </r>
       <r>   42.0363    0.0000 </r>
       <r>   42.3151    0.0000 </r>
       <r>   42.3159    0.0000 </r>
       <r>   43.3381    0.0000 </r>
       <r>   43.3389    0.0000 </r>
       <r>   43.8190    0.0000 </r>
       <r>   43.8198    0.0000 </r>
       <r>   43.9253    0.0000 </r>
       <r>   43.9255    0.0000 </r>
       <r>   44.0064    0.0000 </r>
       <r>   44.0073    0.0000 </r>
       <r>   45.1902    0.0000 </r>
       <r>   45.1903    0.0000 </r>
       <r>   46.2322    0.0000 </r>
       <r>   46.2325    0.0000 </r>
       <r>   46.4769    0.0000 </r>
       <r>   46.4771    0.0000 </r>
       <r>   47.5198    0.0000 </r>
       <r>   47.5203    0.0000 </r>
      </set>
      <set comment="kpoint 8">
       <r> -219.4811    1.0000 </r>
       <r> -219.4811    1.0000 </r>
       <r> -137.2742    1.0000 </r>
       <r> -137.2742    1.0000 </r>
       <r>  -90.1164    1.0000 </r>
       <r>  -90.1163    1.0000 </r>
       <r>  -90.0523    1.0000 </r>
       <r>  -90.0521    1.0000 </r>
       <r>  -33.2088    1.0000 </r>
       <r>  -33.2086    1.0000 </r>
       <r>  -33.2042    1.0000 </r>
       <r>  -33.2041    1.0000 </r>
       <r>  -26.1384    1.0000 </r>
       <r>  -26.1378    1.0000 </r>
       <r>  -26.1358    1.0000 </r>
       <r>  -26.1354    1.0000 </r>
       <r>  -26.1352    1.0000 </r>
       <r>  -26.1349    1.0000 </r>
       <r>  -21.3354    1.0000 </r>
       <r>  -21.3348    1.0000 </r>
       <r>   -3.2971    1.0000 </r>
       <r>   -3.2960    1.0000 </r>
       <r>    2.0464    1.0000 </r>
       <r>    2.0494    1.0000 </r>
       <r>    3.2266    1.0000 </r>
       <r>    3.2309    1.0000 </r>
       <r>    5.8757    0.0000 </r>
       <r>    5.8768    0.0000 </r>
       <r>    9.0978    0.0000 </r>
       <r>    9.0989    0.0000 </r>
       <r>   10.5066    0.0000 </r>
       <r>   10.5079    0.0000 </r>
       <r>   11.2506    0.0000 </r>
       <r>   11.2514    0.0000 </r>
       <r>   11.7236    0.0000 </r>
       <r>   11.7249    0.0000 </r>
       <r>   13.4206    0.0000 </r>
       <r>   13.4216    0.0000 </r>
       <r>   14.0385    0.0000 </r>
       <r>   14.0404    0.0000 </r>
       <r>   14.0749    0.0000 </r>
       <r>   14.0769    0.0000 </r>
       <r>   14.1473    0.0000 </r>
       <r>   14.1484    0.0000 </r>
       <r>   15.4153    0.0000 </r>
       <r>   15.4172    0.0000 </r>
       <r>   18.7249    0.0000 </r>
       <r>   18.7255    0.0000 </r>
       <r>   19.2881    0.0000 </r>
       <r>   19.2895    0.0000 </r>
       <r>   19.7512    0.0000 </r>
       <r>   19.7523    0.0000 </r>
       <r>   19.8377    0.0000 </r>
       <r>   19.8383    0.0000 </r>
       <r>   22.2621    0.0000 </r>
       <r>   22.2634    0.0000 </r>
       <r>   24.3958    0.0000 </r>
       <r>   24.3978    0.0000 </r>
       <r>   25.1353    0.0000 </r>
       <r>   25.1375    0.0000 </r>
       <r>   25.1740    0.0000 </r>
       <r>   25.1746    0.0000 </r>
       <r>   26.0724    0.0000 </r>
       <r>   26.0733    0.0000 </r>
       <r>   26.4947    0.0000 </r>
       <r>   26.4952    0.0000 </r>
       <r>   27.2011    0.0000 </r>
       <r>   27.2022    0.0000 </r>
       <r>   29.1890    0.0000 </r>
       <r>   29.1904    0.0000 </r>
       <r>   29.6848    0.0000 </r>
       <r>   29.6857    0.0000 </r>
       <r>   30.3937    0.0000 </r>
       <r>   30.3945    0.0000 </r>
       <r>   31.8256    0.0000 </r>
       <r>   31.8266    0.0000 </r>
       <r>   33.7069    0.0000 </r>
       <r>   33.7077    0.0000 </r>
       <r>   34.3936    0.0000 </r>
       <r>   34.3942    0.0000 </r>
       <r>   34.6052    0.0000 </r>
       <r>   34.6067    0.0000 </r>
       <r>   34.6476    0.0000 </r>
       <r>   34.6495    0.0000 </r>
       <r>   35.7189    0.0000 </r>
       <r>   35.7196    0.0000 </r>
       <r>   35.8914    0.0000 </r>
       <r>   35.8928    0.0000 </r>
       <r>   37.1741    0.0000 </r>
       <r>   37.1773    0.0000 </r>
       <r>   37.2127    0.0000 </r>
       <r>   37.2135    0.0000 </r>
       <r>   38.0551    0.0000 </r>
       <r>   38.0558    0.0000 </r>
       <r>   38.4196    0.0000 </r>
       <r>   38.4210    0.0000 </r>
       <r>   39.7150    0.0000 </r>
       <r>   39.7160    0.0000 </r>
       <r>   40.1937    0.0000 </r>
       <r>   40.1945    0.0000 </r>
       <r>   40.2063    0.0000 </r>
       <r>   40.2072    0.0000 </r>
       <r>   40.5150    0.0000 </r>
       <r>   40.5163    0.0000 </r>
       <r>   41.2482    0.0000 </r>
       <r>   41.2492    0.0000 </r>
       <r>   41.3064    0.0000 </r>
       <r>   41.3071    0.0000 </r>
       <r>   41.6217    0.0000 </r>
       <r>   41.6222    0.0000 </r>
       <r>   41.9789    0.0000 </r>
       <r>   41.9795    0.0000 </r>
       <r>   42.9036    0.0000 </r>
       <r>   42.9042    0.0000 </r>
       <r>   43.3914    0.0000 </r>
       <r>   43.3921    0.0000 </r>
       <r>   43.6074    0.0000 </r>
       <r>   43.6079    0.0000 </r>
       <r>   44.0165    0.0000 </r>
       <r>   44.0179    0.0000 </r>
       <r>   44.5711    0.0000 </r>
       <r>   44.5720    0.0000 </r>
       <r>   45.9256    0.0000 </r>
       <r>   45.9271    0.0000 </r>
       <r>   47.2970    0.0000 </r>
       <r>   47.2976    0.0000 </r>
       <r>   47.3311    0.0000 </r>
       <r>   47.3323    0.0000 </r>
      </set>
      <set comment="kpoint 9">
       <r> -219.5097    1.0000 </r>
       <r> -219.5097    1.0000 </r>
       <r> -137.8468    1.0000 </r>
       <r> -137.8468    1.0000 </r>
       <r>  -90.2212    1.0000 </r>
       <r>  -90.2211    1.0000 </r>
       <r>  -90.1615    1.0000 </r>
       <r>  -90.1614    1.0000 </r>
       <r>  -33.2137    1.0000 </r>
       <r>  -33.2136    1.0000 </r>
       <r>  -33.2111    1.0000 </r>
       <r>  -33.2110    1.0000 </r>
       <r>  -26.1379    1.0000 </r>
       <r>  -26.1375    1.0000 </r>
       <r>  -26.1358    1.0000 </r>
       <r>  -26.1355    1.0000 </r>
       <r>  -26.1338    1.0000 </r>
       <r>  -26.1333    1.0000 </r>
       <r>  -21.3018    1.0000 </r>
       <r>  -21.3012    1.0000 </r>
       <r>   -3.5838    1.0000 </r>
       <r>   -3.5828    1.0000 </r>
       <r>    1.3432    1.0000 </r>
       <r>    1.3455    1.0000 </r>
       <r>    2.8471    1.0000 </r>
       <r>    2.8500    1.0000 </r>
       <r>    6.8408    0.0000 </r>
       <r>    6.8417    0.0000 </r>
       <r>    9.0977    0.0000 </r>
       <r>    9.0990    0.0000 </r>
       <r>    9.5444    0.0000 </r>
       <r>    9.5458    0.0000 </r>
       <r>   11.5102    0.0000 </r>
       <r>   11.5111    0.0000 </r>
       <r>   12.7442    0.0000 </r>
       <r>   12.7451    0.0000 </r>
       <r>   13.4272    0.0000 </r>
       <r>   13.4281    0.0000 </r>
       <r>   14.0595    0.0000 </r>
       <r>   14.0608    0.0000 </r>
       <r>   15.8194    0.0000 </r>
       <r>   15.8206    0.0000 </r>
       <r>   16.2000    0.0000 </r>
       <r>   16.2017    0.0000 </r>
       <r>   17.3112    0.0000 </r>
       <r>   17.3128    0.0000 </r>
       <r>   17.8151    0.0000 </r>
[...]
       <r>   -22.2986     0.0000     0.0000 </r>
       <r>   -21.3093     0.0000     0.0000 </r>
       <r>   -20.3200     0.0000     0.0000 </r>
       <r>   -19.3307     0.0000     0.0000 </r>
       <r>   -18.3414     0.0000     0.0000 </r>
       <r>   -17.3521     0.0000     0.0000 </r>
       <r>   -16.3628     0.0000     0.0000 </r>
       <r>   -15.3735     0.0000     0.0000 </r>
       <r>   -14.3842     0.0000     0.0000 </r>
       <r>   -13.3949     0.0000     0.0000 </r>
       <r>   -12.4056     0.0000     0.0000 </r>
       <r>   -11.4163     0.0000     0.0000 </r>
       <r>   -10.4270     0.0000     0.0000 </r>
       <r>    -9.4377     0.0000     0.0000 </r>
       <r>    -8.4484     0.0000     0.0000 </r>
       <r>    -7.4592     0.0000     0.0000 </r>
       <r>    -6.4699     0.0000     0.0000 </r>
       <r>    -5.4806     0.0000     0.0000 </r>
       <r>    -4.4913     0.0000     0.0000 </r>
       <r>    -3.5020     0.0000     0.0000 </r>
       <r>    -2.5127     0.0000     0.0000 </r>
       <r>    -1.5234     0.0000     0.0000 </r>
       <r>    -0.5341     0.0000     0.0000 </r>
       <r>     0.4552     0.0000     0.0000 </r>
       <r>     1.4445     0.0000     0.0000 </r>
       <r>     2.4338     0.0000     0.0000 </r>
       <r>     3.4231     0.0000     0.0000 </r>
       <r>     4.4124     0.0000     0.0000 </r>
       <r>     5.4017     0.0000     0.0000 </r>
       <r>     6.3910     0.0000     0.0000 </r>
       <r>     7.3803     0.0000     0.0000 </r>
       <r>     8.3695     0.0000     0.0000 </r>
       <r>     9.3588     0.0000     0.0000 </r>
       <r>    10.3481     0.0000     0.0000 </r>
       <r>    11.3374     0.0000     0.0000 </r>
       <r>    12.3267     0.0000     0.0000 </r>
       <r>    13.3160     0.0000     0.0000 </r>
       <r>    14.3053     0.0000     0.0000 </r>
       <r>    15.2946     0.0000     0.0000 </r>
       <r>    16.2839     0.0000     0.0000 </r>
       <r>    17.2732     0.0000     0.0000 </r>
       <r>    18.2625     0.0000     0.0000 </r>
       <r>    19.2518     0.0000     0.0000 </r>
       <r>    20.2411     0.0000     0.0000 </r>
       <r>    21.2304     0.0000     0.0000 </r>
       <r>    22.2197     0.0000     0.0000 </r>
       <r>    23.2090     0.0000     0.0000 </r>
       <r>    24.1983     0.0000     0.0000 </r>
       <r>    25.1875     0.0000     0.0000 </r>
       <r>    26.1768     0.0000     0.0000 </r>
       <r>    27.1661     0.0000     0.0000 </r>
       <r>    28.1554     0.0000     0.0000 </r>
       <r>    29.1447     0.0000     0.0000 </r>
       <r>    30.1340     0.0000     0.0000 </r>
       <r>    31.1233     0.0000     0.0000 </r>
       <r>    32.1126     0.0000     0.0000 </r>
       <r>    33.1019     0.0000     0.0000 </r>
       <r>    34.0912     0.0000     0.0000 </r>
       <r>    35.0805     0.0000     0.0000 </r>
       <r>    36.0698     0.0000     0.0000 </r>
       <r>    37.0591     0.0000     0.0000 </r>
       <r>    38.0484     0.0000     0.0000 </r>
       <r>    39.0377     0.0000     0.0000 </r>
       <r>    40.0270     0.0000     0.0000 </r>
       <r>    41.0162     0.0000     0.0000 </r>
       <r>    42.0055     0.0000     0.0000 </r>
       <r>    42.9948     0.0000     0.0000 </r>
       <r>    43.9841     0.0000     0.0000 </r>
       <r>    44.9734     0.0000     0.0000 </r>
       <r>    45.9627     0.0000     0.0000 </r>
       <r>    46.9520     0.0000     0.0000 </r>
       <r>    47.9413     0.0000     0.0000 </r>
       <r>    48.9306     0.0000     0.0000 </r>
       <r>    49.9199     0.0000     0.0000 </r>
       <r>    50.9092     0.0000     0.0000 </r>
       <r>    51.8985     0.0000     0.0000 </r>
       <r>    52.8878     0.0000     0.0000 </r>
       <r>    53.8771     0.0000     0.0000 </r>
       <r>    54.8664     0.0000     0.0000 </r>
       <r>    55.8557     0.0000     0.0000 </r>
       <r>    56.8449     0.0000     0.0000 </r>
       <r>    57.8342     0.0000     0.0000 </r>
       <r>    58.8235     0.0000     0.0000 </r>
       <r>    59.8128     0.0000     0.0000 </r>
       <r>    60.8021     0.0000     0.0000 </r>
       <r>    61.7914     0.0000     0.0000 </r>
       <r>    62.7807     0.0000     0.0000 </r>
       <r>    63.7700     0.0000     0.0000 </r>
      </set>
      <set comment="spin 4">
       <r>  -233.0182     0.0000     0.0000 </r>
       <r>  -232.0289     0.0000     0.0000 </r>
       <r>  -231.0396     0.0000     0.0000 </r>
       <r>  -230.0503     0.0000     0.0000 </r>
       <r>  -229.0610     0.0000     0.0000 </r>
       <r>  -228.0717     0.0000     0.0000 </r>
       <r>  -227.0824     0.0000     0.0000 </r>
       <r>  -226.0931     0.0000     0.0000 </r>
       <r>  -225.1038     0.0000     0.0000 </r>
       <r>  -224.1145     0.0000     0.0000 </r>
       <r>  -223.1252     0.0000     0.0000 </r>
       <r>  -222.1359     0.0000     0.0000 </r>
       <r>  -221.1466     0.0000     0.0000 </r>
       <r>  -220.1573     0.0000     0.0000 </r>
       <r>  -219.1680     0.0000     0.0000 </r>
       <r>  -218.1787     0.0000     0.0000 </r>
       <r>  -217.1895     0.0000     0.0000 </r>
       <r>  -216.2002     0.0000     0.0000 </r>
       <r>  -215.2109     0.0000     0.0000 </r>
       <r>  -214.2216     0.0000     0.0000 </r>
       <r>  -213.2323     0.0000     0.0000 </r>
       <r>  -212.2430     0.0000     0.0000 </r>
       <r>  -211.2537     0.0000     0.0000 </r>
       <r>  -210.2644     0.0000     0.0000 </r>
       <r>  -209.2751     0.0000     0.0000 </r>
       <r>  -208.2858     0.0000     0.0000 </r>
       <r>  -207.2965     0.0000     0.0000 </r>
       <r>  -206.3072     0.0000     0.0000 </r>
       <r>  -205.3179     0.0000     0.0000 </r>
       <r>  -204.3286     0.0000     0.0000 </r>
       <r>  -203.3393     0.0000     0.0000 </r>
       <r>  -202.3500     0.0000     0.0000 </r>
       <r>  -201.3608     0.0000     0.0000 </r>
       <r>  -200.3715     0.0000     0.0000 </r>
       <r>  -199.3822     0.0000     0.0000 </r>
       <r>  -198.3929     0.0000     0.0000 </r>
       <r>  -197.4036     0.0000     0.0000 </r>
       <r>  -196.4143     0.0000     0.0000 </r>
       <r>  -195.4250     0.0000     0.0000 </r>
       <r>  -194.4357     0.0000     0.0000 </r>
       <r>  -193.4464     0.0000     0.0000 </r>
       <r>  -192.4571     0.0000     0.0000 </r>
       <r>  -191.4678     0.0000     0.0000 </r>
       <r>  -190.4785     0.0000     0.0000 </r>
       <r>  -189.4892     0.0000     0.0000 </r>
       <r>  -188.4999     0.0000     0.0000 </r>
       <r>  -187.5106     0.0000     0.0000 </r>
       <r>  -186.5213     0.0000     0.0000 </r>
       <r>  -185.5320     0.0000     0.0000 </r>
       <r>  -184.5428     0.0000     0.0000 </r>
       <r>  -183.5535     0.0000     0.0000 </r>
       <r>  -182.5642     0.0000     0.0000 </r>
       <r>  -181.5749     0.0000     0.0000 </r>
       <r>  -180.5856     0.0000     0.0000 </r>
       <r>  -179.5963     0.0000     0.0000 </r>
       <r>  -178.6070     0.0000     0.0000 </r>
       <r>  -177.6177     0.0000     0.0000 </r>
       <r>  -176.6284     0.0000     0.0000 </r>
       <r>  -175.6391     0.0000     0.0000 </r>
       <r>  -174.6498     0.0000     0.0000 </r>
       <r>  -173.6605     0.0000     0.0000 </r>
       <r>  -172.6712     0.0000     0.0000 </r>
       <r>  -171.6819     0.0000     0.0000 </r>
       <r>  -170.6926     0.0000     0.0000 </r>
       <r>  -169.7033     0.0000     0.0000 </r>
       <r>  -168.7141     0.0000     0.0000 </r>
       <r>  -167.7248     0.0000     0.0000 </r>
       <r>  -166.7355     0.0000     0.0000 </r>
       <r>  -165.7462     0.0000     0.0000 </r>
       <r>  -164.7569     0.0000     0.0000 </r>
       <r>  -163.7676     0.0000     0.0000 </r>
       <r>  -162.7783     0.0000     0.0000 </r>
       <r>  -161.7890     0.0000     0.0000 </r>
       <r>  -160.7997     0.0000     0.0000 </r>
       <r>  -159.8104     0.0000     0.0000 </r>
       <r>  -158.8211     0.0000     0.0000 </r>
       <r>  -157.8318     0.0000     0.0000 </r>
       <r>  -156.8425     0.0000     0.0000 </r>
       <r>  -155.8532     0.0000     0.0000 </r>
       <r>  -154.8639     0.0000     0.0000 </r>
       <r>  -153.8746     0.0000     0.0000 </r>
       <r>  -152.8854     0.0000     0.0000 </r>
       <r>  -151.8961     0.0000     0.0000 </r>
       <r>  -150.9068     0.0000     0.0000 </r>
       <r>  -149.9175     0.0000     0.0000 </r>
       <r>  -148.9282     0.0000     0.0000 </r>
       <r>  -147.9389     0.0000     0.0000 </r>
       <r>  -146.9496     0.0000     0.0000 </r>
       <r>  -145.9603     0.0000     0.0000 </r>
       <r>  -144.9710     0.0000     0.0000 </r>
       <r>  -143.9817     0.0000     0.0000 </r>
       <r>  -142.9924     0.0000     0.0000 </r>
       <r>  -142.0031     0.0000     0.0000 </r>
       <r>  -141.0138     0.0000     0.0000 </r>
       <r>  -140.0245     0.0000     0.0000 </r>
       <r>  -139.0352     0.0000     0.0000 </r>
       <r>  -138.0459     0.0000     0.0000 </r>
       <r>  -137.0566     0.0000     0.0000 </r>
       <r>  -136.0674     0.0000     0.0000 </r>
       <r>  -135.0781     0.0000     0.0000 </r>
       <r>  -134.0888     0.0000     0.0000 </r>
       <r>  -133.0995     0.0000     0.0000 </r>
       <r>  -132.1102     0.0000     0.0000 </r>
       <r>  -131.1209     0.0000     0.0000 </r>
       <r>  -130.1316     0.0000     0.0000 </r>
       <r>  -129.1423     0.0000     0.0000 </r>
       <r>  -128.1530     0.0000     0.0000 </r>
       <r>  -127.1637     0.0000     0.0000 </r>
       <r>  -126.1744     0.0000     0.0000 </r>
       <r>  -125.1851     0.0000     0.0000 </r>
       <r>  -124.1958     0.0000     0.0000 </r>
       <r>  -123.2065     0.0000     0.0000 </r>
       <r>  -122.2172     0.0000     0.0000 </r>
       <r>  -121.2279     0.0000     0.0000 </r>
       <r>  -120.2387     0.0000     0.0000 </r>
       <r>  -119.2494     0.0000     0.0000 </r>
       <r>  -118.2601     0.0000     0.0000 </r>
       <r>  -117.2708     0.0000     0.0000 </r>
       <r>  -116.2815     0.0000     0.0000 </r>
       <r>  -115.2922     0.0000     0.0000 </r>
       <r>  -114.3029     0.0000     0.0000 </r>
       <r>  -113.3136     0.0000     0.0000 </r>
       <r>  -112.3243     0.0000     0.0000 </r>
       <r>  -111.3350     0.0000     0.0000 </r>
       <r>  -110.3457     0.0000     0.0000 </r>
       <r>  -109.3564     0.0000     0.0000 </r>
       <r>  -108.3671     0.0000     0.0000 </r>
       <r>  -107.3778     0.0000     0.0000 </r>
       <r>  -106.3885     0.0000     0.0000 </r>
       <r>  -105.3992     0.0000     0.0000 </r>
       <r>  -104.4100     0.0000     0.0000 </r>
       <r>  -103.4207     0.0000     0.0000 </r>
       <r>  -102.4314     0.0000     0.0000 </r>
       <r>  -101.4421     0.0000     0.0000 </r>
       <r>  -100.4528     0.0000     0.0000 </r>
       <r>   -99.4635     0.0000     0.0000 </r>
       <r>   -98.4742     0.0000     0.0000 </r>
       <r>   -97.4849     0.0000     0.0000 </r>
       <r>   -96.4956     0.0000     0.0000 </r>
       <r>   -95.5063     0.0000     0.0000 </r>
       <r>   -94.5170     0.0000     0.0000 </r>
       <r>   -93.5277     0.0000     0.0000 </r>
       <r>   -92.5384     0.0000     0.0000 </r>
       <r>   -91.5491     0.0000     0.0000 </r>
       <r>   -90.5598     0.0000     0.0000 </r>
       <r>   -89.5705     0.0000     0.0000 </r>
       <r>   -88.5813     0.0000     0.0000 </r>
       <r>   -87.5920     0.0000     0.0000 </r>
       <r>   -86.6027     0.0000     0.0000 </r>
       <r>   -85.6134     0.0000     0.0000 </r>
       <r>   -84.6241     0.0000     0.0000 </r>
       <r>   -83.6348     0.0000     0.0000 </r>
       <r>   -82.6455     0.0000     0.0000 </r>
       <r>   -81.6562     0.0000     0.0000 </r>
       <r>   -80.6669     0.0000     0.0000 </r>
       <r>   -79.6776     0.0000     0.0000 </r>
       <r>   -78.6883     0.0000     0.0000 </r>
       <r>   -77.6990     0.0000     0.0000 </r>
       <r>   -76.7097     0.0000     0.0000 </r>
       <r>   -75.7204     0.0000     0.0000 </r>
       <r>   -74.7311     0.0000     0.0000 </r>
       <r>   -73.7418     0.0000     0.0000 </r>
       <r>   -72.7525     0.0000     0.0000 </r>
       <r>   -71.7633     0.0000     0.0000 </r>
       <r>   -70.7740     0.0000     0.0000 </r>
       <r>   -69.7847     0.0000     0.0000 </r>
       <r>   -68.7954     0.0000     0.0000 </r>
       <r>   -67.8061     0.0000     0.0000 </r>
       <r>   -66.8168     0.0000     0.0000 </r>
       <r>   -65.8275     0.0000     0.0000 </r>
       <r>   -64.8382     0.0000     0.0000 </r>
       <r>   -63.8489     0.0000     0.0000 </r>
       <r>   -62.8596     0.0000     0.0000 </r>
       <r>   -61.8703     0.0000     0.0000 </r>
       <r>   -60.8810     0.0000     0.0000 </r>
       <r>   -59.8917     0.0000     0.0000 </r>
       <r>   -58.9024     0.0000     0.0000 </r>
       <r>   -57.9131     0.0000     0.0000 </r>
       <r>   -56.9238     0.0000     0.0000 </r>
       <r>   -55.9346     0.0000     0.0000 </r>
       <r>   -54.9453     0.0000     0.0000 </r>
       <r>   -53.9560     0.0000     0.0000 </r>
       <r>   -52.9667     0.0000     0.0000 </r>
       <r>   -51.9774     0.0000     0.0000 </r>
       <r>   -50.9881     0.0000     0.0000 </r>
       <r>   -49.9988     0.0000     0.0000 </r>
       <r>   -49.0095     0.0000     0.0000 </r>
       <r>   -48.0202     0.0000     0.0000 </r>
       <r>   -47.0309     0.0000     0.0000 </r>
       <r>   -46.0416     0.0000     0.0000 </r>
       <r>   -45.0523     0.0000     0.0000 </r>
       <r>   -44.0630     0.0000     0.0000 </r>
       <r>   -43.0737     0.0000     0.0000 </r>
       <r>   -42.0844     0.0000     0.0000 </r>
       <r>   -41.0951     0.0000     0.0000 </r>
       <r>   -40.1059     0.0000     0.0000 </r>
       <r>   -39.1166     0.0000     0.0000 </r>
       <r>   -38.1273     0.0000     0.0000 </r>
       <r>   -37.1380     0.0000     0.0000 </r>
       <r>   -36.1487     0.0000     0.0000 </r>
       <r>   -35.1594     0.0000     0.0000 </r>
       <r>   -34.1701     0.0000     0.0000 </r>
       <r>   -33.1808     0.0000     0.0000 </r>
       <r>   -32.1915     0.0000     0.0000 </r>
       <r>   -31.2022     0.0000     0.0000 </r>
       <r>   -30.2129     0.0000     0.0000 </r>
       <r>   -29.2236     0.0000     0.0000 </r>
       <r>   -28.2343     0.0000     0.0000 </r>
       <r>   -27.2450     0.0000     0.0000 </r>
       <r>   -26.2557     0.0000     0.0000 </r>
       <r>   -25.2664     0.0000     0.0000 </r>
       <r>   -24.2771     0.0000     0.0000 </r>
       <r>   -23.2879     0.0000     0.0000 </r>
       <r>   -22.2986     0.0000     0.0000 </r>
       <r>   -21.3093     0.0000     0.0000 </r>
       <r>   -20.3200     0.0000     0.0000 </r>
       <r>   -19.3307     0.0000     0.0000 </r>
       <r>   -18.3414     0.0000     0.0000 </r>
       <r>   -17.3521     0.0000     0.0000 </r>
       <r>   -16.3628     0.0000     0.0000 </r>
       <r>   -15.3735     0.0000     0.0000 </r>
       <r>   -14.3842     0.0000     0.0000 </r>
       <r>   -13.3949     0.0000     0.0000 </r>
       <r>   -12.4056     0.0000     0.0000 </r>
       <r>   -11.4163     0.0000     0.0000 </r>
       <r>   -10.4270     0.0000     0.0000 </r>
       <r>    -9.4377     0.0000     0.0000 </r>
       <r>    -8.4484     0.0000     0.0000 </r>
       <r>    -7.4592     0.0000     0.0000 </r>
       <r>    -6.4699     0.0000     0.0000 </r>
       <r>    -5.4806     0.0000     0.0000 </r>
       <r>    -4.4913     0.0000     0.0000 </r>
       <r>    -3.5020     0.0000     0.0000 </r>
       <r>    -2.5127     0.0000     0.0000 </r>
       <r>    -1.5234     0.0000     0.0000 </r>
       <r>    -0.5341     0.0000     0.0000 </r>
       <r>     0.4552     0.0000     0.0000 </r>
       <r>     1.4445     0.0000     0.0000 </r>
       <r>     2.4338     0.0000     0.0000 </r>
       <r>     3.4231     0.0000     0.0000 </r>
       <r>     4.4124     0.0000     0.0000 </r>
       <r>     5.4017     0.0000     0.0000 </r>
       <r>     6.3910     0.0000     0.0000 </r>
       <r>     7.3803     0.0000     0.0000 </r>
       <r>     8.3695     0.0000     0.0000 </r>
       <r>     9.3588     0.0000     0.0000 </r>
       <r>    10.3481     0.0000     0.0000 </r>
       <r>    11.3374     0.0000     0.0000 </r>
       <r>    12.3267     0.0000     0.0000 </r>
       <r>    13.3160     0.0000     0.0000 </r>
       <r>    14.3053     0.0000     0.0000 </r>
       <r>    15.2946     0.0000     0.0000 </r>
       <r>    16.2839     0.0000     0.0000 </r>
       <r>    17.2732     0.0000     0.0000 </r>
       <r>    18.2625     0.0000     0.0000 </r>
       <r>    19.2518     0.0000     0.0000 </r>
       <r>    20.2411     0.0000     0.0000 </r>
       <r>    21.2304     0.0000     0.0000 </r>
       <r>    22.2197     0.0000     0.0000 </r>
       <r>    23.2090     0.0000     0.0000 </r>
       <r>    24.1983     0.0000     0.0000 </r>
       <r>    25.1875     0.0000     0.0000 </r>
       <r>    26.1768     0.0000     0.0000 </r>
       <r>    27.1661     0.0000     0.0000 </r>
       <r>    28.1554     0.0000     0.0000 </r>
       <r>    29.1447     0.0000     0.0000 </r>
       <r>    30.1340     0.0000     0.0000 </r>
       <r>    31.1233     0.0000     0.0000 </r>
       <r>    32.1126     0.0000     0.0000 </r>
       <r>    33.1019     0.0000     0.0000 </r>
       <r>    34.0912     0.0000     0.0000 </r>
       <r>    35.0805     0.0000     0.0000 </r>
       <r>    36.0698     0.0000     0.0000 </r>
       <r>    37.0591     0.0000     0.0000 </r>
       <r>    38.0484     0.0000     0.0000 </r>
       <r>    39.0377     0.0000     0.0000 </r>
       <r>    40.0270     0.0000     0.0000 </r>
       <r>    41.0162     0.0000     0.0000 </r>
       <r>    42.0055     0.0000     0.0000 </r>
       <r>    42.9948     0.0000     0.0000 </r>
       <r>    43.9841     0.0000     0.0000 </r>
       <r>    44.9734     0.0000     0.0000 </r>
       <r>    45.9627     0.0000     0.0000 </r>
       <r>    46.9520     0.0000     0.0000 </r>
       <r>    47.9413     0.0000     0.0000 </r>
       <r>    48.9306     0.0000     0.0000 </r>
       <r>    49.9199     0.0000     0.0000 </r>
       <r>    50.9092     0.0000     0.0000 </r>
       <r>    51.8985     0.0000     0.0000 </r>
       <r>    52.8878     0.0000     0.0000 </r>
       <r>    53.8771     0.0000     0.0000 </r>
       <r>    54.8664     0.0000     0.0000 </r>
       <r>    55.8557     0.0000     0.0000 </r>
       <r>    56.8449     0.0000     0.0000 </r>
       <r>    57.8342     0.0000     0.0000 </r>
       <r>    58.8235     0.0000     0.0000 </r>
       <r>    59.8128     0.0000     0.0000 </r>
       <r>    60.8021     0.0000     0.0000 </r>
       <r>    61.7914     0.0000     0.0000 </r>
       <r>    62.7807     0.0000     0.0000 </r>
       <r>    63.7700     0.0000     0.0000 </r>
      </set>
     </set>
    </array>
   </total>
  </dos>
 </calculation>
 <structure name="finalpos" >
  <crystal>
   <varray name="basis" >
    <v>       4.39635018       0.00000000       0.00000000 </v>
    <v>       2.19817509       3.80735094      -0.00000000 </v>
    <v>       2.19817509       1.26911698       3.58960489 </v>
   </varray>
   <i name="volume">     60.08441465 </i>
   <varray name="rec_basis" >
    <v>       0.22746141      -0.13132490      -0.09286073 </v>
    <v>       0.00000000       0.26264981      -0.09286073 </v>
    <v>      -0.00000000       0.00000000       0.27858219 </v>
   </varray>
  </crystal>
  <varray name="positions" >
   <v>       0.00000000       0.00000000       0.00000000 </v>
  </varray>
  <varray name="velocities" >
   <v>       0.00000000       0.00000000       0.00000000 </v>
  </varray>
 </structure>
</modeling>
