    1    1    1    1
  0.5789729E+02  0.4342346E-09  0.4342346E-09  0.4342346E-09  0.1000000E-15
  1.000000000000000E-004
  CAR 
 Og_FCC                                  
     18    343     32
 
  0.0000000E+00  0.0000000E+00  0.0000000E+00  0.2915452E-02
    1      -30.470653   1.000000
    2      -30.470607   1.000000
    3      -30.470520   1.000000
    4      -30.470472   1.000000
    5      -23.804133   1.000000
    6      -23.803863   1.000000
    7      -23.803706   1.000000
    8      -23.803435   1.000000
    9      -23.802922   1.000000
   10      -23.802448   1.000000
   11      -20.208996   1.000000
   12      -20.208491   1.000000
   13       -6.915050   1.000000
   14       -6.914386   1.000000
   15        3.712733   1.000000
   16        3.712970   1.000000
   17        3.959721   0.983139
   18        3.959762   0.980518
   19        3.962682   0.019481
   20        3.962724   0.016862
   21       10.878548   0.000000
   22       10.878676   0.000000
   23       10.879053   0.000000
   24       10.879181   0.000000
   25       11.116013   0.000000
   26       11.116365   0.000000
   27       11.302887   0.000000
   28       11.303777   0.000000
   29       13.215751   0.000000
   30       13.217630   0.000000
   31       13.520540   0.000000
   32       13.520855   0.000000
 
  0.1428571E+00  0.1343080E-17  0.2775558E-16  0.2915452E-02
    1      -30.449284   1.000000
    2      -30.449192   1.000000
    3      -30.447098   1.000000
    4      -30.447095   1.000000
    5      -23.789341   1.000000
    6      -23.789233   1.000000
    7      -23.788338   1.000000
    8      -23.787885   1.000000
    9      -23.786763   1.000000
   10      -23.786310   1.000000
   11      -20.188086   1.000000
   12      -20.187582   1.000000
   13       -6.983550   1.000000
   14       -6.982890   1.000000
   15        2.399809   1.000000
   16        2.400091   1.000000
   17        3.841916   1.000000
   18        3.842504   1.000000
   19        5.324644   0.000000
   20        5.324810   0.000000
   21        9.886821   0.000000
   22        9.887007   0.000000
   23       11.042041   0.000000
   24       11.042072   0.000000
   25       11.346768   0.000000
   26       11.347289   0.000000
   27       12.295078   0.000000
   28       12.295771   0.000000
   29       12.573941   0.000000
   30       12.575215   0.000000
   31       12.730221   0.000000
   32       12.730388   0.000000
 
  0.2857143E+00  0.2686160E-17  0.1387779E-16  0.2915452E-02
    1      -30.456042   1.000000
    2      -30.455950   1.000000
    3      -30.453850   1.000000
    4      -30.453846   1.000000
    5      -23.793124   1.000000
    6      -23.792730   1.000000
    7      -23.791366   1.000000
    8      -23.790961   1.000000
    9      -23.789075   1.000000
   10      -23.788971   1.000000
   11      -20.141456   1.000000
   12      -20.140952   1.000000
   13       -7.138179   1.000000
   14       -7.137527   1.000000
   15        1.341973   1.000000
   16        1.342352   1.000000
   17        3.597929   1.000000
   18        3.598489   1.000000
   19        6.144186   0.000000
   20        6.144576   0.000000
   21       10.116696   0.000000
   22       10.116789   0.000000
   23       10.770635   0.000000
   24       10.770691   0.000000
   25       11.181503   0.000000
   26       11.182476   0.000000
   27       11.402228   0.000000
   28       11.402849   0.000000
   29       12.906215   0.000000
   30       12.906433   0.000000
   31       13.159818   0.000000
   32       13.159962   0.000000
 
  0.4285714E+00  0.4029240E-17  0.2775558E-16  0.2915452E-02
    1      -30.460918   1.000000
    2      -30.460826   1.000000
    3      -30.447670   1.000000
    4      -30.447667   1.000000
    5      -23.796185   1.000000
    6      -23.796064   1.000000
    7      -23.787938   1.000000
    8      -23.787801   1.000000
    9      -23.784357   1.000000
   10      -23.784254   1.000000
   11      -20.103257   1.000000
   12      -20.102754   1.000000
   13       -7.262878   1.000000
   14       -7.262233   1.000000
   15        0.787468   1.000000
   16        0.787895   1.000000
   17        3.421550   1.000000
   18        3.422091   1.000000
   19        6.220157   0.000000
   20        6.220634   0.000000
   21       10.372499   0.000000
   22       10.372571   0.000000
   23       10.558555   0.000000
   24       10.559067   0.000000
   25       10.779833   0.000000
   26       10.780967   0.000000
   27       11.808350   0.000000
   28       11.808447   0.000000
   29       14.244306   0.000000
   30       14.244660   0.000000
   31       14.452200   0.000000
   32       14.452324   0.000000
 
 -0.4285714E+00 -0.4029240E-17 -0.2775558E-16  0.2915452E-02
    1      -30.460918   1.000000
    2      -30.460826   1.000000
    3      -30.447670   1.000000
    4      -30.447667   1.000000
    5      -23.796185   1.000000
    6      -23.796064   1.000000
    7      -23.787938   1.000000
    8      -23.787801   1.000000
    9      -23.784357   1.000000
   10      -23.784254   1.000000
   11      -20.103257   1.000000
   12      -20.102754   1.000000
   13       -7.262878   1.000000
   14       -7.262233   1.000000
   15        0.787468   1.000000
   16        0.787895   1.000000
   17        3.421550   1.000000
   18        3.422091   1.000000
   19        6.220157   0.000000
   20        6.220634   0.000000
   21       10.372499   0.000000
   22       10.372571   0.000000
   23       10.558555   0.000000
   24       10.559067   0.000000
   25       10.779833   0.000000
   26       10.780967   0.000000
   27       11.808350   0.000000
   28       11.808447   0.000000
   29       14.244306   0.000000
   30       14.244660   0.000000
   31       14.452200   0.000000
   32       14.452325   0.000000
 
 -0.2857143E+00 -0.2686160E-17 -0.1387779E-16  0.2915452E-02
    1      -30.456042   1.000000
    2      -30.455950   1.000000
    3      -30.453850   1.000000
    4      -30.453846   1.000000
    5      -23.793124   1.000000
    6      -23.792730   1.000000
    7      -23.791366   1.000000
    8      -23.790961   1.000000
    9      -23.789075   1.000000
   10      -23.788971   1.000000
   11      -20.141456   1.000000
   12      -20.140952   1.000000
   13       -7.138179   1.000000
   14       -7.137527   1.000000
   15        1.341973   1.000000
   16        1.342352   1.000000
   17        3.597929   1.000000
   18        3.598489   1.000000
   19        6.144186   0.000000
   20        6.144576   0.000000
   21       10.116696   0.000000
   22       10.116789   0.000000
   23       10.770635   0.000000
   24       10.770691   0.000000
   25       11.181503   0.000000
   26       11.182476   0.000000
   27       11.402228   0.000000
   28       11.402849   0.000000
   29       12.906215   0.000000
   30       12.906433   0.000000
   31       13.159819   0.000000
   32       13.159962   0.000000
 
 -0.1428571E+00 -0.1343080E-17 -0.1387779E-16  0.2915452E-02
    1      -30.449284   1.000000
    2      -30.449192   1.000000
    3      -30.447098   1.000000
    4      -30.447095   1.000000
    5      -23.789341   1.000000
    6      -23.789233   1.000000
    7      -23.788338   1.000000
    8      -23.787885   1.000000
    9      -23.786763   1.000000
   10      -23.786310   1.000000
   11      -20.188086   1.000000
   12      -20.187582   1.000000
   13       -6.983550   1.000000
   14       -6.982890   1.000000
   15        2.399809   1.000000
   16        2.400091   1.000000
   17        3.841916   1.000000
   18        3.842504   1.000000
   19        5.324644   0.000000
   20        5.324810   0.000000
   21        9.886821   0.000000
   22        9.887007   0.000000
   23       11.042041   0.000000
   24       11.042072   0.000000
   25       11.346768   0.000000
   26       11.347289   0.000000
   27       12.295078   0.000000
   28       12.295771   0.000000
   29       12.573941   0.000000
   30       12.575215   0.000000
   31       12.730221   0.000000
   32       12.730388   0.000000
 
  0.0000000E+00  0.1428571E+00  0.0000000E+00  0.2915452E-02
    1      -30.449287   1.000000
    2      -30.449188   1.000000
    3      -30.447131   1.000000
    4      -30.447062   1.000000
    5      -23.789424   1.000000
    6      -23.789143   1.000000
    7      -23.788315   1.000000
    8      -23.787918   1.000000
    9      -23.786754   1.000000
   10      -23.786315   1.000000
   11      -20.188086   1.000000
   12      -20.187582   1.000000
   13       -6.983550   1.000000
   14       -6.982891   1.000000
   15        2.399584   1.000000
   16        2.400315   1.000000
   17        3.841575   1.000000
   18        3.842844   1.000000
   19        5.324517   0.000000
   20        5.324938   0.000000
   21        9.886785   0.000000
   22        9.887043   0.000000
   23       11.041984   0.000000
   24       11.042129   0.000000
   25       11.346797   0.000000
   26       11.347260   0.000000
   27       12.295111   0.000000
   28       12.295739   0.000000
   29       12.573954   0.000000
   30       12.575203   0.000000
   31       12.730033   0.000000
   32       12.730577   0.000000
 
  0.1428571E+00  0.1428571E+00  0.2775558E-16  0.2915452E-02
    1      -30.458731   1.000000
    2      -30.458629   1.000000
    3      -30.448869   1.000000
    4      -30.448729   1.000000
    5      -23.796583   1.000000
    6      -23.796263   1.000000
    7      -23.791213   1.000000
    8      -23.790774   1.000000
    9      -23.787288   1.000000
   10      -23.786888   1.000000
   11      -20.181262   1.000000
   12      -20.180758   1.000000
   13       -7.005017   1.000000
   14       -7.004358   1.000000
   15        2.285008   1.000000
   16        2.286784   1.000000
   17        3.562560   1.000000
   18        3.565348   1.000000
   19        5.751619   0.000000
   20        5.752686   0.000000
   21        9.433553   0.000000
   22        9.433973   0.000000
   23       10.912007   0.000000
   24       10.912525   0.000000
   25       11.342313   0.000000
   26       11.343407   0.000000
   27       11.868113   0.000000
   28       11.868995   0.000000
   29       13.198494   0.000000
   30       13.198942   0.000000
   31       13.933541   0.000000
   32       13.934998   0.000000
 
  0.2857143E+00  0.1428571E+00  0.2775558E-16  0.2915452E-02
    1      -30.455941   1.000000
    2      -30.455852   1.000000
    3      -30.450072   1.000000
    4      -30.449937   1.000000
    5      -23.794165   1.000000
    6      -23.793997   1.000000
    7      -23.789206   1.000000
    8      -23.788980   1.000000
    9      -23.786340   1.000000
   10      -23.786045   1.000000
   11      -20.143327   1.000000
   12      -20.142823   1.000000
   13       -7.127461   1.000000
   14       -7.126808   1.000000
   15        1.504613   1.000000
   16        1.505800   1.000000
   17        3.228178   1.000000
   18        3.229909   1.000000
   19        6.653550   0.000000
   20        6.654182   0.000000
   21        9.212937   0.000000
   22        9.213259   0.000000
   23        9.925420   0.000000
   24        9.926312   0.000000
   25       11.568091   0.000000
   26       11.568637   0.000000
   27       12.579386   0.000000
   28       12.579431   0.000000
   29       13.329551   0.000000
   30       13.330177   0.000000
   31       13.949333   0.000000
   32       13.949706   0.000000
 
  0.4285714E+00  0.1428571E+00  0.5551115E-16  0.2915452E-02
    1      -30.454283   1.000000
    2      -30.454157   1.000000
    3      -30.447748   1.000000
    4      -30.447696   1.000000
    5      -23.789761   1.000000
    6      -23.789582   1.000000
    7      -23.787728   1.000000
    8      -23.787518   1.000000
    9      -23.784437   1.000000
   10      -23.784207   1.000000
   11      -20.102176   1.000000
   12      -20.101673   1.000000
   13       -7.258036   1.000000
   14       -7.257390   1.000000
   15        0.909501   1.000000
   16        0.910082   1.000000
   17        2.919053   1.000000
   18        2.919836   1.000000
   19        6.948624   0.000000
   20        6.949176   0.000000
   21        9.193207   0.000000
   22        9.193845   0.000000
   23       10.393478   0.000000
   24       10.393770   0.000000
   25       11.289507   0.000000
   26       11.290136   0.000000
   27       12.782852   0.000000
   28       12.783513   0.000000
   29       13.595770   0.000000
   30       13.595977   0.000000
   31       14.856597   0.000000
   32       14.857012   0.000000
 
 -0.4285714E+00  0.1428571E+00 -0.5551115E-16  0.2915452E-02
    1      -30.464162   1.000000
    2      -30.464056   1.000000
    3      -30.449679   1.000000
    4      -30.449656   1.000000
    5      -23.796724   1.000000
    6      -23.796684   1.000000
    7      -23.788318   1.000000
    8      -23.788096   1.000000
    9      -23.787481   1.000000
   10      -23.787356   1.000000
   11      -20.089347   1.000000
   12      -20.088845   1.000000
   13       -7.298410   1.000000
   14       -7.297767   1.000000
   15        0.747224   1.000000
   16        0.747725   1.000000
   17        2.820313   1.000000
   18        2.820944   1.000000
   19        7.010882   0.000000
   20        7.011352   0.000000
   21        9.066497   0.000000
   22        9.067116   0.000000
   23       10.804046   0.000000
   24       10.804446   0.000000
   25       11.628730   0.000000
   26       11.628882   0.000000
   27       12.909423   0.000000
   28       12.910147   0.000000
   29       13.509196   0.000000
   30       13.509535   0.000000
   31       14.167792   0.000000
   32       14.168203   0.000000
 
 -0.2857143E+00  0.1428571E+00 -0.4857226E-16  0.2915452E-02
    1      -30.462653   1.000000
    2      -30.462508   1.000000
    3      -30.452691   1.000000
    4      -30.452609   1.000000
    5      -23.795567   1.000000
    6      -23.795314   1.000000
    7      -23.792766   1.000000
    8      -23.792352   1.000000
    9      -23.788214   1.000000
   10      -23.787896   1.000000
   11      -20.114940   1.000000
   12      -20.114437   1.000000
   13       -7.218766   1.000000
   14       -7.218122   1.000000
   15        1.054264   1.000000
   16        1.055118   1.000000
   17        3.015491   1.000000
   18        3.016708   1.000000
   19        6.992045   0.000000
   20        6.992423   0.000000
   21        9.414938   0.000000
   22        9.415404   0.000000
   23       10.293571   0.000000
   24       10.293924   0.000000
   25       11.075621   0.000000
   26       11.076263   0.000000
   27       12.579945   0.000000
   28       12.580421   0.000000
   29       13.164604   0.000000
   30       13.165432   0.000000
   31       14.446819   0.000000
   32       14.447086   0.000000
 
 -0.1428571E+00  0.1428571E+00 -0.9266656E-17  0.2915452E-02
    1      -30.454444   1.000000
    2      -30.454296   1.000000
    3      -30.445035   1.000000
    4      -30.444930   1.000000
    5      -23.792158   1.000000
    6      -23.791985   1.000000
    7      -23.789809   1.000000
    8      -23.789490   1.000000
    9      -23.782760   1.000000
   10      -23.782410   1.000000
   11      -20.158810   1.000000
   12      -20.158306   1.000000
   13       -7.078921   1.000000
   14       -7.078269   1.000000
   15        1.728561   1.000000
   16        1.729770   1.000000
   17        3.449047   1.000000
   18        3.450959   1.000000
   19        6.301807   0.000000
   20        6.302276   0.000000
   21        9.512425   0.000000
   22        9.512656   0.000000
   23       10.519520   0.000000
   24       10.520114   0.000000
   25       11.473286   0.000000
   26       11.473532   0.000000
   27       11.664570   0.000000
   28       11.665265   0.000000
   29       13.021952   0.000000
   30       13.022633   0.000000
   31       13.642658   0.000000
   32       13.643519   0.000000
 
  0.3851860E-33  0.2857143E+00 -0.1387779E-16  0.2915452E-02
    1      -30.456045   1.000000
    2      -30.455946   1.000000
    3      -30.453883   1.000000
    4      -30.453814   1.000000
    5      -23.793116   1.000000
    6      -23.792740   1.000000
    7      -23.791333   1.000000
    8      -23.790988   1.000000
    9      -23.789166   1.000000
   10      -23.788884   1.000000
   11      -20.141456   1.000000
   12      -20.140952   1.000000
   13       -7.138177   1.000000
   14       -7.137530   1.000000
   15        1.341745   1.000000
   16        1.342580   1.000000
   17        3.597612   1.000000
   18        3.598806   1.000000
   19        6.144207   0.000000
   20        6.144555   0.000000
   21       10.116592   0.000000
   22       10.116894   0.000000
   23       10.770584   0.000000
   24       10.770742   0.000000
   25       11.181531   0.000000
   26       11.182448   0.000000
   27       11.402263   0.000000
   28       11.402813   0.000000
   29       12.906167   0.000000
   30       12.906481   0.000000
   31       13.159675   0.000000
   32       13.160105   0.000000
 
  0.1428571E+00  0.2857143E+00  0.0000000E+00  0.2915452E-02
    1      -30.455949   1.000000
    2      -30.455844   1.000000
    3      -30.450074   1.000000
    4      -30.449934   1.000000
    5      -23.794166   1.000000
    6      -23.793995   1.000000
    7      -23.789212   1.000000
    8      -23.788974   1.000000
    9      -23.786348   1.000000
   10      -23.786038   1.000000
   11      -20.143327   1.000000
   12      -20.142823   1.000000
   13       -7.127460   1.000000
   14       -7.126809   1.000000
   15        1.504605   1.000000
   16        1.505808   1.000000
   17        3.228169   1.000000
   18        3.229918   1.000000
   19        6.653557   0.000000
   20        6.654174   0.000000
   21        9.212878   0.000000
   22        9.213318   0.000000
   23        9.925441   0.000000
   24        9.926291   0.000000
   25       11.568148   0.000000
   26       11.568580   0.000000
   27       12.579265   0.000000
   28       12.579552   0.000000
   29       13.329564   0.000000
   30       13.330165   0.000000
   31       13.949247   0.000000
   32       13.949792   0.000000
 
  0.2857143E+00  0.2857143E+00  0.2775558E-16  0.2915452E-02
    1      -30.459926   1.000000
    2      -30.459824   1.000000
    3      -30.457374   1.000000
    4      -30.457235   1.000000
    5      -23.796443   1.000000
    6      -23.796125   1.000000
    7      -23.792770   1.000000
    8      -23.792375   1.000000
    9      -23.789635   1.000000
   10      -23.789238   1.000000
   11      -20.119307   1.000000
   12      -20.118803   1.000000
   13       -7.198533   1.000000
   14       -7.197884   1.000000
   15        1.281056   1.000000
   16        1.283108   1.000000
   17        2.842667   1.000000
   18        2.845261   1.000000
   19        6.962810   0.000000
   20        6.963166   0.000000
   21        8.350134   0.000000
   22        8.350560   0.000000
   23        9.746787   0.000000
   24        9.747919   0.000000
   25       12.260833   0.000000
   26       12.261803   0.000000
   27       13.348303   0.000000
   28       13.348866   0.000000
   29       14.855568   0.000000
   30       14.856303   0.000000
   31       15.563521   0.000000
   32       15.568534   0.000000
 
  0.4285714E+00  0.2857143E+00  0.5551115E-16  0.2915452E-02
    1      -30.461870   1.000000
    2      -30.461797   1.000000
    3      -30.456184   1.000000
    4      -30.456098   1.000000
    5      -23.795239   1.000000
    6      -23.795098   1.000000
    7      -23.792143   1.000000
    8      -23.791927   1.000000
    9      -23.789162   1.000000
   10      -23.788920   1.000000
   11      -20.086912   1.000000
   12      -20.086408   1.000000
   13       -7.294849   1.000000
   14       -7.294205   1.000000
   15        0.949059   1.000000
   16        0.950846   1.000000
   17        2.437675   1.000000
   18        2.439751   1.000000
   19        7.038349   0.000000
   20        7.038757   0.000000
   21        8.414992   0.000000
   22        8.415337   0.000000
   23        9.928592   0.000000
   24        9.929438   0.000000
   25       12.496913   0.000000
   26       12.497525   0.000000
   27       13.903652   0.000000
   28       13.903809   0.000000
   29       15.320709   0.000000
   30       15.321021   0.000000
   31       15.471074   0.000000
   32       15.471677   0.000000
 
 -0.4285714E+00  0.2857143E+00 -0.4857226E-16  0.2915452E-02
    1      -30.473972   1.000000
    2      -30.473841   1.000000
    3      -30.460161   1.000000
    4      -30.460100   1.000000
    5      -23.802881   1.000000
    6      -23.802757   1.000000
    7      -23.795670   1.000000
    8      -23.795394   1.000000
    9      -23.792495   1.000000
   10      -23.792359   1.000000
   11      -20.070940   1.000000
   12      -20.070438   1.000000
   13       -7.341574   1.000000
   14       -7.340933   1.000000
   15        0.809711   1.000000
   16        0.810835   1.000000
   17        2.118228   1.000000
   18        2.119472   1.000000
   19        7.331446   0.000000
   20        7.331994   0.000000
   21        8.826595   0.000000
   22        8.826801   0.000000
   23       10.737853   0.000000
   24       10.738082   0.000000
   25       11.926654   0.000000
   26       11.927135   0.000000
   27       12.970767   0.000000
   28       12.971038   0.000000
   29       14.299765   0.000000
   30       14.300187   0.000000
   31       15.338820   0.000000
   32       15.339805   0.000000
 
 -0.2857143E+00  0.2857143E+00 -0.2635432E-16  0.2915452E-02
    1      -30.466581   1.000000
    2      -30.466446   1.000000
    3      -30.454838   1.000000
    4      -30.454766   1.000000
    5      -23.796829   1.000000
    6      -23.796738   1.000000
    7      -23.792973   1.000000
    8      -23.792685   1.000000
    9      -23.789755   1.000000
   10      -23.789649   1.000000
   11      -20.083422   1.000000
   12      -20.082919   1.000000
   13       -7.307361   1.000000
   14       -7.306723   1.000000
   15        0.851686   1.000000
   16        0.852678   1.000000
   17        2.315550   1.000000
   18        2.316761   1.000000
   19        7.774514   0.000000
   20        7.775162   0.000000
   21        8.725987   0.000000
   22        8.726450   0.000000
   23       10.653367   0.000000
   24       10.653779   0.000000
   25       11.869255   0.000000
   26       11.870183   0.000000
   27       12.870087   0.000000
   28       12.870631   0.000000
   29       12.894153   0.000000
   30       12.894450   0.000000
   31       15.416326   0.000000
   32       15.417502   0.000000
 
 -0.1428571E+00  0.2857143E+00 -0.2775558E-16  0.2915452E-02
    1      -30.462657   1.000000
    2      -30.462505   1.000000
    3      -30.452702   1.000000
    4      -30.452598   1.000000
    5      -23.795558   1.000000
    6      -23.795324   1.000000
    7      -23.792762   1.000000
    8      -23.792355   1.000000
    9      -23.788224   1.000000
   10      -23.787886   1.000000
   11      -20.114940   1.000000
   12      -20.114437   1.000000
   13       -7.218764   1.000000
   14       -7.218124   1.000000
   15        1.054126   1.000000
   16        1.055257   1.000000
   17        3.015337   1.000000
   18        3.016861   1.000000
   19        6.992091   0.000000
   20        6.992377   0.000000
   21        9.414955   0.000000
   22        9.415387   0.000000
   23       10.293546   0.000000
   24       10.293949   0.000000
   25       11.075687   0.000000
   26       11.076197   0.000000
   27       12.579908   0.000000
   28       12.580457   0.000000
   29       13.164579   0.000000
   30       13.165457   0.000000
   31       14.446767   0.000000
   32       14.447139   0.000000
 
  0.7703720E-33  0.4285714E+00 -0.2775558E-16  0.2915452E-02
    1      -30.460921   1.000000
    2      -30.460822   1.000000
    3      -30.447703   1.000000
    4      -30.447633   1.000000
    5      -23.796215   1.000000
    6      -23.796031   1.000000
    7      -23.787935   1.000000
    8      -23.787805   1.000000
    9      -23.784447   1.000000
   10      -23.784165   1.000000
   11      -20.103257   1.000000
   12      -20.102754   1.000000
   13       -7.262874   1.000000
   14       -7.262237   1.000000
   15        0.787244   1.000000
   16        0.788119   1.000000
   17        3.421247   1.000000
   18        3.422394   1.000000
   19        6.220180   0.000000
   20        6.220612   0.000000
   21       10.372420   0.000000
   22       10.372650   0.000000
   23       10.558591   0.000000
   24       10.559030   0.000000
   25       10.779874   0.000000
   26       10.780926   0.000000
   27       11.808290   0.000000
   28       11.808506   0.000000
   29       14.244323   0.000000
   30       14.244643   0.000000
   31       14.452090   0.000000
   32       14.452434   0.000000
 
  0.1428571E+00  0.4285714E+00  0.2775558E-16  0.2915452E-02
    1      -30.454287   1.000000
    2      -30.454152   1.000000
    3      -30.447766   1.000000
    4      -30.447679   1.000000
    5      -23.789754   1.000000
    6      -23.789586   1.000000
    7      -23.787739   1.000000
    8      -23.787511   1.000000
    9      -23.784434   1.000000
   10      -23.784208   1.000000
   11      -20.102176   1.000000
   12      -20.101673   1.000000
   13       -7.258034   1.000000
   14       -7.257393   1.000000
   15        0.909362   1.000000
   16        0.910221   1.000000
   17        2.918890   1.000000
   18        2.920000   1.000000
   19        6.948632   0.000000
   20        6.949168   0.000000
   21        9.193229   0.000000
   22        9.193823   0.000000
   23       10.393412   0.000000
   24       10.393836   0.000000
   25       11.289561   0.000000
   26       11.290082   0.000000
   27       12.782848   0.000000
   28       12.783517   0.000000
   29       13.595695   0.000000
   30       13.596052   0.000000
   31       14.856591   0.000000
   32       14.857018   0.000000
 
  0.2857143E+00  0.4285714E+00  0.2775558E-16  0.2915452E-02
    1      -30.461872   1.000000
    2      -30.461794   1.000000
    3      -30.456183   1.000000
    4      -30.456099   1.000000
    5      -23.795235   1.000000
    6      -23.795099   1.000000
    7      -23.792196   1.000000
    8      -23.791873   1.000000
    9      -23.789179   1.000000
   10      -23.788907   1.000000
   11      -20.086912   1.000000
   12      -20.086408   1.000000
   13       -7.294849   1.000000
   14       -7.294206   1.000000
   15        0.949066   1.000000
   16        0.950840   1.000000
   17        2.437678   1.000000
   18        2.439748   1.000000
   19        7.038330   0.000000
   20        7.038776   0.000000
   21        8.414945   0.000000
   22        8.415383   0.000000
   23        9.928606   0.000000
   24        9.929424   0.000000
   25       12.496911   0.000000
   26       12.497527   0.000000
   27       13.903630   0.000000
   28       13.903831   0.000000
   29       15.320651   0.000000
   30       15.321079   0.000000
   31       15.471076   0.000000
   32       15.471675   0.000000
 
  0.4285714E+00  0.4285714E+00  0.0000000E+00  0.2915452E-02
    1      -30.460747   1.000000
    2      -30.460608   1.000000
    3      -30.457323   1.000000
    4      -30.457221   1.000000
    5      -23.793357   1.000000
    6      -23.793133   1.000000
    7      -23.792940   1.000000
    8      -23.792750   1.000000
    9      -23.788588   1.000000
   10      -23.788220   1.000000
   11      -20.068786   1.000000
   12      -20.068283   1.000000
   13       -7.345824   1.000000
   14       -7.345183   1.000000
   15        0.809201   1.000000
   16        0.811400   1.000000
   17        2.371524   1.000000
   18        2.374020   1.000000
   19        6.447275   0.000000
   20        6.447571   0.000000
   21        7.807255   0.000000
   22        7.807683   0.000000
   23       10.678282   0.000000
   24       10.678966   0.000000
   25       14.083173   0.000000
   26       14.084346   0.000000
   27       14.766383   0.000000
   28       14.766984   0.000000
   29       15.388455   0.000000
   30       15.388949   0.000000
   31       16.488002   0.000000
   32       16.488838   0.000000
 
 -0.4285714E+00  0.4285714E+00 -0.4964704E-16  0.2915452E-02
    1      -30.475118   1.000000
    2      -30.474968   1.000000
    3      -30.458217   1.000000
    4      -30.458111   1.000000
    5      -23.804208   1.000000
    6      -23.803765   1.000000
    7      -23.794818   1.000000
    8      -23.794363   1.000000
    9      -23.790588   1.000000
   10      -23.790292   1.000000
   11      -20.061723   1.000000
   12      -20.061220   1.000000
   13       -7.365360   1.000000
   14       -7.364720   1.000000
   15        0.792824   1.000000
   16        0.794910   1.000000
   17        2.101491   1.000000
   18        2.103759   1.000000
   19        6.688550   0.000000
   20        6.688927   0.000000
   21        8.172783   0.000000
   22        8.173204   0.000000
   23       10.733303   0.000000
   24       10.733941   0.000000
   25       13.403093   0.000000
   26       13.403515   0.000000
   27       14.280506   0.000000
   28       14.281432   0.000000
   29       14.912809   0.000000
   30       14.913350   0.000000
   31       16.868672   0.000000
   32       16.870065   0.000000
 
 -0.2857143E+00  0.4285714E+00 -0.5551115E-16  0.2915452E-02
    1      -30.473974   1.000000
    2      -30.473838   1.000000
    3      -30.460171   1.000000
    4      -30.460090   1.000000
    5      -23.802859   1.000000
    6      -23.802779   1.000000
    7      -23.795682   1.000000
    8      -23.795384   1.000000
    9      -23.792467   1.000000
   10      -23.792385   1.000000
   11      -20.070940   1.000000
   12      -20.070438   1.000000
   13       -7.341572   1.000000
   14       -7.340935   1.000000
   15        0.809640   1.000000
   16        0.810906   1.000000
   17        2.118139   1.000000
   18        2.119561   1.000000
   19        7.331437   0.000000