 vasp.5.4.4.18Apr17-6-g9f103f2a35 (build Nov 03 2018 10:20:46) complex          
  
 executed on             LinuxIFC date 2018.11.15  16:23:09
 running on  112 total cores
 distrk:  each k-point on   56 cores,    2 groups
 distr:  one band on NCORES_PER_BAND=   7 cores,    8 groups


--------------------------------------------------------------------------------------------------------


 INCAR:
 POTCAR:    PAW Og, JanMewes Oct 18               

 ----------------------------------------------------------------------------- 
|                                                                             |
|           W    W    AA    RRRRR   N    N  II  N    N   GGGG   !!!           |
|           W    W   A  A   R    R  NN   N  II  NN   N  G    G  !!!           |
|           W    W  A    A  R    R  N N  N  II  N N  N  G       !!!           |
|           W WW W  AAAAAA  RRRRR   N  N N  II  N  N N  G  GGG   !            |
|           WW  WW  A    A  R   R   N   NN  II  N   NN  G    G                |
|           W    W  A    A  R    R  N    N  II  N    N   GGGG   !!!           |
|                                                                             |
|      You have enabled k-point parallelism (KPAR>1).                         |
|      This developmental code was originally  written by Paul Kent at ORNL,  |
|      and carefully double checked in Vienna.                                |
|      GW as well as linear response parallelism added by Martijn Marsman     |
|      and Georg Kresse.                                                      |
|      Carefully verify results versus KPAR=1.                                |
|      Report problems to Paul Kent and Vienna.                               |
|                                                                             |
 ----------------------------------------------------------------------------- 

 POTCAR:    PAW Og, JanMewes Oct 18               
   VRHFIN =Og : 10d 2s 6p, PE                                                   
   LEXCH  = PE                                                                  
   EATOM  =  2640.5573 eV,  194.0755 Ry                                         
                                                                                
   TITEL  = PAW Og, JanMewes Oct 18                                             
   LULTRA =        F    use ultrasoft PP ?                                      
   IUNSCR =        1    unscreen: 0-lin 1-nonlin 2-no                           
   RPACOR =    1.700    partial core radius                                     
   POMASS =    0.010; ZVAL   =   18.000    mass and valenz                      
   RCORE  =    2.600    outmost cutoff radius                                   
   RWIGS  =    3.500; RWIGS  =    1.852    wigner-seitz radius (au A)           
   ENMAX  =  339.336; ENMIN  =  254.502 eV                                      
   ICORE  =        3    local potential                                         
   LCOR   =        T    correct aug charges                                     
   LPAW   =        T    paw PP                                                  
   EAUG   =  361.025                                                            
   DEXC   =   -0.000                                                            
   RAUG   =    1.300    factor for augmentation sphere                          
   RDEP   =    2.775    radius for radial grids                                 
   RDEPT  =    2.135    core radius for aug-charge                              
   QCUT   =   -4.994; QGAM   =    9.988    optimization parameters              
                                                                                
   Atomic configuration                                                         
   22 entries                                                                   
     n  l   j            E        occ.                                          
     1  0  0.50   -225781.4217   2.0000                                         
     2  0  0.50    -47342.3774   2.0000                                         
     2  1  1.50    -33463.4058   6.0000                                         
     3  0  0.50    -12845.8060   2.0000                                         
     3  1  1.50     -9184.5562   6.0000                                         
     3  2  2.50     -7322.6146  10.0000                                         
     4  0  0.50     -3781.9433   2.0000                                         
     4  1  1.50     -2605.9204   6.0000                                         
     4  2  2.50     -1899.4626  10.0000                                         
     4  3  3.50     -1273.6890  14.0000                                         
     5  0  0.50     -1046.0643   2.0000                                         
     5  1  1.50      -650.9265   6.0000                                         
     5  2  2.50      -388.1490  10.0000                                         
     5  3  3.50      -152.1121  14.0000                                         
     6  0  0.50      -224.6639   2.0000                                         
     6  1  0.50      -184.3267   2.0000                                         
     6  1  1.50       -97.8537   4.0000                                         
     6  2  2.50       -35.6667  10.0000                                         
     7  0  0.50       -28.5889   2.0000                                         
     8  0  0.50        -1.3606   0.0000                                         
     7  1  1.50        -7.0827   6.0000                                         
     6  3  3.50        -0.0136   0.0000                                         
   Description                                                                  
     l       E           TYP  RCUT    TYP  RCUT                                 
     2    -35.6666962     23  2.100                                             
     2     34.0145650     23  2.300                                             
     0    -28.5889381     23  1.600                                             
     0     40.8174780     23  2.200                                             
     1     -7.0826811     23  2.200                                             
     1    148.3035034     23  1.900                                             
     3      6.8029130      7  2.600                                             
  local pseudopotential read in
  partial core-charges read in
  partial kinetic energy density read in
  kinetic energy density of atom read in
  atomic valenz-charges read in
  non local Contribution for L=           2  read in
    real space projection operators read in
  non local Contribution for L=           2  read in
    real space projection operators read in
  non local Contribution for L=           0  read in
    real space projection operators read in
  non local Contribution for L=           0  read in
    real space projection operators read in
  non local Contribution for L=           1  read in
    real space projection operators read in
  non local Contribution for L=           1  read in
    real space projection operators read in
    PAW grid and wavefunctions read in
 
   number of l-projection  operators is LMAX  =           6
   number of lm-projection operators is LMMAX =          18
 
  PAW Og, JanMewes Oct 18               :
 energy of atom  1       EATOM=-2640.5573
 kinetic energy error for atom=    0.6524 (will be added to EATOM!!)
 
 
 POSCAR: Og_FCC                                  
  positions in direct lattice
  velocities in cartesian coordinates
 exchange correlation table for  LEXCH =        8
   RHO(1)=    0.500       N(1)  =     2000
   RHO(2)=  100.500       N(2)  =     4000
 


--------------------------------------------------------------------------------------------------------


 ion  position               nearest neighbor table
   1  0.000  0.000  0.000-
 

IMPORTANT INFORMATION: All symmetrisations will be switched off!
NOSYMM: (Re-)initialisation of all symmetry stuff for point group C_1.

 
 
 KPOINTS: k-points                                

Automatic generation of k-mesh.
Space group operators:
 irot       det(A)        alpha          n_x          n_y          n_z        tau_x        tau_y        tau_z
    1     1.000000     0.000000     1.000000     0.000000     0.000000     0.000000     0.000000     0.000000
 
 Subroutine IBZKPT returns following result:
 ===========================================
 
 Found    343 irreducible k-points:
 
 Following reciprocal coordinates:
            Coordinates               Weight
  0.000000  0.000000  0.000000      1.000000
  0.142857  0.000000  0.000000      1.000000
  0.285714  0.000000  0.000000      1.000000
  0.428571  0.000000  0.000000      1.000000
 -0.428571 -0.000000 -0.000000      1.000000
 -0.285714 -0.000000 -0.000000      1.000000
 -0.142857 -0.000000 -0.000000      1.000000
  0.000000  0.142857  0.000000      1.000000
  0.142857  0.142857  0.000000      1.000000
  0.285714  0.142857  0.000000      1.000000
  0.428571  0.142857  0.000000      1.000000
 -0.428571  0.142857 -0.000000      1.000000
 -0.285714  0.142857 -0.000000      1.000000
 -0.142857  0.142857 -0.000000      1.000000
  0.000000  0.285714 -0.000000      1.000000
  0.142857  0.285714  0.000000      1.000000
  0.285714  0.285714  0.000000      1.000000
  0.428571  0.285714  0.000000      1.000000
 -0.428571  0.285714 -0.000000      1.000000
 -0.285714  0.285714 -0.000000      1.000000
 -0.142857  0.285714 -0.000000      1.000000
  0.000000  0.428571 -0.000000      1.000000
  0.142857  0.428571  0.000000      1.000000
  0.285714  0.428571  0.000000      1.000000
  0.428571  0.428571  0.000000      1.000000
 -0.428571  0.428571 -0.000000      1.000000
 -0.285714  0.428571 -0.000000      1.000000
 -0.142857  0.428571 -0.000000      1.000000
 -0.000000 -0.428571  0.000000      1.000000
  0.142857 -0.428571  0.000000      1.000000
  0.285714 -0.428571  0.000000      1.000000
  0.428571 -0.428571  0.000000      1.000000
 -0.428571 -0.428571  0.000000      1.000000
 -0.285714 -0.428571 -0.000000      1.000000
 -0.142857 -0.428571  0.000000      1.000000
 -0.000000 -0.285714  0.000000      1.000000
  0.142857 -0.285714  0.000000      1.000000
  0.285714 -0.285714  0.000000      1.000000
  0.428571 -0.285714  0.000000      1.000000
 -0.428571 -0.285714 -0.000000      1.000000
 -0.285714 -0.285714 -0.000000      1.000000
 -0.142857 -0.285714 -0.000000      1.000000
 -0.000000 -0.142857 -0.000000      1.000000
  0.142857 -0.142857  0.000000      1.000000
  0.285714 -0.142857  0.000000      1.000000
  0.428571 -0.142857  0.000000      1.000000
 -0.428571 -0.142857 -0.000000      1.000000
 -0.285714 -0.142857 -0.000000      1.000000
 -0.142857 -0.142857 -0.000000      1.000000
 -0.000000  0.000000  0.142857      1.000000
  0.142857 -0.000000  0.142857      1.000000
  0.285714 -0.000000  0.142857      1.000000
  0.428571 -0.000000  0.142857      1.000000
 -0.428571 -0.000000  0.142857      1.000000
 -0.285714 -0.000000  0.142857      1.000000
 -0.142857 -0.000000  0.142857      1.000000
 -0.000000  0.142857  0.142857      1.000000
  0.142857  0.142857  0.142857      1.000000
  0.285714  0.142857  0.142857      1.000000
  0.428571  0.142857  0.142857      1.000000
 -0.428571  0.142857  0.142857      1.000000
 -0.285714  0.142857  0.142857      1.000000
 -0.142857  0.142857  0.142857      1.000000
 -0.000000  0.285714  0.142857      1.000000
  0.142857  0.285714  0.142857      1.000000
  0.285714  0.285714  0.142857      1.000000
  0.428571  0.285714  0.142857      1.000000
 -0.428571  0.285714  0.142857      1.000000
 -0.285714  0.285714  0.142857      1.000000
 -0.142857  0.285714  0.142857      1.000000
 -0.000000  0.428571  0.142857      1.000000
  0.142857  0.428571  0.142857      1.000000
  0.285714  0.428571  0.142857      1.000000
  0.428571  0.428571  0.142857      1.000000
 -0.428571  0.428571  0.142857      1.000000
 -0.285714  0.428571  0.142857      1.000000
 -0.142857  0.428571  0.142857      1.000000
 -0.000000 -0.428571  0.142857      1.000000
  0.142857 -0.428571  0.142857      1.000000
  0.285714 -0.428571  0.142857      1.000000
  0.428571 -0.428571  0.142857      1.000000
 -0.428571 -0.428571  0.142857      1.000000
 -0.285714 -0.428571  0.142857      1.000000
 -0.142857 -0.428571  0.142857      1.000000
 -0.000000 -0.285714  0.142857      1.000000
  0.142857 -0.285714  0.142857      1.000000
  0.285714 -0.285714  0.142857      1.000000
  0.428571 -0.285714  0.142857      1.000000
 -0.428571 -0.285714  0.142857      1.000000
 -0.285714 -0.285714  0.142857      1.000000
 -0.142857 -0.285714  0.142857      1.000000
  0.000000 -0.142857  0.142857      1.000000
  0.142857 -0.142857  0.142857      1.000000
  0.285714 -0.142857  0.142857      1.000000
  0.428571 -0.142857  0.142857      1.000000
 -0.428571 -0.142857  0.142857      1.000000
 -0.285714 -0.142857  0.142857      1.000000
 -0.142857 -0.142857  0.142857      1.000000
 -0.000000  0.000000  0.285714      1.000000
  0.142857  0.000000  0.285714      1.000000
  0.285714 -0.000000  0.285714      1.000000
  0.428571 -0.000000  0.285714      1.000000
 -0.428571 -0.000000  0.285714      1.000000
 -0.285714 -0.000000  0.285714      1.000000
 -0.142857 -0.000000  0.285714      1.000000
 -0.000000  0.142857  0.285714      1.000000
  0.142857  0.142857  0.285714      1.000000
  0.285714  0.142857  0.285714      1.000000
  0.428571  0.142857  0.285714      1.000000
 -0.428571  0.142857  0.285714      1.000000
 -0.285714  0.142857  0.285714      1.000000
 -0.142857  0.142857  0.285714      1.000000
 -0.000000  0.285714  0.285714      1.000000
  0.142857  0.285714  0.285714      1.000000
  0.285714  0.285714  0.285714      1.000000
  0.428571  0.285714  0.285714      1.000000
 -0.428571  0.285714  0.285714      1.000000
 -0.285714  0.285714  0.285714      1.000000
 -0.142857  0.285714  0.285714      1.000000
 -0.000000  0.428571  0.285714      1.000000
  0.142857  0.428571  0.285714      1.000000
  0.285714  0.428571  0.285714      1.000000
  0.428571  0.428571  0.285714      1.000000
 -0.428571  0.428571  0.285714      1.000000
 -0.285714  0.428571  0.285714      1.000000
 -0.142857  0.428571  0.285714      1.000000
 -0.000000 -0.428571  0.285714      1.000000
  0.142857 -0.428571  0.285714      1.000000
  0.285714 -0.428571  0.285714      1.000000
  0.428571 -0.428571  0.285714      1.000000
 -0.428571 -0.428571  0.285714      1.000000
 -0.285714 -0.428571  0.285714      1.000000
 -0.142857 -0.428571  0.285714      1.000000
  0.000000 -0.285714  0.285714      1.000000
  0.142857 -0.285714  0.285714      1.000000
  0.285714 -0.285714  0.285714      1.000000
  0.428571 -0.285714  0.285714      1.000000
 -0.428571 -0.285714  0.285714      1.000000
 -0.285714 -0.285714  0.285714      1.000000
 -0.142857 -0.285714  0.285714      1.000000
 -0.000000 -0.142857  0.285714      1.000000
  0.142857 -0.142857  0.285714      1.000000
  0.285714 -0.142857  0.285714      1.000000
  0.428571 -0.142857  0.285714      1.000000
 -0.428571 -0.142857  0.285714      1.000000
 -0.285714 -0.142857  0.285714      1.000000
 -0.142857 -0.142857  0.285714      1.000000
 -0.000000 -0.000000  0.428571      1.000000
  0.142857  0.000000  0.428571      1.000000
  0.285714  0.000000  0.428571      1.000000
  0.428571  0.000000  0.428571      1.000000
 -0.428571  0.000000  0.428571      1.000000
 -0.285714  0.000000  0.428571      1.000000
 -0.142857 -0.000000  0.428571      1.000000
 -0.000000  0.142857  0.428571      1.000000
  0.142857  0.142857  0.428571      1.000000
  0.285714  0.142857  0.428571      1.000000
  0.428571  0.142857  0.428571      1.000000
 -0.428571  0.142857  0.428571      1.000000
 -0.285714  0.142857  0.428571      1.000000
 -0.142857  0.142857  0.428571      1.000000
 -0.000000  0.285714  0.428571      1.000000
  0.142857  0.285714  0.428571      1.000000
  0.285714  0.285714  0.428571      1.000000
  0.428571  0.285714  0.428571      1.000000
 -0.428571  0.285714  0.428571      1.000000
 -0.285714  0.285714  0.428571      1.000000
 -0.142857  0.285714  0.428571      1.000000
 -0.000000  0.428571  0.428571      1.000000
  0.142857  0.428571  0.428571      1.000000
  0.285714  0.428571  0.428571      1.000000
  0.428571  0.428571  0.428571      1.000000
 -0.428571  0.428571  0.428571      1.000000
 -0.285714  0.428571  0.428571      1.000000
 -0.142857  0.428571  0.428571      1.000000
  0.000000 -0.428571  0.428571      1.000000
  0.142857 -0.428571  0.428571      1.000000
  0.285714 -0.428571  0.428571      1.000000
  0.428571 -0.428571  0.428571      1.000000
 -0.428571 -0.428571  0.428571      1.000000
 -0.285714 -0.428571  0.428571      1.000000
 -0.142857 -0.428571  0.428571      1.000000
  0.000000 -0.285714  0.428571      1.000000
  0.142857 -0.285714  0.428571      1.000000
  0.285714 -0.285714  0.428571      1.000000
  0.428571 -0.285714  0.428571      1.000000
 -0.428571 -0.285714  0.428571      1.000000
 -0.285714 -0.285714  0.428571      1.000000
 -0.142857 -0.285714  0.428571      1.000000
 -0.000000 -0.142857  0.428571      1.000000
  0.142857 -0.142857  0.428571      1.000000
  0.285714 -0.142857  0.428571      1.000000
  0.428571 -0.142857  0.428571      1.000000
 -0.428571 -0.142857  0.428571      1.000000
 -0.285714 -0.142857  0.428571      1.000000
 -0.142857 -0.142857  0.428571      1.000000
  0.000000  0.000000 -0.428571      1.000000
  0.142857 -0.000000 -0.428571      1.000000
  0.285714 -0.000000 -0.428571      1.000000
  0.428571 -0.000000 -0.428571      1.000000
 -0.428571 -0.000000 -0.428571      1.000000
 -0.285714 -0.000000 -0.428571      1.000000
 -0.142857 -0.000000 -0.428571      1.000000
  0.000000  0.142857 -0.428571      1.000000
  0.142857  0.142857 -0.428571      1.000000
  0.285714  0.142857 -0.428571      1.000000
  0.428571  0.142857 -0.428571      1.000000
 -0.428571  0.142857 -0.428571      1.000000
 -0.285714  0.142857 -0.428571      1.000000
 -0.142857  0.142857 -0.428571      1.000000
  0.000000  0.285714 -0.428571      1.000000
  0.142857  0.285714 -0.428571      1.000000
  0.285714  0.285714 -0.428571      1.000000
  0.428571  0.285714 -0.428571      1.000000
 -0.428571  0.285714 -0.428571      1.000000
 -0.285714  0.285714 -0.428571      1.000000
 -0.142857  0.285714 -0.428571      1.000000
 -0.000000  0.428571 -0.428571      1.000000
  0.142857  0.428571 -0.428571      1.000000
  0.285714  0.428571 -0.428571      1.000000
  0.428571  0.428571 -0.428571      1.000000
 -0.428571  0.428571 -0.428571      1.000000
 -0.285714  0.428571 -0.428571      1.000000
 -0.142857  0.428571 -0.428571      1.000000
  0.000000 -0.428571 -0.428571      1.000000
  0.142857 -0.428571 -0.428571      1.000000
  0.285714 -0.428571 -0.428571      1.000000
  0.428571 -0.428571 -0.428571      1.000000
 -0.428571 -0.428571 -0.428571      1.000000
 -0.285714 -0.428571 -0.428571      1.000000
 -0.142857 -0.428571 -0.428571      1.000000
  0.000000 -0.285714 -0.428571      1.000000
  0.142857 -0.285714 -0.428571      1.000000
  0.285714 -0.285714 -0.428571      1.000000
  0.428571 -0.285714 -0.428571      1.000000
 -0.428571 -0.285714 -0.428571      1.000000
 -0.285714 -0.285714 -0.428571      1.000000
 -0.142857 -0.285714 -0.428571      1.000000
  0.000000 -0.142857 -0.428571      1.000000
  0.142857 -0.142857 -0.428571      1.000000
  0.285714 -0.142857 -0.428571      1.000000
  0.428571 -0.142857 -0.428571      1.000000
 -0.428571 -0.142857 -0.428571      1.000000
 -0.285714 -0.142857 -0.428571      1.000000
 -0.142857 -0.142857 -0.428571      1.000000
  0.000000 -0.000000 -0.285714      1.000000
  0.142857 -0.000000 -0.285714      1.000000
  0.285714  0.000000 -0.285714      1.000000
  0.428571  0.000000 -0.285714      1.000000
 -0.428571  0.000000 -0.285714      1.000000
 -0.285714  0.000000 -0.285714      1.000000
 -0.142857 -0.000000 -0.285714      1.000000
  0.000000  0.142857 -0.285714      1.000000
  0.142857  0.142857 -0.285714      1.000000
  0.285714  0.142857 -0.285714      1.000000
  0.428571  0.142857 -0.285714      1.000000
 -0.428571  0.142857 -0.285714      1.000000
 -0.285714  0.142857 -0.285714      1.000000
 -0.142857  0.142857 -0.285714      1.000000
  0.000000  0.285714 -0.285714      1.000000
  0.142857  0.285714 -0.285714      1.000000
  0.285714  0.285714 -0.285714      1.000000
  0.428571  0.285714 -0.285714      1.000000
 -0.428571  0.285714 -0.285714      1.000000
 -0.285714  0.285714 -0.285714      1.000000
 -0.142857  0.285714 -0.285714      1.000000
  0.000000  0.428571 -0.285714      1.000000
  0.142857  0.428571 -0.285714      1.000000
  0.285714  0.428571 -0.285714      1.000000
  0.428571  0.428571 -0.285714      1.000000
 -0.428571  0.428571 -0.285714      1.000000
 -0.285714  0.428571 -0.285714      1.000000
 -0.142857  0.428571 -0.285714      1.000000
  0.000000 -0.428571 -0.285714      1.000000
  0.142857 -0.428571 -0.285714      1.000000
  0.285714 -0.428571 -0.285714      1.000000
  0.428571 -0.428571 -0.285714      1.000000
 -0.428571 -0.428571 -0.285714      1.000000
 -0.285714 -0.428571 -0.285714      1.000000
 -0.142857 -0.428571 -0.285714      1.000000
  0.000000 -0.285714 -0.285714      1.000000
  0.142857 -0.285714 -0.285714      1.000000
  0.285714 -0.285714 -0.285714      1.000000
  0.428571 -0.285714 -0.285714      1.000000
 -0.428571 -0.285714 -0.285714      1.000000
 -0.285714 -0.285714 -0.285714      1.000000
 -0.142857 -0.285714 -0.285714      1.000000
  0.000000 -0.142857 -0.285714      1.000000
  0.142857 -0.142857 -0.285714      1.000000
  0.285714 -0.142857 -0.285714      1.000000
  0.428571 -0.142857 -0.285714      1.000000
 -0.428571 -0.142857 -0.285714      1.000000
 -0.285714 -0.142857 -0.285714      1.000000
 -0.142857 -0.142857 -0.285714      1.000000
  0.000000 -0.000000 -0.142857      1.000000
  0.142857  0.000000 -0.142857      1.000000
  0.285714  0.000000 -0.142857      1.000000
  0.428571  0.000000 -0.142857      1.000000
 -0.428571 -0.000000 -0.142857      1.000000
 -0.285714  0.000000 -0.142857      1.000000
 -0.142857  0.000000 -0.142857      1.000000
  0.000000  0.142857 -0.142857      1.000000
  0.142857  0.142857 -0.142857      1.000000
  0.285714  0.142857 -0.142857      1.000000
  0.428571  0.142857 -0.142857      1.000000
 -0.428571  0.142857 -0.142857      1.000000
 -0.285714  0.142857 -0.142857      1.000000
 -0.142857  0.142857 -0.142857      1.000000
  0.000000  0.285714 -0.142857      1.000000
  0.142857  0.285714 -0.142857      1.000000
  0.285714  0.285714 -0.142857      1.000000
  0.428571  0.285714 -0.142857      1.000000
 -0.428571  0.285714 -0.142857      1.000000
 -0.285714  0.285714 -0.142857      1.000000
 -0.142857  0.285714 -0.142857      1.000000
  0.000000  0.428571 -0.142857      1.000000
  0.142857  0.428571 -0.142857      1.000000
  0.285714  0.428571 -0.142857      1.000000
  0.428571  0.428571 -0.142857      1.000000
 -0.428571  0.428571 -0.142857      1.000000
 -0.285714  0.428571 -0.142857      1.000000
 -0.142857  0.428571 -0.142857      1.000000
  0.000000 -0.428571 -0.142857      1.000000
  0.142857 -0.428571 -0.142857      1.000000
  0.285714 -0.428571 -0.142857      1.000000
  0.428571 -0.428571 -0.142857      1.000000
 -0.428571 -0.428571 -0.142857      1.000000
 -0.285714 -0.428571 -0.142857      1.000000
 -0.142857 -0.428571 -0.142857      1.000000
  0.000000 -0.285714 -0.142857      1.000000
  0.142857 -0.285714 -0.142857      1.000000
  0.285714 -0.285714 -0.142857      1.000000
  0.428571 -0.285714 -0.142857      1.000000
 -0.428571 -0.285714 -0.142857      1.000000
 -0.285714 -0.285714 -0.142857      1.000000
 -0.142857 -0.285714 -0.142857      1.000000
  0.000000 -0.142857 -0.142857      1.000000
  0.142857 -0.142857 -0.142857      1.000000
  0.285714 -0.142857 -0.142857      1.000000
  0.428571 -0.142857 -0.142857      1.000000
 -0.428571 -0.142857 -0.142857      1.000000
 -0.285714 -0.142857 -0.142857      1.000000
 -0.142857 -0.142857 -0.142857      1.000000
 
 Following cartesian coordinates:
            Coordinates               Weight
  0.000000  0.000000  0.000000      1.000000
  0.032899 -0.018994 -0.013431      1.000000
  0.065797 -0.037988 -0.026862      1.000000
  0.098696 -0.056982 -0.040292      1.000000
 -0.098696  0.056982  0.040292      1.000000
 -0.065797  0.037988  0.026862      1.000000
 -0.032899  0.018994  0.013431      1.000000
  0.000000  0.037988 -0.013431      1.000000
  0.032899  0.018994 -0.026862      1.000000
  0.065797  0.000000 -0.040292      1.000000
  0.098696 -0.018994 -0.053723      1.000000
 -0.098696  0.094970  0.026862      1.000000
 -0.065797  0.075976  0.013431      1.000000
 -0.032899  0.056982 -0.000000      1.000000
  0.000000  0.075976 -0.026862      1.000000
  0.032899  0.056982 -0.040292      1.000000
  0.065797  0.037988 -0.053723      1.000000
  0.098696  0.018994 -0.067154      1.000000
 -0.098696  0.132958  0.013431      1.000000
 -0.065797  0.113964  0.000000      1.000000
 -0.032899  0.094970 -0.013431      1.000000
  0.000000  0.113964 -0.040292      1.000000
  0.032899  0.094970 -0.053723      1.000000
  0.065797  0.075976 -0.067154      1.000000
  0.098696  0.056982 -0.080585      1.000000
 -0.098696  0.170946  0.000000      1.000000
 -0.065797  0.151952 -0.013431      1.000000
 -0.032899  0.132958 -0.026862      1.000000
 -0.000000 -0.113964  0.040292      1.000000
  0.032899 -0.132958  0.026862      1.000000
  0.065797 -0.151952  0.013431      1.000000
  0.098696 -0.170946 -0.000000      1.000000
 -0.098696 -0.056982  0.080585      1.000000
 -0.065797 -0.075976  0.067154      1.000000
 -0.032899 -0.094970  0.053723      1.000000
 -0.000000 -0.075976  0.026862      1.000000
  0.032899 -0.094970  0.013431      1.000000
  0.065797 -0.113964 -0.000000      1.000000
  0.098696 -0.132958 -0.013431      1.000000
 -0.098696 -0.018994  0.067154      1.000000
 -0.065797 -0.037988  0.053723      1.000000
 -0.032899 -0.056982  0.040292      1.000000
 -0.000000 -0.037988  0.013431      1.000000
  0.032899 -0.056982 -0.000000      1.000000
  0.065797 -0.075976 -0.013431      1.000000
  0.098696 -0.094970 -0.026862      1.000000
 -0.098696  0.018994  0.053723      1.000000
 -0.065797  0.000000  0.040292      1.000000
 -0.032899 -0.018994  0.026862      1.000000
 -0.000000  0.000000  0.040292      1.000000
  0.032899 -0.018994  0.026862      1.000000
  0.065797 -0.037988  0.013431      1.000000
  0.098696 -0.056982  0.000000      1.000000
 -0.098696  0.056982  0.080585      1.000000
 -0.065797  0.037988  0.067154      1.000000
 -0.032899  0.018994  0.053723      1.000000
 -0.000000  0.037988  0.026862      1.000000
  0.032899  0.018994  0.013431      1.000000
  0.065797  0.000000  0.000000      1.000000
  0.098696 -0.018994 -0.013431      1.000000
 -0.098696  0.094970  0.067154      1.000000
 -0.065797  0.075976  0.053723      1.000000
 -0.032899  0.056982  0.040292      1.000000
 -0.000000  0.075976  0.013431      1.000000
  0.032899  0.056982  0.000000      1.000000
  0.065797  0.037988 -0.013431      1.000000
  0.098696  0.018994 -0.026862      1.000000
 -0.098696  0.132958  0.053723      1.000000
 -0.065797  0.113964  0.040292      1.000000
 -0.032899  0.094970  0.026862      1.000000
 -0.000000  0.113964  0.000000      1.000000
  0.032899  0.094970 -0.013431      1.000000
  0.065797  0.075976 -0.026862      1.000000
  0.098696  0.056982 -0.040292      1.000000
 -0.098696  0.170946  0.040292      1.000000
 -0.065797  0.151952  0.026862      1.000000
 -0.032899  0.132958  0.013431      1.000000
 -0.000000 -0.113964  0.080585      1.000000
  0.032899 -0.132958  0.067154      1.000000
  0.065797 -0.151952  0.053723      1.000000
  0.098696 -0.170946  0.040292      1.000000
 -0.098696 -0.056982  0.120877      1.000000
 -0.065797 -0.075976  0.107446      1.000000
 -0.032899 -0.094970  0.094016      1.000000
 -0.000000 -0.075976  0.067154      1.000000
  0.032899 -0.094970  0.053723      1.000000
  0.065797 -0.113964  0.040292      1.000000
  0.098696 -0.132958  0.026862      1.000000
 -0.098696 -0.018994  0.107446      1.000000
 -0.065797 -0.037988  0.094016      1.000000
 -0.032899 -0.056982  0.080585      1.000000
 -0.000000 -0.037988  0.053723      1.000000
  0.032899 -0.056982  0.040292      1.000000
  0.065797 -0.075976  0.026862      1.000000
  0.098696 -0.094970  0.013431      1.000000
 -0.098696  0.018994  0.094016      1.000000
 -0.065797  0.000000  0.080585      1.000000
 -0.032899 -0.018994  0.067154      1.000000
 -0.000000  0.000000  0.080585      1.000000
  0.032899 -0.018994  0.067154      1.000000
  0.065797 -0.037988  0.053723      1.000000
  0.098696 -0.056982  0.040292      1.000000
 -0.098696  0.056982  0.120877      1.000000
 -0.065797  0.037988  0.107446      1.000000
 -0.032899  0.018994  0.094016      1.000000
 -0.000000  0.037988  0.067154      1.000000
  0.032899  0.018994  0.053723      1.000000
  0.065797  0.000000  0.040292      1.000000
  0.098696 -0.018994  0.026862      1.000000
 -0.098696  0.094970  0.107446      1.000000
 -0.065797  0.075976  0.094016      1.000000
 -0.032899  0.056982  0.080585      1.000000
 -0.000000  0.075976  0.053723      1.000000
  0.032899  0.056982  0.040292      1.000000
  0.065797  0.037988  0.026862      1.000000
  0.098696  0.018994  0.013431      1.000000
 -0.098696  0.132958  0.094016      1.000000
 -0.065797  0.113964  0.080585      1.000000
 -0.032899  0.094970  0.067154      1.000000
 -0.000000  0.113964  0.040292      1.000000
  0.032899  0.094970  0.026862      1.000000
  0.065797  0.075976  0.013431      1.000000
  0.098696  0.056982 -0.000000      1.000000
 -0.098696  0.170946  0.080585      1.000000
 -0.065797  0.151952  0.067154      1.000000
 -0.032899  0.132958  0.053723      1.000000
 -0.000000 -0.113964  0.120877      1.000000
  0.032899 -0.132958  0.107446      1.000000
  0.065797 -0.151952  0.094016      1.000000
  0.098696 -0.170946  0.080585      1.000000
 -0.098696 -0.056982  0.161170      1.000000
 -0.065797 -0.075976  0.147739      1.000000
 -0.032899 -0.094970  0.134308      1.000000
 -0.000000 -0.075976  0.107446      1.000000
  0.032899 -0.094970  0.094016      1.000000
  0.065797 -0.113964  0.080585      1.000000
  0.098696 -0.132958  0.067154      1.000000
 -0.098696 -0.018994  0.147739      1.000000
 -0.065797 -0.037988  0.134308      1.000000
 -0.032899 -0.056982  0.120877      1.000000
 -0.000000 -0.037988  0.094016      1.000000
  0.032899 -0.056982  0.080585      1.000000
  0.065797 -0.075976  0.067154      1.000000
  0.098696 -0.094970  0.053723      1.000000
 -0.098696  0.018994  0.134308      1.000000
 -0.065797  0.000000  0.120877      1.000000
 -0.032899 -0.018994  0.107446      1.000000
 -0.000000  0.000000  0.120877      1.000000
  0.032899 -0.018994  0.107446      1.000000
  0.065797 -0.037988  0.094016      1.000000
  0.098696 -0.056982  0.080585      1.000000
 -0.098696  0.056982  0.161170      1.000000
 -0.065797  0.037988  0.147739      1.000000
 -0.032899  0.018994  0.134308      1.000000
 -0.000000  0.037988  0.107446      1.000000
  0.032899  0.018994  0.094016      1.000000
  0.065797  0.000000  0.080585      1.000000
  0.098696 -0.018994  0.067154      1.000000
 -0.098696  0.094970  0.147739      1.000000
 -0.065797  0.075976  0.134308      1.000000
 -0.032899  0.056982  0.120877      1.000000
 -0.000000  0.075976  0.094016      1.000000
  0.032899  0.056982  0.080585      1.000000
  0.065797  0.037988  0.067154      1.000000
  0.098696  0.018994  0.053723      1.000000
 -0.098696  0.132958  0.134308      1.000000
 -0.065797  0.113964  0.120877      1.000000
 -0.032899  0.094970  0.107446      1.000000
 -0.000000  0.113964  0.080585      1.000000
  0.032899  0.094970  0.067154      1.000000
  0.065797  0.075976  0.053723      1.000000
  0.098696  0.056982  0.040292      1.000000
 -0.098696  0.170946  0.120877      1.000000
 -0.065797  0.151952  0.107446      1.000000
 -0.032899  0.132958  0.094016      1.000000
 -0.000000 -0.113964  0.161170      1.000000
  0.032899 -0.132958  0.147739      1.000000
  0.065797 -0.151952  0.134308      1.000000
  0.098696 -0.170946  0.120877      1.000000
 -0.098696 -0.056982  0.201462      1.000000
 -0.065797 -0.075976  0.188031      1.000000
 -0.032899 -0.094970  0.174600      1.000000
 -0.000000 -0.075976  0.147739      1.000000
  0.032899 -0.094970  0.134308      1.000000
  0.065797 -0.113964  0.120877      1.000000
  0.098696 -0.132958  0.107446      1.000000
 -0.098696 -0.018994  0.188031      1.000000
 -0.065797 -0.037988  0.174600      1.000000
 -0.032899 -0.056982  0.161170      1.000000
 -0.000000 -0.037988  0.134308      1.000000
  0.032899 -0.056982  0.120877      1.000000
  0.065797 -0.075976  0.107446      1.000000
  0.098696 -0.094970  0.094016      1.000000
 -0.098696  0.018994  0.174600      1.000000
 -0.065797  0.000000  0.161170      1.000000
 -0.032899 -0.018994  0.147739      1.000000
  0.000000 -0.000000 -0.120877      1.000000
  0.032899 -0.018994 -0.134308      1.000000
  0.065797 -0.037988 -0.147739      1.000000
  0.098696 -0.056982 -0.161170      1.000000
 -0.098696  0.056982 -0.080585      1.000000
 -0.065797  0.037988 -0.094016      1.000000
 -0.032899  0.018994 -0.107446      1.000000
  0.000000  0.037988 -0.134308      1.000000
  0.032899  0.018994 -0.147739      1.000000
  0.065797  0.000000 -0.161170      1.000000
  0.098696 -0.018994 -0.174600      1.000000
 -0.098696  0.094970 -0.094016      1.000000
 -0.065797  0.075976 -0.107446      1.000000
 -0.032899  0.056982 -0.120877      1.000000
  0.000000  0.075976 -0.147739      1.000000
  0.032899  0.056982 -0.161170      1.000000
  0.065797  0.037988 -0.174600      1.000000
  0.098696  0.018994 -0.188031      1.000000
 -0.098696  0.132958 -0.107446      1.000000
 -0.065797  0.113964 -0.120877      1.000000
 -0.032899  0.094970 -0.134308      1.000000
  0.000000  0.113964 -0.161170      1.000000
  0.032899  0.094970 -0.174600      1.000000
  0.065797  0.075976 -0.188031      1.000000
  0.098696  0.056982 -0.201462      1.000000
 -0.098696  0.170946 -0.120877      1.000000
 -0.065797  0.151952 -0.134308      1.000000
 -0.032899  0.132958 -0.147739      1.000000
  0.000000 -0.113964 -0.080585      1.000000
  0.032899 -0.132958 -0.094016      1.000000
  0.065797 -0.151952 -0.107446      1.000000
  0.098696 -0.170946 -0.120877      1.000000
 -0.098696 -0.056982 -0.040292      1.000000
 -0.065797 -0.075976 -0.053723      1.000000
 -0.032899 -0.094970 -0.067154      1.000000
  0.000000 -0.075976 -0.094016      1.000000
  0.032899 -0.094970 -0.107446      1.000000
  0.065797 -0.113964 -0.120877      1.000000
  0.098696 -0.132958 -0.134308      1.000000
 -0.098696 -0.018994 -0.053723      1.000000
 -0.065797 -0.037988 -0.067154      1.000000
 -0.032899 -0.056982 -0.080585      1.000000
  0.000000 -0.037988 -0.107446      1.000000
  0.032899 -0.056982 -0.120877      1.000000
  0.065797 -0.075976 -0.134308      1.000000
  0.098696 -0.094970 -0.147739      1.000000
 -0.098696  0.018994 -0.067154      1.000000
 -0.065797  0.000000 -0.080585      1.000000
 -0.032899 -0.018994 -0.094016      1.000000
  0.000000 -0.000000 -0.080585      1.000000
  0.032899 -0.018994 -0.094016      1.000000
  0.065797 -0.037988 -0.107446      1.000000
  0.098696 -0.056982 -0.120877      1.000000
 -0.098696  0.056982 -0.040292      1.000000
 -0.065797  0.037988 -0.053723      1.000000
 -0.032899  0.018994 -0.067154      1.000000
  0.000000  0.037988 -0.094016      1.000000
  0.032899  0.018994 -0.107446      1.000000
  0.065797  0.000000 -0.120877      1.000000
  0.098696 -0.018994 -0.134308      1.000000
 -0.098696  0.094970 -0.053723      1.000000
 -0.065797  0.075976 -0.067154      1.000000
 -0.032899  0.056982 -0.080585      1.000000
  0.000000  0.075976 -0.107446      1.000000
  0.032899  0.056982 -0.120877      1.000000
  0.065797  0.037988 -0.134308      1.000000
  0.098696  0.018994 -0.147739      1.000000
 -0.098696  0.132958 -0.067154      1.000000
 -0.065797  0.113964 -0.080585      1.000000
 -0.032899  0.094970 -0.094016      1.000000
  0.000000  0.113964 -0.120877      1.000000
  0.032899  0.094970 -0.134308      1.000000
  0.065797  0.075976 -0.147739      1.000000
  0.098696  0.056982 -0.161170      1.000000
 -0.098696  0.170946 -0.080585      1.000000
 -0.065797  0.151952 -0.094016      1.000000
 -0.032899  0.132958 -0.107446      1.000000
  0.000000 -0.113964 -0.040292      1.000000
  0.032899 -0.132958 -0.053723      1.000000
  0.065797 -0.151952 -0.067154      1.000000
  0.098696 -0.170946 -0.080585      1.000000
 -0.098696 -0.056982  0.000000      1.000000
 -0.065797 -0.075976 -0.013431      1.000000
 -0.032899 -0.094970 -0.026862      1.000000
  0.000000 -0.075976 -0.053723      1.000000
  0.032899 -0.094970 -0.067154      1.000000
  0.065797 -0.113964 -0.080585      1.000000
  0.098696 -0.132958 -0.094016      1.000000
 -0.098696 -0.018994 -0.013431      1.000000
 -0.065797 -0.037988 -0.026862      1.000000
 -0.032899 -0.056982 -0.040292      1.000000
  0.000000 -0.037988 -0.067154      1.000000
  0.032899 -0.056982 -0.080585      1.000000
  0.065797 -0.075976 -0.094016      1.000000
  0.098696 -0.094970 -0.107446      1.000000
 -0.098696  0.018994 -0.026862      1.000000
 -0.065797  0.000000 -0.040292      1.000000
 -0.032899 -0.018994 -0.053723      1.000000
  0.000000 -0.000000 -0.040292      1.000000
  0.032899 -0.018994 -0.053723      1.000000
  0.065797 -0.037988 -0.067154      1.000000
  0.098696 -0.056982 -0.080585      1.000000
 -0.098696  0.056982  0.000000      1.000000
 -0.065797  0.037988 -0.013431      1.000000
 -0.032899  0.018994 -0.026862      1.000000
  0.000000  0.037988 -0.053723      1.000000
  0.032899  0.018994 -0.067154      1.000000
  0.065797  0.000000 -0.080585      1.000000
  0.098696 -0.018994 -0.094016      1.000000
 -0.098696  0.094970 -0.013431      1.000000
 -0.065797  0.075976 -0.026862      1.000000
 -0.032899  0.056982 -0.040292      1.000000
  0.000000  0.075976 -0.067154      1.000000
  0.032899  0.056982 -0.080585      1.000000
  0.065797  0.037988 -0.094016      1.000000
  0.098696  0.018994 -0.107446      1.000000
 -0.098696  0.132958 -0.026862      1.000000
 -0.065797  0.113964 -0.040292      1.000000
 -0.032899  0.094970 -0.053723      1.000000
  0.000000  0.113964 -0.080585      1.000000
  0.032899  0.094970 -0.094016      1.000000
  0.065797  0.075976 -0.107446      1.000000
  0.098696  0.056982 -0.120877      1.000000
 -0.098696  0.170946 -0.040292      1.000000
 -0.065797  0.151952 -0.053723      1.000000
 -0.032899  0.132958 -0.067154      1.000000
 -0.000000 -0.113964  0.000000      1.000000
  0.032899 -0.132958 -0.013431      1.000000
  0.065797 -0.151952 -0.026862      1.000000
  0.098696 -0.170946 -0.040292      1.000000
 -0.098696 -0.056982  0.040292      1.000000
 -0.065797 -0.075976  0.026862      1.000000
 -0.032899 -0.094970  0.013431      1.000000
  0.000000 -0.075976 -0.013431      1.000000
  0.032899 -0.094970 -0.026862      1.000000
  0.065797 -0.113964 -0.040292      1.000000
  0.098696 -0.132958 -0.053723      1.000000
 -0.098696 -0.018994  0.026862      1.000000
 -0.065797 -0.037988  0.013431      1.000000
 -0.032899 -0.056982  0.000000      1.000000
  0.000000 -0.037988 -0.026862      1.000000
  0.032899 -0.056982 -0.040292      1.000000
  0.065797 -0.075976 -0.053723      1.000000
  0.098696 -0.094970 -0.067154      1.000000
 -0.098696  0.018994  0.013431      1.000000
 -0.065797  0.000000  0.000000      1.000000
 -0.032899 -0.018994 -0.013431      1.000000
 


--------------------------------------------------------------------------------------------------------




 Dimension of arrays:
   k-points           NKPTS =    343   k-points in BZ     NKDIM =    343   number of bands    NBANDS=     32
   number of dos      NEDOS =    301   number of ions     NIONS =      1
   non local maximal  LDIM  =      6   non local SUM 2l+1 LMDIM =     18
   total plane-waves  NPLWV =  21952
   max r-space proj   IRMAX =      1   max aug-charges    IRDMAX= 182324
   dimension x,y,z NGX =    28 NGY =   28 NGZ =   28
   dimension x,y,z NGXF=    56 NGYF=   56 NGZF=   56
   support grid    NGXF=   112 NGYF=  112 NGZF=  112
   ions per type =               1
   NGX,Y,Z   is equivalent  to a cutoff of  10.72, 10.72, 10.72 a.u.
   NGXF,Y,Z  is equivalent  to a cutoff of  21.44, 21.44, 21.44 a.u.

 SYSTEM =  Og_FCC                                  
 POSCAR =  Og_FCC                                  

 Startparameter for this run:
   NWRITE =      2    write-flag & timer
   PREC   = accura    normal or accurate (medium, high low for compatibility)
   ISTART =      0    job   : 0-new  1-cont  2-samecut
   ICHARG =      2    charge: 1-file 2-atom 10-const
   ISPIN  =      1    spin polarized calculation?
   LNONCOLLINEAR =      T non collinear calculations
   LSORBIT =      T    spin-orbit coupling
   INIWAV =      1    electr: 0-lowe 1-rand  2-diag
   LASPH  =      F    aspherical Exc in radial PAW
   METAGGA=      F    non-selfconsistent MetaGGA calc.

 Electronic Relaxation 1
   ENCUT  =  300.0 eV  22.05 Ry    4.70 a.u.   6.13  6.13  6.13*2*pi/ulx,y,z
   ENINI  =  300.0     initial cutoff
   ENAUG  =  361.0 eV  augmentation charge cutoff
   NELM   =     50;   NELMIN=  2; NELMDL= -5     # of ELM steps 
   EDIFF  = 0.1E-07   stopping-criterion for ELM
   LREAL  =      F    real-space projection
   NLSPLINE    = F    spline interpolate recip. space projectors
   LCOMPAT=      F    compatible to vasp.4.4
   GGA_COMPAT  = F    GGA compatible to vasp.4.4-vasp.4.6
   LMAXPAW     = -100 max onsite density
   LMAXMIX     =    2 max onsite mixed and CHGCAR
   VOSKOWN=      0    Vosko Wilk Nusair interpolation
   ROPT   =    0.00000
 Ionic relaxation
   EDIFFG = 0.1E-04   stopping-criterion for IOM
   NSW    =      1    number of steps for IOM
   NBLOCK =      1;   KBLOCK =      1    inner block; outer block 
   IBRION =     -1    ionic relax: 0-MD 1-quasi-New 2-CG
   NFREE  =      5    steps in history (QN), initial steepest desc. (CG)
   ISIF   =      3    stress and relaxation
   IWAVPR =     10    prediction:  0-non 1-charg 2-wave 3-comb
   ISYM   =      0    0-nonsym 1-usesym 2-fastsym
   LCORR  =      T    Harris-Foulkes like correction to forces

   POTIM  = 0.1000    time-step for ionic-motion
   TEIN   =    0.0    initial temperature
   TEBEG  =    0.0;   TEEND  =   0.0 temperature during run
   SMASS  =  -3.00    Nose mass-parameter (am)
   estimated Nose-frequenzy (Omega)   =  0.10E-29 period in steps =****** mass=  -0.431E-27a.u.
   SCALEE = 1.0000    scale energy and forces
   NPACO  =    256;   APACO  = 16.0  distance and # of slots for P.C.
   PSTRESS=    0.0 pullay stress

  Mass of Ions in am
   POMASS =   0.01
  Ionic Valenz
   ZVAL   =  18.00
  Atomic Wigner-Seitz radii
   RWIGS  =  -1.00
  virtual crystal weights 
   VCA    =   1.00
   NELECT =      18.0000    total number of electrons
   NUPDOWN=      -1.0000    fix difference up-down

 DOS related values:
   EMIN   =  10.00;   EMAX   =-10.00  energy-range for DOS
   EFERMI =   0.00
   ISMEAR =     0;   SIGMA  =   0.00  broadening in eV -4-tet -1-fermi 0-gaus

 Electronic relaxation 2 (details)
   IALGO  =     38    algorithm
   LDIAG  =      T    sub-space diagonalisation (order eigenvalues)
   LSUBROT=      F    optimize rotation matrix (better conditioning)
   TURBO    =      0    0=normal 1=particle mesh
   IRESTART =      0    0=no restart 2=restart with 2 vectors
   NREBOOT  =      0    no. of reboots
   NMIN     =      0    reboot dimension
   EREF     =   0.00    reference energy to select bands
   IMIX   =      4    mixing-type and parameters
     AMIX     =   0.40;   BMIX     =  1.00
     AMIX_MAG =   1.60;   BMIX_MAG =  1.00
     AMIN     =   0.10
     WC   =   100.;   INIMIX=   1;  MIXPRE=   1;  MAXMIX=  50

 Intra band minimization:
   WEIMIN = 0.0000     energy-eigenvalue tresh-hold
   EBREAK =  0.78E-10  absolut break condition
   DEPER  =   0.30     relativ break condition  

   TIME   =   0.40     timestep for ELM

  volume/ion in A,a.u.               =      57.90       390.71
  Fermi-wavevector in a.u.,A,eV,Ry     =   1.109038  2.095777 16.734680  1.229964
  Thomas-Fermi vector in A             =   2.245572
 
 Write flags
   LWAVE        =      T    write WAVECAR
   LDOWNSAMPLE  =      F    k-point downsampling of WAVECAR
   LCHARG       =      F    write CHGCAR
   LVTOT        =      F    write LOCPOT, total local potential
   LVHAR        =      F    write LOCPOT, Hartree potential only
   LELF         =      F    write electronic localiz. function (ELF)
   LORBIT       =      0    0 simple, 1 ext, 2 COOP (PROOUT), +10 PAW based schemes


 Dipole corrections
   LMONO  =      F    monopole corrections only (constant potential shift)
   LDIPOL =      F    correct potential (dipole corrections)
   IDIPOL =      0    1-x, 2-y, 3-z, 4-all directions 
   EPSILON=  1.0000000 bulk dielectric constant

 Exchange correlation treatment:
   GGA     =    PE    GGA type
   LEXCH   =     8    internal setting for exchange type
   VOSKOWN=      0    Vosko Wilk Nusair interpolation
   LHFCALC =     F    Hartree Fock is set to
   LHFONE  =     F    Hartree Fock one center treatment
   AEXX    =    0.0000 exact exchange contribution

 Linear response parameters
   LEPSILON=     F    determine dielectric tensor
   LRPA    =     F    only Hartree local field effects (RPA)
   LNABLA  =     F    use nabla operator in PAW spheres
   LVEL    =     F    velocity operator in full k-point grid
   LINTERFAST=   F  fast interpolation
   KINTER  =     0    interpolate to denser k-point grid
   CSHIFT  =0.1000    complex shift for real part using Kramers Kronig
   OMEGAMAX=  -1.0    maximum frequency
   DEG_THRESHOLD= 0.2000000E-02 threshold for treating states as degnerate
   RTIME   =   -0.100 relaxation time in fs
  (WPLASMAI=    0.000 imaginary part of plasma frequency in eV, 0.658/RTIME)
   DFIELD  = 0.0000000 0.0000000 0.0000000 field for delta impulse in time
 
 Orbital magnetization related:
   ORBITALMAG=     F  switch on orbital magnetization
   LCHIMAG   =     F  perturbation theory with respect to B field
   DQ        =  0.001000  dq finite difference perturbation B field
   LLRAUG    =     F  two centre corrections for induced B field



--------------------------------------------------------------------------------------------------------


 Static calculation
 charge density and potential will be updated during run
 non collinear spin polarized calculation
 Variant of blocked Davidson
 Davidson routine will perform the subspace rotation
 perform sub-space diagonalisation
    after iterative eigenvector-optimisation
 modified Broyden-mixing scheme, WC =      100.0
 initial mixing is a Kerker type mixing with AMIX =  0.4000 and BMIX =      1.0000
 Hartree-type preconditioning will be used
 using additional bands           23
 reciprocal scheme for non local part
 use partial core corrections
 calculate Harris-corrections to forces 
   (improved forces if not selfconsistent)
 use gradient corrections 
 use of overlap-Matrix (Vanderbilt PP)
 Gauss-broadening in eV      SIGMA  =   0.00


--------------------------------------------------------------------------------------------------------


  energy-cutoff  :      300.00
  volume of cell :       57.90
      direct lattice vectors                 reciprocal lattice vectors
     4.342345876  0.000000000  0.000000000     0.230290269 -0.132958149 -0.094015609
     2.171172938  3.760581840 -0.000000000     0.000000000  0.265916298 -0.094015609
     2.171172938  1.253527280  3.545510561    -0.000000000  0.000000000  0.282046826

  length of vectors
     4.342345876  4.342345876  4.342345876     0.282046826  0.282046826  0.282046826


 
 k-points in units of 2pi/SCALE and weight: k-points                                
   0.00000000  0.00000000  0.00000000       0.003
   0.03289861 -0.01899402 -0.01343080       0.003
   0.06579722 -0.03798804 -0.02686160       0.003
   0.09869583 -0.05698206 -0.04029240       0.003
  -0.09869583  0.05698206  0.04029240       0.003
  -0.06579722  0.03798804  0.02686160       0.003
  -0.03289861  0.01899402  0.01343080       0.003
   0.00000000  0.03798804 -0.01343080       0.003
   0.03289861  0.01899402 -0.02686160       0.003
   0.06579722  0.00000000 -0.04029240       0.003
   0.09869583 -0.01899402 -0.05372320       0.003
  -0.09869583  0.09497011  0.02686160       0.003
  -0.06579722  0.07597609  0.01343080       0.003
  -0.03289861  0.05698206 -0.00000000       0.003
   0.00000000  0.07597609 -0.02686160       0.003
   0.03289861  0.05698206 -0.04029240       0.003
   0.06579722  0.03798804 -0.05372320       0.003
   0.09869583  0.01899402 -0.06715401       0.003
  -0.09869583  0.13295815  0.01343080       0.003
  -0.06579722  0.11396413  0.00000000       0.003
  -0.03289861  0.09497011 -0.01343080       0.003
   0.00000000  0.11396413 -0.04029240       0.003
   0.03289861  0.09497011 -0.05372320       0.003
   0.06579722  0.07597609 -0.06715401       0.003
   0.09869583  0.05698206 -0.08058481       0.003
  -0.09869583  0.17094619  0.00000000       0.003
  -0.06579722  0.15195217 -0.01343080       0.003
  -0.03289861  0.13295815 -0.02686160       0.003
  -0.00000000 -0.11396413  0.04029240       0.003
   0.03289861 -0.13295815  0.02686160       0.003
   0.06579722 -0.15195217  0.01343080       0.003
   0.09869583 -0.17094619 -0.00000000       0.003
  -0.09869583 -0.05698206  0.08058481       0.003
  -0.06579722 -0.07597609  0.06715401       0.003
  -0.03289861 -0.09497011  0.05372320       0.003
  -0.00000000 -0.07597609  0.02686160       0.003
   0.03289861 -0.09497011  0.01343080       0.003
   0.06579722 -0.11396413 -0.00000000       0.003
   0.09869583 -0.13295815 -0.01343080       0.003
  -0.09869583 -0.01899402  0.06715401       0.003
  -0.06579722 -0.03798804  0.05372320       0.003
  -0.03289861 -0.05698206  0.04029240       0.003
  -0.00000000 -0.03798804  0.01343080       0.003
   0.03289861 -0.05698206 -0.00000000       0.003
   0.06579722 -0.07597609 -0.01343080       0.003
   0.09869583 -0.09497011 -0.02686160       0.003
  -0.09869583  0.01899402  0.05372320       0.003
  -0.06579722  0.00000000  0.04029240       0.003
  -0.03289861 -0.01899402  0.02686160       0.003
  -0.00000000  0.00000000  0.04029240       0.003
   0.03289861 -0.01899402  0.02686160       0.003
   0.06579722 -0.03798804  0.01343080       0.003
   0.09869583 -0.05698206  0.00000000       0.003
  -0.09869583  0.05698206  0.08058481       0.003
  -0.06579722  0.03798804  0.06715401       0.003
  -0.03289861  0.01899402  0.05372320       0.003
  -0.00000000  0.03798804  0.02686160       0.003
   0.03289861  0.01899402  0.01343080       0.003
   0.06579722  0.00000000  0.00000000       0.003
   0.09869583 -0.01899402 -0.01343080       0.003
  -0.09869583  0.09497011  0.06715401       0.003
  -0.06579722  0.07597609  0.05372320       0.003
  -0.03289861  0.05698206  0.04029240       0.003
  -0.00000000  0.07597609  0.01343080       0.003
   0.03289861  0.05698206  0.00000000       0.003
   0.06579722  0.03798804 -0.01343080       0.003
   0.09869583  0.01899402 -0.02686160       0.003
  -0.09869583  0.13295815  0.05372320       0.003
  -0.06579722  0.11396413  0.04029240       0.003
  -0.03289861  0.09497011  0.02686160       0.003
  -0.00000000  0.11396413  0.00000000       0.003
   0.03289861  0.09497011 -0.01343080       0.003
   0.06579722  0.07597609 -0.02686160       0.003
   0.09869583  0.05698206 -0.04029240       0.003
  -0.09869583  0.17094619  0.04029240       0.003
  -0.06579722  0.15195217  0.02686160       0.003
  -0.03289861  0.13295815  0.01343080       0.003
  -0.00000000 -0.11396413  0.08058481       0.003
   0.03289861 -0.13295815  0.06715401       0.003
   0.06579722 -0.15195217  0.05372320       0.003
   0.09869583 -0.17094619  0.04029240       0.003
  -0.09869583 -0.05698206  0.12087721       0.003
  -0.06579722 -0.07597609  0.10744641       0.003
  -0.03289861 -0.09497011  0.09401561       0.003
  -0.00000000 -0.07597609  0.06715401       0.003
   0.03289861 -0.09497011  0.05372320       0.003
   0.06579722 -0.11396413  0.04029240       0.003
   0.09869583 -0.13295815  0.02686160       0.003
  -0.09869583 -0.01899402  0.10744641       0.003
  -0.06579722 -0.03798804  0.09401561       0.003
  -0.03289861 -0.05698206  0.08058481       0.003
  -0.00000000 -0.03798804  0.05372320       0.003
   0.03289861 -0.05698206  0.04029240       0.003
   0.06579722 -0.07597609  0.02686160       0.003
   0.09869583 -0.09497011  0.01343080       0.003
  -0.09869583  0.01899402  0.09401561       0.003
  -0.06579722  0.00000000  0.08058481       0.003
  -0.03289861 -0.01899402  0.06715401       0.003
  -0.00000000  0.00000000  0.08058481       0.003
   0.03289861 -0.01899402  0.06715401       0.003
   0.06579722 -0.03798804  0.05372320       0.003
   0.09869583 -0.05698206  0.04029240       0.003
  -0.09869583  0.05698206  0.12087721       0.003
  -0.06579722  0.03798804  0.10744641       0.003
  -0.03289861  0.01899402  0.09401561       0.003
  -0.00000000  0.03798804  0.06715401       0.003
   0.03289861  0.01899402  0.05372320       0.003
   0.06579722  0.00000000  0.04029240       0.003
   0.09869583 -0.01899402  0.02686160       0.003
  -0.09869583  0.09497011  0.10744641       0.003
  -0.06579722  0.07597609  0.09401561       0.003
  -0.03289861  0.05698206  0.08058481       0.003
  -0.00000000  0.07597609  0.05372320       0.003
   0.03289861  0.05698206  0.04029240       0.003
   0.06579722  0.03798804  0.02686160       0.003
   0.09869583  0.01899402  0.01343080       0.003
  -0.09869583  0.13295815  0.09401561       0.003
  -0.06579722  0.11396413  0.08058481       0.003
  -0.03289861  0.09497011  0.06715401       0.003
  -0.00000000  0.11396413  0.04029240       0.003
   0.03289861  0.09497011  0.02686160       0.003
   0.06579722  0.07597609  0.01343080       0.003
   0.09869583  0.05698206 -0.00000000       0.003
  -0.09869583  0.17094619  0.08058481       0.003
  -0.06579722  0.15195217  0.06715401       0.003
  -0.03289861  0.13295815  0.05372320       0.003
  -0.00000000 -0.11396413  0.12087721       0.003
   0.03289861 -0.13295815  0.10744641       0.003
   0.06579722 -0.15195217  0.09401561       0.003
   0.09869583 -0.17094619  0.08058481       0.003
  -0.09869583 -0.05698206  0.16116961       0.003
  -0.06579722 -0.07597609  0.14773881       0.003
  -0.03289861 -0.09497011  0.13430801       0.003
  -0.00000000 -0.07597609  0.10744641       0.003
   0.03289861 -0.09497011  0.09401561       0.003
   0.06579722 -0.11396413  0.08058481       0.003
   0.09869583 -0.13295815  0.06715401       0.003
  -0.09869583 -0.01899402  0.14773881       0.003
  -0.06579722 -0.03798804  0.13430801       0.003
  -0.03289861 -0.05698206  0.12087721       0.003
  -0.00000000 -0.03798804  0.09401561       0.003
   0.03289861 -0.05698206  0.08058481       0.003
   0.06579722 -0.07597609  0.06715401       0.003
   0.09869583 -0.09497011  0.05372320       0.003
  -0.09869583  0.01899402  0.13430801       0.003
  -0.06579722  0.00000000  0.12087721       0.003
  -0.03289861 -0.01899402  0.10744641       0.003
  -0.00000000  0.00000000  0.12087721       0.003
   0.03289861 -0.01899402  0.10744641       0.003
   0.06579722 -0.03798804  0.09401561       0.003
   0.09869583 -0.05698206  0.08058481       0.003
  -0.09869583  0.05698206  0.16116961       0.003
  -0.06579722  0.03798804  0.14773881       0.003
  -0.03289861  0.01899402  0.13430801       0.003
  -0.00000000  0.03798804  0.10744641       0.003
   0.03289861  0.01899402  0.09401561       0.003
   0.06579722  0.00000000  0.08058481       0.003
   0.09869583 -0.01899402  0.06715401       0.003
  -0.09869583  0.09497011  0.14773881       0.003
  -0.06579722  0.07597609  0.13430801       0.003
  -0.03289861  0.05698206  0.12087721       0.003
  -0.00000000  0.07597609  0.09401561       0.003
   0.03289861  0.05698206  0.08058481       0.003
   0.06579722  0.03798804  0.06715401       0.003
   0.09869583  0.01899402  0.05372320       0.003
  -0.09869583  0.13295815  0.13430801       0.003
  -0.06579722  0.11396413  0.12087721       0.003
  -0.03289861  0.09497011  0.10744641       0.003
  -0.00000000  0.11396413  0.08058481       0.003
   0.03289861  0.09497011  0.06715401       0.003
   0.06579722  0.07597609  0.05372320       0.003
   0.09869583  0.05698206  0.04029240       0.003
  -0.09869583  0.17094619  0.12087721       0.003
  -0.06579722  0.15195217  0.10744641       0.003
  -0.03289861  0.13295815  0.09401561       0.003
  -0.00000000 -0.11396413  0.16116961       0.003
   0.03289861 -0.13295815  0.14773881       0.003
   0.06579722 -0.15195217  0.13430801       0.003
   0.09869583 -0.17094619  0.12087721       0.003
  -0.09869583 -0.05698206  0.20146202       0.003
  -0.06579722 -0.07597609  0.18803122       0.003
  -0.03289861 -0.09497011  0.17460042       0.003
  -0.00000000 -0.07597609  0.14773881       0.003
   0.03289861 -0.09497011  0.13430801       0.003
   0.06579722 -0.11396413  0.12087721       0.003
   0.09869583 -0.13295815  0.10744641       0.003
  -0.09869583 -0.01899402  0.18803122       0.003
  -0.06579722 -0.03798804  0.17460042       0.003
  -0.03289861 -0.05698206  0.16116961       0.003
  -0.00000000 -0.03798804  0.13430801       0.003
   0.03289861 -0.05698206  0.12087721       0.003
   0.06579722 -0.07597609  0.10744641       0.003
   0.09869583 -0.09497011  0.09401561       0.003
  -0.09869583  0.01899402  0.17460042       0.003
  -0.06579722  0.00000000  0.16116961       0.003
  -0.03289861 -0.01899402  0.14773881       0.003
   0.00000000 -0.00000000 -0.12087721       0.003
   0.03289861 -0.01899402 -0.13430801       0.003
   0.06579722 -0.03798804 -0.14773881       0.003
   0.09869583 -0.05698206 -0.16116961       0.003
  -0.09869583  0.05698206 -0.08058481       0.003
  -0.06579722  0.03798804 -0.09401561       0.003
  -0.03289861  0.01899402 -0.10744641       0.003
   0.00000000  0.03798804 -0.13430801       0.003
   0.03289861  0.01899402 -0.14773881       0.003
   0.06579722  0.00000000 -0.16116961       0.003
   0.09869583 -0.01899402 -0.17460042       0.003
  -0.09869583  0.09497011 -0.09401561       0.003
  -0.06579722  0.07597609 -0.10744641       0.003
  -0.03289861  0.05698206 -0.12087721       0.003
   0.00000000  0.07597609 -0.14773881       0.003
   0.03289861  0.05698206 -0.16116961       0.003
   0.06579722  0.03798804 -0.17460042       0.003
   0.09869583  0.01899402 -0.18803122       0.003
  -0.09869583  0.13295815 -0.10744641       0.003
  -0.06579722  0.11396413 -0.12087721       0.003
  -0.03289861  0.09497011 -0.13430801       0.003
   0.00000000  0.11396413 -0.16116961       0.003
   0.03289861  0.09497011 -0.17460042       0.003
   0.06579722  0.07597609 -0.18803122       0.003
   0.09869583  0.05698206 -0.20146202       0.003
  -0.09869583  0.17094619 -0.12087721       0.003
  -0.06579722  0.15195217 -0.13430801       0.003
  -0.03289861  0.13295815 -0.14773881       0.003
   0.00000000 -0.11396413 -0.08058481       0.003
   0.03289861 -0.13295815 -0.09401561       0.003
   0.06579722 -0.15195217 -0.10744641       0.003
   0.09869583 -0.17094619 -0.12087721       0.003
  -0.09869583 -0.05698206 -0.04029240       0.003
  -0.06579722 -0.07597609 -0.05372320       0.003
  -0.03289861 -0.09497011 -0.06715401       0.003
   0.00000000 -0.07597609 -0.09401561       0.003
   0.03289861 -0.09497011 -0.10744641       0.003
   0.06579722 -0.11396413 -0.12087721       0.003
   0.09869583 -0.13295815 -0.13430801       0.003
  -0.09869583 -0.01899402 -0.05372320       0.003
  -0.06579722 -0.03798804 -0.06715401       0.003
  -0.03289861 -0.05698206 -0.08058481       0.003
   0.00000000 -0.03798804 -0.10744641       0.003
   0.03289861 -0.05698206 -0.12087721       0.003
   0.06579722 -0.07597609 -0.13430801       0.003
   0.09869583 -0.09497011 -0.14773881       0.003
  -0.09869583  0.01899402 -0.06715401       0.003
  -0.06579722  0.00000000 -0.08058481       0.003
  -0.03289861 -0.01899402 -0.09401561       0.003
   0.00000000 -0.00000000 -0.08058481       0.003
   0.03289861 -0.01899402 -0.09401561       0.003
   0.06579722 -0.03798804 -0.10744641       0.003
   0.09869583 -0.05698206 -0.12087721       0.003
  -0.09869583  0.05698206 -0.04029240       0.003
  -0.06579722  0.03798804 -0.05372320       0.003
  -0.03289861  0.01899402 -0.06715401       0.003
   0.00000000  0.03798804 -0.09401561       0.003
   0.03289861  0.01899402 -0.10744641       0.003
   0.06579722  0.00000000 -0.12087721       0.003
   0.09869583 -0.01899402 -0.13430801       0.003
  -0.09869583  0.09497011 -0.05372320       0.003
  -0.06579722  0.07597609 -0.06715401       0.003
  -0.03289861  0.05698206 -0.08058481       0.003
   0.00000000  0.07597609 -0.10744641       0.003
   0.03289861  0.05698206 -0.12087721       0.003
   0.06579722  0.03798804 -0.13430801       0.003
   0.09869583  0.01899402 -0.14773881       0.003
  -0.09869583  0.13295815 -0.06715401       0.003
  -0.06579722  0.11396413 -0.08058481       0.003
  -0.03289861  0.09497011 -0.09401561       0.003
   0.00000000  0.11396413 -0.12087721       0.003
   0.03289861  0.09497011 -0.13430801       0.003
   0.06579722  0.07597609 -0.14773881       0.003
   0.09869583  0.05698206 -0.16116961       0.003
  -0.09869583  0.17094619 -0.08058481       0.003
  -0.06579722  0.15195217 -0.09401561       0.003
  -0.03289861  0.13295815 -0.10744641       0.003
   0.00000000 -0.11396413 -0.04029240       0.003
   0.03289861 -0.13295815 -0.05372320       0.003
   0.06579722 -0.15195217 -0.06715401       0.003
   0.09869583 -0.17094619 -0.08058481       0.003
  -0.09869583 -0.05698206  0.00000000       0.003
  -0.06579722 -0.07597609 -0.01343080       0.003
  -0.03289861 -0.09497011 -0.02686160       0.003
   0.00000000 -0.07597609 -0.05372320       0.003
   0.03289861 -0.09497011 -0.06715401       0.003
   0.06579722 -0.11396413 -0.08058481       0.003
   0.09869583 -0.13295815 -0.09401561       0.003
  -0.09869583 -0.01899402 -0.01343080       0.003
  -0.06579722 -0.03798804 -0.02686160       0.003
  -0.03289861 -0.05698206 -0.04029240       0.003
   0.00000000 -0.03798804 -0.06715401       0.003
   0.03289861 -0.05698206 -0.08058481       0.003
   0.06579722 -0.07597609 -0.09401561       0.003
   0.09869583 -0.09497011 -0.10744641       0.003
  -0.09869583  0.01899402 -0.02686160       0.003
  -0.06579722  0.00000000 -0.04029240       0.003
  -0.03289861 -0.01899402 -0.05372320       0.003
   0.00000000 -0.00000000 -0.04029240       0.003
   0.03289861 -0.01899402 -0.05372320       0.003
   0.06579722 -0.03798804 -0.06715401       0.003
   0.09869583 -0.05698206 -0.08058481       0.003
  -0.09869583  0.05698206  0.00000000       0.003
  -0.06579722  0.03798804 -0.01343080       0.003
  -0.03289861  0.01899402 -0.02686160       0.003
   0.00000000  0.03798804 -0.05372320       0.003
   0.03289861  0.01899402 -0.06715401       0.003
   0.06579722  0.00000000 -0.08058481       0.003
   0.09869583 -0.01899402 -0.09401561       0.003
  -0.09869583  0.09497011 -0.01343080       0.003
  -0.06579722  0.07597609 -0.02686160       0.003
  -0.03289861  0.05698206 -0.04029240       0.003
   0.00000000  0.07597609 -0.06715401       0.003
   0.03289861  0.05698206 -0.08058481       0.003
   0.06579722  0.03798804 -0.09401561       0.003
   0.09869583  0.01899402 -0.10744641       0.003
  -0.09869583  0.13295815 -0.02686160       0.003
  -0.06579722  0.11396413 -0.04029240       0.003
  -0.03289861  0.09497011 -0.05372320       0.003
   0.00000000  0.11396413 -0.08058481       0.003
   0.03289861  0.09497011 -0.09401561       0.003
   0.06579722  0.07597609 -0.10744641       0.003
   0.09869583  0.05698206 -0.12087721       0.003
  -0.09869583  0.17094619 -0.04029240       0.003
  -0.06579722  0.15195217 -0.05372320       0.003
  -0.03289861  0.13295815 -0.06715401       0.003
  -0.00000000 -0.11396413  0.00000000       0.003
   0.03289861 -0.13295815 -0.01343080       0.003
   0.06579722 -0.15195217 -0.02686160       0.003
   0.09869583 -0.17094619 -0.04029240       0.003
  -0.09869583 -0.05698206  0.04029240       0.003
  -0.06579722 -0.07597609  0.02686160       0.003
  -0.03289861 -0.09497011  0.01343080       0.003
   0.00000000 -0.07597609 -0.01343080       0.003
   0.03289861 -0.09497011 -0.02686160       0.003
   0.06579722 -0.11396413 -0.04029240       0.003
   0.09869583 -0.13295815 -0.05372320       0.003
  -0.09869583 -0.01899402  0.02686160       0.003
  -0.06579722 -0.03798804  0.01343080       0.003
  -0.03289861 -0.05698206  0.00000000       0.003
   0.00000000 -0.03798804 -0.02686160       0.003
   0.03289861 -0.05698206 -0.04029240       0.003
   0.06579722 -0.07597609 -0.05372320       0.003
   0.09869583 -0.09497011 -0.06715401       0.003
  -0.09869583  0.01899402  0.01343080       0.003
  -0.06579722  0.00000000  0.00000000       0.003
  -0.03289861 -0.01899402 -0.01343080       0.003
 
 k-points in reciprocal lattice and weights: k-points                                
   0.00000000  0.00000000  0.00000000       0.003
   0.14285714  0.00000000  0.00000000       0.003
   0.28571429  0.00000000  0.00000000       0.003
   0.42857143  0.00000000  0.00000000       0.003
  -0.42857143 -0.00000000 -0.00000000       0.003
  -0.28571429 -0.00000000 -0.00000000       0.003
  -0.14285714 -0.00000000 -0.00000000       0.003
   0.00000000  0.14285714  0.00000000       0.003
   0.14285714  0.14285714  0.00000000       0.003
   0.28571429  0.14285714  0.00000000       0.003
   0.42857143  0.14285714  0.00000000       0.003
  -0.42857143  0.14285714 -0.00000000       0.003
  -0.28571429  0.14285714 -0.00000000       0.003
  -0.14285714  0.14285714 -0.00000000       0.003
   0.00000000  0.28571429 -0.00000000       0.003
   0.14285714  0.28571429  0.00000000       0.003
   0.28571429  0.28571429  0.00000000       0.003
   0.42857143  0.28571429  0.00000000       0.003
  -0.42857143  0.28571429 -0.00000000       0.003
  -0.28571429  0.28571429 -0.00000000       0.003
  -0.14285714  0.28571429 -0.00000000       0.003
   0.00000000  0.42857143 -0.00000000       0.003
   0.14285714  0.42857143  0.00000000       0.003
   0.28571429  0.42857143  0.00000000       0.003
   0.42857143  0.42857143  0.00000000       0.003
  -0.42857143  0.42857143 -0.00000000       0.003
  -0.28571429  0.42857143 -0.00000000       0.003
  -0.14285714  0.42857143 -0.00000000       0.003
  -0.00000000 -0.42857143  0.00000000       0.003
   0.14285714 -0.42857143  0.00000000       0.003
   0.28571429 -0.42857143  0.00000000       0.003
   0.42857143 -0.42857143  0.00000000       0.003
  -0.42857143 -0.42857143  0.00000000       0.003
  -0.28571429 -0.42857143 -0.00000000       0.003
  -0.14285714 -0.42857143  0.00000000       0.003
  -0.00000000 -0.28571429  0.00000000       0.003
   0.14285714 -0.28571429  0.00000000       0.003
   0.28571429 -0.28571429  0.00000000       0.003
   0.42857143 -0.28571429  0.00000000       0.003
  -0.42857143 -0.28571429 -0.00000000       0.003
  -0.28571429 -0.28571429 -0.00000000       0.003
  -0.14285714 -0.28571429 -0.00000000       0.003
  -0.00000000 -0.14285714 -0.00000000       0.003
   0.14285714 -0.14285714  0.00000000       0.003
   0.28571429 -0.14285714  0.00000000       0.003
   0.42857143 -0.14285714  0.00000000       0.003
  -0.42857143 -0.14285714 -0.00000000       0.003
  -0.28571429 -0.14285714 -0.00000000       0.003
  -0.14285714 -0.14285714 -0.00000000       0.003
  -0.00000000  0.00000000  0.14285714       0.003
   0.14285714 -0.00000000  0.14285714       0.003
   0.28571429 -0.00000000  0.14285714       0.003
   0.42857143 -0.00000000  0.14285714       0.003
  -0.42857143 -0.00000000  0.14285714       0.003
  -0.28571429 -0.00000000  0.14285714       0.003
  -0.14285714 -0.00000000  0.14285714       0.003
  -0.00000000  0.14285714  0.14285714       0.003
   0.14285714  0.14285714  0.14285714       0.003
   0.28571429  0.14285714  0.14285714       0.003
   0.42857143  0.14285714  0.14285714       0.003
  -0.42857143  0.14285714  0.14285714       0.003
  -0.28571429  0.14285714  0.14285714       0.003
  -0.14285714  0.14285714  0.14285714       0.003
  -0.00000000  0.28571429  0.14285714       0.003
   0.14285714  0.28571429  0.14285714       0.003
   0.28571429  0.28571429  0.14285714       0.003
   0.42857143  0.28571429  0.14285714       0.003
  -0.42857143  0.28571429  0.14285714       0.003
  -0.28571429  0.28571429  0.14285714       0.003
  -0.14285714  0.28571429  0.14285714       0.003
  -0.00000000  0.42857143  0.14285714       0.003
   0.14285714  0.42857143  0.14285714       0.003
   0.28571429  0.42857143  0.14285714       0.003
   0.42857143  0.42857143  0.14285714       0.003
  -0.42857143  0.42857143  0.14285714       0.003
  -0.28571429  0.42857143  0.14285714       0.003
  -0.14285714  0.42857143  0.14285714       0.003
  -0.00000000 -0.42857143  0.14285714       0.003
   0.14285714 -0.42857143  0.14285714       0.003
   0.28571429 -0.42857143  0.14285714       0.003
   0.42857143 -0.42857143  0.14285714       0.003
  -0.42857143 -0.42857143  0.14285714       0.003
  -0.28571429 -0.42857143  0.14285714       0.003
  -0.14285714 -0.42857143  0.14285714       0.003
  -0.00000000 -0.28571429  0.14285714       0.003
   0.14285714 -0.28571429  0.14285714       0.003
   0.28571429 -0.28571429  0.14285714       0.003
   0.42857143 -0.28571429  0.14285714       0.003
  -0.42857143 -0.28571429  0.14285714       0.003
  -0.28571429 -0.28571429  0.14285714       0.003
  -0.14285714 -0.28571429  0.14285714       0.003
   0.00000000 -0.14285714  0.14285714       0.003
   0.14285714 -0.14285714  0.14285714       0.003
   0.28571429 -0.14285714  0.14285714       0.003
   0.42857143 -0.14285714  0.14285714       0.003
  -0.42857143 -0.14285714  0.14285714       0.003
  -0.28571429 -0.14285714  0.14285714       0.003
  -0.14285714 -0.14285714  0.14285714       0.003
  -0.00000000  0.00000000  0.28571429       0.003
   0.14285714  0.00000000  0.28571429       0.003
   0.28571429 -0.00000000  0.28571429       0.003
   0.42857143 -0.00000000  0.28571429       0.003
  -0.42857143 -0.00000000  0.28571429       0.003
  -0.28571429 -0.00000000  0.28571429       0.003
  -0.14285714 -0.00000000  0.28571429       0.003
  -0.00000000  0.14285714  0.28571429       0.003
   0.14285714  0.14285714  0.28571429       0.003
   0.28571429  0.14285714  0.28571429       0.003
   0.42857143  0.14285714  0.28571429       0.003
  -0.42857143  0.14285714  0.28571429       0.003
  -0.28571429  0.14285714  0.28571429       0.003
  -0.14285714  0.14285714  0.28571429       0.003
  -0.00000000  0.28571429  0.28571429       0.003
   0.14285714  0.28571429  0.28571429       0.003
   0.28571429  0.28571429  0.28571429       0.003
   0.42857143  0.28571429  0.28571429       0.003
  -0.42857143  0.28571429  0.28571429       0.003
  -0.28571429  0.28571429  0.28571429       0.003
  -0.14285714  0.28571429  0.28571429       0.003
  -0.00000000  0.42857143  0.28571429       0.003
   0.14285714  0.42857143  0.28571429       0.003
   0.28571429  0.42857143  0.28571429       0.003
   0.42857143  0.42857143  0.28571429       0.003
  -0.42857143  0.42857143  0.28571429       0.003
  -0.28571429  0.42857143  0.28571429       0.003
  -0.14285714  0.42857143  0.28571429       0.003
  -0.00000000 -0.42857143  0.28571429       0.003
   0.14285714 -0.42857143  0.28571429       0.003
   0.28571429 -0.42857143  0.28571429       0.003
   0.42857143 -0.42857143  0.28571429       0.003
  -0.42857143 -0.42857143  0.28571429       0.003
  -0.28571429 -0.42857143  0.28571429       0.003
  -0.14285714 -0.42857143  0.28571429       0.003
   0.00000000 -0.28571429  0.28571429       0.003
   0.14285714 -0.28571429  0.28571429       0.003
   0.28571429 -0.28571429  0.28571429       0.003
   0.42857143 -0.28571429  0.28571429       0.003
  -0.42857143 -0.28571429  0.28571429       0.003
  -0.28571429 -0.28571429  0.28571429       0.003
  -0.14285714 -0.28571429  0.28571429       0.003
  -0.00000000 -0.14285714  0.28571429       0.003
   0.14285714 -0.14285714  0.28571429       0.003
   0.28571429 -0.14285714  0.28571429       0.003
   0.42857143 -0.14285714  0.28571429       0.003
  -0.42857143 -0.14285714  0.28571429       0.003
  -0.28571429 -0.14285714  0.28571429       0.003
  -0.14285714 -0.14285714  0.28571429       0.003
  -0.00000000 -0.00000000  0.42857143       0.003
   0.14285714  0.00000000  0.42857143       0.003
   0.28571429  0.00000000  0.42857143       0.003
   0.42857143  0.00000000  0.42857143       0.003
  -0.42857143  0.00000000  0.42857143       0.003
  -0.28571429  0.00000000  0.42857143       0.003
  -0.14285714 -0.00000000  0.42857143       0.003
  -0.00000000  0.14285714  0.42857143       0.003
   0.14285714  0.14285714  0.42857143       0.003
   0.28571429  0.14285714  0.42857143       0.003
   0.42857143  0.14285714  0.42857143       0.003
  -0.42857143  0.14285714  0.42857143       0.003
  -0.28571429  0.14285714  0.42857143       0.003
  -0.14285714  0.14285714  0.42857143       0.003
  -0.00000000  0.28571429  0.42857143       0.003
   0.14285714  0.28571429  0.42857143       0.003
   0.28571429  0.28571429  0.42857143       0.003
   0.42857143  0.28571429  0.42857143       0.003
  -0.42857143  0.28571429  0.42857143       0.003
  -0.28571429  0.28571429  0.42857143       0.003
  -0.14285714  0.28571429  0.42857143       0.003
  -0.00000000  0.42857143  0.42857143       0.003
   0.14285714  0.42857143  0.42857143       0.003
   0.28571429  0.42857143  0.42857143       0.003
   0.42857143  0.42857143  0.42857143       0.003
  -0.42857143  0.42857143  0.42857143       0.003
  -0.28571429  0.42857143  0.42857143       0.003
  -0.14285714  0.42857143  0.42857143       0.003
   0.00000000 -0.42857143  0.42857143       0.003
   0.14285714 -0.42857143  0.42857143       0.003
   0.28571429 -0.42857143  0.42857143       0.003
   0.42857143 -0.42857143  0.42857143       0.003
  -0.42857143 -0.42857143  0.42857143       0.003
  -0.28571429 -0.42857143  0.42857143       0.003
  -0.14285714 -0.42857143  0.42857143       0.003
   0.00000000 -0.28571429  0.42857143       0.003
   0.14285714 -0.28571429  0.42857143       0.003
   0.28571429 -0.28571429  0.42857143       0.003
   0.42857143 -0.28571429  0.42857143       0.003
  -0.42857143 -0.28571429  0.42857143       0.003
  -0.28571429 -0.28571429  0.42857143       0.003
  -0.14285714 -0.28571429  0.42857143       0.003
  -0.00000000 -0.14285714  0.42857143       0.003
   0.14285714 -0.14285714  0.42857143       0.003
   0.28571429 -0.14285714  0.42857143       0.003
   0.42857143 -0.14285714  0.42857143       0.003
  -0.42857143 -0.14285714  0.42857143       0.003
  -0.28571429 -0.14285714  0.42857143       0.003
  -0.14285714 -0.14285714  0.42857143       0.003
   0.00000000  0.00000000 -0.42857143       0.003
   0.14285714 -0.00000000 -0.42857143       0.003
   0.28571429 -0.00000000 -0.42857143       0.003
   0.42857143 -0.00000000 -0.42857143       0.003
  -0.42857143 -0.00000000 -0.42857143       0.003
  -0.28571429 -0.00000000 -0.42857143       0.003
  -0.14285714 -0.00000000 -0.42857143       0.003
   0.00000000  0.14285714 -0.42857143       0.003
   0.14285714  0.14285714 -0.42857143       0.003
   0.28571429  0.14285714 -0.42857143       0.003
   0.42857143  0.14285714 -0.42857143       0.003
  -0.42857143  0.14285714 -0.42857143       0.003
  -0.28571429  0.14285714 -0.42857143       0.003
  -0.14285714  0.14285714 -0.42857143       0.003
   0.00000000  0.28571429 -0.42857143       0.003
   0.14285714  0.28571429 -0.42857143       0.003
   0.28571429  0.28571429 -0.42857143       0.003
   0.42857143  0.28571429 -0.42857143       0.003
  -0.42857143  0.28571429 -0.42857143       0.003
  -0.28571429  0.28571429 -0.42857143       0.003
  -0.14285714  0.28571429 -0.42857143       0.003
  -0.00000000  0.42857143 -0.42857143       0.003
   0.14285714  0.42857143 -0.42857143       0.003
   0.28571429  0.42857143 -0.42857143       0.003
   0.42857143  0.42857143 -0.42857143       0.003
  -0.42857143  0.42857143 -0.42857143       0.003
  -0.28571429  0.42857143 -0.42857143       0.003
  -0.14285714  0.42857143 -0.42857143       0.003
   0.00000000 -0.42857143 -0.42857143       0.003
   0.14285714 -0.42857143 -0.42857143       0.003
   0.28571429 -0.42857143 -0.42857143       0.003
   0.42857143 -0.42857143 -0.42857143       0.003
  -0.42857143 -0.42857143 -0.42857143       0.003
  -0.28571429 -0.42857143 -0.42857143       0.003
  -0.14285714 -0.42857143 -0.42857143       0.003
   0.00000000 -0.28571429 -0.42857143       0.003
   0.14285714 -0.28571429 -0.42857143       0.003
   0.28571429 -0.28571429 -0.42857143       0.003
   0.42857143 -0.28571429 -0.42857143       0.003
  -0.42857143 -0.28571429 -0.42857143       0.003
  -0.28571429 -0.28571429 -0.42857143       0.003
  -0.14285714 -0.28571429 -0.42857143       0.003
   0.00000000 -0.14285714 -0.42857143       0.003
   0.14285714 -0.14285714 -0.42857143       0.003
   0.28571429 -0.14285714 -0.42857143       0.003
   0.42857143 -0.14285714 -0.42857143       0.003
  -0.42857143 -0.14285714 -0.42857143       0.003
  -0.28571429 -0.14285714 -0.42857143       0.003
  -0.14285714 -0.14285714 -0.42857143       0.003
   0.00000000 -0.00000000 -0.28571429       0.003
   0.14285714 -0.00000000 -0.28571429       0.003
   0.28571429  0.00000000 -0.28571429       0.003
   0.42857143  0.00000000 -0.28571429       0.003
  -0.42857143  0.00000000 -0.28571429       0.003
  -0.28571429  0.00000000 -0.28571429       0.003
  -0.14285714 -0.00000000 -0.28571429       0.003
   0.00000000  0.14285714 -0.28571429       0.003
   0.14285714  0.14285714 -0.28571429       0.003
   0.28571429  0.14285714 -0.28571429       0.003
   0.42857143  0.14285714 -0.28571429       0.003
  -0.42857143  0.14285714 -0.28571429       0.003
  -0.28571429  0.14285714 -0.28571429       0.003
  -0.14285714  0.14285714 -0.28571429       0.003
   0.00000000  0.28571429 -0.28571429       0.003
   0.14285714  0.28571429 -0.28571429       0.003
   0.28571429  0.28571429 -0.28571429       0.003
   0.42857143  0.28571429 -0.28571429       0.003
  -0.42857143  0.28571429 -0.28571429       0.003
  -0.28571429  0.28571429 -0.28571429       0.003
  -0.14285714  0.28571429 -0.28571429       0.003
   0.00000000  0.42857143 -0.28571429       0.003
   0.14285714  0.42857143 -0.28571429       0.003
   0.28571429  0.42857143 -0.28571429       0.003
   0.42857143  0.42857143 -0.28571429       0.003
  -0.42857143  0.42857143 -0.28571429       0.003
  -0.28571429  0.42857143 -0.28571429       0.003
  -0.14285714  0.42857143 -0.28571429       0.003
   0.00000000 -0.42857143 -0.28571429       0.003
   0.14285714 -0.42857143 -0.28571429       0.003
   0.28571429 -0.42857143 -0.28571429       0.003
   0.42857143 -0.42857143 -0.28571429       0.003
  -0.42857143 -0.42857143 -0.28571429       0.003
  -0.28571429 -0.42857143 -0.28571429       0.003
  -0.14285714 -0.42857143 -0.28571429       0.003
   0.00000000 -0.28571429 -0.28571429       0.003
   0.14285714 -0.28571429 -0.28571429       0.003
   0.28571429 -0.28571429 -0.28571429       0.003
   0.42857143 -0.28571429 -0.28571429       0.003
  -0.42857143 -0.28571429 -0.28571429       0.003
  -0.28571429 -0.28571429 -0.28571429       0.003
  -0.14285714 -0.28571429 -0.28571429       0.003
   0.00000000 -0.14285714 -0.28571429       0.003
   0.14285714 -0.14285714 -0.28571429       0.003
   0.28571429 -0.14285714 -0.28571429       0.003
   0.42857143 -0.14285714 -0.28571429       0.003
  -0.42857143 -0.14285714 -0.28571429       0.003
  -0.28571429 -0.14285714 -0.28571429       0.003
  -0.14285714 -0.14285714 -0.28571429       0.003
   0.00000000 -0.00000000 -0.14285714       0.003
   0.14285714  0.00000000 -0.14285714       0.003
[...]
    0.000000  175.384193  175.380252  175.380628   18.557114   24.918836   25.526103
    0.569731    3.000504    3.000490    3.000494   -0.593846   -0.795196   -0.813312
    1.139462    2.238037    2.238041    2.238041   -0.068890   -0.091507   -0.093300
    1.709193    2.122012    2.122017    2.122016   -0.021650   -0.028704   -0.028861
    2.278924    2.478321    2.478331    2.478327   -0.009162   -0.011834   -0.011908
    2.848655    8.863399    8.863426    8.863413   -0.005613   -0.007333   -0.007173
    3.418386    6.193160    6.193315    6.193245   -0.004123   -0.005386   -0.005197
    3.988117   10.088373   10.098960   10.094416   -0.005371    0.002985   -0.003918
    4.557848    6.310632    6.307088    6.308228    0.032152    0.047688    0.043573
    5.127579    6.325906    6.320488    6.320341    0.009143    0.005833    0.007685
    5.697310    4.423089    4.422987    4.423435   -0.002660   -0.002428   -0.002652
    6.267042    8.212309    8.212812    8.209568   -0.023281   -0.049252   -0.037731
    6.836773    3.079620    3.080027    3.079376   -0.006732   -0.010775   -0.009710
    7.406504    3.896694    3.897462    3.898143   -0.004420   -0.005579   -0.004443
    7.976235    4.228913    4.230003    4.229215    0.000164    0.000229   -0.000135
    8.545966    1.343562    1.343556    1.343584    0.000045   -0.000064    0.000243
    9.115697    1.039680    1.039563    1.039570    0.000929    0.001137    0.001283
    9.685428    1.666044    1.666104    1.666332    0.001097    0.001758    0.001402
   10.255159    0.940709    0.940415    0.940449    0.000943    0.001161    0.001274
   10.824890    0.716985    0.717029    0.717103   -0.000803   -0.000900   -0.000871
   11.394621    0.439653    0.439659    0.439671    0.000088    0.000217    0.000265
   11.964352    0.421192    0.421303    0.421336   -0.000216   -0.000156   -0.000040
   12.534083    0.349898    0.349985    0.349950    0.000057    0.000159    0.000280
   13.103814    0.216592    0.216661    0.216629    0.000035    0.000283    0.000273
   13.673545    0.265069    0.265060    0.265069    0.000114    0.000257    0.000307
   14.243276    0.625120    0.624833    0.625000    0.000091    0.000472    0.000409
   14.813007    0.287998    0.287813    0.288124    0.000364    0.000518    0.000531
   15.382738    0.149011    0.148980    0.149022   -0.000120   -0.000359   -0.000310
   15.952469    0.624108    0.623123    0.623477    0.000302    0.000094   -0.000471
   16.522200    0.610721    0.610680    0.610675   -0.000015    0.000008   -0.000005
   17.091931    0.341967    0.341953    0.341955   -0.000025    0.000010    0.000042
   17.661662    0.657676    0.657653    0.657670   -0.000026    0.000031    0.000067
   18.231394    0.362592    0.362617    0.362608   -0.000075   -0.000023    0.000002
   18.801125    0.244370    0.244365    0.244367   -0.000169   -0.000207   -0.000137
   19.370856    0.201631    0.201668    0.201656   -0.000322   -0.000397   -0.000342
   19.940587    0.177431    0.177545    0.177535   -0.000280   -0.000256   -0.000225
   20.510318    0.165189    0.165173    0.165170   -0.000104   -0.000111   -0.000024
   21.080049    0.113247    0.113204    0.113249    0.000003    0.000055    0.000058
   21.649780    0.126387    0.126384    0.126390   -0.000064    0.000001    0.000049
   22.219511    0.105239    0.105210    0.105231   -0.000093   -0.000028    0.000060
   22.789242    0.058484    0.057893    0.058601    0.000372    0.000141    0.000509
   23.358973    0.009015    0.008998    0.009001    0.000175    0.000176    0.000198
   23.928704    0.021014    0.021011    0.020882    0.000368    0.000334    0.000339
   24.498435    0.014812    0.014735    0.014571    0.000365    0.000348    0.000219
   25.068166    0.007403    0.007400    0.007384    0.000083    0.000150    0.000108
   25.637897    0.026575    0.026574    0.026569    0.000037    0.000095    0.000081
   26.207628    0.028952    0.028951    0.028949    0.000017    0.000073    0.000070
   26.777359    0.094132    0.094132    0.094132   -0.000016    0.000028    0.000032
   27.347090    0.042585    0.042584    0.042584   -0.000123   -0.000117   -0.000109
   27.916821    0.025559    0.025559    0.025559    0.000379    0.000573    0.000586
   28.486552    0.028538    0.028538    0.028538    0.000153    0.000265    0.000279
   29.056283    0.068020    0.068020    0.068020    0.000113    0.000212    0.000226
   29.626014    0.047606    0.047601    0.047595    0.000113    0.000197    0.000219
   30.195746    0.089955    0.089954    0.089955    0.000093    0.000187    0.000204
   30.765477    0.148441    0.148487    0.148473    0.000091    0.000190    0.000198
   31.335208    0.056342    0.056346    0.056346    0.000092    0.000195    0.000210
   31.904939    0.085378    0.085394    0.085396    0.000076    0.000190    0.000200
   32.474670    0.133873    0.133797    0.133813    0.000154    0.000209    0.000266
   33.044401    0.146508    0.146505    0.146509    0.000102    0.000197    0.000222
   33.614132    0.092621    0.092580    0.092625    0.000158    0.000222    0.000221
   34.183863    0.188426    0.188439    0.188435    0.000084    0.000199    0.000236
   34.753594    0.103267    0.103265    0.103267    0.000086    0.000188    0.000232
   35.323325    0.088921    0.088934    0.088935    0.000109    0.000241    0.000274
   35.893056    0.060251    0.060251    0.060253    0.000148    0.000283    0.000327
   36.462787    0.112138    0.112143    0.112141    0.000195    0.000348    0.000397
   37.032518    0.148694    0.148691    0.148706    0.000114    0.000271    0.000393
   37.602249    0.112200    0.112310    0.112265    0.000301    0.000656    0.000641
   38.171980    0.223437    0.223463    0.223446    0.000376    0.000603    0.000696
   38.741711    0.208969    0.209009    0.208990    0.000601    0.000782    0.000934
   39.311442    0.136965    0.138374    0.137461    0.000845    0.002307    0.002705
   39.881173    0.028475    0.028491    0.028511   -0.000168    0.001228    0.001267
   40.450904    0.043776    0.043285    0.043879    0.001264    0.004030    0.004505
   41.020635    0.036645    0.036372    0.036764   -0.001644   -0.004261   -0.004003
   41.590367    0.022868    0.022835    0.022884   -0.000781   -0.001664   -0.001661
   42.160098    0.025960    0.025949    0.025967   -0.000574   -0.001081   -0.001082
   42.729829    0.027414    0.027409    0.027418   -0.000497   -0.000850   -0.000839
   43.299560    0.081584    0.081586    0.081589   -0.000434   -0.000632   -0.000645
   43.869291    0.079372    0.079342    0.079330   -0.000594   -0.000933   -0.000988
   44.439022    0.075689    0.075611    0.075661   -0.000162   -0.000412   -0.000478
   45.008753    0.083698    0.083693    0.083701   -0.000380   -0.000529   -0.000547
   45.578484    0.049285    0.049289    0.049310   -0.000664   -0.000716   -0.000719
   46.148215    0.019753    0.019662    0.019868    0.000574   -0.000223    0.000128
   46.717946    0.006065    0.006119    0.006126   -0.000321   -0.000803   -0.000657
   47.287677    0.061000    0.062283    0.062346   -0.000840   -0.001728   -0.001708
   47.857408    0.004126    0.004248    0.004228    0.000666    0.000988    0.000711
   48.427139    0.001482    0.001506    0.001503    0.000306    0.000390    0.000276
   48.996870    0.000899    0.000909    0.000908    0.000190    0.000216    0.000144
   49.566601    0.000641    0.000646    0.000646    0.000133    0.000135    0.000083
   50.136332    0.000492    0.000495    0.000495    0.000099    0.000091    0.000049
   50.706063    0.000394    0.000396    0.000396    0.000077    0.000063    0.000029
   51.275794    0.000325    0.000327    0.000327    0.000062    0.000045    0.000015
   51.845525    0.000274    0.000275    0.000275    0.000051    0.000032    0.000006
   52.415256    0.000234    0.000235    0.000235    0.000042    0.000023    0.000000
   52.984987    0.000203    0.000204    0.000204    0.000036    0.000016   -0.000004
   53.554719    0.000178    0.000178    0.000178    0.000031    0.000011   -0.000007
   54.124450    0.000157    0.000157    0.000157    0.000026    0.000007   -0.000010
   54.694181    0.000139    0.000140    0.000140    0.000023    0.000004   -0.000011
   55.263912    0.000125    0.000125    0.000125    0.000020    0.000002   -0.000012
   55.833643    0.000112    0.000112    0.000112    0.000018    0.000000   -0.000013
   56.403374    0.000101    0.000101    0.000102    0.000016   -0.000001   -0.000014

  frequency dependent      REAL DIELECTRIC FUNCTION (independent particle, no local field effects) current-current (2nd set in vasprun.xml)
     E(ev)        X           Y           Z          XY          YZ          ZX
  --------------------------------------------------------------------------------------------------------------
    0.000000   20.201383   20.201049   20.201087   -6.296890   -8.451092   -8.652860
    0.569731   -2.148939   -2.148689   -2.148703    0.344273    0.462242    0.473084
    1.139462    6.832558    6.832625    6.832625    0.114900    0.154209    0.157852
    1.709193    2.931914    2.931956    2.931953    0.052656    0.070661    0.072311
    2.278924    6.348390    6.348447    6.348433    0.030122    0.040546    0.041354
    2.848655    2.347088    2.347201    2.347156    0.019069    0.025728    0.026160
    3.418386    4.681318    4.681713    4.681537    0.013204    0.018106    0.018173
    3.988117    7.772117    7.769693    7.770722    0.019995    0.027970    0.027157
    4.557848    4.243999    4.249902    4.247873    0.023925    0.042712    0.035255
    5.127579    5.515157    5.516163    5.516250    0.024143    0.042418    0.034420
    5.697310    1.702547    1.702085    1.702293    0.003108    0.002507    0.003933
    6.267042   -0.444584   -0.444993   -0.439032   -0.023547   -0.031822   -0.025367
    6.836773   -2.282522   -2.282641   -2.282511    0.027362    0.044895    0.038172
    7.406504   -0.261182   -0.261126   -0.260708   -0.014985   -0.028467   -0.020640
    7.976235   -0.142202   -0.142421   -0.142195    0.002253    0.003370    0.003058
    8.545966   -2.395624   -2.395609   -2.395590    0.002358    0.003163    0.003130
    9.115697   -0.448866   -0.449045   -0.448961    0.001650    0.001891    0.002038
    9.685428   -1.472625   -1.472889   -1.472628    0.002370    0.003013    0.002943
   10.255159   -1.267513   -1.267280   -1.267308    0.001918    0.003104    0.002919
   10.824890   -0.709453   -0.709490   -0.709630    0.001013    0.001386    0.001338
   11.394621   -0.164815   -0.164751   -0.164744    0.001104    0.001566    0.001632
   11.964352   -0.096412   -0.096319   -0.096257    0.001042    0.001556    0.001511
   12.534083   -0.043723   -0.043637   -0.043663    0.000970    0.001508    0.001467
   13.103814    0.266453    0.266203    0.266346    0.000999    0.001071    0.001109
   13.673545    0.391251    0.391061    0.391201    0.000889    0.001041    0.001028
   14.243276    0.357590    0.357303    0.357537    0.000458    0.000777    0.000657
   14.813007    0.307579    0.307459    0.307845    0.000861    0.000114    0.000135
   15.382738    0.527826    0.527571    0.527439    0.000656    0.001122    0.000986
   15.952469    0.824499    0.824077    0.823832    0.000929    0.001113    0.000906
   16.522200    0.381097    0.381363    0.381310    0.000459    0.000797    0.000962
   17.091931    0.504901    0.505010    0.504978    0.000473    0.000699    0.000818
   17.661662    0.420381    0.420454    0.420445    0.000401    0.000576    0.000676
   18.231394    0.301581    0.301587    0.301586    0.000460    0.000598    0.000695
   18.801125    0.308614    0.308630    0.308626    0.000513    0.000693    0.000756
   19.370856    0.303280    0.303267    0.303271   -0.000226   -0.000501   -0.000360
   19.940587    0.509256    0.509230    0.509240    0.000110   -0.000036    0.000105
   20.510318    0.341422    0.341421    0.341440    0.000292    0.000357    0.000395
   21.080049    0.487126    0.487163    0.487118    0.000407    0.000531    0.000533
   21.649780    0.482010    0.481999    0.482002    0.000353    0.000410    0.000447
   22.219511    0.492929    0.492905    0.492954    0.000379    0.000444    0.000452
   22.789242    0.563618    0.563468    0.563418    0.001106    0.000795    0.000580
   23.358973    0.639386    0.639489    0.639232    0.000372    0.000371    0.000264
   23.928704    0.692346    0.692399    0.691963    0.000381    0.000059   -0.000245
   24.498435    0.684410    0.684538    0.684939    0.000086    0.000865    0.001017
   25.068166    0.742837    0.742895    0.743031    0.000122    0.000421    0.000537
   25.637897    0.760039    0.760083    0.760166    0.000149    0.000364    0.000453
   26.207628    0.808756    0.808793    0.808855    0.000161    0.000343    0.000418
   26.777359    0.817707    0.817740    0.817793    0.000161    0.000324    0.000391
   27.347090    0.779840    0.779869    0.779916    0.000202    0.000366    0.000429
   27.916821    0.793745    0.793772    0.793815    0.000342    0.000549    0.000610
   28.486552    0.866585    0.866610    0.866652    0.000163    0.000298    0.000356
   29.056283    0.868680    0.868703    0.868744    0.000154    0.000282    0.000338
   29.626014    0.855577    0.855597    0.855636    0.000157    0.000292    0.000336
   30.195746    0.924189    0.924208    0.924250    0.000134    0.000247    0.000304
   30.765477    0.846391    0.846431    0.846476    0.000127    0.000286    0.000312
   31.335208    0.851279    0.851295    0.851340    0.000130    0.000247    0.000299
   31.904939    0.908289    0.908298    0.908345    0.000122    0.000211    0.000278
   32.474670    0.926635    0.926783    0.926807    0.000046    0.000274    0.000235
   33.044401    0.873576    0.873580    0.873641    0.000115    0.000218    0.000277
   33.614132    0.931590    0.931571    0.931667    0.000094    0.000180    0.000232
   34.183863    0.890829    0.890858    0.890896    0.000026    0.000125    0.000231
   34.753594    0.856193    0.856222    0.856270    0.000061    0.000186    0.000271
   35.323325    0.905181    0.905206    0.905263    0.000057    0.000177    0.000274
   35.893056    0.874332    0.874364    0.874427    0.000045    0.000194    0.000297
   36.462787    0.943714    0.943754    0.943827    0.000011    0.000184    0.000311
   37.032518    0.875861    0.875850    0.875993   -0.000133    0.000114    0.000299
   37.602249    0.919677    0.919873    0.919766   -0.000024    0.000049    0.000068
   38.171980    0.828719    0.828734    0.828805    0.000065    0.000220    0.000336
   38.741711    0.695713    0.695855    0.695882   -0.000117    0.000248    0.000405
   39.311442    0.660830    0.661423    0.661203   -0.002915   -0.000669   -0.000755
   39.881173    0.777649    0.776936    0.777676    0.000065   -0.000436   -0.000106
   40.450904    0.857545    0.856272    0.857829   -0.000820   -0.001950   -0.001024
   41.020635    0.789591    0.790421    0.789263   -0.000113   -0.000926   -0.002099
   41.590367    0.836788    0.837095    0.836684    0.000143    0.000034   -0.000402
   42.160098    0.866238    0.866429    0.866192    0.000165    0.000116   -0.000161
   42.729829    0.889611    0.889756    0.889594    0.000160    0.000120   -0.000096
   43.299560    0.907233    0.907338    0.907220    0.000224    0.000178   -0.000023
   43.869291    0.873405    0.873483    0.873381    0.000536    0.000270   -0.000078
   44.439022    0.901795    0.901982    0.901895    0.000181    0.000314    0.000186
   45.008753    0.836451    0.836606    0.836559    0.000102    0.000167    0.000104
   45.578484    0.805984    0.806137    0.806151    0.000220    0.000264    0.000228
   46.148215    0.790993    0.791382    0.791060    0.000872    0.000632    0.000391
   46.717946    0.842302    0.842775    0.842615    0.000203    0.000404    0.000111
   47.287677    0.868101    0.869599    0.869051    0.002387    0.003215    0.002110
   47.857408    0.843764    0.843230    0.843251    0.000162    0.000105    0.000252
   48.427139    0.860430    0.860201    0.860180    0.000083    0.000040    0.000100
   48.996870    0.870054    0.869915    0.869886    0.000072    0.000046    0.000075
   49.566601    0.877272    0.877175    0.877145    0.000067    0.000052    0.000067
   50.136332    0.883196    0.883124    0.883094    0.000065    0.000056    0.000063
   50.706063    0.888282    0.888225    0.888196    0.000063    0.000058    0.000061
   51.275794    0.892766    0.892719    0.892692    0.000062    0.000059    0.000060
   51.845525    0.896790    0.896751    0.896725    0.000060    0.000060    0.000059
   52.415256    0.900449    0.900416    0.900391    0.000059    0.000061    0.000058
   52.984987    0.903808    0.903779    0.903756    0.000058    0.000061    0.000057
   53.554719    0.906914    0.906889    0.906867    0.000057    0.000060    0.000056
   54.124450    0.909805    0.909782    0.909761    0.000055    0.000060    0.000056
   54.694181    0.912508    0.912488    0.912467    0.000054    0.000059    0.000055
   55.263912    0.915046    0.915028    0.915008    0.000053    0.000059    0.000054
   55.833643    0.917437    0.917421    0.917402    0.000052    0.000058    0.000053
   56.403374    0.919698    0.919683    0.919665    0.000051    0.000057    0.000053
 
 The outermost node in the dielectric function lies at epsilon=  12.6


--------------------------------------------------------------------------------------------------------


    OPTICS:  cpu time    0.6290: real time    0.6432
    4ORBIT:  cpu time    0.0000: real time    0.0000

 Spin-Orbit-Coupling matrix elements

 Ion:    1  E_soc:    -33.0168357
 l=   1
     0.0000000    -5.0845630    -5.0845629
    -5.0845630     0.0000000    -5.0845629
    -5.0845629    -5.0845629     0.0000000
 l=   2
     0.0000000    -0.0836557     0.0000000    -0.0836557    -0.3345756
    -0.0836557     0.0000000    -0.2509317    -0.0836674    -0.0836557
     0.0000000    -0.2509317     0.0000000    -0.2509317     0.0000000
    -0.0836557    -0.0836674    -0.2509317     0.0000000    -0.0836557
    -0.3345756    -0.0836557     0.0000000    -0.0836557     0.0000000
 l=   3
     0.0000000     0.0000000     0.0000000     0.0000000     0.0000000     0.0000000     0.0000000
     0.0000000     0.0000000     0.0000000     0.0000000     0.0000000     0.0000000     0.0000000
     0.0000000     0.0000000     0.0000000     0.0000000     0.0000000     0.0000000     0.0000000
     0.0000000     0.0000000     0.0000000     0.0000000     0.0000000     0.0000000     0.0000000
     0.0000000     0.0000000     0.0000000     0.0000000     0.0000000     0.0000000     0.0000000
     0.0000000     0.0000000     0.0000000     0.0000000     0.0000000     0.0000000     0.0000000
     0.0000000     0.0000000     0.0000000     0.0000000     0.0000000     0.0000000     0.0000000

 total amount of memory used by VASP MPI-rank0    43706. kBytes
=======================================================================

   base      :      30000. kBytes
   nonl-proj :       5533. kBytes
   fftplans  :       1038. kBytes
   grid      :       1103. kBytes
   one-center:         62. kBytes
   wavefun   :       5970. kBytes
 
  
  
 General timing and accounting informations for this job:
 ========================================================
  
                  Total CPU time used (sec):       99.753
                            User time (sec):       97.398
                          System time (sec):        2.355
                         Elapsed time (sec):      100.390
  
                   Maximum memory used (kb):      166816.
                   Average memory used (kb):           0.
  
                          Minor page faults:       134287
                          Major page faults:            0
                 Voluntary context switches:         3826
