   1   1   0   0
  0.6083477E+02  0.4414576E-09  0.4414576E-09  0.4414576E-09  0.1000000E-15
  1.000000000000000E-004
  CAR 
 Og_FCC                                  
     55.32493809    -48.48506385  301     -0.64595462      1.00000000
    -48.485  0.0000E+00  0.0000E+00
    -48.139  0.0000E+00  0.0000E+00
    -47.793  0.0000E+00  0.0000E+00
    -47.447  0.0000E+00  0.0000E+00
    -47.101  0.0000E+00  0.0000E+00
    -46.755  0.0000E+00  0.0000E+00
    -46.409  0.0000E+00  0.0000E+00
    -46.063  0.0000E+00  0.0000E+00
    -45.717  0.0000E+00  0.0000E+00
    -45.371  0.0000E+00  0.0000E+00
    -45.025  0.0000E+00  0.0000E+00
    -44.679  0.0000E+00  0.0000E+00
    -44.333  0.0000E+00  0.0000E+00
    -43.987  0.0000E+00  0.0000E+00
    -43.641  0.0000E+00  0.4000E+01
    -43.295  0.0000E+00  0.4000E+01
    -42.949  0.0000E+00  0.4000E+01
    -42.602  0.0000E+00  0.4000E+01
    -42.256  0.0000E+00  0.4000E+01
    -41.910  0.0000E+00  0.4000E+01
    -41.564  0.0000E+00  0.4000E+01
    -41.218  0.0000E+00  0.4000E+01
    -40.872  0.0000E+00  0.4000E+01
    -40.526  0.0000E+00  0.4000E+01
    -40.180  0.0000E+00  0.4000E+01
    -39.834  0.0000E+00  0.4000E+01
    -39.488  0.0000E+00  0.4000E+01
    -39.142  0.0000E+00  0.1000E+02
    -38.796  0.0000E+00  0.1000E+02
    -38.450  0.0000E+00  0.1000E+02
    -38.104  0.0000E+00  0.1000E+02
    -37.758  0.0000E+00  0.1000E+02
    -37.412  0.0000E+00  0.1000E+02
    -37.066  0.0000E+00  0.1000E+02
    -36.720  0.0000E+00  0.1000E+02
    -36.374  0.0000E+00  0.1000E+02
    -36.028  0.0000E+00  0.1000E+02
    -35.682  0.0000E+00  0.1000E+02
    -35.336  0.0000E+00  0.1000E+02
    -34.990  0.0000E+00  0.1000E+02
    -34.644  0.0000E+00  0.1000E+02
    -34.298  0.0000E+00  0.1000E+02
    -33.952  0.0000E+00  0.1000E+02
    -33.606  0.0000E+00  0.1000E+02
    -33.260  0.0000E+00  0.1000E+02
    -32.914  0.0000E+00  0.1000E+02
    -32.568  0.0000E+00  0.1000E+02
    -32.221  0.0000E+00  0.1000E+02
    -31.875  0.0000E+00  0.1000E+02
    -31.529  0.0000E+00  0.1000E+02
    -31.183  0.0000E+00  0.1000E+02
    -30.837  0.0000E+00  0.1000E+02
    -30.491  0.0000E+00  0.1000E+02
    -30.145  0.0000E+00  0.1000E+02
    -29.799  0.0000E+00  0.1000E+02
    -29.453  0.0000E+00  0.1000E+02
    -29.107  0.0000E+00  0.1000E+02
    -28.761  0.0000E+00  0.1000E+02
    -28.415  0.0000E+00  0.1000E+02
    -28.069  0.0000E+00  0.1000E+02
    -27.723  0.0000E+00  0.1000E+02
    -27.377  0.0000E+00  0.1000E+02
    -27.031  0.0000E+00  0.1000E+02
    -26.685  0.0000E+00  0.1000E+02
    -26.339  0.0000E+00  0.1000E+02
    -25.993  0.0000E+00  0.1000E+02
    -25.647  0.0000E+00  0.1000E+02
    -25.301  0.0000E+00  0.1000E+02
    -24.955  0.0000E+00  0.1000E+02
    -24.609  0.0000E+00  0.1000E+02
    -24.263  0.0000E+00  0.1000E+02
    -23.917  0.0000E+00  0.1000E+02
    -23.571  0.0000E+00  0.1000E+02
    -23.225  0.0000E+00  0.1000E+02
    -22.879  0.0000E+00  0.1000E+02
    -22.533  0.0000E+00  0.1000E+02
    -22.187  0.0000E+00  0.1000E+02
    -21.840  0.0000E+00  0.1000E+02
    -21.494  0.0000E+00  0.1000E+02
    -21.148  0.0000E+00  0.1000E+02
    -20.802  0.0000E+00  0.1000E+02
    -20.456  0.0000E+00  0.1000E+02
    -20.110  0.0000E+00  0.1000E+02
    -19.764  0.0000E+00  0.1000E+02
    -19.418  0.0000E+00  0.1000E+02
    -19.072  0.0000E+00  0.1000E+02
    -18.726  0.0000E+00  0.1000E+02
    -18.380  0.0000E+00  0.1000E+02
    -18.034  0.0000E+00  0.1000E+02
    -17.688  0.0000E+00  0.1000E+02
    -17.342  0.0000E+00  0.1000E+02
    -16.996  0.0000E+00  0.1014E+02
    -16.650  0.0000E+00  0.1200E+02
    -16.304  0.0000E+00  0.1200E+02
    -15.958  0.0000E+00  0.1200E+02
    -15.612  0.0000E+00  0.1200E+02
    -15.266  0.0000E+00  0.1200E+02
    -14.920  0.0000E+00  0.1200E+02
    -14.574  0.0000E+00  0.1200E+02
    -14.228  0.0000E+00  0.1200E+02
    -13.882  0.0000E+00  0.1200E+02
    -13.536  0.0000E+00  0.1200E+02
    -13.190  0.0000E+00  0.1200E+02
    -12.844  0.0000E+00  0.1200E+02
    -12.498  0.0000E+00  0.1200E+02
    -12.152  0.0000E+00  0.1200E+02
    -11.806  0.0000E+00  0.1200E+02
    -11.459  0.0000E+00  0.1200E+02
    -11.113  0.0000E+00  0.1200E+02
    -10.767  0.0000E+00  0.1200E+02
    -10.421  0.0000E+00  0.1200E+02
    -10.075  0.0000E+00  0.1200E+02
     -9.729  0.0000E+00  0.1200E+02
     -9.383  0.0000E+00  0.1200E+02
     -9.037  0.0000E+00  0.1200E+02
     -8.691  0.0000E+00  0.1200E+02
     -8.345  0.0000E+00  0.1200E+02
     -7.999  0.0000E+00  0.1200E+02
     -7.653  0.0000E+00  0.1200E+02
     -7.307  0.0000E+00  0.1200E+02
     -6.961  0.0000E+00  0.1200E+02
     -6.615  0.0000E+00  0.1200E+02
     -6.269  0.0000E+00  0.1200E+02
     -5.923  0.0000E+00  0.1200E+02
     -5.577  0.0000E+00  0.1200E+02
     -5.231  0.0000E+00  0.1345E+02
     -4.885  0.0000E+00  0.1386E+02
     -4.539  0.0000E+00  0.1400E+02
     -4.193  0.0000E+00  0.1400E+02
     -3.847  0.0000E+00  0.1400E+02
     -3.501  0.0000E+00  0.1400E+02
     -3.155  0.0000E+00  0.1400E+02
     -2.809  0.0000E+00  0.1400E+02
     -2.463  0.5883E-02  0.1492E+02
     -2.117  0.6422E+00  0.1575E+02
     -1.771  0.0000E+00  0.1653E+02
     -1.425  0.0000E+00  0.1741E+02
     -1.078  0.0000E+00  0.1791E+02
     -0.732  0.0000E+00  0.1800E+02
     -0.386  0.0000E+00  0.1800E+02
     -0.040  0.0000E+00  0.1800E+02
      0.306  0.0000E+00  0.1800E+02
      0.652  0.0000E+00  0.1800E+02
      0.998  0.0000E+00  0.1800E+02
      1.344  0.0000E+00  0.1800E+02
      1.690  0.0000E+00  0.1800E+02
      2.036  0.0000E+00  0.1800E+02
      2.382  0.0000E+00  0.1800E+02
      2.728  0.0000E+00  0.1800E+02
      3.074  0.0000E+00  0.1801E+02
      3.420  0.0000E+00  0.1801E+02
      3.766  0.0000E+00  0.1808E+02
      4.112  0.0000E+00  0.1814E+02
      4.458  0.0000E+00  0.1817E+02
      4.804  0.0000E+00  0.1839E+02
      5.150  0.0000E+00  0.1889E+02
      5.496  0.0000E+00  0.1958E+02
      5.842  0.0000E+00  0.1986E+02
      6.188  0.0000E+00  0.2031E+02
      6.534  0.0000E+00  0.2064E+02
      6.880  0.0000E+00  0.2164E+02
      7.226  0.0000E+00  0.2203E+02
      7.572  0.0000E+00  0.2232E+02
      7.918  0.0000E+00  0.2303E+02
      8.264  0.0000E+00  0.2359E+02
      8.610  0.0000E+00  0.2461E+02
      8.956  0.0000E+00  0.2539E+02
      9.303  0.0000E+00  0.2550E+02
      9.649  0.0000E+00  0.2583E+02
      9.995  0.0000E+00  0.2620E+02
     10.341  0.0000E+00  0.2674E+02
     10.687  0.2161E+00  0.2761E+02
     11.033  0.0000E+00  0.2809E+02
     11.379  0.0000E+00  0.2843E+02
     11.725  0.0000E+00  0.2887E+02
     12.071  0.0000E+00  0.2967E+02
     12.417  0.0000E+00  0.3047E+02
     12.763  0.0000E+00  0.3092E+02
     13.109  0.0000E+00  0.3143E+02
     13.455  0.0000E+00  0.3170E+02
     13.801  0.0000E+00  0.3355E+02
     14.147  0.0000E+00  0.3453E+02
     14.493  0.0000E+00  0.3489E+02
     14.839  0.0000E+00  0.3547E+02
     15.185  0.0000E+00  0.3575E+02
     15.531  0.0000E+00  0.3616E+02
     15.877  0.0000E+00  0.3679E+02
     16.223  0.0000E+00  0.3844E+02
     16.569  0.0000E+00  0.4014E+02
     16.915  0.0000E+00  0.4194E+02
     17.261  0.6325E+00  0.4306E+02
     17.607  0.0000E+00  0.4414E+02
     17.953  0.0000E+00  0.4419E+02
     18.299  0.0000E+00  0.4451E+02
     18.645  0.0000E+00  0.4548E+02
     18.991  0.1069E-15  0.4551E+02
     19.337  0.0000E+00  0.4658E+02
     19.684  0.0000E+00  0.4744E+02
     20.030  0.0000E+00  0.4773E+02
     20.376  0.0000E+00  0.4895E+02
     20.722  0.0000E+00  0.4960E+02
     21.068  0.0000E+00  0.5038E+02
     21.414  0.3211E+00  0.5135E+02
     21.760  0.0000E+00  0.5230E+02
     22.106  0.0000E+00  0.5362E+02
     22.452  0.4316E+00  0.5460E+02
     22.798  0.3601E+00  0.5562E+02
     23.144  0.0000E+00  0.5660E+02
     23.490  0.0000E+00  0.5760E+02
     23.836  0.0000E+00  0.5775E+02
     24.182  0.3211E+00  0.5833E+02
     24.528  0.6222E-03  0.5867E+02
     24.874  0.0000E+00  0.5971E+02
     25.220  0.0000E+00  0.6053E+02
     25.566  0.0000E+00  0.6131E+02
     25.912  0.0000E+00  0.6148E+02
     26.258  0.3000E-08  0.6288E+02
     26.604  0.0000E+00  0.6360E+02
     26.950  0.7225E+00  0.6439E+02
     27.296  0.0000E+00  0.6508E+02
     27.642  0.0000E+00  0.6606E+02
     27.988  0.6422E+00  0.6739E+02
     28.334  0.7041E-10  0.6833E+02
     28.680  0.0000E+00  0.7038E+02
     29.026  0.1587E+00  0.7105E+02
     29.372  0.0000E+00  0.7171E+02
     29.718  0.0000E+00  0.7235E+02
     30.065  0.0000E+00  0.7296E+02
     30.411  0.6422E+00  0.7319E+02
     30.757  0.6422E+00  0.7430E+02
     31.103  0.1023E+00  0.7483E+02
     31.449  0.1129E-04  0.7507E+02
     31.795  0.0000E+00  0.7714E+02
     32.141  0.0000E+00  0.7861E+02
     32.487  0.0000E+00  0.7931E+02
     32.833  0.0000E+00  0.8065E+02
     33.179  0.4738E-14  0.8144E+02
     33.525  0.0000E+00  0.8257E+02
     33.871  0.0000E+00  0.8316E+02
     34.217  0.0000E+00  0.8371E+02
     34.563  0.0000E+00  0.8494E+02
     34.909  0.0000E+00  0.8547E+02
     35.255  0.0000E+00  0.8669E+02
     35.601  0.0000E+00  0.8739E+02
     35.947  0.6422E+00  0.8830E+02
     36.293  0.0000E+00  0.8894E+02
     36.639  0.2462E+00  0.8968E+02
     36.985  0.0000E+00  0.9067E+02
     37.331  0.0000E+00  0.9118E+02
     37.677  0.0000E+00  0.9234E+02
     38.023  0.7997E-01  0.9380E+02
     38.369  0.0000E+00  0.9483E+02
     38.715  0.0000E+00  0.9593E+02
     39.061  0.3126E+00  0.9659E+02
     39.407  0.0000E+00  0.9739E+02
     39.753  0.6422E+00  0.9848E+02
     40.099  0.0000E+00  0.9910E+02
     40.446  0.0000E+00  0.1006E+03
     40.792  0.0000E+00  0.1013E+03
     41.138  0.0000E+00  0.1025E+03
     41.484  0.0000E+00  0.1031E+03
     41.830  0.0000E+00  0.1049E+03
     42.176  0.0000E+00  0.1060E+03
     42.522  0.0000E+00  0.1073E+03
     42.868  0.0000E+00  0.1084E+03
     43.214  0.0000E+00  0.1087E+03
     43.560  0.0000E+00  0.1090E+03
     43.906  0.4709E+00  0.1105E+03
     44.252  0.0000E+00  0.1116E+03
     44.598  0.1034E-08  0.1126E+03
     44.944  0.0000E+00  0.1140E+03
     45.290  0.0000E+00  0.1150E+03
     45.636  0.8027E-01  0.1159E+03
     45.982  0.0000E+00  0.1174E+03
     46.328  0.0000E+00  0.1183E+03
     46.674  0.0000E+00  0.1190E+03
     47.020  0.6422E+00  0.1202E+03
     47.366  0.0000E+00  0.1207E+03
     47.712  0.0000E+00  0.1215E+03
     48.058  0.3211E+00  0.1222E+03
     48.404  0.0000E+00  0.1233E+03
     48.750  0.0000E+00  0.1238E+03
     49.096  0.0000E+00  0.1251E+03
     49.442  0.0000E+00  0.1264E+03
     49.788  0.0000E+00  0.1274E+03
     50.134  0.0000E+00  0.1279E+03
     50.480  0.0000E+00  0.1280E+03
     50.827  0.0000E+00  0.1280E+03
     51.173  0.0000E+00  0.1280E+03
     51.519  0.0000E+00  0.1280E+03
     51.865  0.0000E+00  0.1280E+03
     52.211  0.0000E+00  0.1280E+03
     52.557  0.0000E+00  0.1280E+03
     52.903  0.0000E+00  0.1280E+03
     53.249  0.0000E+00  0.1280E+03
     53.595  0.0000E+00  0.1280E+03
     53.941  0.0000E+00  0.1280E+03
     54.287  0.0000E+00  0.1280E+03
     54.633  0.0000E+00  0.1280E+03
     54.979  0.0000E+00  0.1280E+03
     55.325  0.0000E+00  0.1280E+03
