   1   1   0   0
  0.4557239E+02  0.4009334E-09  0.4009334E-09  0.4009334E-09  0.1000000E-15
  1.000000000000000E-004
  CAR 
 Og_FCC                                  
     73.19107775    -22.66701954  301     -3.41551834      1.00000000
    -22.667  0.0000E+00  0.0000E+00
    -22.347  0.0000E+00  0.0000E+00
    -22.028  0.0000E+00  0.0000E+00
    -21.708  0.0000E+00  0.0000E+00
    -21.389  0.0000E+00  0.0000E+00
    -21.069  0.0000E+00  0.0000E+00
    -20.750  0.0000E+00  0.0000E+00
    -20.430  0.0000E+00  0.0000E+00
    -20.111  0.0000E+00  0.0000E+00
    -19.791  0.0000E+00  0.0000E+00
    -19.472  0.0000E+00  0.0000E+00
    -19.152  0.0000E+00  0.0000E+00
    -18.833  0.0000E+00  0.0000E+00
    -18.513  0.0000E+00  0.0000E+00
    -18.194  0.0000E+00  0.3440E+00
    -17.874  0.0000E+00  0.2000E+01
    -17.555  0.0000E+00  0.2000E+01
    -17.235  0.0000E+00  0.2000E+01
    -16.916  0.0000E+00  0.2000E+01
    -16.596  0.0000E+00  0.2000E+01
    -16.276  0.0000E+00  0.2000E+01
    -15.957  0.0000E+00  0.2000E+01
    -15.637  0.0000E+00  0.2000E+01
    -15.318  0.0000E+00  0.2000E+01
    -14.998  0.0000E+00  0.2000E+01
    -14.679  0.0000E+00  0.2000E+01
    -14.359  0.0000E+00  0.2000E+01
    -14.040  0.0000E+00  0.2000E+01
    -13.720  0.0000E+00  0.2000E+01
    -13.401  0.0000E+00  0.2000E+01
    -13.081  0.0000E+00  0.2000E+01
    -12.762  0.0000E+00  0.2000E+01
    -12.442  0.0000E+00  0.2000E+01
    -12.123  0.0000E+00  0.2000E+01
    -11.803  0.0000E+00  0.2000E+01
    -11.484  0.0000E+00  0.2000E+01
    -11.164  0.0000E+00  0.2000E+01
    -10.845  0.0000E+00  0.2000E+01
    -10.525  0.0000E+00  0.2000E+01
    -10.205  0.0000E+00  0.2000E+01
     -9.886  0.0000E+00  0.2000E+01
     -9.566  0.0000E+00  0.2000E+01
     -9.247  0.0000E+00  0.2000E+01
     -8.927  0.0000E+00  0.2000E+01
     -8.608  0.0000E+00  0.2000E+01
     -8.288  0.0000E+00  0.2000E+01
     -7.969  0.0000E+00  0.2000E+01
     -7.649  0.0000E+00  0.2000E+01
     -7.330  0.0000E+00  0.2000E+01
     -7.010  0.0000E+00  0.2000E+01
     -6.691  0.0000E+00  0.2000E+01
     -6.371  0.0000E+00  0.2000E+01
     -6.052  0.0000E+00  0.2000E+01
     -5.732  0.0000E+00  0.2000E+01
     -5.413  0.0000E+00  0.2000E+01
     -5.093  0.0000E+00  0.2292E+01
     -4.774  0.0000E+00  0.3703E+01
     -4.454  0.2059E-09  0.4052E+01
     -4.134  0.4380E+00  0.5574E+01
     -3.815  0.0000E+00  0.7102E+01
     -3.495  0.0000E+00  0.8000E+01
     -3.176  0.0000E+00  0.8000E+01
     -2.856  0.0000E+00  0.8000E+01
     -2.537  0.0000E+00  0.8000E+01
     -2.217  0.0000E+00  0.8000E+01
     -1.898  0.0000E+00  0.8000E+01
     -1.578  0.0000E+00  0.8000E+01
     -1.259  0.0000E+00  0.8000E+01
     -0.939  0.0000E+00  0.8000E+01
     -0.620  0.0000E+00  0.8000E+01
     -0.300  0.0000E+00  0.8000E+01
      0.019  0.0000E+00  0.8000E+01
      0.339  0.0000E+00  0.8000E+01
      0.658  0.0000E+00  0.8000E+01
      0.978  0.0000E+00  0.8000E+01
      1.298  0.0000E+00  0.8000E+01
      1.617  0.0000E+00  0.8000E+01
      1.937  0.0000E+00  0.8000E+01
      2.256  0.0000E+00  0.8000E+01
      2.576  0.0000E+00  0.8000E+01
      2.895  0.0000E+00  0.8000E+01
      3.215  0.0000E+00  0.8000E+01
      3.534  0.0000E+00  0.8006E+01
      3.854  0.0000E+00  0.8006E+01
      4.173  0.0000E+00  0.8052E+01
      4.493  0.0000E+00  0.8087E+01
      4.812  0.0000E+00  0.8087E+01
      5.132  0.0000E+00  0.8157E+01
      5.451  0.0000E+00  0.8344E+01
      5.771  0.0000E+00  0.8414E+01
      6.090  0.0000E+00  0.8671E+01
      6.410  0.0000E+00  0.9370E+01
      6.729  0.4380E+00  0.9510E+01
      7.049  0.0000E+00  0.9965E+01
      7.369  0.0000E+00  0.1010E+02
      7.688  0.0000E+00  0.1087E+02
      8.008  0.1536E+00  0.1110E+02
      8.327  0.0000E+00  0.1175E+02
      8.647  0.1460E+00  0.1233E+02
      8.966  0.0000E+00  0.1272E+02
      9.286  0.0000E+00  0.1350E+02
      9.605  0.0000E+00  0.1373E+02
      9.925  0.0000E+00  0.1406E+02
     10.244  0.0000E+00  0.1453E+02
     10.564  0.0000E+00  0.1495E+02
     10.883  0.0000E+00  0.1534E+02
     11.203  0.0000E+00  0.1569E+02
     11.522  0.0000E+00  0.1617E+02
     11.842  0.0000E+00  0.1631E+02
     12.161  0.0000E+00  0.1655E+02
     12.481  0.0000E+00  0.1672E+02
     12.800  0.0000E+00  0.1732E+02
     13.120  0.0000E+00  0.1781E+02
     13.440  0.0000E+00  0.1810E+02
     13.759  0.0000E+00  0.1850E+02
     14.079  0.0000E+00  0.1901E+02
     14.398  0.0000E+00  0.1975E+02
     14.718  0.0000E+00  0.2029E+02
     15.037  0.0000E+00  0.2057E+02
     15.357  0.0000E+00  0.2074E+02
     15.676  0.0000E+00  0.2149E+02
     15.996  0.8759E+00  0.2205E+02
     16.315  0.0000E+00  0.2245E+02
     16.635  0.0000E+00  0.2299E+02
     16.954  0.0000E+00  0.2351E+02
     17.274  0.0000E+00  0.2379E+02
     17.593  0.0000E+00  0.2434E+02
     17.913  0.2188E+00  0.2534E+02
     18.232  0.0000E+00  0.2553E+02
     18.552  0.0000E+00  0.2623E+02
     18.871  0.0000E+00  0.2627E+02
     19.191  0.0000E+00  0.2676E+02
     19.511  0.0000E+00  0.2708E+02
     19.830  0.0000E+00  0.2768E+02
     20.150  0.0000E+00  0.2816E+02
     20.469  0.0000E+00  0.2869E+02
     20.789  0.0000E+00  0.2920E+02
     21.108  0.2190E+00  0.2963E+02
     21.428  0.0000E+00  0.3026E+02
     21.747  0.0000E+00  0.3040E+02
     22.067  0.1272E+00  0.3128E+02
     22.386  0.0000E+00  0.3135E+02
     22.706  0.0000E+00  0.3160E+02
     23.025  0.0000E+00  0.3237E+02
     23.345  0.2395E-01  0.3304E+02
     23.664  0.0000E+00  0.3352E+02
     23.984  0.0000E+00  0.3377E+02
     24.303  0.0000E+00  0.3449E+02
     24.623  0.0000E+00  0.3485E+02
     24.943  0.0000E+00  0.3562E+02
     25.262  0.0000E+00  0.3618E+02
     25.582  0.4380E+00  0.3681E+02
     25.901  0.0000E+00  0.3765E+02
     26.221  0.0000E+00  0.3821E+02
     26.540  0.0000E+00  0.3861E+02
     26.860  0.2578E-09  0.3937E+02
     27.179  0.0000E+00  0.3987E+02
     27.499  0.0000E+00  0.4001E+02
     27.818  0.4026E-01  0.4032E+02
     28.138  0.0000E+00  0.4143E+02
     28.457  0.4380E+00  0.4194E+02
     28.777  0.0000E+00  0.4226E+02
     29.096  0.0000E+00  0.4240E+02
     29.416  0.0000E+00  0.4303E+02
     29.735  0.0000E+00  0.4422E+02
     30.055  0.4408E-01  0.4520E+02
     30.374  0.0000E+00  0.4571E+02
     30.694  0.0000E+00  0.4631E+02
     31.014  0.0000E+00  0.4705E+02
     31.333  0.0000E+00  0.4770E+02
     31.653  0.0000E+00  0.4821E+02
     31.972  0.0000E+00  0.4868E+02
     32.292  0.0000E+00  0.4911E+02
     32.611  0.0000E+00  0.4943E+02
     32.931  0.0000E+00  0.4990E+02
     33.250  0.0000E+00  0.5020E+02
     33.570  0.0000E+00  0.5067E+02
     33.889  0.0000E+00  0.5184E+02
     34.209  0.0000E+00  0.5282E+02
     34.528  0.0000E+00  0.5317E+02
     34.848  0.0000E+00  0.5383E+02
     35.167  0.1460E+00  0.5450E+02
     35.487  0.0000E+00  0.5569E+02
     35.806  0.0000E+00  0.5622E+02
     36.126  0.0000E+00  0.5713E+02
     36.445  0.0000E+00  0.5744E+02
     36.765  0.0000E+00  0.5765E+02
     37.085  0.0000E+00  0.5826E+02
     37.404  0.0000E+00  0.5882E+02
     37.724  0.1472E+00  0.5891E+02
     38.043  0.0000E+00  0.5961E+02
     38.363  0.5321E-03  0.6085E+02
     38.682  0.1095E+00  0.6179E+02
     39.002  0.0000E+00  0.6254E+02
     39.321  0.0000E+00  0.6327E+02
     39.641  0.0000E+00  0.6402E+02
     39.960  0.5706E-03  0.6444E+02
     40.280  0.0000E+00  0.6507E+02
     40.599  0.4174E-14  0.6535E+02
     40.919  0.0000E+00  0.6627E+02
     41.238  0.0000E+00  0.6671E+02
     41.558  0.0000E+00  0.6778E+02
     41.877  0.0000E+00  0.6821E+02
     42.197  0.2190E+00  0.6870E+02
     42.516  0.0000E+00  0.6970E+02
     42.836  0.5742E-01  0.7033E+02
     43.156  0.0000E+00  0.7110E+02
     43.475  0.0000E+00  0.7210E+02
     43.795  0.0000E+00  0.7247E+02
     44.114  0.0000E+00  0.7391E+02
     44.434  0.0000E+00  0.7433E+02
     44.753  0.0000E+00  0.7499E+02
     45.073  0.0000E+00  0.7554E+02
     45.392  0.4379E+00  0.7592E+02
     45.712  0.0000E+00  0.7627E+02
     46.031  0.0000E+00  0.7659E+02
     46.351  0.0000E+00  0.7803E+02
     46.670  0.0000E+00  0.7869E+02
     46.990  0.1354E-01  0.7921E+02
     47.309  0.0000E+00  0.8057E+02
     47.629  0.1942E+00  0.8128E+02
     47.948  0.1454E-01  0.8164E+02
     48.268  0.0000E+00  0.8235E+02
     48.587  0.0000E+00  0.8305E+02
     48.907  0.4380E+00  0.8402E+02
     49.227  0.1030E+00  0.8469E+02
     49.546  0.3775E+00  0.8581E+02
     49.866  0.0000E+00  0.8663E+02
     50.185  0.0000E+00  0.8764E+02
     50.505  0.0000E+00  0.8829E+02
     50.824  0.0000E+00  0.8858E+02
     51.144  0.0000E+00  0.8918E+02
     51.463  0.0000E+00  0.8972E+02
     51.783  0.0000E+00  0.9084E+02
     52.102  0.0000E+00  0.9133E+02
     52.422  0.0000E+00  0.9189E+02
     52.741  0.4380E+00  0.9276E+02
     53.061  0.0000E+00  0.9309E+02
     53.380  0.7461E-05  0.9419E+02
     53.700  0.1824E-01  0.9559E+02
     54.019  0.0000E+00  0.9582E+02
     54.339  0.1466E-01  0.9647E+02
     54.659  0.0000E+00  0.9777E+02
     54.978  0.8759E+00  0.9869E+02
     55.298  0.0000E+00  0.9943E+02
     55.617  0.0000E+00  0.1005E+03
     55.937  0.0000E+00  0.1008E+03
     56.256  0.0000E+00  0.1017E+03
     56.576  0.0000E+00  0.1027E+03
     56.895  0.2190E+00  0.1032E+03
     57.215  0.0000E+00  0.1040E+03
     57.534  0.0000E+00  0.1044E+03
     57.854  0.0000E+00  0.1050E+03
     58.173  0.0000E+00  0.1061E+03
     58.493  0.0000E+00  0.1062E+03
     58.812  0.0000E+00  0.1073E+03
     59.132  0.1095E+00  0.1081E+03
     59.451  0.0000E+00  0.1093E+03
     59.771  0.0000E+00  0.1100E+03
     60.090  0.0000E+00  0.1111E+03
     60.410  0.0000E+00  0.1121E+03
     60.730  0.0000E+00  0.1129E+03
     61.049  0.0000E+00  0.1135E+03
     61.369  0.0000E+00  0.1145E+03
     61.688  0.0000E+00  0.1153E+03
     62.008  0.0000E+00  0.1161E+03
     62.327  0.0000E+00  0.1169E+03
     62.647  0.0000E+00  0.1176E+03
     62.966  0.0000E+00  0.1179E+03
     63.286  0.0000E+00  0.1187E+03
     63.605  0.0000E+00  0.1194E+03
     63.925  0.0000E+00  0.1201E+03
     64.244  0.9236E+00  0.1212E+03
     64.564  0.0000E+00  0.1221E+03
     64.883  0.0000E+00  0.1234E+03
     65.203  0.1460E+00  0.1245E+03
     65.522  0.0000E+00  0.1251E+03
     65.842  0.0000E+00  0.1258E+03
     66.161  0.0000E+00  0.1260E+03
     66.481  0.1192E-11  0.1268E+03
     66.801  0.0000E+00  0.1272E+03
     67.120  0.0000E+00  0.1277E+03
     67.440  0.0000E+00  0.1277E+03
     67.759  0.0000E+00  0.1279E+03
     68.079  0.0000E+00  0.1279E+03
     68.398  0.0000E+00  0.1279E+03
     68.718  0.0000E+00  0.1280E+03
     69.037  0.0000E+00  0.1280E+03
     69.357  0.0000E+00  0.1280E+03
     69.676  0.0000E+00  0.1280E+03
     69.996  0.0000E+00  0.1280E+03
     70.315  0.0000E+00  0.1280E+03
     70.635  0.0000E+00  0.1280E+03
     70.954  0.0000E+00  0.1280E+03
     71.274  0.0000E+00  0.1280E+03
     71.593  0.0000E+00  0.1280E+03
     71.913  0.0000E+00  0.1280E+03
     72.232  0.0000E+00  0.1280E+03
     72.552  0.0000E+00  0.1280E+03
     72.872  0.0000E+00  0.1280E+03
     73.191  0.0000E+00  0.1280E+03
