    1    1    1    1
  0.4557239E+02  0.4009334E-09  0.4009334E-09  0.4009334E-09  0.1000000E-15
  1.000000000000000E-004
  CAR 
 Og_FCC                                  
      8    343    128
 
  0.0000000E+00  0.0000000E+00  0.0000000E+00  0.2915452E-02
    1      -18.309833   1.000000
    2      -18.309833   1.000000
    3       -4.219114   1.000000
    4       -4.219114   1.000000
    5       -3.518536   1.000000
    6       -3.518536   1.000000
    7       -3.518536   1.000000
    8       -3.518536   1.000000
    9        3.523097   0.000000
   10        3.523098   0.000000
   11        9.898054   0.000000
   12        9.898054   0.000000
   13        9.898054   0.000000
   14        9.898054   0.000000
   15        9.915851   0.000000
   16        9.915851   0.000000
   17       12.382015   0.000000
   18       12.382016   0.000000
   19       12.382016   0.000000
   20       12.382016   0.000000
   21       13.616031   0.000000
   22       13.616031   0.000000
   23       16.143996   0.000000
   24       16.143996   0.000000
   25       16.180571   0.000000
   26       16.180571   0.000000
   27       16.180571   0.000000
   28       16.180571   0.000000
   29       18.221577   0.000000
   30       18.221581   0.000000
   31       26.386499   0.000000
   32       26.386499   0.000000
   33       26.863675   0.000000
   34       26.863675   0.000000
   35       26.863675   0.000000
   36       26.863675   0.000000
   37       27.664247   0.000000
   38       27.664247   0.000000
   39       27.664247   0.000000
   40       27.664247   0.000000
   41       27.722843   0.000000
   42       27.722843   0.000000
   43       30.646632   0.000000
   44       30.646632   0.000000
   45       30.646632   0.000000
   46       30.646632   0.000000
   47       31.521511   0.000000
   48       31.521511   0.000000
   49       31.521511   0.000000
   50       31.521511   0.000000
   51       31.521511   0.000000
   52       31.521511   0.000000
   53       33.751372   0.000000
   54       33.751374   0.000000
   55       40.728974   0.000000
   56       40.728974   0.000000
   57       40.728975   0.000000
   58       40.728975   0.000000
   59       41.647587   0.000000
   60       41.647587   0.000000
   61       41.744484   0.000000
   62       41.744484   0.000000
   63       41.744485   0.000000
   64       41.744485   0.000000
   65       42.707679   0.000000
   66       42.707679   0.000000
   67       43.688002   0.000000
   68       43.688002   0.000000
   69       43.688002   0.000000
   70       43.688002   0.000000
   71       43.717762   0.000000
   72       43.717762   0.000000
   73       44.528943   0.000000
   74       44.528943   0.000000
   75       44.659579   0.000000
   76       44.659579   0.000000
   77       44.659579   0.000000
   78       44.659580   0.000000
   79       47.217089   0.000000
   80       47.217089   0.000000
   81       47.217089   0.000000
   82       47.217089   0.000000
   83       47.217089   0.000000
   84       47.217089   0.000000
   85       47.461612   0.000000
   86       47.461612   0.000000
   87       47.461612   0.000000
   88       47.461612   0.000000
   89       47.461612   0.000000
   90       47.461612   0.000000
   91       48.657392   0.000000
   92       48.657399   0.000000
   93       49.840522   0.000000
   94       49.840522   0.000000
   95       49.840522   0.000000
   96       49.840522   0.000000
   97       49.840763   0.000000
   98       49.840763   0.000000
   99       50.581042   0.000000
  100       50.581042   0.000000
  101       50.581042   0.000000
  102       50.581043   0.000000
  103       53.697527   0.000000
  104       53.697527   0.000000
  105       53.706727   0.000000
  106       53.706727   0.000000
  107       53.706727   0.000000
  108       53.706727   0.000000
  109       53.765425   0.000000
  110       53.765427   0.000000
  111       54.190842   0.000000
  112       54.190842   0.000000
  113       54.190842   0.000000
  114       54.190842   0.000000
  115       54.192840   0.000000
  116       54.192840   0.000000
  117       54.467038   0.000000
  118       54.467038   0.000000
  119       67.897737   0.000000
  120       67.897737   0.000000
  121       67.897738   0.000000
  122       67.897738   0.000000
  123       68.528984   0.000000
  124       68.528984   0.000000
  125       68.609827   0.000000
  126       68.609828   0.000000
  127       68.609828   0.000000
  128       68.609829   0.000000
 
  0.1428571E+00 -0.1246062E-16  0.0000000E+00  0.2915452E-02
    1      -18.277177   1.000000
    2      -18.277177   1.000000
    3       -4.366235   1.000000
    4       -4.366235   1.000000
    5       -3.727619   1.000000
    6       -3.727619   1.000000
    7       -3.552112   1.000000
    8       -3.552112   1.000000
    9        4.081763   0.000000
   10        4.081764   0.000000
   11        9.212545   0.000000
   12        9.212545   0.000000
   13       10.091994   0.000000
   14       10.091994   0.000000
   15       10.106927   0.000000
   16       10.106927   0.000000
   17       11.928221   0.000000
   18       11.928221   0.000000
   19       11.936752   0.000000
   20       11.936752   0.000000
   21       14.442389   0.000000
   22       14.442390   0.000000
   23       15.464368   0.000000
   24       15.464369   0.000000
   25       17.420539   0.000000
   26       17.420539   0.000000
   27       17.444881   0.000000
   28       17.444881   0.000000
   29       20.176352   0.000000
   30       20.176355   0.000000
   31       23.345558   0.000000
   32       23.345559   0.000000
   33       24.250822   0.000000
   34       24.250822   0.000000
   35       24.374867   0.000000
   36       24.374867   0.000000
   37       27.978553   0.000000
   38       27.978553   0.000000
   39       28.109432   0.000000
   40       28.109432   0.000000
   41       29.764020   0.000000
   42       29.764020   0.000000
   43       29.773978   0.000000
   44       29.773978   0.000000
   45       29.891524   0.000000
   46       29.891524   0.000000
   47       31.708037   0.000000
   48       31.708037   0.000000
   49       34.735269   0.000000
   50       34.735269   0.000000
   51       34.763139   0.000000
   52       34.763139   0.000000
   53       35.164654   0.000000
   54       35.164656   0.000000
   55       37.759972   0.000000
   56       37.759972   0.000000
   57       37.792400   0.000000
   58       37.792400   0.000000
   59       38.298138   0.000000
   60       38.298138   0.000000
   61       41.006157   0.000000
   62       41.006158   0.000000
   63       41.476471   0.000000
   64       41.476471   0.000000
   65       41.492347   0.000000
   66       41.492347   0.000000
   67       42.945277   0.000000
   68       42.945278   0.000000
   69       43.311111   0.000000
   70       43.311111   0.000000
   71       43.326036   0.000000
   72       43.326037   0.000000
   73       43.882195   0.000000
   74       43.882195   0.000000
   75       44.484864   0.000000
   76       44.484864   0.000000
   77       44.527360   0.000000
   78       44.527360   0.000000
   79       46.322258   0.000000
   80       46.322258   0.000000
   81       46.365454   0.000000
   82       46.365455   0.000000
   83       46.879280   0.000000
   84       46.879281   0.000000
   85       47.984077   0.000000
   86       47.984078   0.000000
   87       49.249702   0.000000
   88       49.249702   0.000000
   89       49.251786   0.000000
   90       49.251786   0.000000
   91       49.641777   0.000000
   92       49.641777   0.000000
   93       49.649319   0.000000
   94       49.649319   0.000000
   95       50.299202   0.000000
   96       50.299203   0.000000
   97       51.441587   0.000000
   98       51.441588   0.000000
   99       51.503985   0.000000
  100       51.503989   0.000000
  101       52.549514   0.000000
  102       52.549514   0.000000
  103       52.552443   0.000000
  104       52.552443   0.000000
  105       52.932443   0.000000
  106       52.932443   0.000000
  107       55.366299   0.000000
  108       55.366299   0.000000
  109       55.366492   0.000000
  110       55.366492   0.000000
  111       57.121015   0.000000
  112       57.121016   0.000000
  113       57.140962   0.000000
  114       57.140962   0.000000
  115       57.141825   0.000000
  116       57.141825   0.000000
  117       61.770509   0.000000
  118       61.770509   0.000000
  119       63.351615   0.000000
  120       63.351615   0.000000
  121       63.398662   0.000000
  122       63.398662   0.000000
  123       65.030943   0.000000
  124       65.030945   0.000000
  125       66.817665   0.000000
  126       66.817665   0.000000
  127       66.831264   0.000000
  128       66.831264   0.000000
 
  0.2857143E+00  0.2834329E-17  0.0000000E+00  0.2915452E-02
    1      -18.202277   1.000000
    2      -18.202277   1.000000
    3       -4.823681   1.000000
    4       -4.823681   1.000000
    5       -3.966707   1.000000
    6       -3.966707   1.000000
    7       -3.625528   1.000000
    8       -3.625528   1.000000
    9        5.207196   0.000000
   10        5.207197   0.000000
   11        8.519494   0.000000
   12        8.519494   0.000000
   13        9.951621   0.000000
   14        9.951621   0.000000
   15        9.970870   0.000000
   16        9.970870   0.000000
   17       12.323821   0.000000
   18       12.323821   0.000000
   19       12.344924   0.000000
   20       12.344924   0.000000
   21       13.500062   0.000000
   22       13.500064   0.000000
   23       18.081443   0.000000
   24       18.081443   0.000000
   25       19.349036   0.000000
   26       19.349036   0.000000
   27       20.062022   0.000000
   28       20.062022   0.000000
   29       20.105563   0.000000
   30       20.105563   0.000000
   31       20.761955   0.000000
   32       20.761955   0.000000
   33       20.831535   0.000000
   34       20.831535   0.000000
   35       24.112266   0.000000
   36       24.112269   0.000000
   37       28.091988   0.000000
   38       28.091988   0.000000
   39       28.241990   0.000000
   40       28.241990   0.000000
   41       29.857208   0.000000
   42       29.857208   0.000000
   43       29.859741   0.000000
   44       29.859741   0.000000
   45       30.021999   0.000000
   46       30.022000   0.000000
   47       32.194563   0.000000
   48       32.194563   0.000000
   49       33.220814   0.000000
   50       33.220814   0.000000
   51       33.233835   0.000000
   52       33.233835   0.000000
   53       33.516823   0.000000
   54       33.516823   0.000000
   55       37.025956   0.000000
   56       37.025958   0.000000
   57       38.751369   0.000000
   58       38.751369   0.000000
   59       38.764987   0.000000
   60       38.764987   0.000000
   61       40.077066   0.000000
   62       40.077066   0.000000
   63       40.085685   0.000000
   64       40.085685   0.000000
   65       40.220708   0.000000
   66       40.220708   0.000000
   67       41.195243   0.000000
   68       41.195243   0.000000
   69       41.669839   0.000000
   70       41.669839   0.000000
   71       41.721888   0.000000
   72       41.721888   0.000000
   73       42.396687   0.000000
   74       42.396687   0.000000
   75       42.799702   0.000000
   76       42.799702   0.000000
   77       44.919013   0.000000
   78       44.919013   0.000000
   79       44.935432   0.000000
   80       44.935432   0.000000
   81       46.990801   0.000000
   82       46.990801   0.000000
   83       47.042166   0.000000
   84       47.042166   0.000000
   85       48.653261   0.000000
   86       48.653261   0.000000
   87       49.752614   0.000000
   88       49.752614   0.000000
   89       49.760973   0.000000
   90       49.760973   0.000000
   91       51.027088   0.000000
   92       51.027092   0.000000
   93       53.403796   0.000000
   94       53.403796   0.000000
   95       53.415234   0.000000
   96       53.415234   0.000000
   97       54.674194   0.000000
   98       54.674194   0.000000
   99       55.368346   0.000000
  100       55.368346   0.000000
  101       55.374244   0.000000
  102       55.374244   0.000000
  103       56.124322   0.000000
  104       56.124322   0.000000
  105       58.120373   0.000000
  106       58.120376   0.000000
  107       58.584740   0.000000
  108       58.584740   0.000000
  109       58.666261   0.000000
  110       58.666261   0.000000
  111       60.467415   0.000000
  112       60.467415   0.000000
  113       60.478562   0.000000
  114       60.478562   0.000000
  115       60.565417   0.000000
  116       60.565419   0.000000
  117       60.746292   0.000000
  118       60.746292   0.000000
  119       60.759627   0.000000
  120       60.759627   0.000000
  121       61.227018   0.000000
  122       61.227018   0.000000
  123       62.576169   0.000000
  124       62.576169   0.000000
  125       62.576826   0.000000
  126       62.576826   0.000000
  127       63.076521   0.000000
  128       63.076522   0.000000
 
  0.4285714E+00  0.4251494E-17  0.0000000E+00  0.2915452E-02
    1      -18.140602   1.000000
    2      -18.140602   1.000000
    3       -5.215131   1.000000
    4       -5.215131   1.000000
    5       -4.064680   1.000000
    6       -4.064680   1.000000
    7       -3.682518   1.000000
    8       -3.682518   1.000000
    9        5.825671   0.000000
   10        5.825671   0.000000
   11        8.641646   0.000000
   12        8.641647   0.000000
   13        9.562139   0.000000
   14        9.562139   0.000000
   15        9.580433   0.000000
   16        9.580433   0.000000
   17       13.283610   0.000000
   18       13.283611   0.000000
   19       13.896024   0.000000
   20       13.896024   0.000000
   21       13.917529   0.000000
   22       13.917529   0.000000
   23       16.385961   0.000000
   24       16.385961   0.000000
   25       17.735375   0.000000
   26       17.735375   0.000000
   27       17.823245   0.000000
   28       17.823245   0.000000
   29       22.065957   0.000000
   30       22.065957   0.000000
   31       23.398389   0.000000
   32       23.398389   0.000000
   33       23.423930   0.000000
   34       23.423930   0.000000
   35       26.316170   0.000000
   36       26.316171   0.000000
   37       26.710807   0.000000
   38       26.710807   0.000000
   39       26.795290   0.000000
   40       26.795290   0.000000
   41       28.408653   0.000000
   42       28.408655   0.000000
   43       29.883634   0.000000
   44       29.883634   0.000000
   45       29.994209   0.000000
   46       29.994209   0.000000
   47       31.232639   0.000000
   48       31.232639   0.000000
   49       31.264320   0.000000
   50       31.264320   0.000000
   51       32.521627   0.000000
   52       32.521629   0.000000
   53       32.691831   0.000000
   54       32.691831   0.000000
   55       33.876024   0.000000
   56       33.876025   0.000000
   57       37.710809   0.000000
   58       37.710809   0.000000
   59       37.718090   0.000000
   60       37.718091   0.000000
   61       37.725277   0.000000
   62       37.725277   0.000000
   63       38.701782   0.000000
   64       38.701782   0.000000
   65       38.702256   0.000000
   66       38.702256   0.000000
   67       39.592505   0.000000
   68       39.592505   0.000000
   69       42.394416   0.000000
   70       42.394417   0.000000
   71       44.685025   0.000000
   72       44.685025   0.000000
   73       44.703407   0.000000
   74       44.703407   0.000000
   75       46.388551   0.000000
   76       46.388552   0.000000
   77       46.733716   0.000000
   78       46.733716   0.000000
   79       46.803747   0.000000
   80       46.803747   0.000000
   81       46.855735   0.000000
   82       46.855735   0.000000
   83       46.876664   0.000000
   84       46.876664   0.000000
   85       48.740055   0.000000
   86       48.740055   0.000000
   87       51.566465   0.000000
   88       51.566465   0.000000
   89       51.578808   0.000000
   90       51.578808   0.000000
   91       52.628371   0.000000
   92       52.628374   0.000000
   93       53.353233   0.000000
   94       53.353233   0.000000
   95       53.438240   0.000000
   96       53.438240   0.000000
   97       55.136534   0.000000
   98       55.136536   0.000000
   99       55.738067   0.000000
  100       55.738067   0.000000
  101       55.748283   0.000000
  102       55.748283   0.000000
  103       57.171960   0.000000
  104       57.171960   0.000000
  105       58.643799   0.000000
  106       58.643799   0.000000
  107       58.666253   0.000000
  108       58.666253   0.000000
  109       59.879164   0.000000
  110       59.879164   0.000000
  111       60.111224   0.000000
  112       60.111224   0.000000
  113       60.117647   0.000000
  114       60.117647   0.000000
  115       61.275225   0.000000
  116       61.275225   0.000000
  117       64.103662   0.000000
  118       64.103662   0.000000
  119       64.116850   0.000000
  120       64.116850   0.000000
  121       64.315474   0.000000
  122       64.315477   0.000000
  123       65.195377   0.000000
  124       65.195377   0.000000
  125       65.297245   0.000000
  126       65.297245   0.000000
  127       65.297422   0.000000
  128       65.297422   0.000000
 
 -0.4285714E+00 -0.4251494E-17  0.0000000E+00  0.2915452E-02
    1      -18.140602   1.000000
    2      -18.140602   1.000000
    3       -5.215131   1.000000
    4       -5.215131   1.000000
    5       -4.064680   1.000000
    6       -4.064680   1.000000
    7       -3.682518   1.000000
    8       -3.682518   1.000000
    9        5.825671   0.000000
   10        5.825671   0.000000
   11        8.641646   0.000000
   12        8.641647   0.000000
   13        9.562139   0.000000
   14        9.562139   0.000000
   15        9.580433   0.000000
   16        9.580433   0.000000
   17       13.283610   0.000000
   18       13.283611   0.000000
   19       13.896024   0.000000
   20       13.896024   0.000000
   21       13.917529   0.000000
   22       13.917529   0.000000
   23       16.385961   0.000000
   24       16.385961   0.000000
   25       17.735375   0.000000
   26       17.735375   0.000000
   27       17.823245   0.000000
   28       17.823245   0.000000
   29       22.065957   0.000000
   30       22.065957   0.000000
   31       23.398389   0.000000
   32       23.398389   0.000000
   33       23.423930   0.000000
   34       23.423930   0.000000
   35       26.316170   0.000000
   36       26.316171   0.000000
   37       26.710807   0.000000
   38       26.710807   0.000000
   39       26.795290   0.000000
   40       26.795290   0.000000
   41       28.408653   0.000000
   42       28.408655   0.000000
   43       29.883634   0.000000
   44       29.883634   0.000000
   45       29.994209   0.000000
   46       29.994209   0.000000
   47       31.232639   0.000000
   48       31.232639   0.000000
   49       31.264320   0.000000
   50       31.264320   0.000000
   51       32.521627   0.000000
   52       32.521629   0.000000
   53       32.691831   0.000000
   54       32.691831   0.000000
   55       33.876024   0.000000
   56       33.876025   0.000000
   57       37.710809   0.000000
   58       37.710809   0.000000
   59       37.718090   0.000000
   60       37.718091   0.000000
   61       37.725277   0.000000
   62       37.725277   0.000000
   63       38.701782   0.000000
   64       38.701782   0.000000
   65       38.702256   0.000000
   66       38.702256   0.000000
   67       39.592505   0.000000
   68       39.592505   0.000000
   69       42.394416   0.000000
   70       42.394417   0.000000
   71       44.685025   0.000000
   72       44.685025   0.000000
   73       44.703407   0.000000
   74       44.703407   0.000000
   75       46.388551   0.000000
   76       46.388552   0.000000
   77       46.733716   0.000000
   78       46.733716   0.000000
   79       46.803747   0.000000
   80       46.803747   0.000000
   81       46.855735   0.000000
   82       46.855735   0.000000
   83       46.876664   0.000000
   84       46.876664   0.000000
   85       48.740055   0.000000
   86       48.740055   0.000000
   87       51.566465   0.000000
   88       51.566465   0.000000
   89       51.578808   0.000000
   90       51.578808   0.000000
   91       52.628371   0.000000
   92       52.628374   0.000000
   93       53.353233   0.000000
   94       53.353233   0.000000
   95       53.438240   0.000000
   96       53.438240   0.000000
   97       55.136534   0.000000
   98       55.136536   0.000000
   99       55.738067   0.000000
  100       55.738067   0.000000
  101       55.748283   0.000000
  102       55.748283   0.000000
  103       57.171960   0.000000
  104       57.171960   0.000000
  105       58.643799   0.000000
  106       58.643799   0.000000
  107       58.666253   0.000000
  108       58.666253   0.000000
  109       59.879164   0.000000
  110       59.879164   0.000000
  111       60.111224   0.000000
  112       60.111224   0.000000
  113       60.117647   0.000000
  114       60.117647   0.000000
  115       61.275225   0.000000
  116       61.275225   0.000000
  117       64.103662   0.000000
  118       64.103662   0.000000
  119       64.116850   0.000000
  120       64.116850   0.000000
  121       64.315474   0.000000
  122       64.315477   0.000000
  123       65.195377   0.000000
  124       65.195377   0.000000
  125       65.297245   0.000000
  126       65.297245   0.000000
  127       65.297422   0.000000
  128       65.297422   0.000000
 
 -0.2857143E+00 -0.2834329E-17  0.0000000E+00  0.2915452E-02
    1      -18.202277   1.000000
    2      -18.202277   1.000000
    3       -4.823681   1.000000
    4       -4.823681   1.000000
    5       -3.966707   1.000000
    6       -3.966707   1.000000
    7       -3.625528   1.000000
    8       -3.625528   1.000000
    9        5.207196   0.000000
   10        5.207197   0.000000
   11        8.519494   0.000000
   12        8.519494   0.000000
   13        9.951621   0.000000
   14        9.951621   0.000000
   15        9.970870   0.000000
   16        9.970870   0.000000
   17       12.323821   0.000000
   18       12.323821   0.000000
   19       12.344924   0.000000
   20       12.344924   0.000000
   21       13.500062   0.000000
   22       13.500064   0.000000
   23       18.081443   0.000000
   24       18.081443   0.000000
   25       19.349036   0.000000
   26       19.349036   0.000000
   27       20.062022   0.000000
   28       20.062022   0.000000
   29       20.105563   0.000000
   30       20.105563   0.000000
   31       20.761955   0.000000
   32       20.761955   0.000000
   33       20.831535   0.000000
   34       20.831535   0.000000
   35       24.112266   0.000000
   36       24.112269   0.000000
   37       28.091988   0.000000
   38       28.091988   0.000000
   39       28.241990   0.000000
   40       28.241990   0.000000
   41       29.857208   0.000000
   42       29.857208   0.000000
   43       29.859741   0.000000
   44       29.859741   0.000000
   45       30.021999   0.000000
   46       30.022000   0.000000
   47       32.194563   0.000000
   48       32.194563   0.000000
   49       33.220814   0.000000
   50       33.220814   0.000000
   51       33.233835   0.000000
   52       33.233835   0.000000
   53       33.516823   0.000000
   54       33.516823   0.000000
   55       37.025956   0.000000
   56       37.025958   0.000000
   57       38.751369   0.000000
   58       38.751369   0.000000
   59       38.764987   0.000000
   60       38.764987   0.000000
   61       40.077066   0.000000
   62       40.077066   0.000000
   63       40.085685   0.000000
   64       40.085685   0.000000
   65       40.220708   0.000000
   66       40.220708   0.000000
   67       41.195243   0.000000
   68       41.195243   0.000000
   69       41.669839   0.000000
   70       41.669839   0.000000
   71       41.721888   0.000000
   72       41.721888   0.000000
   73       42.396687   0.000000
   74       42.396687   0.000000
   75       42.799702   0.000000
   76       42.799702   0.000000
   77       44.919013   0.000000
   78       44.919013   0.000000
   79       44.935432   0.000000
   80       44.935432   0.000000
   81       46.990801   0.000000
   82       46.990801   0.000000
   83       47.042166   0.000000
   84       47.042166   0.000000
   85       48.653261   0.000000
   86       48.653261   0.000000
   87       49.752614   0.000000
   88       49.752614   0.000000
   89       49.760973   0.000000
   90       49.760973   0.000000
   91       51.027088   0.000000
   92       51.027092   0.000000
   93       53.403796   0.000000
   94       53.403796   0.000000
   95       53.415234   0.000000
   96       53.415234   0.000000
   97       54.674194   0.000000
   98       54.674194   0.000000
   99       55.368346   0.000000
  100       55.368346   0.000000
  101       55.374244   0.000000
  102       55.374244   0.000000
  103       56.124322   0.000000
  104       56.124322   0.000000
  105       58.120373   0.000000
  106       58.120376   0.000000
  107       58.584740   0.000000
  108       58.584740   0.000000
  109       58.666261   0.000000
  110       58.666261   0.000000
  111       60.467415   0.000000
  112       60.467415   0.000000
  113       60.478562   0.000000
  114       60.478562   0.000000
  115       60.565417   0.000000
  116       60.565419   0.000000
  117       60.746292   0.000000
  118       60.746292   0.000000
  119       60.759627   0.000000
  120       60.759627   0.000000
  121       61.227018   0.000000
  122       61.227018   0.000000
  123       62.576169   0.000000
  124       62.576169   0.000000
  125       62.576826   0.000000
  126       62.576826   0.000000
  127       63.076521   0.000000
  128       63.076522   0.000000
 
 -0.1428571E+00  0.1246062E-16  0.0000000E+00  0.2915452E-02
    1      -18.277177   1.000000
    2      -18.277177   1.000000
    3       -4.366235   1.000000
    4       -4.366235   1.000000
    5       -3.727619   1.000000
    6       -3.727619   1.000000
    7       -3.552112   1.000000
    8       -3.552112   1.000000
    9        4.081763   0.000000
   10        4.081764   0.000000
   11        9.212545   0.000000
   12        9.212545   0.000000
   13       10.091994   0.000000
   14       10.091994   0.000000
   15       10.106927   0.000000
   16       10.106927   0.000000
   17       11.928221   0.000000
   18       11.928221   0.000000
   19       11.936752   0.000000
   20       11.936752   0.000000
   21       14.442389   0.000000
   22       14.442390   0.000000
   23       15.464368   0.000000
   24       15.464369   0.000000
   25       17.420539   0.000000
   26       17.420539   0.000000
   27       17.444881   0.000000
   28       17.444881   0.000000
   29       20.176352   0.000000
   30       20.176355   0.000000
   31       23.345558   0.000000
   32       23.345559   0.000000
   33       24.250822   0.000000
   34       24.250822   0.000000
   35       24.374867   0.000000
   36       24.374867   0.000000
   37       27.978553   0.000000
   38       27.978553   0.000000
   39       28.109432   0.000000
   40       28.109432   0.000000
   41       29.764020   0.000000
   42       29.764020   0.000000
   43       29.773978   0.000000
   44       29.773978   0.000000
   45       29.891524   0.000000
   46       29.891524   0.000000
   47       31.708037   0.000000
   48       31.708037   0.000000
   49       34.735269   0.000000
   50       34.735269   0.000000
   51       34.763139   0.000000
   52       34.763139   0.000000
   53       35.164654   0.000000
   54       35.164656   0.000000
   55       37.759972   0.000000
   56       37.759972   0.000000
   57       37.792400   0.000000
   58       37.792400   0.000000
   59       38.298138   0.000000
   60       38.298138   0.000000
   61       41.006157   0.000000
   62       41.006158   0.000000
   63       41.476471   0.000000
   64       41.476471   0.000000
   65       41.492347   0.000000
   66       41.492347   0.000000
   67       42.945277   0.000000
   68       42.945278   0.000000
   69       43.311111   0.000000
   70       43.311111   0.000000
   71       43.326036   0.000000
   72       43.326037   0.000000
   73       43.882195   0.000000
   74       43.882195   0.000000
   75       44.484864   0.000000
   76       44.484864   0.000000
   77       44.527360   0.000000
   78       44.527360   0.000000
   79       46.322258   0.000000
   80       46.322258   0.000000
   81       46.365454   0.000000
   82       46.365455   0.000000
   83       46.879280   0.000000
   84       46.879281   0.000000
   85       47.984077   0.000000
   86       47.984078   0.000000
   87       49.249702   0.000000
   88       49.249702   0.000000
   89       49.251786   0.000000
   90       49.251786   0.000000
   91       49.641777   0.000000
   92       49.641777   0.000000
   93       49.649319   0.000000
   94       49.649319   0.000000
   95       50.299202   0.000000
   96       50.299203   0.000000
   97       51.441587   0.000000
   98       51.441588   0.000000
   99       51.503985   0.000000
  100       51.503989   0.000000
  101       52.549514   0.000000
  102       52.549514   0.000000
  103       52.552443   0.000000
  104       52.552443   0.000000
  105       52.932443   0.000000
  106       52.932443   0.000000
  107       55.366299   0.000000
  108       55.366299   0.000000
  109       55.366492   0.000000
  110       55.366492   0.000000
  111       57.121015   0.000000
  112       57.121016   0.000000
  113       57.140962   0.000000
  114       57.140962   0.000000
  115       57.141825   0.000000
  116       57.141825   0.000000
  117       61.770509   0.000000
  118       61.770509   0.000000
  119       63.351615   0.000000
  120       63.351615   0.000000
  121       63.398662   0.000000