<?xml version="1.0" encoding="ISO-8859-1"?>
<modeling>
 <generator>
  <i name="program" type="string">vasp </i>
  <i name="version" type="string">5.4.4.18Apr17-6-g9f103f2a35  </i>
  <i name="subversion" type="string">(build Nov 03 2018 10:20:46) complex            parallel </i>
  <i name="platform" type="string">LinuxIFC </i>
  <i name="date" type="string">2018 12 07 </i>
  <i name="time" type="string">02:53:06 </i>
 </generator>
 <incar>
  <i type="string" name="SYSTEM">   Og_FCC</i>
  <i type="string" name="PREC">accurate</i>
  <i type="string" name="ALGO">   EXACT</i>
  <i type="logical" name="ADDGRID"> T  </i>
  <i type="logical" name="LSORBIT"> T  </i>
  <i type="int" name="ISPIN">     1</i>
  <i type="int" name="MAXMIX">    50</i>
  <i type="int" name="NELM">    50</i>
  <i type="int" name="NELMDL">    -5</i>
  <i type="int" name="NELMIN">     2</i>
  <i type="int" name="IBRION">    -1</i>
  <i type="int" name="NFREE">     5</i>
  <i name="EDIFF">      0.00000001</i>
  <i name="EDIFFG">      0.00001000</i>
  <i type="int" name="NSW">     1</i>
  <i type="int" name="ISIF">     3</i>
  <i type="int" name="ISYM">     0</i>
  <i name="SYMPREC">      0.00000010</i>
  <i name="ENCUT">    300.00000000</i>
  <i type="int" name="NBANDS">   128</i>
  <i name="POTIM">      0.10000000</i>
  <i type="logical" name="LREAL"> F  </i>
  <i type="int" name="ISMEAR">     0</i>
  <i name="SIGMA">      0.00100000</i>
  <i type="int" name="NWRITE">     2</i>
  <i type="logical" name="LWAVE"> T  </i>
  <i type="logical" name="LCHARG"> F  </i>
  <i type="logical" name="LVTOT"> F  </i>
  <i type="logical" name="LOPTICS"> T  </i>
  <i type="logical" name="GGA_COMPAT"> F  </i>
  <v type="int" name="KPOINT_BSE">    -1     0     0     0</v>
  <i type="int" name="NELM">    50</i>
  <i type="string" name="GGA"> PE</i>
 </incar>
 <structure name="primitive_cell" >
  <crystal>
   <varray name="basis" >
    <v>       4.00933418       0.00000000       0.00000000 </v>
    <v>       2.00466709       3.47218525      -0.00000000 </v>
    <v>       2.00466709       1.15739508       3.27360765 </v>
   </varray>
   <i name="volume">     45.57238633 </i>
   <varray name="rec_basis" >
    <v>       0.24941797      -0.14400153      -0.10182446 </v>
    <v>       0.00000000       0.28800307      -0.10182446 </v>
    <v>      -0.00000000       0.00000000       0.30547338 </v>
   </varray>
  </crystal>
  <varray name="positions" >
   <v>       0.00000000       0.00000000       0.00000000 </v>
  </varray>
 </structure>
 <varray name="primitive_index" >
  <v type="int" >        1 </v>
 </varray>
 <kpoints>
  <generation param="Gamma">
   <v type="int" name="divisions">       7        7        7 </v>
   <v name="usershift">      0.00000000       0.00000000       0.00000000 </v>
   <v name="genvec1">      0.14285714      -0.00000000       0.00000000 </v>
   <v name="genvec2">      0.00000000       0.14285714       0.00000000 </v>
   <v name="genvec3">      0.00000000       0.00000000       0.14285714 </v>
   <v name="shift">      0.00000000       0.00000000       0.00000000 </v>
  </generation>
  <varray name="kpointlist" >
   <v>       0.00000000       0.00000000       0.00000000 </v>
   <v>       0.14285714      -0.00000000       0.00000000 </v>
   <v>       0.28571429       0.00000000       0.00000000 </v>
   <v>       0.42857143       0.00000000       0.00000000 </v>
   <v>      -0.42857143      -0.00000000       0.00000000 </v>
   <v>      -0.28571429      -0.00000000       0.00000000 </v>
   <v>      -0.14285714       0.00000000       0.00000000 </v>
   <v>      -0.00000000       0.14285714       0.00000000 </v>
   <v>       0.14285714       0.14285714       0.00000000 </v>
   <v>       0.28571429       0.14285714       0.00000000 </v>
   <v>       0.42857143       0.14285714       0.00000000 </v>
   <v>      -0.42857143       0.14285714      -0.00000000 </v>
   <v>      -0.28571429       0.14285714      -0.00000000 </v>
   <v>      -0.14285714       0.14285714      -0.00000000 </v>
   <v>       0.00000000       0.28571429      -0.00000000 </v>
   <v>       0.14285714       0.28571429       0.00000000 </v>
   <v>       0.28571429       0.28571429       0.00000000 </v>
   <v>       0.42857143       0.28571429       0.00000000 </v>
   <v>      -0.42857143       0.28571429      -0.00000000 </v>
   <v>      -0.28571429       0.28571429      -0.00000000 </v>
   <v>      -0.14285714       0.28571429      -0.00000000 </v>
   <v>       0.00000000       0.42857143       0.00000000 </v>
   <v>       0.14285714       0.42857143      -0.00000000 </v>
   <v>       0.28571429       0.42857143       0.00000000 </v>
   <v>       0.42857143       0.42857143       0.00000000 </v>
   <v>      -0.42857143       0.42857143      -0.00000000 </v>
   <v>      -0.28571429       0.42857143       0.00000000 </v>
   <v>      -0.14285714       0.42857143      -0.00000000 </v>
   <v>       0.00000000      -0.42857143       0.00000000 </v>
   <v>       0.14285714      -0.42857143       0.00000000 </v>
   <v>       0.28571429      -0.42857143      -0.00000000 </v>
   <v>       0.42857143      -0.42857143       0.00000000 </v>
   <v>      -0.42857143      -0.42857143       0.00000000 </v>
   <v>      -0.28571429      -0.42857143      -0.00000000 </v>
   <v>      -0.14285714      -0.42857143       0.00000000 </v>
   <v>       0.00000000      -0.28571429       0.00000000 </v>
   <v>       0.14285714      -0.28571429       0.00000000 </v>
   <v>       0.28571429      -0.28571429       0.00000000 </v>
   <v>       0.42857143      -0.28571429       0.00000000 </v>
   <v>      -0.42857143      -0.28571429      -0.00000000 </v>
   <v>      -0.28571429      -0.28571429       0.00000000 </v>
   <v>      -0.14285714      -0.28571429      -0.00000000 </v>
   <v>       0.00000000      -0.14285714       0.00000000 </v>
   <v>       0.14285714      -0.14285714       0.00000000 </v>
   <v>       0.28571429      -0.14285714       0.00000000 </v>
   <v>       0.42857143      -0.14285714       0.00000000 </v>
   <v>      -0.42857143      -0.14285714       0.00000000 </v>
   <v>      -0.28571429      -0.14285714       0.00000000 </v>
   <v>      -0.14285714      -0.14285714       0.00000000 </v>
   <v>       0.00000000       0.00000000       0.14285714 </v>
   <v>       0.14285714       0.00000000       0.14285714 </v>
   <v>       0.28571429      -0.00000000       0.14285714 </v>
   <v>       0.42857143      -0.00000000       0.14285714 </v>
   <v>      -0.42857143      -0.00000000       0.14285714 </v>
   <v>      -0.28571429      -0.00000000       0.14285714 </v>
   <v>      -0.14285714       0.00000000       0.14285714 </v>
   <v>      -0.00000000       0.14285714       0.14285714 </v>
   <v>       0.14285714       0.14285714       0.14285714 </v>
   <v>       0.28571429       0.14285714       0.14285714 </v>
   <v>       0.42857143       0.14285714       0.14285714 </v>
   <v>      -0.42857143       0.14285714       0.14285714 </v>
   <v>      -0.28571429       0.14285714       0.14285714 </v>
   <v>      -0.14285714       0.14285714       0.14285714 </v>
   <v>      -0.00000000       0.28571429       0.14285714 </v>
   <v>       0.14285714       0.28571429       0.14285714 </v>
   <v>       0.28571429       0.28571429       0.14285714 </v>
   <v>       0.42857143       0.28571429       0.14285714 </v>
   <v>      -0.42857143       0.28571429       0.14285714 </v>
   <v>      -0.28571429       0.28571429       0.14285714 </v>
   <v>      -0.14285714       0.28571429       0.14285714 </v>
   <v>      -0.00000000       0.42857143       0.14285714 </v>
   <v>       0.14285714       0.42857143       0.14285714 </v>
   <v>       0.28571429       0.42857143       0.14285714 </v>
   <v>       0.42857143       0.42857143       0.14285714 </v>
   <v>      -0.42857143       0.42857143       0.14285714 </v>
   <v>      -0.28571429       0.42857143       0.14285714 </v>
   <v>      -0.14285714       0.42857143       0.14285714 </v>
   <v>      -0.00000000      -0.42857143       0.14285714 </v>
   <v>       0.14285714      -0.42857143       0.14285714 </v>
   <v>       0.28571429      -0.42857143       0.14285714 </v>
   <v>       0.42857143      -0.42857143       0.14285714 </v>
   <v>      -0.42857143      -0.42857143       0.14285714 </v>
   <v>      -0.28571429      -0.42857143       0.14285714 </v>
   <v>      -0.14285714      -0.42857143       0.14285714 </v>
   <v>       0.00000000      -0.28571429       0.14285714 </v>
   <v>       0.14285714      -0.28571429       0.14285714 </v>
   <v>       0.28571429      -0.28571429       0.14285714 </v>
   <v>       0.42857143      -0.28571429       0.14285714 </v>
   <v>      -0.42857143      -0.28571429       0.14285714 </v>
   <v>      -0.28571429      -0.28571429       0.14285714 </v>
   <v>      -0.14285714      -0.28571429       0.14285714 </v>
   <v>      -0.00000000      -0.14285714       0.14285714 </v>
   <v>       0.14285714      -0.14285714       0.14285714 </v>
   <v>       0.28571429      -0.14285714       0.14285714 </v>
   <v>       0.42857143      -0.14285714       0.14285714 </v>
   <v>      -0.42857143      -0.14285714       0.14285714 </v>
   <v>      -0.28571429      -0.14285714       0.14285714 </v>
   <v>      -0.14285714      -0.14285714       0.14285714 </v>
   <v>       0.00000000       0.00000000       0.28571429 </v>
   <v>       0.14285714       0.00000000       0.28571429 </v>
   <v>       0.28571429       0.00000000       0.28571429 </v>
   <v>       0.42857143       0.00000000       0.28571429 </v>
   <v>      -0.42857143       0.00000000       0.28571429 </v>
   <v>      -0.28571429       0.00000000       0.28571429 </v>
   <v>      -0.14285714       0.00000000       0.28571429 </v>
   <v>       0.00000000       0.14285714       0.28571429 </v>
   <v>       0.14285714       0.14285714       0.28571429 </v>
   <v>       0.28571429       0.14285714       0.28571429 </v>
   <v>       0.42857143       0.14285714       0.28571429 </v>
   <v>      -0.42857143       0.14285714       0.28571429 </v>
   <v>      -0.28571429       0.14285714       0.28571429 </v>
   <v>      -0.14285714       0.14285714       0.28571429 </v>
   <v>      -0.00000000       0.28571429       0.28571429 </v>
   <v>       0.14285714       0.28571429       0.28571429 </v>
   <v>       0.28571429       0.28571429       0.28571429 </v>
   <v>       0.42857143       0.28571429       0.28571429 </v>
   <v>      -0.42857143       0.28571429       0.28571429 </v>
   <v>      -0.28571429       0.28571429       0.28571429 </v>
   <v>      -0.14285714       0.28571429       0.28571429 </v>
   <v>       0.00000000       0.42857143       0.28571429 </v>
   <v>       0.14285714       0.42857143       0.28571429 </v>
   <v>       0.28571429       0.42857143       0.28571429 </v>
   <v>       0.42857143       0.42857143       0.28571429 </v>
   <v>      -0.42857143       0.42857143       0.28571429 </v>
   <v>      -0.28571429       0.42857143       0.28571429 </v>
   <v>      -0.14285714       0.42857143       0.28571429 </v>
   <v>      -0.00000000      -0.42857143       0.28571429 </v>
   <v>       0.14285714      -0.42857143       0.28571429 </v>
   <v>       0.28571429      -0.42857143       0.28571429 </v>
   <v>       0.42857143      -0.42857143       0.28571429 </v>
   <v>      -0.42857143      -0.42857143       0.28571429 </v>
   <v>      -0.28571429      -0.42857143       0.28571429 </v>
   <v>      -0.14285714      -0.42857143       0.28571429 </v>
   <v>       0.00000000      -0.28571429       0.28571429 </v>
   <v>       0.14285714      -0.28571429       0.28571429 </v>
   <v>       0.28571429      -0.28571429       0.28571429 </v>
   <v>       0.42857143      -0.28571429       0.28571429 </v>
   <v>      -0.42857143      -0.28571429       0.28571429 </v>
   <v>      -0.28571429      -0.28571429       0.28571429 </v>
   <v>      -0.14285714      -0.28571429       0.28571429 </v>
   <v>      -0.00000000      -0.14285714       0.28571429 </v>
   <v>       0.14285714      -0.14285714       0.28571429 </v>
   <v>       0.28571429      -0.14285714       0.28571429 </v>
   <v>       0.42857143      -0.14285714       0.28571429 </v>
   <v>      -0.42857143      -0.14285714       0.28571429 </v>
   <v>      -0.28571429      -0.14285714       0.28571429 </v>
   <v>      -0.14285714      -0.14285714       0.28571429 </v>
   <v>       0.00000000      -0.00000000       0.42857143 </v>
   <v>       0.14285714       0.00000000       0.42857143 </v>
   <v>       0.28571429       0.00000000       0.42857143 </v>
   <v>       0.42857143       0.00000000       0.42857143 </v>
   <v>      -0.42857143       0.00000000       0.42857143 </v>
   <v>      -0.28571429       0.00000000       0.42857143 </v>
   <v>      -0.14285714       0.00000000       0.42857143 </v>
   <v>       0.00000000       0.14285714       0.42857143 </v>
   <v>       0.14285714       0.14285714       0.42857143 </v>
   <v>       0.28571429       0.14285714       0.42857143 </v>
   <v>       0.42857143       0.14285714       0.42857143 </v>
   <v>      -0.42857143       0.14285714       0.42857143 </v>
   <v>      -0.28571429       0.14285714       0.42857143 </v>
   <v>      -0.14285714       0.14285714       0.42857143 </v>
   <v>       0.00000000       0.28571429       0.42857143 </v>
   <v>       0.14285714       0.28571429       0.42857143 </v>
   <v>       0.28571429       0.28571429       0.42857143 </v>
   <v>       0.42857143       0.28571429       0.42857143 </v>
   <v>      -0.42857143       0.28571429       0.42857143 </v>
   <v>      -0.28571429       0.28571429       0.42857143 </v>
   <v>      -0.14285714       0.28571429       0.42857143 </v>
   <v>       0.00000000       0.42857143       0.42857143 </v>
   <v>       0.14285714       0.42857143       0.42857143 </v>
   <v>       0.28571429       0.42857143       0.42857143 </v>
   <v>       0.42857143       0.42857143       0.42857143 </v>
   <v>      -0.42857143       0.42857143       0.42857143 </v>
   <v>      -0.28571429       0.42857143       0.42857143 </v>
   <v>      -0.14285714       0.42857143       0.42857143 </v>
   <v>       0.00000000      -0.42857143       0.42857143 </v>
   <v>       0.14285714      -0.42857143       0.42857143 </v>
   <v>       0.28571429      -0.42857143       0.42857143 </v>
   <v>       0.42857143      -0.42857143       0.42857143 </v>
   <v>      -0.42857143      -0.42857143       0.42857143 </v>
   <v>      -0.28571429      -0.42857143       0.42857143 </v>
   <v>      -0.14285714      -0.42857143       0.42857143 </v>
   <v>      -0.00000000      -0.28571429       0.42857143 </v>
   <v>       0.14285714      -0.28571429       0.42857143 </v>
   <v>       0.28571429      -0.28571429       0.42857143 </v>
   <v>       0.42857143      -0.28571429       0.42857143 </v>
   <v>      -0.42857143      -0.28571429       0.42857143 </v>
   <v>      -0.28571429      -0.28571429       0.42857143 </v>
   <v>      -0.14285714      -0.28571429       0.42857143 </v>
   <v>       0.00000000      -0.14285714       0.42857143 </v>
   <v>       0.14285714      -0.14285714       0.42857143 </v>
   <v>       0.28571429      -0.14285714       0.42857143 </v>
   <v>       0.42857143      -0.14285714       0.42857143 </v>
   <v>      -0.42857143      -0.14285714       0.42857143 </v>
   <v>      -0.28571429      -0.14285714       0.42857143 </v>
   <v>      -0.14285714      -0.14285714       0.42857143 </v>
   <v>      -0.00000000       0.00000000      -0.42857143 </v>
   <v>       0.14285714      -0.00000000      -0.42857143 </v>
   <v>       0.28571429      -0.00000000      -0.42857143 </v>
   <v>       0.42857143      -0.00000000      -0.42857143 </v>
   <v>      -0.42857143      -0.00000000      -0.42857143 </v>
   <v>      -0.28571429      -0.00000000      -0.42857143 </v>
   <v>      -0.14285714      -0.00000000      -0.42857143 </v>
   <v>       0.00000000       0.14285714      -0.42857143 </v>
   <v>       0.14285714       0.14285714      -0.42857143 </v>
   <v>       0.28571429       0.14285714      -0.42857143 </v>
   <v>       0.42857143       0.14285714      -0.42857143 </v>
   <v>      -0.42857143       0.14285714      -0.42857143 </v>
   <v>      -0.28571429       0.14285714      -0.42857143 </v>
   <v>      -0.14285714       0.14285714      -0.42857143 </v>
   <v>       0.00000000       0.28571429      -0.42857143 </v>
   <v>       0.14285714       0.28571429      -0.42857143 </v>
   <v>       0.28571429       0.28571429      -0.42857143 </v>
   <v>       0.42857143       0.28571429      -0.42857143 </v>
   <v>      -0.42857143       0.28571429      -0.42857143 </v>
   <v>      -0.28571429       0.28571429      -0.42857143 </v>
   <v>      -0.14285714       0.28571429      -0.42857143 </v>
   <v>      -0.00000000       0.42857143      -0.42857143 </v>
   <v>       0.14285714       0.42857143      -0.42857143 </v>
   <v>       0.28571429       0.42857143      -0.42857143 </v>
   <v>       0.42857143       0.42857143      -0.42857143 </v>
   <v>      -0.42857143       0.42857143      -0.42857143 </v>
   <v>      -0.28571429       0.42857143      -0.42857143 </v>
   <v>      -0.14285714       0.42857143      -0.42857143 </v>
   <v>      -0.00000000      -0.42857143      -0.42857143 </v>
   <v>       0.14285714      -0.42857143      -0.42857143 </v>
   <v>       0.28571429      -0.42857143      -0.42857143 </v>
   <v>       0.42857143      -0.42857143      -0.42857143 </v>
   <v>      -0.42857143      -0.42857143      -0.42857143 </v>
   <v>      -0.28571429      -0.42857143      -0.42857143 </v>
   <v>      -0.14285714      -0.42857143      -0.42857143 </v>
   <v>       0.00000000      -0.28571429      -0.42857143 </v>
   <v>       0.14285714      -0.28571429      -0.42857143 </v>
   <v>       0.28571429      -0.28571429      -0.42857143 </v>
   <v>       0.42857143      -0.28571429      -0.42857143 </v>
   <v>      -0.42857143      -0.28571429      -0.42857143 </v>
   <v>      -0.28571429      -0.28571429      -0.42857143 </v>
   <v>      -0.14285714      -0.28571429      -0.42857143 </v>
   <v>      -0.00000000      -0.14285714      -0.42857143 </v>
   <v>       0.14285714      -0.14285714      -0.42857143 </v>
   <v>       0.28571429      -0.14285714      -0.42857143 </v>
   <v>       0.42857143      -0.14285714      -0.42857143 </v>
   <v>      -0.42857143      -0.14285714      -0.42857143 </v>
   <v>      -0.28571429      -0.14285714      -0.42857143 </v>
   <v>      -0.14285714      -0.14285714      -0.42857143 </v>
   <v>      -0.00000000      -0.00000000      -0.28571429 </v>
   <v>       0.14285714      -0.00000000      -0.28571429 </v>
   <v>       0.28571429      -0.00000000      -0.28571429 </v>
   <v>       0.42857143      -0.00000000      -0.28571429 </v>
   <v>      -0.42857143      -0.00000000      -0.28571429 </v>
   <v>      -0.28571429      -0.00000000      -0.28571429 </v>
   <v>      -0.14285714      -0.00000000      -0.28571429 </v>
   <v>       0.00000000       0.14285714      -0.28571429 </v>
   <v>       0.14285714       0.14285714      -0.28571429 </v>
   <v>       0.28571429       0.14285714      -0.28571429 </v>
   <v>       0.42857143       0.14285714      -0.28571429 </v>
   <v>      -0.42857143       0.14285714      -0.28571429 </v>
   <v>      -0.28571429       0.14285714      -0.28571429 </v>
   <v>      -0.14285714       0.14285714      -0.28571429 </v>
   <v>      -0.00000000       0.28571429      -0.28571429 </v>
   <v>       0.14285714       0.28571429      -0.28571429 </v>
   <v>       0.28571429       0.28571429      -0.28571429 </v>
   <v>       0.42857143       0.28571429      -0.28571429 </v>
   <v>      -0.42857143       0.28571429      -0.28571429 </v>
   <v>      -0.28571429       0.28571429      -0.28571429 </v>
   <v>      -0.14285714       0.28571429      -0.28571429 </v>
   <v>       0.00000000       0.42857143      -0.28571429 </v>
   <v>       0.14285714       0.42857143      -0.28571429 </v>
   <v>       0.28571429       0.42857143      -0.28571429 </v>
   <v>       0.42857143       0.42857143      -0.28571429 </v>
   <v>      -0.42857143       0.42857143      -0.28571429 </v>
   <v>      -0.28571429       0.42857143      -0.28571429 </v>
   <v>      -0.14285714       0.42857143      -0.28571429 </v>
   <v>       0.00000000      -0.42857143      -0.28571429 </v>
   <v>       0.14285714      -0.42857143      -0.28571429 </v>
   <v>       0.28571429      -0.42857143      -0.28571429 </v>
   <v>       0.42857143      -0.42857143      -0.28571429 </v>
   <v>      -0.42857143      -0.42857143      -0.28571429 </v>
   <v>      -0.28571429      -0.42857143      -0.28571429 </v>
   <v>      -0.14285714      -0.42857143      -0.28571429 </v>
   <v>       0.00000000      -0.28571429      -0.28571429 </v>
   <v>       0.14285714      -0.28571429      -0.28571429 </v>
   <v>       0.28571429      -0.28571429      -0.28571429 </v>
   <v>       0.42857143      -0.28571429      -0.28571429 </v>
   <v>      -0.42857143      -0.28571429      -0.28571429 </v>
   <v>      -0.28571429      -0.28571429      -0.28571429 </v>
   <v>      -0.14285714      -0.28571429      -0.28571429 </v>
   <v>      -0.00000000      -0.14285714      -0.28571429 </v>
   <v>       0.14285714      -0.14285714      -0.28571429 </v>
   <v>       0.28571429      -0.14285714      -0.28571429 </v>
   <v>       0.42857143      -0.14285714      -0.28571429 </v>
   <v>      -0.42857143      -0.14285714      -0.28571429 </v>
   <v>      -0.28571429      -0.14285714      -0.28571429 </v>
   <v>      -0.14285714      -0.14285714      -0.28571429 </v>
   <v>       0.00000000      -0.00000000      -0.14285714 </v>
   <v>       0.14285714      -0.00000000      -0.14285714 </v>
   <v>       0.28571429       0.00000000      -0.14285714 </v>
   <v>       0.42857143       0.00000000      -0.14285714 </v>
   <v>      -0.42857143      -0.00000000      -0.14285714 </v>
   <v>      -0.28571429       0.00000000      -0.14285714 </v>
   <v>      -0.14285714      -0.00000000      -0.14285714 </v>
   <v>       0.00000000       0.14285714      -0.14285714 </v>
   <v>       0.14285714       0.14285714      -0.14285714 </v>
   <v>       0.28571429       0.14285714      -0.14285714 </v>
   <v>       0.42857143       0.14285714      -0.14285714 </v>
   <v>      -0.42857143       0.14285714      -0.14285714 </v>
   <v>      -0.28571429       0.14285714      -0.14285714 </v>
   <v>      -0.14285714       0.14285714      -0.14285714 </v>
   <v>       0.00000000       0.28571429      -0.14285714 </v>
   <v>       0.14285714       0.28571429      -0.14285714 </v>
   <v>       0.28571429       0.28571429      -0.14285714 </v>
   <v>       0.42857143       0.28571429      -0.14285714 </v>
   <v>      -0.42857143       0.28571429      -0.14285714 </v>
   <v>      -0.28571429       0.28571429      -0.14285714 </v>
   <v>      -0.14285714       0.28571429      -0.14285714 </v>
   <v>       0.00000000       0.42857143      -0.14285714 </v>
   <v>       0.14285714       0.42857143      -0.14285714 </v>
   <v>       0.28571429       0.42857143      -0.14285714 </v>
   <v>       0.42857143       0.42857143      -0.14285714 </v>
   <v>      -0.42857143       0.42857143      -0.14285714 </v>
   <v>      -0.28571429       0.42857143      -0.14285714 </v>
   <v>      -0.14285714       0.42857143      -0.14285714 </v>
   <v>       0.00000000      -0.42857143      -0.14285714 </v>
   <v>       0.14285714      -0.42857143      -0.14285714 </v>
   <v>       0.28571429      -0.42857143      -0.14285714 </v>
   <v>       0.42857143      -0.42857143      -0.14285714 </v>
   <v>      -0.42857143      -0.42857143      -0.14285714 </v>
   <v>      -0.28571429      -0.42857143      -0.14285714 </v>
   <v>      -0.14285714      -0.42857143      -0.14285714 </v>
   <v>       0.00000000      -0.28571429      -0.14285714 </v>
   <v>       0.14285714      -0.28571429      -0.14285714 </v>
   <v>       0.28571429      -0.28571429      -0.14285714 </v>
   <v>       0.42857143      -0.28571429      -0.14285714 </v>
   <v>      -0.42857143      -0.28571429      -0.14285714 </v>
   <v>      -0.28571429      -0.28571429      -0.14285714 </v>
   <v>      -0.14285714      -0.28571429      -0.14285714 </v>
   <v>       0.00000000      -0.14285714      -0.14285714 </v>
   <v>       0.14285714      -0.14285714      -0.14285714 </v>
   <v>       0.28571429      -0.14285714      -0.14285714 </v>
   <v>       0.42857143      -0.14285714      -0.14285714 </v>
   <v>      -0.42857143      -0.14285714      -0.14285714 </v>
   <v>      -0.28571429      -0.14285714      -0.14285714 </v>
   <v>      -0.14285714      -0.14285714      -0.14285714 </v>
  </varray>
  <varray name="weights" >
   <v>       0.00291545 </v>
   <v>       0.00291545 </v>
   <v>       0.00291545 </v>
   <v>       0.00291545 </v>
   <v>       0.00291545 </v>
   <v>       0.00291545 </v>
   <v>       0.00291545 </v>
   <v>       0.00291545 </v>
   <v>       0.00291545 </v>
   <v>       0.00291545 </v>
   <v>       0.00291545 </v>
   <v>       0.00291545 </v>
   <v>       0.00291545 </v>
   <v>       0.00291545 </v>
   <v>       0.00291545 </v>
   <v>       0.00291545 </v>
   <v>       0.00291545 </v>
   <v>       0.00291545 </v>
   <v>       0.00291545 </v>
   <v>       0.00291545 </v>
   <v>       0.00291545 </v>
   <v>       0.00291545 </v>
   <v>       0.00291545 </v>
   <v>       0.00291545 </v>
   <v>       0.00291545 </v>
   <v>       0.00291545 </v>
   <v>       0.00291545 </v>
   <v>       0.00291545 </v>
   <v>       0.00291545 </v>
   <v>       0.00291545 </v>
   <v>       0.00291545 </v>
   <v>       0.00291545 </v>
   <v>       0.00291545 </v>
   <v>       0.00291545 </v>
   <v>       0.00291545 </v>
   <v>       0.00291545 </v>
   <v>       0.00291545 </v>
   <v>       0.00291545 </v>
   <v>       0.00291545 </v>
   <v>       0.00291545 </v>
   <v>       0.00291545 </v>
   <v>       0.00291545 </v>
   <v>       0.00291545 </v>
   <v>       0.00291545 </v>
   <v>       0.00291545 </v>
   <v>       0.00291545 </v>
   <v>       0.00291545 </v>
   <v>       0.00291545 </v>
   <v>       0.00291545 </v>
   <v>       0.00291545 </v>
   <v>       0.00291545 </v>
   <v>       0.00291545 </v>
   <v>       0.00291545 </v>
   <v>       0.00291545 </v>
   <v>       0.00291545 </v>
   <v>       0.00291545 </v>
   <v>       0.00291545 </v>
   <v>       0.00291545 </v>
   <v>       0.00291545 </v>
   <v>       0.00291545 </v>
   <v>       0.00291545 </v>
   <v>       0.00291545 </v>
   <v>       0.00291545 </v>
   <v>       0.00291545 </v>
   <v>       0.00291545 </v>
   <v>       0.00291545 </v>
   <v>       0.00291545 </v>
   <v>       0.00291545 </v>
   <v>       0.00291545 </v>
   <v>       0.00291545 </v>
   <v>       0.00291545 </v>
   <v>       0.00291545 </v>
   <v>       0.00291545 </v>
   <v>       0.00291545 </v>
   <v>       0.00291545 </v>
   <v>       0.00291545 </v>
   <v>       0.00291545 </v>
   <v>       0.00291545 </v>
   <v>       0.00291545 </v>
   <v>       0.00291545 </v>
   <v>       0.00291545 </v>
   <v>       0.00291545 </v>
   <v>       0.00291545 </v>
   <v>       0.00291545 </v>
   <v>       0.00291545 </v>
   <v>       0.00291545 </v>
   <v>       0.00291545 </v>
   <v>       0.00291545 </v>
   <v>       0.00291545 </v>
   <v>       0.00291545 </v>
   <v>       0.00291545 </v>
   <v>       0.00291545 </v>
   <v>       0.00291545 </v>
   <v>       0.00291545 </v>
   <v>       0.00291545 </v>
   <v>       0.00291545 </v>
   <v>       0.00291545 </v>
   <v>       0.00291545 </v>
   <v>       0.00291545 </v>
   <v>       0.00291545 </v>
   <v>       0.00291545 </v>
   <v>       0.00291545 </v>
   <v>       0.00291545 </v>
   <v>       0.00291545 </v>
   <v>       0.00291545 </v>
   <v>       0.00291545 </v>
   <v>       0.00291545 </v>
   <v>       0.00291545 </v>
   <v>       0.00291545 </v>
   <v>       0.00291545 </v>
   <v>       0.00291545 </v>
   <v>       0.00291545 </v>
   <v>       0.00291545 </v>
   <v>       0.00291545 </v>
   <v>       0.00291545 </v>
   <v>       0.00291545 </v>
   <v>       0.00291545 </v>
   <v>       0.00291545 </v>
   <v>       0.00291545 </v>
   <v>       0.00291545 </v>
   <v>       0.00291545 </v>
   <v>       0.00291545 </v>
   <v>       0.00291545 </v>
   <v>       0.00291545 </v>
   <v>       0.00291545 </v>
   <v>       0.00291545 </v>
   <v>       0.00291545 </v>
   <v>       0.00291545 </v>
   <v>       0.00291545 </v>
   <v>       0.00291545 </v>
   <v>       0.00291545 </v>
   <v>       0.00291545 </v>
   <v>       0.00291545 </v>
   <v>       0.00291545 </v>
   <v>       0.00291545 </v>
   <v>       0.00291545 </v>
   <v>       0.00291545 </v>
   <v>       0.00291545 </v>
   <v>       0.00291545 </v>
   <v>       0.00291545 </v>
   <v>       0.00291545 </v>
   <v>       0.00291545 </v>
   <v>       0.00291545 </v>
   <v>       0.00291545 </v>
   <v>       0.00291545 </v>
   <v>       0.00291545 </v>
   <v>       0.00291545 </v>
   <v>       0.00291545 </v>
   <v>       0.00291545 </v>
   <v>       0.00291545 </v>
   <v>       0.00291545 </v>
   <v>       0.00291545 </v>
   <v>       0.00291545 </v>
   <v>       0.00291545 </v>
   <v>       0.00291545 </v>
   <v>       0.00291545 </v>
   <v>       0.00291545 </v>
   <v>       0.00291545 </v>
   <v>       0.00291545 </v>
   <v>       0.00291545 </v>
   <v>       0.00291545 </v>
   <v>       0.00291545 </v>
   <v>       0.00291545 </v>
   <v>       0.00291545 </v>
   <v>       0.00291545 </v>
   <v>       0.00291545 </v>
   <v>       0.00291545 </v>
   <v>       0.00291545 </v>
   <v>       0.00291545 </v>
   <v>       0.00291545 </v>
   <v>       0.00291545 </v>
   <v>       0.00291545 </v>
   <v>       0.00291545 </v>
   <v>       0.00291545 </v>
   <v>       0.00291545 </v>
   <v>       0.00291545 </v>
   <v>       0.00291545 </v>
   <v>       0.00291545 </v>
   <v>       0.00291545 </v>
   <v>       0.00291545 </v>
   <v>       0.00291545 </v>
   <v>       0.00291545 </v>
   <v>       0.00291545 </v>
   <v>       0.00291545 </v>
   <v>       0.00291545 </v>
   <v>       0.00291545 </v>
   <v>       0.00291545 </v>
   <v>       0.00291545 </v>
   <v>       0.00291545 </v>
   <v>       0.00291545 </v>
   <v>       0.00291545 </v>
   <v>       0.00291545 </v>
   <v>       0.00291545 </v>
   <v>       0.00291545 </v>
   <v>       0.00291545 </v>
   <v>       0.00291545 </v>
   <v>       0.00291545 </v>
   <v>       0.00291545 </v>
   <v>       0.00291545 </v>
   <v>       0.00291545 </v>
   <v>       0.00291545 </v>
   <v>       0.00291545 </v>
   <v>       0.00291545 </v>
   <v>       0.00291545 </v>
   <v>       0.00291545 </v>
   <v>       0.00291545 </v>
   <v>       0.00291545 </v>
   <v>       0.00291545 </v>
   <v>       0.00291545 </v>
   <v>       0.00291545 </v>
   <v>       0.00291545 </v>
   <v>       0.00291545 </v>
   <v>       0.00291545 </v>
   <v>       0.00291545 </v>
   <v>       0.00291545 </v>
   <v>       0.00291545 </v>
   <v>       0.00291545 </v>
   <v>       0.00291545 </v>
   <v>       0.00291545 </v>
   <v>       0.00291545 </v>
   <v>       0.00291545 </v>
   <v>       0.00291545 </v>
   <v>       0.00291545 </v>
   <v>       0.00291545 </v>
   <v>       0.00291545 </v>
   <v>       0.00291545 </v>
   <v>       0.00291545 </v>
   <v>       0.00291545 </v>
   <v>       0.00291545 </v>
   <v>       0.00291545 </v>
   <v>       0.00291545 </v>
   <v>       0.00291545 </v>
   <v>       0.00291545 </v>
   <v>       0.00291545 </v>
   <v>       0.00291545 </v>
   <v>       0.00291545 </v>
   <v>       0.00291545 </v>
   <v>       0.00291545 </v>
   <v>       0.00291545 </v>
   <v>       0.00291545 </v>
   <v>       0.00291545 </v>
   <v>       0.00291545 </v>
   <v>       0.00291545 </v>
   <v>       0.00291545 </v>
   <v>       0.00291545 </v>
   <v>       0.00291545 </v>
   <v>       0.00291545 </v>
   <v>       0.00291545 </v>
   <v>       0.00291545 </v>
   <v>       0.00291545 </v>
   <v>       0.00291545 </v>
   <v>       0.00291545 </v>
   <v>       0.00291545 </v>
   <v>       0.00291545 </v>
   <v>       0.00291545 </v>
   <v>       0.00291545 </v>
   <v>       0.00291545 </v>
   <v>       0.00291545 </v>
   <v>       0.00291545 </v>
   <v>       0.00291545 </v>
   <v>       0.00291545 </v>
   <v>       0.00291545 </v>
   <v>       0.00291545 </v>
   <v>       0.00291545 </v>
   <v>       0.00291545 </v>
   <v>       0.00291545 </v>
   <v>       0.00291545 </v>
   <v>       0.00291545 </v>
   <v>       0.00291545 </v>
   <v>       0.00291545 </v>
   <v>       0.00291545 </v>
   <v>       0.00291545 </v>
   <v>       0.00291545 </v>
   <v>       0.00291545 </v>
   <v>       0.00291545 </v>
   <v>       0.00291545 </v>
   <v>       0.00291545 </v>
   <v>       0.00291545 </v>
   <v>       0.00291545 </v>
   <v>       0.00291545 </v>
   <v>       0.00291545 </v>
   <v>       0.00291545 </v>
   <v>       0.00291545 </v>
   <v>       0.00291545 </v>
   <v>       0.00291545 </v>
   <v>       0.00291545 </v>
   <v>       0.00291545 </v>
   <v>       0.00291545 </v>
   <v>       0.00291545 </v>
   <v>       0.00291545 </v>
   <v>       0.00291545 </v>
   <v>       0.00291545 </v>
   <v>       0.00291545 </v>
   <v>       0.00291545 </v>
   <v>       0.00291545 </v>
   <v>       0.00291545 </v>
   <v>       0.00291545 </v>
   <v>       0.00291545 </v>
   <v>       0.00291545 </v>
   <v>       0.00291545 </v>
   <v>       0.00291545 </v>
   <v>       0.00291545 </v>
   <v>       0.00291545 </v>
   <v>       0.00291545 </v>
   <v>       0.00291545 </v>
   <v>       0.00291545 </v>
   <v>       0.00291545 </v>
   <v>       0.00291545 </v>
   <v>       0.00291545 </v>
   <v>       0.00291545 </v>
   <v>       0.00291545 </v>
   <v>       0.00291545 </v>
   <v>       0.00291545 </v>
   <v>       0.00291545 </v>
   <v>       0.00291545 </v>
   <v>       0.00291545 </v>
   <v>       0.00291545 </v>
   <v>       0.00291545 </v>
   <v>       0.00291545 </v>
   <v>       0.00291545 </v>
   <v>       0.00291545 </v>
   <v>       0.00291545 </v>
   <v>       0.00291545 </v>
   <v>       0.00291545 </v>
   <v>       0.00291545 </v>
   <v>       0.00291545 </v>
   <v>       0.00291545 </v>
   <v>       0.00291545 </v>
   <v>       0.00291545 </v>
   <v>       0.00291545 </v>
   <v>       0.00291545 </v>
   <v>       0.00291545 </v>
   <v>       0.00291545 </v>
   <v>       0.00291545 </v>
   <v>       0.00291545 </v>
   <v>       0.00291545 </v>
   <v>       0.00291545 </v>
   <v>       0.00291545 </v>
   <v>       0.00291545 </v>
   <v>       0.00291545 </v>
   <v>       0.00291545 </v>
   <v>       0.00291545 </v>
   <v>       0.00291545 </v>
  </varray>
 </kpoints>
 <parameters>
  <separator name="general" >
   <i type="string" name="SYSTEM">Og_FCC</i>
   <i type="logical" name="LCOMPAT"> F  </i>
  </separator>
  <separator name="electronic" >
   <i type="string" name="PREC">accura</i>
   <i name="ENMAX">    300.00000000</i>
   <i name="ENAUG">    554.76500000</i>
   <i name="EDIFF">      0.00000001</i>
   <i type="int" name="IALGO">    90</i>
   <i type="int" name="IWAVPR">    10</i>
   <i type="int" name="NBANDS">   128</i>
   <i name="NELECT">      8.00000000</i>
   <i type="int" name="TURBO">     0</i>
   <i type="int" name="IRESTART">     0</i>
   <i type="int" name="NREBOOT">     0</i>
   <i type="int" name="NMIN">     0</i>
   <i name="EREF">      0.00000000</i>
   <separator name="electronic smearing" >
    <i type="int" name="ISMEAR">     0</i>
    <i name="SIGMA">      0.00100000</i>
    <i name="KSPACING">      0.50000000</i>
    <i type="logical" name="KGAMMA"> T  </i>
   </separator>
   <separator name="electronic projectors" >
    <i type="logical" name="LREAL"> F  </i>
    <v name="ROPT">      0.00000000</v>
    <i type="int" name="LMAXPAW">  -100</i>
    <i type="int" name="LMAXMIX">     2</i>
    <i type="logical" name="NLSPLINE"> F  </i>
   </separator>
   <separator name="electronic startup" >
    <i type="int" name="ISTART">     1</i>
    <i type="int" name="ICHARG">     0</i>
    <i type="int" name="INIWAV">     1</i>
   </separator>
   <separator name="electronic spin" >
    <i type="int" name="ISPIN">     1</i>
    <i type="logical" name="LNONCOLLINEAR"> T  </i>
    <v name="MAGMOM">      1.00000000      1.00000000      1.00000000</v>
    <i name="NUPDOWN">     -1.00000000</i>
    <i type="logical" name="LSORBIT"> T  </i>
    <v name="SAXIS">      0.00000000      0.00000000      1.00000000</v>
    <i type="logical" name="LSPIRAL"> F  </i>
    <v name="QSPIRAL">      0.00000000      0.00000000      0.00000000</v>
    <i type="logical" name="LZEROZ"> F  </i>
   </separator>
   <separator name="electronic exchange-correlation" >
    <i type="logical" name="LASPH"> F  </i>
    <i type="logical" name="LMETAGGA"> F  </i>
   </separator>
   <separator name="electronic convergence" >
    <i type="int" name="NELM">    50</i>
    <i type="int" name="NELMDL">    -5</i>
    <i type="int" name="NELMIN">     2</i>
    <i name="ENINI">    300.00000000</i>
    <separator name="electronic convergence detail" >
     <i type="logical" name="LDIAG"> T  </i>
     <i type="logical" name="LSUBROT"> F  </i>
     <i name="WEIMIN">      0.00000000</i>
     <i name="EBREAK">      0.00000000</i>
     <i name="DEPER">      0.30000000</i>
     <i type="int" name="NRMM">     4</i>
     <i name="TIME">      0.40000000</i>
    </separator>
   </separator>
   <separator name="electronic mixer" >
    <i name="AMIX">      0.40000000</i>
    <i name="BMIX">      1.00000000</i>
    <i name="AMIN">      0.10000000</i>
    <i name="AMIX_MAG">      1.60000000</i>
    <i name="BMIX_MAG">      1.00000000</i>
    <separator name="electronic mixer details" >
     <i type="int" name="IMIX">     4</i>
     <i type="logical" name="MIXFIRST"> F  </i>
     <i type="int" name="MAXMIX">    50</i>
     <i name="WC">    100.00000000</i>
     <i type="int" name="INIMIX">     1</i>
     <i type="int" name="MIXPRE">     1</i>
     <i type="int" name="MREMOVE">     5</i>
    </separator>
   </separator>
   <separator name="electronic dipolcorrection" >
    <i type="logical" name="LDIPOL"> F  </i>
    <i type="logical" name="LMONO"> F  </i>
    <i type="int" name="IDIPOL">     0</i>
    <i name="EPSILON">      1.00000000</i>
    <v name="DIPOL">   -100.00000000   -100.00000000   -100.00000000</v>
    <i name="EFIELD">      0.00000000</i>
   </separator>
  </separator>
  <separator name="grids" >
   <i type="int" name="NGX">    24</i>
   <i type="int" name="NGY">    24</i>
   <i type="int" name="NGZ">    24</i>
   <i type="int" name="NGXF">    48</i>
   <i type="int" name="NGYF">    48</i>
   <i type="int" name="NGZF">    48</i>
   <i type="logical" name="ADDGRID"> T  </i>
  </separator>
  <separator name="ionic" >
   <i type="int" name="NSW">     1</i>
   <i type="int" name="IBRION">    -1</i>
   <i type="int" name="MDALGO">     0</i>
   <i type="int" name="ISIF">     3</i>
   <i name="PSTRESS">      0.00000000</i>
   <i name="EDIFFG">      0.00001000</i>
   <i type="int" name="NFREE">     5</i>
   <i name="POTIM">      0.10000000</i>
   <i name="SMASS">     -3.00000000</i>
   <i name="SCALEE">      1.00000000</i>
  </separator>
  <separator name="ionic md" >
   <i name="TEBEG">      0.00010000</i>
   <i name="TEEND">      0.00010000</i>
   <i type="int" name="NBLOCK">     1</i>
   <i type="int" name="KBLOCK">     1</i>
   <i type="int" name="NPACO">   256</i>
   <i name="APACO">     16.00000000</i>
  </separator>
  <separator name="symmetry" >
   <i type="int" name="ISYM">     0</i>
   <i name="SYMPREC">      0.00000010</i>
  </separator>
  <separator name="dos" >
   <i type="int" name="LORBIT">     0</i>
   <v name="RWIGS">     -1.00000000</v>
   <i type="int" name="NEDOS">   301</i>
   <i name="EMIN">     10.00000000</i>
   <i name="EMAX">    -10.00000000</i>
   <i name="EFERMI">      0.00000000</i>
  </separator>
  <separator name="writing" >
   <i type="int" name="NWRITE">     2</i>
   <i type="logical" name="LWAVE"> T  </i>
   <i type="logical" name="LDOWNSAMPLE"> F  </i>
   <i type="logical" name="LCHARG"> F  </i>
   <i type="logical" name="LPARD"> F  </i>
   <i type="logical" name="LVTOT"> F  </i>
   <i type="logical" name="LVHAR"> F  </i>
   <i type="logical" name="LELF"> F  </i>
   <i type="logical" name="LOPTICS"> T  </i>
   <v name="STM">      0.00000000      0.00000000      0.00000000      0.00000000      0.00000000      0.00000000      0.00000000</v>
  </separator>
  <separator name="performance" >
   <i type="int" name="NPAR">     4</i>
   <i type="int" name="NSIM">     4</i>
   <i type="int" name="NBLK">    -1</i>
   <i type="logical" name="LPLANE"> T  </i>
   <i type="logical" name="LSCALAPACK"> T  </i>
   <i type="logical" name="LSCAAWARE"> T  </i>
   <i type="logical" name="LSCALU"> F  </i>
   <i type="logical" name="LASYNC"> F  </i>
   <i type="logical" name="LORBITALREAL"> F  </i>
  </separator>
  <separator name="miscellaneous" >
   <i type="int" name="IDIOT">     3</i>
   <i type="int" name="ISPECIAL">     0</i>
   <i type="logical" name="LMUSIC"> F  </i>
   <v name="POMASS">     83.80000000</v>
   <v name="DARWINR">      0.00000000</v>
   <v name="DARWINV">      1.00000000</v>
   <i type="logical" name="LCORR"> T  </i>
  </separator>
  <i type="logical" name="GGA_COMPAT"> F  </i>
  <i type="logical" name="LBERRY"> F  </i>
  <i type="int" name="ICORELEVEL">     0</i>
  <i type="logical" name="LDAU"> F  </i>
  <i type="int" name="I_CONSTRAINED_M">     0</i>
  <separator name="electronic exchange-correlation" >
   <i type="string" name="GGA">PE</i>
   <i type="int" name="VOSKOWN">     0</i>
   <i type="logical" name="LHFCALC"> F  </i>
   <i type="string" name="PRECFOCK"></i>
   <i type="logical" name="LSYMGRAD"> F  </i>
   <i type="logical" name="LHFONE"> F  </i>
   <i type="logical" name="LRHFCALC"> F  </i>
   <i type="logical" name="LTHOMAS"> F  </i>
   <i type="logical" name="LMODELHF"> F  </i>
   <i name="ENCUT4O">     -1.00000000</i>
   <i type="int" name="EXXOEP">     0</i>
   <i type="int" name="FOURORBIT">     0</i>
   <i name="AEXX">      0.00000000</i>
   <i name="HFALPHA">      0.00000000</i>
   <i name="MCALPHA">      0.00000000</i>
   <i name="ALDAX">      1.00000000</i>
   <i name="AGGAX">      1.00000000</i>
   <i name="ALDAC">      1.00000000</i>
   <i name="AGGAC">      1.00000000</i>
   <i type="int" name="NKREDX">     1</i>
   <i type="int" name="NKREDY">     1</i>
   <i type="int" name="NKREDZ">     1</i>
   <i type="logical" name="SHIFTRED"> F  </i>
   <i type="logical" name="ODDONLY"> F  </i>
   <i type="logical" name="EVENONLY"> F  </i>
   <i type="int" name="LMAXFOCK">     0</i>
   <i type="int" name="NMAXFOCKAE">     0</i>
   <i type="logical" name="LFOCKAEDFT"> F  </i>
   <i name="HFSCREEN">      0.00000000</i>
   <i name="HFSCREENC">      0.00000000</i>
   <i type="int" name="NBANDSGWLOW">     0</i>
  </separator>
  <separator name="vdW DFT" >
   <i type="logical" name="LUSE_VDW"> F  </i>
   <i name="Zab_VDW">     -0.84910000</i>
   <i name="PARAM1">      0.12340000</i>
   <i name="PARAM2">      1.00000000</i>
   <i name="PARAM3">      0.00000000</i>
  </separator>
  <separator name="model GW" >
   <i type="int" name="MODEL_GW">     0</i>
   <i name="MODEL_EPS0">     27.34343180</i>
   <i name="MODEL_ALPHA">      1.00000000</i>
  </separator>
  <separator name="linear response parameters" >
   <i type="logical" name="LEPSILON"> F  </i>
   <i type="logical" name="LRPA"> F  </i>
   <i type="logical" name="LNABLA"> F  </i>
   <i type="logical" name="LVEL"> F  </i>
   <i type="int" name="KINTER">     0</i>
   <i name="CSHIFT">      0.10000000</i>
   <i name="OMEGAMAX">     -1.00000000</i>
   <i name="DEG_THRESHOLD">      0.00200000</i>
   <i name="RTIME">     -0.10000000</i>
   <i name="WPLASMAI">      0.00000000</i>
   <v name="DFIELD">      0.00000000      0.00000000      0.00000000</v>
   <v name="WPLASMA">      0.00000000      0.00000000      0.00000000      0.00000000      0.00000000      0.00000000      0.00000000      0.00000000      0.00000000</v>
  </separator>
  <separator name="orbital magnetization" >
   <i type="logical" name="NUCIND"> F  </i>
   <v name="MAGPOS">      0.00000000      0.00000000      0.00000000</v>
   <i type="logical" name="LNICSALL"> T  </i>
   <i type="logical" name="ORBITALMAG"> F  </i>
   <i type="logical" name="LMAGBLOCH"> F  </i>
   <i type="logical" name="LCHIMAG"> F  </i>
   <i type="logical" name="LGAUGE"> T  </i>
   <i type="int" name="MAGATOM">     0</i>
   <v name="MAGDIPOL">      0.00000000      0.00000000      0.00000000</v>
   <v name="AVECCONST">      0.00000000      0.00000000      0.00000000</v>
  </separator>
  <separator name="response functions" >
   <i type="logical" name="LADDER"> F  </i>
   <i type="logical" name="LRPAFORCE"> F  </i>
   <i type="logical" name="LFXC"> F  </i>
   <i type="logical" name="LHARTREE"> T  </i>
   <i type="int" name="IBSE">     0</i>
   <v type="int" name="KPOINT">    -1     0     0     0</v>
   <i type="logical" name="LTCTE"> F  </i>
   <i type="logical" name="LTETE"> F  </i>
   <i type="logical" name="LTRIPLET"> F  </i>
   <i type="logical" name="LFXCEPS"> F  </i>
   <i type="logical" name="LFXHEG"> F  </i>
   <i type="int" name="NATURALO">     2</i>
   <i type="logical" name="L2ORDER"> F  </i>
   <i type="logical" name="LMP2LT"> F  </i>
   <i type="logical" name="LUSEW"> F  </i>
   <i name="ENCUTGW">     -2.00000000</i>
   <i name="ENCUTGWSOFT">     -2.00000000</i>
   <i name="ENCUTLF">     -1.00000000</i>
   <i type="int" name="LMAXMP2">    -1</i>
   <i name="SCISSOR">      0.00000000</i>
   <i type="int" name="NOMEGA">     0</i>
   <i type="int" name="NOMEGAR">     0</i>
   <i type="int" name="NBANDSGW">    -1</i>
   <i type="int" name="NBANDSO">    -1</i>
   <i type="int" name="NBANDSV">    -1</i>
   <i type="int" name="NELM">    50</i>
   <i type="int" name="NELMHF">     1</i>
   <i type="int" name="DIM">     3</i>
   <i type="int" name="ANTIRES">     0</i>
   <i name="OMEGAMAX">    -30.00000000</i>
   <i name="OMEGAMIN">    -30.00000000</i>
   <i name="OMEGATL">   -200.00000000</i>
   <i type="int" name="OMEGAGRID">   140</i>
   <i name="CSHIFT">     -0.10000000</i>
   <i type="logical" name="SELFENERGY"> F  </i>
   <i type="logical" name="LSPECTRAL"> F  </i>
   <i type="logical" name="LSPECTRALGW"> F  </i>
   <i type="logical" name="LSINGLES"> F  </i>
   <i type="logical" name="LFERMIGW"> F  </i>
   <i type="logical" name="ODDONLYGW"> F  </i>
   <i type="logical" name="EVENONLYGW"> F  </i>
   <i type="int" name="NKREDLFX">     1</i>
   <i type="int" name="NKREDLFY">     1</i>
   <i type="int" name="NKREDLFZ">     1</i>
   <i type="int" name="MAXMEM">  2800</i>
   <i type="int" name="TELESCOPE">     0</i>
   <i type="int" name="TAUPAR">     1</i>
   <i type="int" name="OMEGAPAR">    -1</i>
   <i name="LAMBDA">      1.00000000</i>
  </separator>
  <separator name="External order field" >
   <i name="OFIELD_KAPPA">      0.00000000</i>
   <v name="OFIELD_K">      0.00000000      0.00000000      0.00000000</v>
   <i name="OFIELD_Q6_NEAR">      0.00000000</i>
   <i name="OFIELD_Q6_FAR">      0.00000000</i>
   <i name="OFIELD_A">      0.00000000</i>
  </separator>
 </parameters>
 <atominfo>
  <atoms>       1 </atoms>
  <types>       1 </types>
  <array name="atoms" >
   <dimension dim="1">ion</dimension>
   <field type="string">element</field>
   <field type="int">atomtype</field>
   <set>
    <rc><c>Kr</c><c>   1</c></rc>
   </set>
  </array>
  <array name="atomtypes" >
   <dimension dim="1">type</dimension>
   <field type="int">atomspertype</field>
   <field type="string">element</field>
   <field>mass</field>
   <field>valence</field>
   <field type="string">pseudopotential</field>
   <set>
    <rc><c>   1</c><c>Kr</c><c>     83.80000000</c><c>      8.00000000</c><c>  PAW_PBE Kr_GW 21Aug2013               </c></rc>
   </set>
  </array>
 </atominfo>
 <structure name="initialpos" >
  <crystal>
   <varray name="basis" >
    <v>       4.00933418       0.00000000       0.00000000 </v>
    <v>       2.00466709       3.47218525      -0.00000000 </v>
    <v>       2.00466709       1.15739508       3.27360765 </v>
   </varray>
   <i name="volume">     45.57238633 </i>
   <varray name="rec_basis" >
    <v>       0.24941797      -0.14400153      -0.10182446 </v>
    <v>       0.00000000       0.28800307      -0.10182446 </v>
    <v>      -0.00000000       0.00000000       0.30547338 </v>
   </varray>
  </crystal>
  <varray name="positions" >
   <v>       0.00000000       0.00000000       0.00000000 </v>
  </varray>
  <varray name="velocities" >
   <v>       0.00000000       0.00000000       0.00000000 </v>
  </varray>
 </structure>
 <calculation>
  <scstep>
   <time name="diag">  185.45  185.40</time>
   <time name="total">  185.49  185.44</time>
   <energy>
    <i name="alphaZ">      9.21045435 </i>
    <i name="ewald">   -372.60190661 </i>
    <i name="hartreedc">   -100.48209962 </i>
    <i name="XCdc">     14.66673479 </i>
    <i name="pawpsdc">    410.05393710 </i>
    <i name="pawaedc">   -405.18822884 </i>
    <i name="eentropy">      0.00000000 </i>
    <i name="bandstr">    -62.42141546 </i>
    <i name="atom">    506.70785905 </i>
    <i name="e_fr_energy">     -0.05466525 </i>
    <i name="e_wo_entrp">     -0.05466525 </i>
    <i name="e_0_energy">     -0.05466525 </i>
   </energy>
  </scstep>
  <scstep>
   <time name="diag">  185.47  185.43</time>
   <time name="total">  185.48  185.44</time>
   <energy>
    <i name="e_fr_energy">     -0.05466525 </i>
    <i name="e_wo_entrp">     -0.05466525 </i>
    <i name="e_0_energy">     -0.05466525 </i>
   </energy>
  </scstep>
  <scstep>
   <time name="diag">  186.81  186.88</time>
   <time name="total">  186.81  186.89</time>
   <energy>
    <i name="e_fr_energy">     -0.05466525 </i>
    <i name="e_wo_entrp">     -0.05466525 </i>
    <i name="e_0_energy">     -0.05466525 </i>
   </energy>
  </scstep>
  <scstep>
   <time name="diag">  185.28  185.25</time>
   <time name="total">  185.29  185.25</time>
   <energy>
    <i name="e_fr_energy">     -0.05466525 </i>
    <i name="e_wo_entrp">     -0.05466525 </i>
    <i name="e_0_energy">     -0.05466525 </i>
   </energy>
  </scstep>
  <scstep>
   <time name="diag">  185.53  185.46</time>
   <time name="total">  185.62  185.55</time>
   <energy>
    <i name="e_fr_energy">     -0.05466525 </i>
    <i name="e_wo_entrp">     -0.05466525 </i>
    <i name="e_0_energy">     -0.05466525 </i>
   </energy>
  </scstep>
  <scstep>
   <time name="diag">  185.23  185.32</time>
   <time name="total">  185.27  185.36</time>
   <energy>
    <i name="alphaZ">      9.21045435 </i>
    <i name="ewald">   -372.60190661 </i>
    <i name="hartreedc">   -100.48209873 </i>
    <i name="XCdc">     14.66673471 </i>
    <i name="pawpsdc">    410.05392966 </i>
    <i name="pawaedc">   -405.18822137 </i>
    <i name="eentropy">      0.00000000 </i>
    <i name="bandstr">    -62.42141631 </i>
    <i name="atom">    506.70785905 </i>
    <i name="e_fr_energy">     -0.05466525 </i>
    <i name="e_wo_entrp">     -0.05466525 </i>
    <i name="e_0_energy">     -0.05466525 </i>
   </energy>
  </scstep>
  <structure>
   <crystal>
    <varray name="basis" >
     <v>       4.00933418       0.00000000       0.00000000 </v>
     <v>       2.00466709       3.47218525      -0.00000000 </v>
     <v>       2.00466709       1.15739508       3.27360765 </v>
    </varray>
    <i name="volume">     45.57238633 </i>
    <varray name="rec_basis" >
     <v>       0.24941797      -0.14400153      -0.10182446 </v>
     <v>       0.00000000       0.28800307      -0.10182446 </v>
     <v>      -0.00000000       0.00000000       0.30547338 </v>
    </varray>
   </crystal>
   <varray name="positions" >
    <v>       0.00000000       0.00000000       0.00000000 </v>
   </varray>
  </structure>
  <varray name="forces" >
   <v>      -0.00000000      -0.00000000      -0.00000000 </v>
  </varray>
  <varray name="stress" >
   <v>       2.60475266      -0.00008756      -0.00006157 </v>
   <v>      -0.00008746       2.60485253      -0.00003406 </v>
   <v>      -0.00006156      -0.00003430       2.60487797 </v>
  </varray>
  <energy>
   <i name="e_fr_energy">     -0.17879301 </i>
   <i name="e_wo_entrp">     -0.17879301 </i>
   <i name="e_0_energy">      0.00000000 </i>
  </energy>
  <time name="totalsc"> 1118.87 1120.46</time>
  <eigenvalues>
   <array>
    <dimension dim="1">band</dimension>
    <dimension dim="2">kpoint</dimension>
    <dimension dim="3">spin</dimension>
    <field>eigene</field>
    <field>occ</field>
    <set>
     <set comment="spin 1">
      <set comment="kpoint 1">
       <r>  -18.3098    1.0000 </r>
       <r>  -18.3098    1.0000 </r>
       <r>   -4.2191    1.0000 </r>
       <r>   -4.2191    1.0000 </r>
       <r>   -3.5185    1.0000 </r>
       <r>   -3.5185    1.0000 </r>
       <r>   -3.5185    1.0000 </r>
       <r>   -3.5185    1.0000 </r>
       <r>    3.5231    0.0000 </r>
       <r>    3.5231    0.0000 </r>
       <r>    9.8981    0.0000 </r>
       <r>    9.8981    0.0000 </r>
       <r>    9.8981    0.0000 </r>
       <r>    9.8981    0.0000 </r>
       <r>    9.9159    0.0000 </r>
       <r>    9.9159    0.0000 </r>
       <r>   12.3820    0.0000 </r>
       <r>   12.3820    0.0000 </r>
       <r>   12.3820    0.0000 </r>
       <r>   12.3820    0.0000 </r>
       <r>   13.6160    0.0000 </r>
       <r>   13.6160    0.0000 </r>
       <r>   16.1440    0.0000 </r>
       <r>   16.1440    0.0000 </r>
       <r>   16.1806    0.0000 </r>
       <r>   16.1806    0.0000 </r>
       <r>   16.1806    0.0000 </r>
       <r>   16.1806    0.0000 </r>
       <r>   18.2216    0.0000 </r>
       <r>   18.2216    0.0000 </r>
       <r>   26.3865    0.0000 </r>
       <r>   26.3865    0.0000 </r>
       <r>   26.8637    0.0000 </r>
       <r>   26.8637    0.0000 </r>
       <r>   26.8637    0.0000 </r>
       <r>   26.8637    0.0000 </r>
       <r>   27.6642    0.0000 </r>
       <r>   27.6642    0.0000 </r>
       <r>   27.6642    0.0000 </r>
       <r>   27.6642    0.0000 </r>
       <r>   27.7228    0.0000 </r>
       <r>   27.7228    0.0000 </r>
       <r>   30.6466    0.0000 </r>
       <r>   30.6466    0.0000 </r>
       <r>   30.6466    0.0000 </r>
       <r>   30.6466    0.0000 </r>
       <r>   31.5215    0.0000 </r>
       <r>   31.5215    0.0000 </r>
       <r>   31.5215    0.0000 </r>
       <r>   31.5215    0.0000 </r>
       <r>   31.5215    0.0000 </r>
       <r>   31.5215    0.0000 </r>
       <r>   33.7514    0.0000 </r>
       <r>   33.7514    0.0000 </r>
       <r>   40.7290    0.0000 </r>
       <r>   40.7290    0.0000 </r>
       <r>   40.7290    0.0000 </r>
       <r>   40.7290    0.0000 </r>
       <r>   41.6476    0.0000 </r>
       <r>   41.6476    0.0000 </r>
       <r>   41.7445    0.0000 </r>
       <r>   41.7445    0.0000 </r>
       <r>   41.7445    0.0000 </r>
       <r>   41.7445    0.0000 </r>
       <r>   42.7077    0.0000 </r>
       <r>   42.7077    0.0000 </r>
       <r>   43.6880    0.0000 </r>
       <r>   43.6880    0.0000 </r>
       <r>   43.6880    0.0000 </r>
       <r>   43.6880    0.0000 </r>
       <r>   43.7178    0.0000 </r>
       <r>   43.7178    0.0000 </r>
       <r>   44.5289    0.0000 </r>
       <r>   44.5289    0.0000 </r>
       <r>   44.6596    0.0000 </r>
       <r>   44.6596    0.0000 </r>
       <r>   44.6596    0.0000 </r>
       <r>   44.6596    0.0000 </r>
       <r>   47.2171    0.0000 </r>
       <r>   47.2171    0.0000 </r>
       <r>   47.2171    0.0000 </r>
       <r>   47.2171    0.0000 </r>
       <r>   47.2171    0.0000 </r>
       <r>   47.2171    0.0000 </r>
       <r>   47.4616    0.0000 </r>
       <r>   47.4616    0.0000 </r>
       <r>   47.4616    0.0000 </r>
       <r>   47.4616    0.0000 </r>
       <r>   47.4616    0.0000 </r>
       <r>   47.4616    0.0000 </r>
       <r>   48.6574    0.0000 </r>
       <r>   48.6574    0.0000 </r>
       <r>   49.8405    0.0000 </r>
       <r>   49.8405    0.0000 </r>
       <r>   49.8405    0.0000 </r>
       <r>   49.8405    0.0000 </r>
       <r>   49.8408    0.0000 </r>
       <r>   49.8408    0.0000 </r>
       <r>   50.5810    0.0000 </r>
       <r>   50.5810    0.0000 </r>
       <r>   50.5810    0.0000 </r>
       <r>   50.5810    0.0000 </r>
       <r>   53.6975    0.0000 </r>
       <r>   53.6975    0.0000 </r>
       <r>   53.7067    0.0000 </r>
       <r>   53.7067    0.0000 </r>
       <r>   53.7067    0.0000 </r>
       <r>   53.7067    0.0000 </r>
       <r>   53.7654    0.0000 </r>
       <r>   53.7654    0.0000 </r>
       <r>   54.1908    0.0000 </r>
       <r>   54.1908    0.0000 </r>
       <r>   54.1908    0.0000 </r>
       <r>   54.1908    0.0000 </r>
       <r>   54.1928    0.0000 </r>
       <r>   54.1928    0.0000 </r>
       <r>   54.4670    0.0000 </r>
       <r>   54.4670    0.0000 </r>
       <r>   67.8977    0.0000 </r>
       <r>   67.8977    0.0000 </r>
       <r>   67.8977    0.0000 </r>
       <r>   67.8977    0.0000 </r>
       <r>   68.5290    0.0000 </r>
       <r>   68.5290    0.0000 </r>
       <r>   68.6098    0.0000 </r>
       <r>   68.6098    0.0000 </r>
       <r>   68.6098    0.0000 </r>
       <r>   68.6098    0.0000 </r>
      </set>
      <set comment="kpoint 2">
       <r>  -18.2772    1.0000 </r>
       <r>  -18.2772    1.0000 </r>
       <r>   -4.3662    1.0000 </r>
       <r>   -4.3662    1.0000 </r>
       <r>   -3.7276    1.0000 </r>
       <r>   -3.7276    1.0000 </r>
       <r>   -3.5521    1.0000 </r>
       <r>   -3.5521    1.0000 </r>
       <r>    4.0818    0.0000 </r>
       <r>    4.0818    0.0000 </r>
       <r>    9.2125    0.0000 </r>
       <r>    9.2125    0.0000 </r>
       <r>   10.0920    0.0000 </r>
       <r>   10.0920    0.0000 </r>
       <r>   10.1069    0.0000 </r>
       <r>   10.1069    0.0000 </r>
       <r>   11.9282    0.0000 </r>
       <r>   11.9282    0.0000 </r>
       <r>   11.9368    0.0000 </r>
       <r>   11.9368    0.0000 </r>
       <r>   14.4424    0.0000 </r>
       <r>   14.4424    0.0000 </r>
       <r>   15.4644    0.0000 </r>
       <r>   15.4644    0.0000 </r>
       <r>   17.4205    0.0000 </r>
       <r>   17.4205    0.0000 </r>
       <r>   17.4449    0.0000 </r>
       <r>   17.4449    0.0000 </r>
       <r>   20.1764    0.0000 </r>
       <r>   20.1764    0.0000 </r>
       <r>   23.3456    0.0000 </r>
       <r>   23.3456    0.0000 </r>
       <r>   24.2508    0.0000 </r>
       <r>   24.2508    0.0000 </r>
       <r>   24.3749    0.0000 </r>
       <r>   24.3749    0.0000 </r>
       <r>   27.9786    0.0000 </r>
       <r>   27.9786    0.0000 </r>
       <r>   28.1094    0.0000 </r>
       <r>   28.1094    0.0000 </r>
       <r>   29.7640    0.0000 </r>
       <r>   29.7640    0.0000 </r>
       <r>   29.7740    0.0000 </r>
       <r>   29.7740    0.0000 </r>
       <r>   29.8915    0.0000 </r>
       <r>   29.8915    0.0000 </r>
       <r>   31.7080    0.0000 </r>
       <r>   31.7080    0.0000 </r>
       <r>   34.7353    0.0000 </r>
       <r>   34.7353    0.0000 </r>
       <r>   34.7631    0.0000 </r>
       <r>   34.7631    0.0000 </r>
       <r>   35.1647    0.0000 </r>
       <r>   35.1647    0.0000 </r>
       <r>   37.7600    0.0000 </r>
       <r>   37.7600    0.0000 </r>
       <r>   37.7924    0.0000 </r>
       <r>   37.7924    0.0000 </r>
       <r>   38.2981    0.0000 </r>
       <r>   38.2981    0.0000 </r>
       <r>   41.0062    0.0000 </r>
       <r>   41.0062    0.0000 </r>
       <r>   41.4765    0.0000 </r>
       <r>   41.4765    0.0000 </r>
       <r>   41.4923    0.0000 </r>
       <r>   41.4923    0.0000 </r>
       <r>   42.9453    0.0000 </r>
       <r>   42.9453    0.0000 </r>
       <r>   43.3111    0.0000 </r>
       <r>   43.3111    0.0000 </r>
       <r>   43.3260    0.0000 </r>
       <r>   43.3260    0.0000 </r>
       <r>   43.8822    0.0000 </r>
       <r>   43.8822    0.0000 </r>
       <r>   44.4849    0.0000 </r>
       <r>   44.4849    0.0000 </r>
       <r>   44.5274    0.0000 </r>
       <r>   44.5274    0.0000 </r>
       <r>   46.3223    0.0000 </r>
       <r>   46.3223    0.0000 </r>
       <r>   46.3655    0.0000 </r>
       <r>   46.3655    0.0000 </r>
       <r>   46.8793    0.0000 </r>
       <r>   46.8793    0.0000 </r>
       <r>   47.9841    0.0000 </r>
       <r>   47.9841    0.0000 </r>
       <r>   49.2497    0.0000 </r>
       <r>   49.2497    0.0000 </r>
       <r>   49.2518    0.0000 </r>
       <r>   49.2518    0.0000 </r>
       <r>   49.6418    0.0000 </r>
       <r>   49.6418    0.0000 </r>
       <r>   49.6493    0.0000 </r>
       <r>   49.6493    0.0000 </r>
       <r>   50.2992    0.0000 </r>
       <r>   50.2992    0.0000 </r>
       <r>   51.4416    0.0000 </r>
       <r>   51.4416    0.0000 </r>
       <r>   51.5040    0.0000 </r>
       <r>   51.5040    0.0000 </r>
       <r>   52.5495    0.0000 </r>
       <r>   52.5495    0.0000 </r>
       <r>   52.5524    0.0000 </r>
       <r>   52.5524    0.0000 </r>
       <r>   52.9324    0.0000 </r>
       <r>   52.9324    0.0000 </r>
       <r>   55.3663    0.0000 </r>
       <r>   55.3663    0.0000 </r>
       <r>   55.3665    0.0000 </r>
       <r>   55.3665    0.0000 </r>
       <r>   57.1210    0.0000 </r>
       <r>   57.1210    0.0000 </r>
       <r>   57.1410    0.0000 </r>
       <r>   57.1410    0.0000 </r>
       <r>   57.1418    0.0000 </r>
       <r>   57.1418    0.0000 </r>
       <r>   61.7705    0.0000 </r>
       <r>   61.7705    0.0000 </r>
       <r>   63.3516    0.0000 </r>
       <r>   63.3516    0.0000 </r>
       <r>   63.3987    0.0000 </r>
       <r>   63.3987    0.0000 </r>
       <r>   65.0309    0.0000 </r>
       <r>   65.0309    0.0000 </r>
       <r>   66.8177    0.0000 </r>
       <r>   66.8177    0.0000 </r>
       <r>   66.8313    0.0000 </r>
       <r>   66.8313    0.0000 </r>
      </set>
      <set comment="kpoint 3">
       <r>  -18.2023    1.0000 </r>
       <r>  -18.2023    1.0000 </r>
       <r>   -4.8237    1.0000 </r>
       <r>   -4.8237    1.0000 </r>
       <r>   -3.9667    1.0000 </r>
       <r>   -3.9667    1.0000 </r>
       <r>   -3.6255    1.0000 </r>
       <r>   -3.6255    1.0000 </r>
       <r>    5.2072    0.0000 </r>
       <r>    5.2072    0.0000 </r>
       <r>    8.5195    0.0000 </r>
       <r>    8.5195    0.0000 </r>
       <r>    9.9516    0.0000 </r>
       <r>    9.9516    0.0000 </r>
       <r>    9.9709    0.0000 </r>
       <r>    9.9709    0.0000 </r>
       <r>   12.3238    0.0000 </r>
       <r>   12.3238    0.0000 </r>
       <r>   12.3449    0.0000 </r>
       <r>   12.3449    0.0000 </r>
       <r>   13.5001    0.0000 </r>
       <r>   13.5001    0.0000 </r>
       <r>   18.0814    0.0000 </r>
       <r>   18.0814    0.0000 </r>
       <r>   19.3490    0.0000 </r>
       <r>   19.3490    0.0000 </r>
       <r>   20.0620    0.0000 </r>
       <r>   20.0620    0.0000 </r>
       <r>   20.1056    0.0000 </r>
       <r>   20.1056    0.0000 </r>
       <r>   20.7620    0.0000 </r>
       <r>   20.7620    0.0000 </r>
       <r>   20.8315    0.0000 </r>
       <r>   20.8315    0.0000 </r>
       <r>   24.1123    0.0000 </r>
       <r>   24.1123    0.0000 </r>
       <r>   28.0920    0.0000 </r>
       <r>   28.0920    0.0000 </r>
       <r>   28.2420    0.0000 </r>
       <r>   28.2420    0.0000 </r>
       <r>   29.8572    0.0000 </r>
       <r>   29.8572    0.0000 </r>
       <r>   29.8597    0.0000 </r>
       <r>   29.8597    0.0000 </r>
       <r>   30.0220    0.0000 </r>
       <r>   30.0220    0.0000 </r>
       <r>   32.1946    0.0000 </r>
       <r>   32.1946    0.0000 </r>
       <r>   33.2208    0.0000 </r>
       <r>   33.2208    0.0000 </r>
       <r>   33.2338    0.0000 </r>
       <r>   33.2338    0.0000 </r>
       <r>   33.5168    0.0000 </r>
       <r>   33.5168    0.0000 </r>
       <r>   37.0260    0.0000 </r>
       <r>   37.0260    0.0000 </r>
       <r>   38.7514    0.0000 </r>
       <r>   38.7514    0.0000 </r>
       <r>   38.7650    0.0000 </r>
       <r>   38.7650    0.0000 </r>
       <r>   40.0771    0.0000 </r>
       <r>   40.0771    0.0000 </r>
       <r>   40.0857    0.0000 </r>
       <r>   40.0857    0.0000 </r>
       <r>   40.2207    0.0000 </r>
       <r>   40.2207    0.0000 </r>
       <r>   41.1952    0.0000 </r>
       <r>   41.1952    0.0000 </r>
       <r>   41.6698    0.0000 </r>
       <r>   41.6698    0.0000 </r>
       <r>   41.7219    0.0000 </r>
       <r>   41.7219    0.0000 </r>
       <r>   42.3967    0.0000 </r>
       <r>   42.3967    0.0000 </r>
       <r>   42.7997    0.0000 </r>
       <r>   42.7997    0.0000 </r>
       <r>   44.9190    0.0000 </r>
       <r>   44.9190    0.0000 </r>
       <r>   44.9354    0.0000 </r>
       <r>   44.9354    0.0000 </r>
       <r>   46.9908    0.0000 </r>
       <r>   46.9908    0.0000 </r>
       <r>   47.0422    0.0000 </r>
       <r>   47.0422    0.0000 </r>
       <r>   48.6533    0.0000 </r>
       <r>   48.6533    0.0000 </r>
       <r>   49.7526    0.0000 </r>
       <r>   49.7526    0.0000 </r>
       <r>   49.7610    0.0000 </r>
       <r>   49.7610    0.0000 </r>
       <r>   51.0271    0.0000 </r>
       <r>   51.0271    0.0000 </r>
       <r>   53.4038    0.0000 </r>
       <r>   53.4038    0.0000 </r>
       <r>   53.4152    0.0000 </r>
       <r>   53.4152    0.0000 </r>
       <r>   54.6742    0.0000 </r>
       <r>   54.6742    0.0000 </r>
       <r>   55.3683    0.0000 </r>
       <r>   55.3683    0.0000 </r>
       <r>   55.3742    0.0000 </r>
       <r>   55.3742    0.0000 </r>
       <r>   56.1243    0.0000 </r>
       <r>   56.1243    0.0000 </r>
       <r>   58.1204    0.0000 </r>
       <r>   58.1204    0.0000 </r>
       <r>   58.5847    0.0000 </r>
       <r>   58.5847    0.0000 </r>
       <r>   58.6663    0.0000 </r>
       <r>   58.6663    0.0000 </r>
       <r>   60.4674    0.0000 </r>
       <r>   60.4674    0.0000 </r>
       <r>   60.4786    0.0000 </r>
       <r>   60.4786    0.0000 </r>
       <r>   60.5654    0.0000 </r>
       <r>   60.5654    0.0000 </r>
       <r>   60.7463    0.0000 </r>
       <r>   60.7463    0.0000 </r>
       <r>   60.7596    0.0000 </r>
       <r>   60.7596    0.0000 </r>
       <r>   61.2270    0.0000 </r>
       <r>   61.2270    0.0000 </r>
       <r>   62.5762    0.0000 </r>
       <r>   62.5762    0.0000 </r>
       <r>   62.5768    0.0000 </r>
       <r>   62.5768    0.0000 </r>
       <r>   63.0765    0.0000 </r>
       <r>   63.0765    0.0000 </r>
      </set>
      <set comment="kpoint 4">
       <r>  -18.1406    1.0000 </r>
       <r>  -18.1406    1.0000 </r>
       <r>   -5.2151    1.0000 </r>
       <r>   -5.2151    1.0000 </r>
       <r>   -4.0647    1.0000 </r>
       <r>   -4.0647    1.0000 </r>
       <r>   -3.6825    1.0000 </r>
       <r>   -3.6825    1.0000 </r>
       <r>    5.8257    0.0000 </r>
       <r>    5.8257    0.0000 </r>
       <r>    8.6416    0.0000 </r>
       <r>    8.6416    0.0000 </r>
       <r>    9.5621    0.0000 </r>
       <r>    9.5621    0.0000 </r>
       <r>    9.5804    0.0000 </r>
       <r>    9.5804    0.0000 </r>
       <r>   13.2836    0.0000 </r>
       <r>   13.2836    0.0000 </r>
       <r>   13.8960    0.0000 </r>
       <r>   13.8960    0.0000 </r>
       <r>   13.9175    0.0000 </r>
       <r>   13.9175    0.0000 </r>
       <r>   16.3860    0.0000 </r>
       <r>   16.3860    0.0000 </r>
       <r>   17.7354    0.0000 </r>
       <r>   17.7354    0.0000 </r>
       <r>   17.8232    0.0000 </r>
       <r>   17.8232    0.0000 </r>
       <r>   22.0660    0.0000 </r>
       <r>   22.0660    0.0000 </r>
       <r>   23.3984    0.0000 </r>
       <r>   23.3984    0.0000 </r>
       <r>   23.4239    0.0000 </r>
       <r>   23.4239    0.0000 </r>
       <r>   26.3162    0.0000 </r>
       <r>   26.3162    0.0000 </r>
       <r>   26.7108    0.0000 </r>
       <r>   26.7108    0.0000 </r>
       <r>   26.7953    0.0000 </r>
       <r>   26.7953    0.0000 </r>
       <r>   28.4087    0.0000 </r>
       <r>   28.4087    0.0000 </r>
       <r>   29.8836    0.0000 </r>
       <r>   29.8836    0.0000 </r>
       <r>   29.9942    0.0000 </r>
       <r>   29.9942    0.0000 </r>
       <r>   31.2326    0.0000 </r>
       <r>   31.2326    0.0000 </r>
       <r>   31.2643    0.0000 </r>
       <r>   31.2643    0.0000 </r>
       <r>   32.5216    0.0000 </r>
       <r>   32.5216    0.0000 </r>
       <r>   32.6918    0.0000 </r>
       <r>   32.6918    0.0000 </r>
       <r>   33.8760    0.0000 </r>
       <r>   33.8760    0.0000 </r>
       <r>   37.7108    0.0000 </r>
       <r>   37.7108    0.0000 </r>
       <r>   37.7181    0.0000 </r>
       <r>   37.7181    0.0000 </r>
       <r>   37.7253    0.0000 </r>
       <r>   37.7253    0.0000 </r>
       <r>   38.7018    0.0000 </r>
       <r>   38.7018    0.0000 </r>
       <r>   38.7023    0.0000 </r>
       <r>   38.7023    0.0000 </r>
       <r>   39.5925    0.0000 </r>
       <r>   39.5925    0.0000 </r>
       <r>   42.3944    0.0000 </r>
       <r>   42.3944    0.0000 </r>
       <r>   44.6850    0.0000 </r>
       <r>   44.6850    0.0000 </r>
       <r>   44.7034    0.0000 </r>
       <r>   44.7034    0.0000 </r>
       <r>   46.3886    0.0000 </r>
       <r>   46.3886    0.0000 </r>
       <r>   46.7337    0.0000 </r>
       <r>   46.7337    0.0000 </r>
       <r>   46.8037    0.0000 </r>
       <r>   46.8037    0.0000 </r>
       <r>   46.8557    0.0000 </r>
       <r>   46.8557    0.0000 </r>
       <r>   46.8767    0.0000 </r>
       <r>   46.8767    0.0000 </r>
       <r>   48.7401    0.0000 </r>
       <r>   48.7401    0.0000 </r>
       <r>   51.5665    0.0000 </r>
       <r>   51.5665    0.0000 </r>
       <r>   51.5788    0.0000 </r>
       <r>   51.5788    0.0000 </r>
       <r>   52.6284    0.0000 </r>
       <r>   52.6284    0.0000 </r>
       <r>   53.3532    0.0000 </r>
       <r>   53.3532    0.0000 </r>
       <r>   53.4382    0.0000 </r>
       <r>   53.4382    0.0000 </r>
       <r>   55.1365    0.0000 </r>
       <r>   55.1365    0.0000 </r>
       <r>   55.7381    0.0000 </r>
       <r>   55.7381    0.0000 </r>
       <r>   55.7483    0.0000 </r>
       <r>   55.7483    0.0000 </r>
       <r>   57.1720    0.0000 </r>
       <r>   57.1720    0.0000 </r>
       <r>   58.6438    0.0000 </r>
       <r>   58.6438    0.0000 </r>
       <r>   58.6663    0.0000 </r>
       <r>   58.6663    0.0000 </r>
       <r>   59.8792    0.0000 </r>
       <r>   59.8792    0.0000 </r>
       <r>   60.1112    0.0000 </r>
       <r>   60.1112    0.0000 </r>
       <r>   60.1176    0.0000 </r>
       <r>   60.1176    0.0000 </r>
       <r>   61.2752    0.0000 </r>
       <r>   61.2752    0.0000 </r>
       <r>   64.1037    0.0000 </r>
       <r>   64.1037    0.0000 </r>
       <r>   64.1169    0.0000 </r>
       <r>   64.1169    0.0000 </r>
       <r>   64.3155    0.0000 </r>
       <r>   64.3155    0.0000 </r>
       <r>   65.1954    0.0000 </r>
       <r>   65.1954    0.0000 </r>
       <r>   65.2972    0.0000 </r>
       <r>   65.2972    0.0000 </r>
       <r>   65.2974    0.0000 </r>
       <r>   65.2974    0.0000 </r>
      </set>
      <set comment="kpoint 5">
       <r>  -18.1406    1.0000 </r>
       <r>  -18.1406    1.0000 </r>
       <r>   -5.2151    1.0000 </r>
       <r>   -5.2151    1.0000 </r>
       <r>   -4.0647    1.0000 </r>
       <r>   -4.0647    1.0000 </r>
       <r>   -3.6825    1.0000 </r>
       <r>   -3.6825    1.0000 </r>
       <r>    5.8257    0.0000 </r>
       <r>    5.8257    0.0000 </r>
       <r>    8.6416    0.0000 </r>
       <r>    8.6416    0.0000 </r>
       <r>    9.5621    0.0000 </r>
       <r>    9.5621    0.0000 </r>
       <r>    9.5804    0.0000 </r>
       <r>    9.5804    0.0000 </r>
       <r>   13.2836    0.0000 </r>
       <r>   13.2836    0.0000 </r>
       <r>   13.8960    0.0000 </r>
       <r>   13.8960    0.0000 </r>
       <r>   13.9175    0.0000 </r>
       <r>   13.9175    0.0000 </r>
       <r>   16.3860    0.0000 </r>
       <r>   16.3860    0.0000 </r>
       <r>   17.7354    0.0000 </r>
       <r>   17.7354    0.0000 </r>
       <r>   17.8232    0.0000 </r>
       <r>   17.8232    0.0000 </r>
       <r>   22.0660    0.0000 </r>
       <r>   22.0660    0.0000 </r>
       <r>   23.3984    0.0000 </r>
       <r>   23.3984    0.0000 </r>
       <r>   23.4239    0.0000 </r>
       <r>   23.4239    0.0000 </r>
       <r>   26.3162    0.0000 </r>
       <r>   26.3162    0.0000 </r>
       <r>   26.7108    0.0000 </r>
       <r>   26.7108    0.0000 </r>
       <r>   26.7953    0.0000 </r>
       <r>   26.7953    0.0000 </r>
       <r>   28.4087    0.0000 </r>
       <r>   28.4087    0.0000 </r>
       <r>   29.8836    0.0000 </r>
       <r>   29.8836    0.0000 </r>
       <r>   29.9942    0.0000 </r>
       <r>   29.9942    0.0000 </r>
       <r>   31.2326    0.0000 </r>
       <r>   31.2326    0.0000 </r>
       <r>   31.2643    0.0000 </r>
       <r>   31.2643    0.0000 </r>
       <r>   32.5216    0.0000 </r>
       <r>   32.5216    0.0000 </r>
       <r>   32.6918    0.0000 </r>
       <r>   32.6918    0.0000 </r>
       <r>   33.8760    0.0000 </r>
       <r>   33.8760    0.0000 </r>
       <r>   37.7108    0.0000 </r>
       <r>   37.7108    0.0000 </r>
       <r>   37.7181    0.0000 </r>
       <r>   37.7181    0.0000 </r>
       <r>   37.7253    0.0000 </r>
       <r>   37.7253    0.0000 </r>
       <r>   38.7018    0.0000 </r>
       <r>   38.7018    0.0000 </r>
       <r>   38.7023    0.0000 </r>
       <r>   38.7023    0.0000 </r>
       <r>   39.5925    0.0000 </r>
       <r>   39.5925    0.0000 </r>
       <r>   42.3944    0.0000 </r>
       <r>   42.3944    0.0000 </r>
       <r>   44.6850    0.0000 </r>
       <r>   44.6850    0.0000 </r>
       <r>   44.7034    0.0000 </r>
       <r>   44.7034    0.0000 </r>
       <r>   46.3886    0.0000 </r>
       <r>   46.3886    0.0000 </r>
       <r>   46.7337    0.0000 </r>
       <r>   46.7337    0.0000 </r>
       <r>   46.8037    0.0000 </r>
       <r>   46.8037    0.0000 </r>
       <r>   46.8557    0.0000 </r>
       <r>   46.8557    0.0000 </r>
       <r>   46.8767    0.0000 </r>
       <r>   46.8767    0.0000 </r>
       <r>   48.7401    0.0000 </r>
       <r>   48.7401    0.0000 </r>
       <r>   51.5665    0.0000 </r>
       <r>   51.5665    0.0000 </r>
       <r>   51.5788    0.0000 </r>
       <r>   51.5788    0.0000 </r>
       <r>   52.6284    0.0000 </r>
       <r>   52.6284    0.0000 </r>
       <r>   53.3532    0.0000 </r>
       <r>   53.3532    0.0000 </r>
       <r>   53.4382    0.0000 </r>
       <r>   53.4382    0.0000 </r>
       <r>   55.1365    0.0000 </r>
       <r>   55.1365    0.0000 </r>
       <r>   55.7381    0.0000 </r>
       <r>   55.7381    0.0000 </r>
       <r>   55.7483    0.0000 </r>
       <r>   55.7483    0.0000 </r>
       <r>   57.1720    0.0000 </r>
       <r>   57.1720    0.0000 </r>
       <r>   58.6438    0.0000 </r>
       <r>   58.6438    0.0000 </r>
       <r>   58.6663    0.0000 </r>
       <r>   58.6663    0.0000 </r>
       <r>   59.8792    0.0000 </r>
       <r>   59.8792    0.0000 </r>
       <r>   60.1112    0.0000 </r>
       <r>   60.1112    0.0000 </r>
       <r>   60.1176    0.0000 </r>
       <r>   60.1176    0.0000 </r>
       <r>   61.2752    0.0000 </r>
       <r>   61.2752    0.0000 </r>
       <r>   64.1037    0.0000 </r>
       <r>   64.1037    0.0000 </r>
       <r>   64.1169    0.0000 </r>
       <r>   64.1169    0.0000 </r>
       <r>   64.3155    0.0000 </r>
       <r>   64.3155    0.0000 </r>
       <r>   65.1954    0.0000 </r>
       <r>   65.1954    0.0000 </r>
       <r>   65.2972    0.0000 </r>
       <r>   65.2972    0.0000 </r>
       <r>   65.2974    0.0000 </r>
       <r>   65.2974    0.0000 </r>
      </set>
      <set comment="kpoint 6">
       <r>  -18.2023    1.0000 </r>
       <r>  -18.2023    1.0000 </r>
       <r>   -4.8237    1.0000 </r>
       <r>   -4.8237    1.0000 </r>
       <r>   -3.9667    1.0000 </r>
       <r>   -3.9667    1.0000 </r>
       <r>   -3.6255    1.0000 </r>
       <r>   -3.6255    1.0000 </r>
       <r>    5.2072    0.0000 </r>
       <r>    5.2072    0.0000 </r>
       <r>    8.5195    0.0000 </r>
       <r>    8.5195    0.0000 </r>
       <r>    9.9516    0.0000 </r>
       <r>    9.9516    0.0000 </r>
       <r>    9.9709    0.0000 </r>
       <r>    9.9709    0.0000 </r>
       <r>   12.3238    0.0000 </r>
       <r>   12.3238    0.0000 </r>
       <r>   12.3449    0.0000 </r>
       <r>   12.3449    0.0000 </r>
       <r>   13.5001    0.0000 </r>
       <r>   13.5001    0.0000 </r>
       <r>   18.0814    0.0000 </r>
       <r>   18.0814    0.0000 </r>
       <r>   19.3490    0.0000 </r>
       <r>   19.3490    0.0000 </r>
       <r>   20.0620    0.0000 </r>
       <r>   20.0620    0.0000 </r>
       <r>   20.1056    0.0000 </r>
       <r>   20.1056    0.0000 </r>
       <r>   20.7620    0.0000 </r>
       <r>   20.7620    0.0000 </r>
       <r>   20.8315    0.0000 </r>
       <r>   20.8315    0.0000 </r>
       <r>   24.1123    0.0000 </r>
       <r>   24.1123    0.0000 </r>
       <r>   28.0920    0.0000 </r>
       <r>   28.0920    0.0000 </r>
       <r>   28.2420    0.0000 </r>
       <r>   28.2420    0.0000 </r>
       <r>   29.8572    0.0000 </r>
       <r>   29.8572    0.0000 </r>
       <r>   29.8597    0.0000 </r>
       <r>   29.8597    0.0000 </r>
       <r>   30.0220    0.0000 </r>
       <r>   30.0220    0.0000 </r>
       <r>   32.1946    0.0000 </r>
       <r>   32.1946    0.0000 </r>
       <r>   33.2208    0.0000 </r>
       <r>   33.2208    0.0000 </r>
       <r>   33.2338    0.0000 </r>
       <r>   33.2338    0.0000 </r>
       <r>   33.5168    0.0000 </r>
       <r>   33.5168    0.0000 </r>
       <r>   37.0260    0.0000 </r>
       <r>   37.0260    0.0000 </r>
       <r>   38.7514    0.0000 </r>
       <r>   38.7514    0.0000 </r>
       <r>   38.7650    0.0000 </r>
       <r>   38.7650    0.0000 </r>
       <r>   40.0771    0.0000 </r>
       <r>   40.0771    0.0000 </r>
       <r>   40.0857    0.0000 </r>
       <r>   40.0857    0.0000 </r>
       <r>   40.2207    0.0000 </r>
       <r>   40.2207    0.0000 </r>
       <r>   41.1952    0.0000 </r>
       <r>   41.1952    0.0000 </r>
       <r>   41.6698    0.0000 </r>
       <r>   41.6698    0.0000 </r>
       <r>   41.7219    0.0000 </r>
       <r>   41.7219    0.0000 </r>
       <r>   42.3967    0.0000 </r>
       <r>   42.3967    0.0000 </r>
       <r>   42.7997    0.0000 </r>
       <r>   42.7997    0.0000 </r>
       <r>   44.9190    0.0000 </r>
       <r>   44.9190    0.0000 </r>
       <r>   44.9354    0.0000 </r>
       <r>   44.9354    0.0000 </r>
       <r>   46.9908    0.0000 </r>
       <r>   46.9908    0.0000 </r>
       <r>   47.0422    0.0000 </r>
       <r>   47.0422    0.0000 </r>
       <r>   48.6533    0.0000 </r>
       <r>   48.6533    0.0000 </r>
       <r>   49.7526    0.0000 </r>
       <r>   49.7526    0.0000 </r>
       <r>   49.7610    0.0000 </r>
       <r>   49.7610    0.0000 </r>
       <r>   51.0271    0.0000 </r>
       <r>   51.0271    0.0000 </r>
       <r>   53.4038    0.0000 </r>
       <r>   53.4038    0.0000 </r>
       <r>   53.4152    0.0000 </r>
       <r>   53.4152    0.0000 </r>
       <r>   54.6742    0.0000 </r>
       <r>   54.6742    0.0000 </r>
       <r>   55.3683    0.0000 </r>
       <r>   55.3683    0.0000 </r>
       <r>   55.3742    0.0000 </r>
       <r>   55.3742    0.0000 </r>
       <r>   56.1243    0.0000 </r>
       <r>   56.1243    0.0000 </r>
       <r>   58.1204    0.0000 </r>
       <r>   58.1204    0.0000 </r>
       <r>   58.5847    0.0000 </r>
       <r>   58.5847    0.0000 </r>
       <r>   58.6663    0.0000 </r>
       <r>   58.6663    0.0000 </r>
[...]
       <r>    45.3922     0.0000     0.0000 </r>
       <r>    45.7118     0.0000     0.0000 </r>
       <r>    46.0313     0.0000     0.0000 </r>
       <r>    46.3508     0.0000     0.0000 </r>
       <r>    46.6703     0.0000     0.0000 </r>
       <r>    46.9899     0.0000     0.0000 </r>
       <r>    47.3094     0.0000     0.0000 </r>
       <r>    47.6289     0.0000     0.0000 </r>
       <r>    47.9484     0.0000     0.0000 </r>
       <r>    48.2680     0.0000     0.0000 </r>
       <r>    48.5875     0.0000     0.0000 </r>
       <r>    48.9070     0.0000     0.0000 </r>
       <r>    49.2266     0.0000     0.0000 </r>
       <r>    49.5461     0.0000     0.0000 </r>
       <r>    49.8656     0.0000     0.0000 </r>
       <r>    50.1851     0.0000     0.0000 </r>
       <r>    50.5047     0.0000     0.0000 </r>
       <r>    50.8242     0.0000     0.0000 </r>
       <r>    51.1437     0.0000     0.0000 </r>
       <r>    51.4632     0.0000     0.0000 </r>
       <r>    51.7828     0.0000     0.0000 </r>
       <r>    52.1023     0.0000     0.0000 </r>
       <r>    52.4218     0.0000     0.0000 </r>
       <r>    52.7414     0.0000     0.0000 </r>
       <r>    53.0609     0.0000     0.0000 </r>
       <r>    53.3804     0.0000     0.0000 </r>
       <r>    53.6999     0.0000     0.0000 </r>
       <r>    54.0195     0.0000     0.0000 </r>
       <r>    54.3390     0.0000     0.0000 </r>
       <r>    54.6585     0.0000     0.0000 </r>
       <r>    54.9780     0.0000     0.0000 </r>
       <r>    55.2976     0.0000     0.0000 </r>
       <r>    55.6171     0.0000     0.0000 </r>
       <r>    55.9366     0.0000     0.0000 </r>
       <r>    56.2561     0.0000     0.0000 </r>
       <r>    56.5757     0.0000     0.0000 </r>
       <r>    56.8952     0.0000     0.0000 </r>
       <r>    57.2147     0.0000     0.0000 </r>
       <r>    57.5343     0.0000     0.0000 </r>
       <r>    57.8538     0.0000     0.0000 </r>
       <r>    58.1733     0.0000     0.0000 </r>
       <r>    58.4928     0.0000     0.0000 </r>
       <r>    58.8124     0.0000     0.0000 </r>
       <r>    59.1319     0.0000     0.0000 </r>
       <r>    59.4514     0.0000     0.0000 </r>
       <r>    59.7709     0.0000     0.0000 </r>
       <r>    60.0905     0.0000     0.0000 </r>
       <r>    60.4100     0.0000     0.0000 </r>
       <r>    60.7295     0.0000     0.0000 </r>
       <r>    61.0491     0.0000     0.0000 </r>
       <r>    61.3686     0.0000     0.0000 </r>
       <r>    61.6881     0.0000     0.0000 </r>
       <r>    62.0076     0.0000     0.0000 </r>
       <r>    62.3272     0.0000     0.0000 </r>
       <r>    62.6467     0.0000     0.0000 </r>
       <r>    62.9662     0.0000     0.0000 </r>
       <r>    63.2857     0.0000     0.0000 </r>
       <r>    63.6053     0.0000     0.0000 </r>
       <r>    63.9248     0.0000     0.0000 </r>
       <r>    64.2443     0.0000     0.0000 </r>
       <r>    64.5638     0.0000     0.0000 </r>
       <r>    64.8834     0.0000     0.0000 </r>
       <r>    65.2029     0.0000     0.0000 </r>
       <r>    65.5224     0.0000     0.0000 </r>
       <r>    65.8420     0.0000     0.0000 </r>
       <r>    66.1615     0.0000     0.0000 </r>
       <r>    66.4810     0.0000     0.0000 </r>
       <r>    66.8005     0.0000     0.0000 </r>
       <r>    67.1201     0.0000     0.0000 </r>
       <r>    67.4396     0.0000     0.0000 </r>
       <r>    67.7591     0.0000     0.0000 </r>
       <r>    68.0786     0.0000     0.0000 </r>
       <r>    68.3982     0.0000     0.0000 </r>
       <r>    68.7177     0.0000     0.0000 </r>
       <r>    69.0372     0.0000     0.0000 </r>
       <r>    69.3568     0.0000     0.0000 </r>
       <r>    69.6763     0.0000     0.0000 </r>
       <r>    69.9958     0.0000     0.0000 </r>
       <r>    70.3153     0.0000     0.0000 </r>
       <r>    70.6349     0.0000     0.0000 </r>
       <r>    70.9544     0.0000     0.0000 </r>
       <r>    71.2739     0.0000     0.0000 </r>
       <r>    71.5934     0.0000     0.0000 </r>
       <r>    71.9130     0.0000     0.0000 </r>
       <r>    72.2325     0.0000     0.0000 </r>
       <r>    72.5520     0.0000     0.0000 </r>
       <r>    72.8716     0.0000     0.0000 </r>
       <r>    73.1911     0.0000     0.0000 </r>
      </set>
      <set comment="spin 4">
       <r>   -22.6670     0.0000     0.0000 </r>
       <r>   -22.3475     0.0000     0.0000 </r>
       <r>   -22.0280     0.0000     0.0000 </r>
       <r>   -21.7084     0.0000     0.0000 </r>
       <r>   -21.3889     0.0000     0.0000 </r>
       <r>   -21.0694     0.0000     0.0000 </r>
       <r>   -20.7499     0.0000     0.0000 </r>
       <r>   -20.4303     0.0000     0.0000 </r>
       <r>   -20.1108     0.0000     0.0000 </r>
       <r>   -19.7913     0.0000     0.0000 </r>
       <r>   -19.4717     0.0000     0.0000 </r>
       <r>   -19.1522     0.0000     0.0000 </r>
       <r>   -18.8327     0.0000     0.0000 </r>
       <r>   -18.5132     0.0000     0.0000 </r>
       <r>   -18.1936     0.0000     0.0000 </r>
       <r>   -17.8741     0.0000     0.0000 </r>
       <r>   -17.5546     0.0000     0.0000 </r>
       <r>   -17.2351     0.0000     0.0000 </r>
       <r>   -16.9155     0.0000     0.0000 </r>
       <r>   -16.5960     0.0000     0.0000 </r>
       <r>   -16.2765     0.0000     0.0000 </r>
       <r>   -15.9570     0.0000     0.0000 </r>
       <r>   -15.6374     0.0000     0.0000 </r>
       <r>   -15.3179     0.0000     0.0000 </r>
       <r>   -14.9984     0.0000     0.0000 </r>
       <r>   -14.6788     0.0000     0.0000 </r>
       <r>   -14.3593     0.0000     0.0000 </r>
       <r>   -14.0398     0.0000     0.0000 </r>
       <r>   -13.7203     0.0000     0.0000 </r>
       <r>   -13.4007     0.0000     0.0000 </r>
       <r>   -13.0812     0.0000     0.0000 </r>
       <r>   -12.7617     0.0000     0.0000 </r>
       <r>   -12.4422     0.0000     0.0000 </r>
       <r>   -12.1226     0.0000     0.0000 </r>
       <r>   -11.8031     0.0000     0.0000 </r>
       <r>   -11.4836     0.0000     0.0000 </r>
       <r>   -11.1640     0.0000     0.0000 </r>
       <r>   -10.8445     0.0000     0.0000 </r>
       <r>   -10.5250     0.0000     0.0000 </r>
       <r>   -10.2055     0.0000     0.0000 </r>
       <r>    -9.8859     0.0000     0.0000 </r>
       <r>    -9.5664     0.0000     0.0000 </r>
       <r>    -9.2469     0.0000     0.0000 </r>
       <r>    -8.9274     0.0000     0.0000 </r>
       <r>    -8.6078     0.0000     0.0000 </r>
       <r>    -8.2883     0.0000     0.0000 </r>
       <r>    -7.9688     0.0000     0.0000 </r>
       <r>    -7.6493     0.0000     0.0000 </r>
       <r>    -7.3297     0.0000     0.0000 </r>
       <r>    -7.0102     0.0000     0.0000 </r>
       <r>    -6.6907     0.0000     0.0000 </r>
       <r>    -6.3711     0.0000     0.0000 </r>
       <r>    -6.0516     0.0000     0.0000 </r>
       <r>    -5.7321     0.0000     0.0000 </r>
       <r>    -5.4126     0.0000     0.0000 </r>
       <r>    -5.0930     0.0000     0.0000 </r>
       <r>    -4.7735     0.0000     0.0000 </r>
       <r>    -4.4540     0.0000     0.0000 </r>
       <r>    -4.1345     0.0000     0.0000 </r>
       <r>    -3.8149     0.0000     0.0000 </r>
       <r>    -3.4954     0.0000     0.0000 </r>
       <r>    -3.1759     0.0000     0.0000 </r>
       <r>    -2.8563     0.0000     0.0000 </r>
       <r>    -2.5368     0.0000     0.0000 </r>
       <r>    -2.2173     0.0000     0.0000 </r>
       <r>    -1.8978     0.0000     0.0000 </r>
       <r>    -1.5782     0.0000     0.0000 </r>
       <r>    -1.2587     0.0000     0.0000 </r>
       <r>    -0.9392     0.0000     0.0000 </r>
       <r>    -0.6197     0.0000     0.0000 </r>
       <r>    -0.3001     0.0000     0.0000 </r>
       <r>     0.0194     0.0000     0.0000 </r>
       <r>     0.3389     0.0000     0.0000 </r>
       <r>     0.6585     0.0000     0.0000 </r>
       <r>     0.9780     0.0000     0.0000 </r>
       <r>     1.2975     0.0000     0.0000 </r>
       <r>     1.6170     0.0000     0.0000 </r>
       <r>     1.9366     0.0000     0.0000 </r>
       <r>     2.2561     0.0000     0.0000 </r>
       <r>     2.5756     0.0000     0.0000 </r>
       <r>     2.8951     0.0000     0.0000 </r>
       <r>     3.2147     0.0000     0.0000 </r>
       <r>     3.5342     0.0000     0.0000 </r>
       <r>     3.8537     0.0000     0.0000 </r>
       <r>     4.1732     0.0000     0.0000 </r>
       <r>     4.4928     0.0000     0.0000 </r>
       <r>     4.8123     0.0000     0.0000 </r>
       <r>     5.1318     0.0000     0.0000 </r>
       <r>     5.4514     0.0000     0.0000 </r>
       <r>     5.7709     0.0000     0.0000 </r>
       <r>     6.0904     0.0000     0.0000 </r>
       <r>     6.4099     0.0000     0.0000 </r>
       <r>     6.7295     0.0000     0.0000 </r>
       <r>     7.0490     0.0000     0.0000 </r>
       <r>     7.3685     0.0000     0.0000 </r>
       <r>     7.6880     0.0000     0.0000 </r>
       <r>     8.0076     0.0000     0.0000 </r>
       <r>     8.3271     0.0000     0.0000 </r>
       <r>     8.6466     0.0000     0.0000 </r>
       <r>     8.9662     0.0000     0.0000 </r>
       <r>     9.2857     0.0000     0.0000 </r>
       <r>     9.6052     0.0000     0.0000 </r>
       <r>     9.9247     0.0000     0.0000 </r>
       <r>    10.2443     0.0000     0.0000 </r>
       <r>    10.5638     0.0000     0.0000 </r>
       <r>    10.8833     0.0000     0.0000 </r>
       <r>    11.2028     0.0000     0.0000 </r>
       <r>    11.5224     0.0000     0.0000 </r>
       <r>    11.8419     0.0000     0.0000 </r>
       <r>    12.1614     0.0000     0.0000 </r>
       <r>    12.4809     0.0000     0.0000 </r>
       <r>    12.8005     0.0000     0.0000 </r>
       <r>    13.1200     0.0000     0.0000 </r>
       <r>    13.4395     0.0000     0.0000 </r>
       <r>    13.7591     0.0000     0.0000 </r>
       <r>    14.0786     0.0000     0.0000 </r>
       <r>    14.3981     0.0000     0.0000 </r>
       <r>    14.7176     0.0000     0.0000 </r>
       <r>    15.0372     0.0000     0.0000 </r>
       <r>    15.3567     0.0000     0.0000 </r>
       <r>    15.6762     0.0000     0.0000 </r>
       <r>    15.9957     0.0000     0.0000 </r>
       <r>    16.3153     0.0000     0.0000 </r>
       <r>    16.6348     0.0000     0.0000 </r>
       <r>    16.9543     0.0000     0.0000 </r>
       <r>    17.2739     0.0000     0.0000 </r>
       <r>    17.5934     0.0000     0.0000 </r>
       <r>    17.9129     0.0000     0.0000 </r>
       <r>    18.2324     0.0000     0.0000 </r>
       <r>    18.5520     0.0000     0.0000 </r>
       <r>    18.8715     0.0000     0.0000 </r>
       <r>    19.1910     0.0000     0.0000 </r>
       <r>    19.5105     0.0000     0.0000 </r>
       <r>    19.8301     0.0000     0.0000 </r>
       <r>    20.1496     0.0000     0.0000 </r>
       <r>    20.4691     0.0000     0.0000 </r>
       <r>    20.7887     0.0000     0.0000 </r>
       <r>    21.1082     0.0000     0.0000 </r>
       <r>    21.4277     0.0000     0.0000 </r>
       <r>    21.7472     0.0000     0.0000 </r>
       <r>    22.0668     0.0000     0.0000 </r>
       <r>    22.3863     0.0000     0.0000 </r>
       <r>    22.7058     0.0000     0.0000 </r>
       <r>    23.0253     0.0000     0.0000 </r>
       <r>    23.3449     0.0000     0.0000 </r>
       <r>    23.6644     0.0000     0.0000 </r>
       <r>    23.9839     0.0000     0.0000 </r>
       <r>    24.3034     0.0000     0.0000 </r>
       <r>    24.6230     0.0000     0.0000 </r>
       <r>    24.9425     0.0000     0.0000 </r>
       <r>    25.2620     0.0000     0.0000 </r>
       <r>    25.5816     0.0000     0.0000 </r>
       <r>    25.9011     0.0000     0.0000 </r>
       <r>    26.2206     0.0000     0.0000 </r>
       <r>    26.5401     0.0000     0.0000 </r>
       <r>    26.8597     0.0000     0.0000 </r>
       <r>    27.1792     0.0000     0.0000 </r>
       <r>    27.4987     0.0000     0.0000 </r>
       <r>    27.8182     0.0000     0.0000 </r>
       <r>    28.1378     0.0000     0.0000 </r>
       <r>    28.4573     0.0000     0.0000 </r>
       <r>    28.7768     0.0000     0.0000 </r>
       <r>    29.0964     0.0000     0.0000 </r>
       <r>    29.4159     0.0000     0.0000 </r>
       <r>    29.7354     0.0000     0.0000 </r>
       <r>    30.0549     0.0000     0.0000 </r>
       <r>    30.3745     0.0000     0.0000 </r>
       <r>    30.6940     0.0000     0.0000 </r>
       <r>    31.0135     0.0000     0.0000 </r>
       <r>    31.3330     0.0000     0.0000 </r>
       <r>    31.6526     0.0000     0.0000 </r>
       <r>    31.9721     0.0000     0.0000 </r>
       <r>    32.2916     0.0000     0.0000 </r>
       <r>    32.6111     0.0000     0.0000 </r>
       <r>    32.9307     0.0000     0.0000 </r>
       <r>    33.2502     0.0000     0.0000 </r>
       <r>    33.5697     0.0000     0.0000 </r>
       <r>    33.8893     0.0000     0.0000 </r>
       <r>    34.2088     0.0000     0.0000 </r>
       <r>    34.5283     0.0000     0.0000 </r>
       <r>    34.8478     0.0000     0.0000 </r>
       <r>    35.1674     0.0000     0.0000 </r>
       <r>    35.4869     0.0000     0.0000 </r>
       <r>    35.8064     0.0000     0.0000 </r>
       <r>    36.1259     0.0000     0.0000 </r>
       <r>    36.4455     0.0000     0.0000 </r>
       <r>    36.7650     0.0000     0.0000 </r>
       <r>    37.0845     0.0000     0.0000 </r>
       <r>    37.4041     0.0000     0.0000 </r>
       <r>    37.7236     0.0000     0.0000 </r>
       <r>    38.0431     0.0000     0.0000 </r>
       <r>    38.3626     0.0000     0.0000 </r>
       <r>    38.6822     0.0000     0.0000 </r>
       <r>    39.0017     0.0000     0.0000 </r>
       <r>    39.3212     0.0000     0.0000 </r>
       <r>    39.6407     0.0000     0.0000 </r>
       <r>    39.9603     0.0000     0.0000 </r>
       <r>    40.2798     0.0000     0.0000 </r>
       <r>    40.5993     0.0000     0.0000 </r>
       <r>    40.9189     0.0000     0.0000 </r>
       <r>    41.2384     0.0000     0.0000 </r>
       <r>    41.5579     0.0000     0.0000 </r>
       <r>    41.8774     0.0000     0.0000 </r>
       <r>    42.1970     0.0000     0.0000 </r>
       <r>    42.5165     0.0000     0.0000 </r>
       <r>    42.8360     0.0000     0.0000 </r>
       <r>    43.1555     0.0000     0.0000 </r>
       <r>    43.4751     0.0000     0.0000 </r>
       <r>    43.7946     0.0000     0.0000 </r>
       <r>    44.1141     0.0000     0.0000 </r>
       <r>    44.4336     0.0000     0.0000 </r>
       <r>    44.7532     0.0000     0.0000 </r>
       <r>    45.0727     0.0000     0.0000 </r>
       <r>    45.3922     0.0000     0.0000 </r>
       <r>    45.7118     0.0000     0.0000 </r>
       <r>    46.0313     0.0000     0.0000 </r>
       <r>    46.3508     0.0000     0.0000 </r>
       <r>    46.6703     0.0000     0.0000 </r>
       <r>    46.9899     0.0000     0.0000 </r>
       <r>    47.3094     0.0000     0.0000 </r>
       <r>    47.6289     0.0000     0.0000 </r>
       <r>    47.9484     0.0000     0.0000 </r>
       <r>    48.2680     0.0000     0.0000 </r>
       <r>    48.5875     0.0000     0.0000 </r>
       <r>    48.9070     0.0000     0.0000 </r>
       <r>    49.2266     0.0000     0.0000 </r>
       <r>    49.5461     0.0000     0.0000 </r>
       <r>    49.8656     0.0000     0.0000 </r>
       <r>    50.1851     0.0000     0.0000 </r>
       <r>    50.5047     0.0000     0.0000 </r>
       <r>    50.8242     0.0000     0.0000 </r>
       <r>    51.1437     0.0000     0.0000 </r>
       <r>    51.4632     0.0000     0.0000 </r>
       <r>    51.7828     0.0000     0.0000 </r>
       <r>    52.1023     0.0000     0.0000 </r>
       <r>    52.4218     0.0000     0.0000 </r>
       <r>    52.7414     0.0000     0.0000 </r>
       <r>    53.0609     0.0000     0.0000 </r>
       <r>    53.3804     0.0000     0.0000 </r>
       <r>    53.6999     0.0000     0.0000 </r>
       <r>    54.0195     0.0000     0.0000 </r>
       <r>    54.3390     0.0000     0.0000 </r>
       <r>    54.6585     0.0000     0.0000 </r>
       <r>    54.9780     0.0000     0.0000 </r>
       <r>    55.2976     0.0000     0.0000 </r>
       <r>    55.6171     0.0000     0.0000 </r>
       <r>    55.9366     0.0000     0.0000 </r>
       <r>    56.2561     0.0000     0.0000 </r>
       <r>    56.5757     0.0000     0.0000 </r>
       <r>    56.8952     0.0000     0.0000 </r>
       <r>    57.2147     0.0000     0.0000 </r>
       <r>    57.5343     0.0000     0.0000 </r>
       <r>    57.8538     0.0000     0.0000 </r>
       <r>    58.1733     0.0000     0.0000 </r>
       <r>    58.4928     0.0000     0.0000 </r>
       <r>    58.8124     0.0000     0.0000 </r>
       <r>    59.1319     0.0000     0.0000 </r>
       <r>    59.4514     0.0000     0.0000 </r>
       <r>    59.7709     0.0000     0.0000 </r>
       <r>    60.0905     0.0000     0.0000 </r>
       <r>    60.4100     0.0000     0.0000 </r>
       <r>    60.7295     0.0000     0.0000 </r>
       <r>    61.0491     0.0000     0.0000 </r>
       <r>    61.3686     0.0000     0.0000 </r>
       <r>    61.6881     0.0000     0.0000 </r>
       <r>    62.0076     0.0000     0.0000 </r>
       <r>    62.3272     0.0000     0.0000 </r>
       <r>    62.6467     0.0000     0.0000 </r>
       <r>    62.9662     0.0000     0.0000 </r>
       <r>    63.2857     0.0000     0.0000 </r>
       <r>    63.6053     0.0000     0.0000 </r>
       <r>    63.9248     0.0000     0.0000 </r>
       <r>    64.2443     0.0000     0.0000 </r>
       <r>    64.5638     0.0000     0.0000 </r>
       <r>    64.8834     0.0000     0.0000 </r>
       <r>    65.2029     0.0000     0.0000 </r>
       <r>    65.5224     0.0000     0.0000 </r>
       <r>    65.8420     0.0000     0.0000 </r>
       <r>    66.1615     0.0000     0.0000 </r>
       <r>    66.4810     0.0000     0.0000 </r>
       <r>    66.8005     0.0000     0.0000 </r>
       <r>    67.1201     0.0000     0.0000 </r>
       <r>    67.4396     0.0000     0.0000 </r>
       <r>    67.7591     0.0000     0.0000 </r>
       <r>    68.0786     0.0000     0.0000 </r>
       <r>    68.3982     0.0000     0.0000 </r>
       <r>    68.7177     0.0000     0.0000 </r>
       <r>    69.0372     0.0000     0.0000 </r>
       <r>    69.3568     0.0000     0.0000 </r>
       <r>    69.6763     0.0000     0.0000 </r>
       <r>    69.9958     0.0000     0.0000 </r>
       <r>    70.3153     0.0000     0.0000 </r>
       <r>    70.6349     0.0000     0.0000 </r>
       <r>    70.9544     0.0000     0.0000 </r>
       <r>    71.2739     0.0000     0.0000 </r>
       <r>    71.5934     0.0000     0.0000 </r>
       <r>    71.9130     0.0000     0.0000 </r>
       <r>    72.2325     0.0000     0.0000 </r>
       <r>    72.5520     0.0000     0.0000 </r>
       <r>    72.8716     0.0000     0.0000 </r>
       <r>    73.1911     0.0000     0.0000 </r>
      </set>
     </set>
    </array>
   </total>
  </dos>
 </calculation>
 <structure name="finalpos" >
  <crystal>
   <varray name="basis" >
    <v>       4.00933418       0.00000000       0.00000000 </v>
    <v>       2.00466709       3.47218525      -0.00000000 </v>
    <v>       2.00466709       1.15739508       3.27360765 </v>
   </varray>
   <i name="volume">     45.57238633 </i>
   <varray name="rec_basis" >
    <v>       0.24941797      -0.14400153      -0.10182446 </v>
    <v>       0.00000000       0.28800307      -0.10182446 </v>
    <v>      -0.00000000       0.00000000       0.30547338 </v>
   </varray>
  </crystal>
  <varray name="positions" >
   <v>       0.00000000       0.00000000       0.00000000 </v>
  </varray>
  <varray name="velocities" >
   <v>       0.00000000       0.00000000       0.00000000 </v>
  </varray>
 </structure>
</modeling>
