    1    1  999    1
  0.1859609E+02  0.2973803E-09  0.2973803E-09  0.2973803E-09  0.1000000E-15
  1.000000000000000E-004
  CAR 
 Cn_FCC                                  
      8     84      8
 
  0.0000000E+00  0.0000000E+00  0.0000000E+00  0.4551661E-03
    1      -35.699493   1.000000
    2      -10.346145   0.650842
    3      -10.346131   0.650736
    4      -10.346131   0.650734
    5        3.120319   0.000000
    6       25.143882   0.000000
    7       25.143887   0.000000
    8       25.143899   0.000000
 
  0.7692308E-01  0.6938894E-17  0.0000000E+00  0.3641329E-02
    1      -35.684195   1.000000
    2      -10.444980   1.034958
    3      -10.354826   0.718271
    4      -10.354814   0.718181
    5        3.354412   0.000000
    6       23.158700   0.000000
    7       25.137895   0.000000
    8       25.137904   0.000000
 
  0.1538462E+00 -0.1387779E-16  0.2081668E-16  0.3641329E-02
    1      -35.641539   1.000000
    2      -10.708356   1.000001
    3      -10.378629   0.873571
    4      -10.378617   0.873506
    5        4.024374   0.000000
    6       20.465589   0.000000
    7       25.017248   0.000000
    8       25.017252   0.000000
 
  0.2307692E+00  0.0000000E+00  0.2775558E-16  0.3641329E-02
    1      -35.580886   1.000000
    2      -11.059900   1.000000
    3      -10.411908   0.999396
    4      -10.411896   0.999370
    5        5.052027   0.000000
    6       17.888349   0.000000
    7       24.625623   0.000000
    8       24.625639   0.000000
 
  0.3076923E+00  0.0000000E+00  0.0000000E+00  0.3641329E-02
    1      -35.515770   1.000000
    2      -11.410584   1.000000
    3      -10.446910   1.035253
    4      -10.446898   1.035252
    5        6.350861   0.000000
    6       15.509169   0.000000
    7       24.065187   0.000000
    8       24.065211   0.000000
 
  0.3846154E+00  0.0000000E+00  0.0000000E+00  0.3641329E-02
    1      -35.461215   1.000000
    2      -11.686832   1.000000
    3      -10.475678   1.028671
    4      -10.475666   1.028676
    5        7.851366   0.000000
    6       13.337489   0.000000
    7       23.574960   0.000000
    8       23.574987   0.000000
 
  0.4615385E+00  0.0000000E+00  0.5551115E-16  0.3641329E-02
    1      -35.430201   1.000000
    2      -11.838171   1.000000
    3      -10.491954   1.021245
    4      -10.491942   1.021251
    5        9.504840   0.000000
    6       11.364890   0.000000
    7       23.301629   0.000000
    8       23.301657   0.000000
 
  0.7692308E-01  0.7692308E-01  0.6938894E-17  0.2730997E-02
    1      -35.679115   1.000000
    2      -10.447791   1.035343
    3      -10.372395   0.837821
    4      -10.372386   0.837768
    5        3.431140   0.000000
    6       23.208546   0.000000
    7       24.757471   0.000000
    8       24.757479   0.000000
 
  0.1538462E+00  0.7692308E-01  0.0000000E+00  0.1092399E-01
    1      -35.645616   1.000000
    2      -10.642930   1.000040
    3      -10.404160   0.979582
    4      -10.389258   0.925612
    5        3.952036   0.000000
    6       21.193303   0.000000
    7       24.439525   0.000000
    8       24.508040   0.000000
 
  0.2307692E+00  0.7692308E-01  0.2775558E-16  0.1092399E-01
    1      -35.591016   1.000000
    2      -10.956642   1.000000
    3      -10.442512   1.034374
    4      -10.416383   1.008509
    5        4.854154   0.000000
    6       18.734179   0.000000
    7       23.631130   0.000000
    8       24.100967   0.000000
 
  0.3076923E+00  0.7692308E-01  0.0000000E+00  0.1092399E-01
    1      -35.527424   1.000000
    2      -11.297270   1.000000
    3      -10.478566   1.027395
    4      -10.456115   1.035003
    5        6.054102   0.000000
    6       16.347956   0.000000
    7       22.712354   0.000000
    8       23.725780   0.000000
 
  0.3846154E+00  0.7692308E-01  0.2775558E-16  0.1092399E-01
    1      -35.469316   1.000000
    2      -11.588449   1.000000
    3      -10.504119   1.015964
    4      -10.498858   1.018172
    5        7.476851   0.000000
    6       14.137751   0.000000
    7       22.037225   0.000000
    8       23.392642   0.000000
 
  0.4615385E+00  0.7692308E-01  0.5551115E-16  0.1092399E-01
    1      -35.430429   1.000000
    2      -11.774562   1.000000
    3      -10.535461   1.006234
    4      -10.513883   1.012272
    5        9.066522   0.000000
    6       12.121500   0.000000
    7       21.617300   0.000000
    8       23.209910   0.000000
 
 -0.4615385E+00  0.7692308E-01 -0.5551115E-16  0.1092399E-01
    1      -35.420054   1.000000
    2      -11.822666   1.000000
    3      -10.556919   1.002817
    4      -10.505271   1.015499
    5       10.147459   0.000000
    6       10.939125   0.000000
    7       21.430625   0.000000
    8       23.261854   0.000000
 
 -0.3846154E+00  0.7692308E-01 -0.1387779E-16  0.1092399E-01
    1      -35.440727   1.000000
    2      -11.724936   1.000000
    3      -10.558197   1.002678
    4      -10.480391   1.026571
    5        8.522825   0.000000
    6       12.776341   0.000000
    7       21.465874   0.000000
    8       23.597263   0.000000
 
 -0.3076923E+00  0.7692308E-01 -0.1387779E-16  0.1092399E-01
    1      -35.487457   1.000000
    2      -11.498935   1.000000
    3      -10.538634   1.005584
    4      -10.444898   1.034943
    5        6.983831   0.000000
    6       14.860067   0.000000
    7       21.727251   0.000000
    8       24.228859   0.000000
 
 -0.2307692E+00  0.7692308E-01 -0.2081668E-16  0.1092399E-01
    1      -35.549042   1.000000
    2      -11.185964   1.000000
    3      -10.501423   1.017078
    4      -10.406583   0.986352
    5        5.627793   0.000000
    6       17.126857   0.000000
    7       22.223345   0.000000
    8       25.099604   0.000000
 
 -0.1538462E+00  0.7692308E-01 -0.6938894E-17  0.1092399E-01
    1      -35.611152   1.000000
    2      -10.851101   1.000000
    3      -10.453147   1.035351
    4      -10.374298   0.849132
    5        4.517071   0.000000
    6       19.514747   0.000000
    7       22.961577   0.000000
    8       25.809660   0.000000
 
 -0.7692308E-01  0.7692308E-01 -0.3455957E-17  0.5461994E-02
    1      -35.659789   1.000000
    2      -10.578873   1.001113
    3      -10.400177   0.967268
    4      -10.355716   0.724917
    5        3.732353   0.000000
    6       21.740886   0.000000
    7       24.009347   0.000000
    8       25.607186   0.000000
 
  0.1538462E+00  0.1538462E+00  0.0000000E+00  0.2730997E-02
    1      -35.622444   1.000000
    2      -10.708312   1.000001
    3      -10.444539   1.034871
    4      -10.444530   1.034870
    5        4.306864   0.000000
    6       20.951561   0.000000
    7       24.020688   0.000000
    8       24.020694   0.000000
 
  0.2307692E+00  0.1538462E+00  0.2775558E-16  0.1092399E-01
    1      -35.577192   1.000000
    2      -10.930924   1.000000
    3      -10.491074   1.021647
    4      -10.483234   1.025267
    5        5.047737   0.000000
    6       19.366722   0.000000
    7       22.173871   0.000000
    8       23.688175   0.000000
 
  0.3076923E+00  0.1538462E+00  0.0000000E+00  0.1092399E-01
    1      -35.519749   1.000000
    2      -11.213583   1.000000
    3      -10.532326   1.006933
    4      -10.531622   1.007097
    5        6.106451   0.000000
    6       17.242421   0.000000
    7       20.838055   0.000000
    8       23.398730   0.000000
 
  0.3846154E+00  0.1538462E+00  0.0000000E+00  0.1092399E-01
    1      -35.463203   1.000000
    2      -11.474463   1.000000
    3      -10.595494   1.000511
    4      -10.559268   1.002565
    5        7.410637   0.000000
    6       15.093629   0.000000
    7       19.987575   0.000000
    8       23.165080   0.000000
 
  0.4615385E+00  0.1538462E+00  0.2775558E-16  0.1092399E-01
    1      -35.420656   1.000000
    2      -11.657690   1.000000
    3      -10.661655   1.000013
    4      -10.565793   1.001963
    5        8.896965   0.000000
    6       13.096832   0.000000
    7       19.438719   0.000000
    8       23.045292   0.000000
 
 -0.4615385E+00  0.1538462E+00 -0.5551115E-16  0.1092399E-01
    1      -35.402271   1.000000
    2      -11.731076   1.000000
    3      -10.713517   1.000000
    4      -10.550649   1.003596
    5       10.383001   0.000000
    6       11.427591   0.000000
    7       19.104248   0.000000
    8       23.110931   0.000000
 
 -0.3846154E+00  0.1538462E+00  0.0000000E+00  0.1092399E-01
    1      -35.412468   1.000000
    2      -11.683876   1.000000
    3      -10.736681   1.000000
    4      -10.517203   1.011151
    5        9.428302   0.000000
    6       12.508913   0.000000
    7       18.963580   0.000000
    8       23.424190   0.000000
 
 -0.3076923E+00  0.1538462E+00 -0.1387779E-16  0.1092399E-01
    1      -35.448804   1.000000
    2      -11.529725   1.000000
    3      -10.720958   1.000000
    4      -10.472990   1.029813
    5        7.906075   0.000000
    6       14.461064   0.000000
    7       19.060551   0.000000
    8       24.030164   0.000000
 
 -0.2307692E+00  0.1538462E+00 -0.1387779E-16  0.1092399E-01
    1      -35.502543   1.000000
    2      -11.303381   1.000000
    3      -10.662400   1.000012
    4      -10.427884   1.025014
    5        6.532829   0.000000
    6       16.520346   0.000000
    7       19.527142   0.000000
    8       24.955416   0.000000
 
 -0.1538462E+00  0.1538462E+00 -0.8100484E-18  0.5461994E-02
    1      -35.561120   1.000000
    2      -11.058832   1.000000
    3      -10.565643   1.001975
    4      -10.392205   0.938020
    5        5.378213   0.000000
    6       18.316924   0.000000
    7       20.744011   0.000000
    8       26.163916   0.000000
 
  0.2307692E+00  0.2307692E+00  0.2775558E-16  0.2730997E-02
    1      -35.542451   1.000000
    2      -11.034730   1.000000
    3      -10.546440   1.004213
    4      -10.546431   1.004214
    5        5.610104   0.000000
    6       19.106028   0.000000
    7       20.846370   0.000000
    8       23.379009   0.000000
 
  0.3076923E+00  0.2307692E+00  0.0000000E+00  0.1092399E-01
    1      -35.494484   1.000000
    2      -11.226167   1.000000
    3      -10.605411   1.000312
    4      -10.595672   1.000507
    5        6.493351   0.000000
    6       17.870771   0.000000
    7       19.234543   0.000000
    8       23.141495   0.000000
 
  0.3846154E+00  0.2307692E+00  0.0000000E+00  0.1092399E-01
    1      -35.444140   1.000000
    2      -11.416833   1.000000
    3      -10.690338   1.000002
    4      -10.627712   1.000095
    5        7.638459   0.000000
    6       16.029306   0.000000
    7       18.218266   0.000000
    8       22.966530   0.000000
 
  0.4615385E+00  0.2307692E+00  0.5551115E-16  0.1092399E-01
    1      -35.403021   1.000000
    2      -11.549711   1.000000
    3      -10.797953   1.000000
    4      -10.635441   1.000061
    5        8.982781   0.000000
    6       14.160584   0.000000
    7       17.565360   0.000000
    8       22.878919   0.000000
 
 -0.4615385E+00  0.2307692E+00 -0.4163336E-16  0.1092399E-01
    1      -35.380839   1.000000
    2      -11.599384   1.000000
    3      -10.903197   1.000000
    4      -10.617367   1.000167
    5       10.395951   0.000000
    6       12.535675   0.000000
    7       17.090639   0.000000
    8       22.925711   0.000000
 
 -0.3846154E+00  0.2307692E+00 -0.6938894E-17  0.1092399E-01
    1      -35.382841   1.000000
    2      -11.568954   1.000000
    3      -10.968893   1.000000
    4      -10.577373   1.001190
    5       10.410028   0.000000
    6       12.612415   0.000000
    7       16.770267   0.000000
    8       23.156700   0.000000
 
 -0.3076923E+00  0.2307692E+00  0.3469447E-17  0.1092399E-01
    1      -35.408546   1.000000
    2      -11.490944   1.000000
    3      -10.953202   1.000000
    4      -10.524372   1.008971
    5        9.036171   0.000000
    6       14.332872   0.000000
    7       16.700587   0.000000
    8       23.605863   0.000000
 
 -0.2307692E+00  0.2307692E+00 -0.4914249E-17  0.5461994E-02
    1      -35.451838   1.000000
    2      -11.401878   1.000000
    3      -10.837272   1.000000
    4      -10.470452   1.030839
    5        7.696050   0.000000
    6       15.861015   0.000000
    7       17.404184   0.000000
    8       24.262207   0.000000
 
  0.3076923E+00  0.3076923E+00  0.0000000E+00  0.2730997E-02
    1      -35.457229   1.000000
    2      -11.337127   1.000000
    3      -10.653828   1.000020
    4      -10.653819   1.000020
    5        7.183745   0.000000
    6       17.713755   0.000000
    7       17.840348   0.000000
    8       22.950951   0.000000
 
  0.3846154E+00  0.3076923E+00  0.2775558E-16  0.1092399E-01
    1      -35.416416   1.000000
    2      -11.464483   1.000000
    3      -10.724384   1.000000
    4      -10.693653   1.000001
    5        8.136662   0.000000
    6       16.399377   0.000000
    7       16.982441   0.000000
    8       22.817589   0.000000
 
  0.4615385E+00  0.3076923E+00  0.5551115E-16  0.1092399E-01
    1      -35.381472   1.000000
    2      -11.538141   1.000000
    3      -10.846099   1.000000
    4      -10.706486   1.000001
    5        9.300248   0.000000
    6       14.915521   0.000000
    7       16.238673   0.000000
    8       22.748498   0.000000
 
 -0.4615385E+00  0.3076923E+00 -0.4857226E-16  0.1092399E-01
    1      -35.360535   1.000000
    2      -11.524700   1.000000
    3      -11.008819   1.000000
    4      -10.689544   1.000002
    5       10.565998   0.000000
    6       13.589491   0.000000
    7       15.569457   0.000000
    8       22.768963   0.000000
 
 -0.3846154E+00  0.3076923E+00 -0.3122502E-16  0.1092399E-01
    1      -35.358552   1.000000
    2      -11.428140   1.000000
    3      -11.173938   1.000000
    4      -10.646662   1.000032
    5       11.187832   0.000000
    6       13.165498   0.000000
    7       15.001593   0.000000
    8       22.911214   0.000000
 
 -0.3076923E+00  0.3076923E+00 -0.3148608E-17  0.5461994E-02
    1      -35.375905   1.000000
    2      -11.400364   1.000000
    3      -11.170137   1.000000
    4      -10.586912   1.000770
    5       10.250726   0.000000
    6       14.298468   0.000000
    7       14.875008   0.000000
    8       23.196250   0.000000
 
  0.3846154E+00  0.3846154E+00  0.0000000E+00  0.2730997E-02
    1      -35.386371   1.000000
    2      -11.558546   1.000000
    3      -10.742274   1.000000
    4      -10.742264   1.000000
    5        8.877023   0.000000
    6       15.340917   0.000000
    7       16.783449   0.000000
    8       22.716553   0.000000
 
  0.4615385E+00  0.3846154E+00  0.5551115E-16  0.1092399E-01
    1      -35.360925   1.000000
    2      -11.612837   1.000000
    3      -10.810310   1.000000
    4      -10.762777   1.000000
    5        9.816408   0.000000
    6       14.306538   0.000000
    7       16.231528   0.000000
    8       22.662917   0.000000
 
 -0.4615385E+00  0.3846154E+00 -0.4857226E-16  0.1092399E-01
    1      -35.346083   1.000000
    2      -11.585868   1.000000
    3      -10.946073   1.000000
    4      -10.750846   1.000000
    5       10.840707   0.000000
    6       13.547492   0.000000
    7       15.404501   0.000000
    8       22.666500   0.000000
 
 -0.3846154E+00  0.3846154E+00  0.2283650E-17  0.5461994E-02
    1      -35.345244   1.000000
    2      -11.477916   1.000000
    3      -11.120431   1.000000
    4      -10.709133   1.000000
    5       11.470851   0.000000
    6       13.434399   0.000000
    7       14.511664   0.000000
    8       22.744764   0.000000
 
  0.4615385E+00  0.4615385E+00  0.5551115E-16  0.2730997E-02
    1      -35.346270   1.000000
    2      -11.673063   1.000000
    3      -10.792042   1.000000
    4      -10.792033   1.000000
    5       10.449743   0.000000
    6       13.423597   0.000000
    7       16.317839   0.000000
    8       22.620013   0.000000
 
 -0.4615385E+00  0.4615385E+00 -0.9828498E-17  0.5461994E-02
    1      -35.340918   1.000000
    2      -11.662960   1.000000
    3      -10.841898   1.000000
    4      -10.787865   1.000000
    5       10.916108   0.000000
    6       13.065114   0.000000
    7       16.005108   0.000000
    8       22.619384   0.000000
 
  0.2307692E+00  0.1538462E+00  0.7692308E-01  0.1092399E-01
    1      -35.606190   1.000000
    2      -10.831813   1.000000
    3      -10.476964   1.028108
    4      -10.403114   0.976491
    5        4.584566   0.000000
    6       19.880263   0.000000
    7       22.473814   0.000000
    8       25.329178   0.000000
 
  0.3076923E+00  0.1538462E+00  0.7692308E-01  0.2184797E-01
    1      -35.550179   1.000000
    2      -11.106145   1.000000
    3      -10.550554   1.003609
    4      -10.429610   1.026725
    5        5.564094   0.000000
    6       17.928970   0.000000
    7       21.101572   0.000000
    8       24.717263   0.000000
 
  0.3846154E+00  0.1538462E+00  0.7692308E-01  0.2184797E-01
    1      -35.490119   1.000000
    2      -11.391097   1.000000
    3      -10.607972   1.000274
    4      -10.468699   1.031511
    5        6.812929   0.000000
    6       15.749091   0.000000
    7       20.339933   0.000000
    8       23.935129   0.000000
 
  0.4615385E+00  0.1538462E+00  0.7692308E-01  0.2184797E-01
    1      -35.439840   1.000000
    2      -11.619575   1.000000
    3      -10.645215   1.000035
    4      -10.508151   1.014371
    5        8.262330   0.000000
    6       13.661153   0.000000
    7       19.925731   0.000000
    8       23.369920   0.000000
 
 -0.4615385E+00  0.1538462E+00  0.7692308E-01  0.2184797E-01
    1      -35.411259   1.000000
    2      -11.745494   1.000000
    3      -10.662373   1.000012
    4      -10.533664   1.006627
    5        9.838471   0.000000
    6       11.771972   0.000000
    7       19.744909   0.000000
    8       23.073389   0.000000
 
  0.3076923E+00  0.2307692E+00  0.7692308E-01  0.1092399E-01
    1      -35.530535   1.000000
    2      -11.117561   1.000000
    3      -10.584669   1.000855
    4      -10.505360   1.015464
    5        5.861804   0.000000
    6       18.304866   0.000000
    7       20.220360   0.000000
    8       23.772772   0.000000
 
  0.3846154E+00  0.2307692E+00  0.7692308E-01  0.2184797E-01
    1      -35.476671   1.000000
    2      -11.330147   1.000000
    3      -10.673805   1.000006
    4      -10.541468   1.005050
    5        6.962821   0.000000
    6       16.629596   0.000000
    7       18.899361   0.000000
    8       23.254548   0.000000
 
  0.4615385E+00  0.2307692E+00  0.7692308E-01  0.2184797E-01
    1      -35.427875   1.000000
    2      -11.511444   1.000000
    3      -10.750454   1.000000
    4      -10.580047   1.001056
    5        8.283768   0.000000
    6       14.670296   0.000000
    7       18.261511   0.000000
    8       22.806840   0.000000
 
 -0.4615385E+00  0.2307692E+00  0.7692308E-01  0.2184797E-01
    1      -35.395615   1.000000
    2      -11.621822   1.000000
    3      -10.814689   1.000000
    4      -10.598870   1.000433
    5        9.746332   0.000000
    6       12.834197   0.000000
    7       17.903918   0.000000
    8       22.572042   0.000000
 
 -0.3846154E+00  0.2307692E+00  0.7692308E-01  0.2184797E-01
    1      -35.387554   1.000000
    2      -11.642198   1.000000
    3      -10.856050   1.000000
    4      -10.587215   1.000759
    5       10.598948   0.000000
    6       11.913637   0.000000
    7       17.700076   0.000000
    8       22.615091   0.000000
 
 -0.3076923E+00  0.2307692E+00  0.7692308E-01  0.2184797E-01
    1      -35.405614   1.000000
    2      -11.574693   1.000000
    3      -10.856196   1.000000
    4      -10.550598   1.003603
    5        9.267563   0.000000
    6       13.473251   0.000000
    7       17.654593   0.000000
    8       22.953942   0.000000
 
 -0.2307692E+00  0.2307692E+00  0.7692308E-01  0.2184797E-01
    1      -35.445481   1.000000
    2      -11.441185   1.000000
    3      -10.800771   1.000000
    4      -10.502237   1.016738
    5        7.845103   0.000000
    6       15.372672   0.000000
    7       17.897893   0.000000
    8       23.562074   0.000000
 
 -0.1538462E+00  0.2307692E+00  0.7692308E-01  0.1092399E-01
    1      -35.497708   1.000000
    2      -11.274864   1.000000
    3      -10.690019   1.000002
    4      -10.457489   1.034768
    5        6.585382   0.000000
    6       16.992928   0.000000
    7       18.910307   0.000000
    8       24.341767   0.000000
 
  0.3846154E+00  0.3076923E+00  0.7692308E-01  0.1092399E-01
    1      -35.450082   1.000000
    2      -11.367744   1.000000
    3      -10.698229   1.000001
    4      -10.628020   1.000093
    5        7.413948   0.000000
    6       17.094161   0.000000
    7       17.655074   0.000000
    8       22.767925   0.000000
 
  0.4615385E+00  0.3076923E+00  0.7692308E-01  0.2184797E-01
    1      -35.407493   1.000000
    2      -11.480188   1.000000
    3      -10.803354   1.000000
    4      -10.665731   1.000010
    5        8.568175   0.000000
    6       15.569646   0.000000
    7       16.792328   0.000000
    8       22.298820   0.000000
 
 -0.4615385E+00  0.3076923E+00  0.7692308E-01  0.2184797E-01
    1      -35.376572   1.000000
    2      -11.527816   1.000000
    3      -10.928391   1.000000
    4      -10.680411   1.000004
    5        9.880669   0.000000
    6       13.916214   0.000000
    7       16.312400   0.000000
    8       22.019424   0.000000
 
 -0.3846154E+00  0.3076923E+00  0.7692308E-01  0.2184797E-01
    1      -35.364624   1.000000
    2      -11.505441   1.000000
    3      -11.048494   1.000000
    4      -10.660951   1.000013
    5       11.006453   0.000000
    6       12.738657   0.000000
    7       15.920059   0.000000
    8       22.034265   0.000000
 
 -0.3076923E+00  0.3076923E+00  0.7692308E-01  0.2184797E-01
    1      -35.374449   1.000000
    2      -11.456466   1.000000
    3      -11.093689   1.000000
    4      -10.614779   1.000192
    5       10.361519   0.000000
    6       13.597846   0.000000
    7       15.649792   0.000000
    8       22.354091   0.000000
 
 -0.2307692E+00  0.3076923E+00  0.7692308E-01  0.1092399E-01
    1      -35.403703   1.000000
    2      -11.447919   1.000000
    3      -10.991727   1.000000
    4      -10.556276   1.002890
    5        9.069274   0.000000
    6       15.018334   0.000000
    7       15.959684   0.000000
    8       22.909703   0.000000
 
  0.4615385E+00  0.3846154E+00  0.7692308E-01  0.1092399E-01
    1      -35.383318   1.000000
    2      -11.541825   1.000000
    3      -10.791953   1.000000
    4      -10.737367   1.000000
    5        9.091214   0.000000
    6       15.338352   0.000000
    7       16.276059   0.000000
    8       22.208042   0.000000
 
 -0.4615385E+00  0.3846154E+00  0.7692308E-01  0.2184797E-01
    1      -35.358506   1.000000
    2      -11.551089   1.000000
    3      -10.913252   1.000000
    4      -10.756922   1.000000
    5       10.211236   0.000000
    6       14.293868   0.000000
    7       15.539156   0.000000
    8       21.701884   0.000000
 
 -0.3846154E+00  0.3846154E+00  0.7692308E-01  0.2184797E-01
    1      -35.347732   1.000000
    2      -11.473070   1.000000
    3      -11.089322   1.000000
    4      -10.734843   1.000000
    5       11.268211   0.000000
    6       13.525779   0.000000
    7       14.799624   0.000000
    8       21.569224   0.000000
 
 -0.3076923E+00  0.3846154E+00  0.7692308E-01  0.1092399E-01
    1      -35.353512   1.000000
    2      -11.316399   1.000000
    3      -11.279513   1.000000
    4      -10.682358   1.000003
    5       11.291232   0.000000
    6       13.835951   0.000000
    7       14.271525   0.000000
    8       21.831390   0.000000
 
 -0.4615385E+00  0.4615385E+00  0.7692308E-01  0.1092399E-01
    1      -35.345573   1.000000
    2      -11.627919   1.000000
    3      -10.844647   1.000000
    4      -10.801707   1.000000
    5       10.653486   0.000000
    6       13.502053   0.000000
    7       15.864060   0.000000
    8       21.929787   0.000000
 
 -0.3846154E+00  0.4615385E+00  0.7692308E-01  0.1092399E-01
    1      -35.340820   1.000000
    2      -11.567934   1.000000
    3      -10.959053   1.000000
    4      -10.789166   1.000000
    5       11.280010   0.000000
    6       13.241679   0.000000
    7       15.245850   0.000000
    8       21.486575   0.000000
 
  0.4615385E+00  0.3076923E+00  0.1538462E+00  0.1092399E-01
    1      -35.430600   1.000000
    2      -11.424725   1.000000
    3      -10.820912   1.000000
    4      -10.580299   1.001044
    5        8.072349   0.000000
    6       15.992512   0.000000
    7       17.014264   0.000000
    8       22.610305   0.000000
 
 -0.4615385E+00  0.3076923E+00  0.1538462E+00  0.2184797E-01
    1      -35.392166   1.000000
    2      -11.485375   1.000000
    3      -10.940566   1.000000
    4      -10.630108   1.000083
    5        9.359845   0.000000
    6       14.507192   0.000000
    7       16.366550   0.000000
    8       21.953279   0.000000
 
 -0.3846154E+00  0.3076923E+00  0.1538462E+00  0.2184797E-01
    1      -35.370358   1.000000
    2      -11.513071   1.000000
    3      -11.007293   1.000000
    4      -10.664571   1.000010
    5       10.661418   0.000000
    6       12.943708   0.000000
    7       16.261267   0.000000
    8       21.565573   0.000000
 
 -0.4615385E+00  0.3846154E+00  0.1538462E+00  0.1092399E-01
    1      -35.375158   1.000000
    2      -11.492224   1.000000
    3      -10.928613   1.000000
    4      -10.720736   1.000000
    5        9.686591   0.000000
    6       15.218222   0.000000
    7       15.325913   0.000000
    8       21.351223   0.000000
 
 -0.3846154E+00  0.3846154E+00  0.1538462E+00  0.2184797E-01
    1      -35.354630   1.000000
    2      -11.445411   1.000000
    3      -11.063503   1.000000
    4      -10.758499   1.000000
    5       10.862741   0.000000
    6       13.916900   0.000000
    7       15.074289   0.000000
    8       20.734937   0.000000
 
 -0.3076923E+00  0.3846154E+00  0.1538462E+00  0.2184797E-01
    1      -35.350692   1.000000
    2      -11.366969   1.000000
    3      -11.181601   1.000000
    4      -10.747639   1.000000
    5       11.403444   0.000000
    6       13.445073   0.000000
    7       14.842943   0.000000
    8       20.664550   0.000000
 
 -0.2307692E+00  0.3846154E+00  0.1538462E+00  0.1092399E-01
    1      -35.364271   1.000000
    2      -11.405982   1.000000
    3      -11.118431   1.000000
    4      -10.695832   1.000001
    5       10.521648   0.000000
    6       14.468031   0.000000
    7       14.774235   0.000000
    8       21.133810   0.000000
 
 -0.3846154E+00  0.4615385E+00  0.1538462E+00  0.1092399E-01
    1      -35.343935   1.000000
    2      -11.502391   1.000000
    3      -10.989196   1.000000
    4      -10.821277   1.000000
    5       11.168093   0.000000
    6       13.710715   0.000000
    7       14.992943   0.000000
    8       20.649643   0.000000
 
 -0.3076923E+00  0.4615385E+00  0.1538462E+00  0.1092399E-01
    1      -35.341103   1.000000
    2      -11.398043   1.000000
    3      -11.129059   1.000000
    4      -10.813837   1.000000
    5       11.712373   0.000000
    6       13.611605   0.000000
    7       14.445920   0.000000
    8       20.270331   0.000000
 
 -0.3076923E+00  0.4615385E+00  0.2307692E+00  0.1092399E-01
    1      -35.342189   1.000000
    2      -11.323367   1.000000
    3      -11.189357   1.000000
    4      -10.828898   1.000000
    5       11.681681   0.000000
    6       13.982626   0.000000
    7       14.197306   0.000000
    8       19.897562   0.000000
