Ne_FCC                                  
           1
     2.973381    0.000000    0.000000
     1.486690    2.575023    0.000000
     1.486690    0.858341    2.427755
   Ne
   1
Direct configuration=     1
   0.00000000  0.00000000  0.00000000
Ne_FCC                                  
           1
     2.973803    0.000000    0.000000
     1.486902    2.575389    0.000000
     1.486902    0.858463    2.428100
   Ne
   1
Direct configuration=     2
   0.00000000  0.00000000  0.00000000
