Cn_FCC                                  
           1
     2.973803    0.000000    0.000000
     1.486902    2.575389    0.000000
     1.486902    0.858463    2.428100
   Ne
   1
Direct configuration=     1
   0.00000000  0.00000000  0.00000000
Cn_FCC                                  
           1
     2.971144    0.000000    0.000000
     1.485572    2.573086    0.000000
     1.485572    0.857695    2.425929
   Ne
   1
Direct configuration=     2
   0.00000000  0.00000000  0.00000000
Cn_FCC                                  
           1
     2.860580    0.000000    0.000000
     1.430290    2.477335    0.000000
     1.430290    0.825778    2.335654
   Ne
   1
Direct configuration=     3
   0.00000000  0.00000000  0.00000000
Cn_FCC                                  
           1
     2.525450    0.000000    0.000000
     1.262725    2.187104    0.000000
     1.262725    0.729035    2.062021
   Ne
   1
Direct configuration=     4
   0.00000000  0.00000000  0.00000000
Cn_FCC                                  
           1
     2.813544    0.000000    0.000000
     1.406772    2.436600    0.000000
     1.406772    0.812200    2.297249
   Ne
   1
Direct configuration=     5
   0.00000000  0.00000000  0.00000000
Cn_FCC                                  
           1
     2.790594    0.000000    0.000000
     1.395297    2.416725    0.000000
     1.395297    0.805575    2.278510
   Ne
   1
Direct configuration=     6
   0.00000000  0.00000000  0.00000000
Cn_FCC                                  
           1
     2.767039    0.000000    0.000000
     1.383520    2.396326    0.000000
     1.383520    0.798775    2.259278
   Ne
   1
Direct configuration=     7
   0.00000000  0.00000000  0.00000000
