<?xml version="1.0" encoding="ISO-8859-1"?>
<modeling>
 <generator>
  <i name="program" type="string">vasp </i>
  <i name="version" type="string">5.4.4.18Apr17-6-g9f103f2a35  </i>
  <i name="subversion" type="string">(build Nov 03 2018 10:20:46) complex            parallel </i>
  <i name="platform" type="string">LinuxIFC </i>
  <i name="date" type="string">2018 11 28 </i>
  <i name="time" type="string">17:34:29 </i>
 </generator>
 <incar>
  <i type="string" name="SYSTEM">   Og_FCC</i>
  <i type="string" name="PREC">accurate</i>
  <i type="string" name="ALGO">   Fast</i>
  <i type="logical" name="ADDGRID"> T  </i>
  <i type="logical" name="LSORBIT"> T  </i>
  <i type="int" name="ISPIN">     1</i>
  <i type="int" name="MAXMIX">    50</i>
  <i type="int" name="NELM">   100</i>
  <i type="int" name="NELMDL">    -5</i>
  <i type="int" name="NELMIN">     5</i>
  <i type="int" name="IBRION">     1</i>
  <i type="int" name="NFREE">     5</i>
  <i name="EDIFF">      0.00000010</i>
  <i name="EDIFFG">      0.00001000</i>
  <i type="int" name="NSW">   999</i>
  <i type="int" name="ISIF">     7</i>
  <i type="int" name="ISYM">     2</i>
  <i name="SYMPREC">      0.00000010</i>
  <i name="ENCUT">    600.00000000</i>
  <i name="POTIM">      0.10000000</i>
  <i type="logical" name="LREAL"> F  </i>
  <i type="int" name="ISMEAR">     1</i>
  <i name="SIGMA">      0.10000000</i>
  <i name="KSPACING">      0.20000000</i>
  <i type="int" name="NWRITE">     2</i>
  <i type="logical" name="LWAVE"> F  </i>
  <i type="logical" name="LCHARG"> F  </i>
  <i type="logical" name="LVTOT"> F  </i>
  <i type="logical" name="GGA_COMPAT"> F  </i>
  <v type="int" name="KPOINT_BSE">    -1     0     0     0</v>
  <i type="int" name="NELM">   100</i>
  <i type="string" name="GGA"> PE</i>
 </incar>
 <structure name="primitive_cell" >
  <crystal>
   <varray name="basis" >
    <v>       4.34778014       0.00000000       0.00000000 </v>
    <v>       2.17389007       3.76528805      -0.00000000 </v>
    <v>       2.17389007       1.25509602       3.54994762 </v>
   </varray>
   <i name="volume">     58.11493087 </i>
   <varray name="rec_basis" >
    <v>       0.23000243      -0.13279197      -0.09389810 </v>
    <v>       0.00000000       0.26558393      -0.09389810 </v>
    <v>      -0.00000000       0.00000000       0.28169430 </v>
   </varray>
  </crystal>
  <varray name="positions" >
   <v>       0.00000000       0.00000000       0.00000000 </v>
  </varray>
 </structure>
 <varray name="primitive_index" >
  <v type="int" >        1 </v>
 </varray>
 <kpoints>
  <generation param="Gamma">
   <v type="int" name="divisions">       9        9        9 </v>
   <v name="usershift">      0.00000000       0.00000000       0.00000000 </v>
   <v name="genvec1">      0.11111111      -0.00000000       0.00000000 </v>
   <v name="genvec2">      0.00000000       0.11111111       0.00000000 </v>
   <v name="genvec3">     -0.00000000      -0.00000000       0.11111111 </v>
   <v name="shift">      0.00000000       0.00000000       0.00000000 </v>
  </generation>
  <varray name="kpointlist" >
   <v>       0.00000000       0.00000000       0.00000000 </v>
   <v>       0.11111111       0.00000000      -0.00000000 </v>
   <v>       0.22222222      -0.00000000      -0.00000000 </v>
   <v>       0.33333333      -0.00000000      -0.00000000 </v>
   <v>       0.44444444      -0.00000000      -0.00000000 </v>
   <v>       0.00000000       0.11111111       0.00000000 </v>
   <v>       0.11111111       0.11111111       0.00000000 </v>
   <v>       0.22222222       0.11111111       0.00000000 </v>
   <v>       0.33333333       0.11111111       0.00000000 </v>
   <v>       0.44444444       0.11111111      -0.00000000 </v>
   <v>      -0.44444444       0.11111111       0.00000000 </v>
   <v>      -0.33333333       0.11111111       0.00000000 </v>
   <v>      -0.22222222       0.11111111       0.00000000 </v>
   <v>      -0.11111111       0.11111111      -0.00000000 </v>
   <v>      -0.00000000       0.22222222       0.00000000 </v>
   <v>       0.11111111       0.22222222      -0.00000000 </v>
   <v>       0.22222222       0.22222222       0.00000000 </v>
   <v>       0.33333333       0.22222222      -0.00000000 </v>
   <v>       0.44444444       0.22222222      -0.00000000 </v>
   <v>      -0.44444444       0.22222222       0.00000000 </v>
   <v>      -0.33333333       0.22222222      -0.00000000 </v>
   <v>      -0.22222222       0.22222222      -0.00000000 </v>
   <v>      -0.11111111       0.22222222      -0.00000000 </v>
   <v>      -0.00000000       0.33333333      -0.00000000 </v>
   <v>       0.11111111       0.33333333      -0.00000000 </v>
   <v>       0.22222222       0.33333333      -0.00000000 </v>
   <v>       0.33333333       0.33333333      -0.00000000 </v>
   <v>       0.44444444       0.33333333      -0.00000000 </v>
   <v>      -0.44444444       0.33333333      -0.00000000 </v>
   <v>      -0.33333333       0.33333333      -0.00000000 </v>
   <v>      -0.22222222       0.33333333       0.00000000 </v>
   <v>      -0.11111111       0.33333333       0.00000000 </v>
   <v>      -0.00000000       0.44444444       0.00000000 </v>
   <v>       0.11111111       0.44444444      -0.00000000 </v>
   <v>       0.22222222       0.44444444      -0.00000000 </v>
   <v>       0.33333333       0.44444444      -0.00000000 </v>
   <v>       0.44444444       0.44444444       0.00000000 </v>
   <v>      -0.44444444       0.44444444      -0.00000000 </v>
   <v>      -0.33333333       0.44444444      -0.00000000 </v>
   <v>      -0.22222222       0.44444444      -0.00000000 </v>
   <v>      -0.11111111       0.44444444      -0.00000000 </v>
   <v>      -0.00000000       0.00000000       0.11111111 </v>
   <v>       0.11111111       0.00000000       0.11111111 </v>
   <v>       0.22222222      -0.00000000       0.11111111 </v>
   <v>       0.33333333      -0.00000000       0.11111111 </v>
   <v>       0.44444444      -0.00000000       0.11111111 </v>
   <v>      -0.44444444       0.00000000       0.11111111 </v>
   <v>      -0.33333333       0.00000000       0.11111111 </v>
   <v>      -0.22222222       0.00000000       0.11111111 </v>
   <v>      -0.11111111       0.00000000       0.11111111 </v>
   <v>      -0.00000000       0.11111111       0.11111111 </v>
   <v>       0.11111111       0.11111111       0.11111111 </v>
   <v>       0.22222222       0.11111111       0.11111111 </v>
   <v>       0.33333333       0.11111111       0.11111111 </v>
   <v>       0.44444444       0.11111111       0.11111111 </v>
   <v>      -0.44444444       0.11111111       0.11111111 </v>
   <v>      -0.33333333       0.11111111       0.11111111 </v>
   <v>      -0.22222222       0.11111111       0.11111111 </v>
   <v>      -0.11111111       0.11111111       0.11111111 </v>
   <v>      -0.00000000       0.22222222       0.11111111 </v>
   <v>       0.11111111       0.22222222       0.11111111 </v>
   <v>       0.22222222       0.22222222       0.11111111 </v>
   <v>       0.33333333       0.22222222       0.11111111 </v>
   <v>       0.44444444       0.22222222       0.11111111 </v>
   <v>      -0.44444444       0.22222222       0.11111111 </v>
   <v>      -0.33333333       0.22222222       0.11111111 </v>
   <v>      -0.22222222       0.22222222       0.11111111 </v>
   <v>      -0.11111111       0.22222222       0.11111111 </v>
   <v>      -0.00000000       0.33333333       0.11111111 </v>
   <v>       0.11111111       0.33333333       0.11111111 </v>
   <v>       0.22222222       0.33333333       0.11111111 </v>
   <v>       0.33333333       0.33333333       0.11111111 </v>
   <v>       0.44444444       0.33333333       0.11111111 </v>
   <v>      -0.44444444       0.33333333       0.11111111 </v>
   <v>      -0.33333333       0.33333333       0.11111111 </v>
   <v>      -0.22222222       0.33333333       0.11111111 </v>
   <v>      -0.11111111       0.33333333       0.11111111 </v>
   <v>      -0.00000000       0.44444444       0.11111111 </v>
   <v>       0.11111111       0.44444444       0.11111111 </v>
   <v>       0.22222222       0.44444444       0.11111111 </v>
   <v>       0.33333333       0.44444444       0.11111111 </v>
   <v>       0.44444444       0.44444444       0.11111111 </v>
   <v>      -0.44444444       0.44444444       0.11111111 </v>
   <v>      -0.33333333       0.44444444       0.11111111 </v>
   <v>      -0.22222222       0.44444444       0.11111111 </v>
   <v>      -0.11111111       0.44444444       0.11111111 </v>
   <v>       0.00000000      -0.44444444       0.11111111 </v>
   <v>       0.11111111      -0.44444444       0.11111111 </v>
   <v>       0.22222222      -0.44444444       0.11111111 </v>
   <v>       0.33333333      -0.44444444       0.11111111 </v>
   <v>       0.44444444      -0.44444444       0.11111111 </v>
   <v>      -0.44444444      -0.44444444       0.11111111 </v>
   <v>      -0.33333333      -0.44444444       0.11111111 </v>
   <v>      -0.22222222      -0.44444444       0.11111111 </v>
   <v>      -0.11111111      -0.44444444       0.11111111 </v>
   <v>       0.00000000      -0.33333333       0.11111111 </v>
   <v>       0.11111111      -0.33333333       0.11111111 </v>
   <v>       0.22222222      -0.33333333       0.11111111 </v>
   <v>       0.33333333      -0.33333333       0.11111111 </v>
   <v>       0.44444444      -0.33333333       0.11111111 </v>
   <v>      -0.44444444      -0.33333333       0.11111111 </v>
   <v>      -0.33333333      -0.33333333       0.11111111 </v>
   <v>      -0.22222222      -0.33333333       0.11111111 </v>
   <v>      -0.11111111      -0.33333333       0.11111111 </v>
   <v>       0.00000000      -0.22222222       0.11111111 </v>
   <v>       0.11111111      -0.22222222       0.11111111 </v>
   <v>       0.22222222      -0.22222222       0.11111111 </v>
   <v>       0.33333333      -0.22222222       0.11111111 </v>
   <v>       0.44444444      -0.22222222       0.11111111 </v>
   <v>      -0.44444444      -0.22222222       0.11111111 </v>
   <v>      -0.33333333      -0.22222222       0.11111111 </v>
   <v>      -0.22222222      -0.22222222       0.11111111 </v>
   <v>      -0.11111111      -0.22222222       0.11111111 </v>
   <v>      -0.00000000      -0.11111111       0.11111111 </v>
   <v>       0.11111111      -0.11111111       0.11111111 </v>
   <v>       0.22222222      -0.11111111       0.11111111 </v>
   <v>       0.33333333      -0.11111111       0.11111111 </v>
   <v>       0.44444444      -0.11111111       0.11111111 </v>
   <v>      -0.44444444      -0.11111111       0.11111111 </v>
   <v>      -0.33333333      -0.11111111       0.11111111 </v>
   <v>      -0.22222222      -0.11111111       0.11111111 </v>
   <v>      -0.11111111      -0.11111111       0.11111111 </v>
   <v>       0.00000000       0.00000000       0.22222222 </v>
   <v>       0.11111111      -0.00000000       0.22222222 </v>
   <v>       0.22222222       0.00000000       0.22222222 </v>
   <v>       0.33333333      -0.00000000       0.22222222 </v>
   <v>       0.44444444      -0.00000000       0.22222222 </v>
   <v>      -0.44444444       0.00000000       0.22222222 </v>
   <v>      -0.33333333       0.00000000       0.22222222 </v>
   <v>      -0.22222222       0.00000000       0.22222222 </v>
   <v>      -0.11111111      -0.00000000       0.22222222 </v>
   <v>       0.00000000       0.11111111       0.22222222 </v>
   <v>       0.11111111       0.11111111       0.22222222 </v>
   <v>       0.22222222       0.11111111       0.22222222 </v>
   <v>       0.33333333       0.11111111       0.22222222 </v>
   <v>       0.44444444       0.11111111       0.22222222 </v>
   <v>      -0.44444444       0.11111111       0.22222222 </v>
   <v>      -0.33333333       0.11111111       0.22222222 </v>
   <v>      -0.22222222       0.11111111       0.22222222 </v>
   <v>      -0.11111111       0.11111111       0.22222222 </v>
   <v>       0.00000000       0.22222222       0.22222222 </v>
   <v>       0.11111111       0.22222222       0.22222222 </v>
   <v>       0.22222222       0.22222222       0.22222222 </v>
   <v>       0.33333333       0.22222222       0.22222222 </v>
   <v>       0.44444444       0.22222222       0.22222222 </v>
   <v>      -0.44444444       0.22222222       0.22222222 </v>
   <v>      -0.33333333       0.22222222       0.22222222 </v>
   <v>      -0.22222222       0.22222222       0.22222222 </v>
   <v>      -0.11111111       0.22222222       0.22222222 </v>
   <v>      -0.00000000       0.33333333       0.22222222 </v>
   <v>       0.11111111       0.33333333       0.22222222 </v>
   <v>       0.22222222       0.33333333       0.22222222 </v>
   <v>       0.33333333       0.33333333       0.22222222 </v>
   <v>       0.44444444       0.33333333       0.22222222 </v>
   <v>      -0.44444444       0.33333333       0.22222222 </v>
   <v>      -0.33333333       0.33333333       0.22222222 </v>
   <v>      -0.22222222       0.33333333       0.22222222 </v>
   <v>      -0.11111111       0.33333333       0.22222222 </v>
   <v>      -0.00000000       0.44444444       0.22222222 </v>
   <v>       0.11111111       0.44444444       0.22222222 </v>
   <v>       0.22222222       0.44444444       0.22222222 </v>
   <v>       0.33333333       0.44444444       0.22222222 </v>
   <v>       0.44444444       0.44444444       0.22222222 </v>
   <v>      -0.44444444       0.44444444       0.22222222 </v>
   <v>      -0.33333333       0.44444444       0.22222222 </v>
   <v>      -0.22222222       0.44444444       0.22222222 </v>
   <v>      -0.11111111       0.44444444       0.22222222 </v>
   <v>       0.00000000      -0.44444444       0.22222222 </v>
   <v>       0.11111111      -0.44444444       0.22222222 </v>
   <v>       0.22222222      -0.44444444       0.22222222 </v>
   <v>       0.33333333      -0.44444444       0.22222222 </v>
   <v>       0.44444444      -0.44444444       0.22222222 </v>
   <v>      -0.44444444      -0.44444444       0.22222222 </v>
   <v>      -0.33333333      -0.44444444       0.22222222 </v>
   <v>      -0.22222222      -0.44444444       0.22222222 </v>
   <v>      -0.11111111      -0.44444444       0.22222222 </v>
   <v>       0.00000000      -0.33333333       0.22222222 </v>
   <v>       0.11111111      -0.33333333       0.22222222 </v>
   <v>       0.22222222      -0.33333333       0.22222222 </v>
   <v>       0.33333333      -0.33333333       0.22222222 </v>
   <v>       0.44444444      -0.33333333       0.22222222 </v>
   <v>      -0.44444444      -0.33333333       0.22222222 </v>
   <v>      -0.33333333      -0.33333333       0.22222222 </v>
   <v>      -0.22222222      -0.33333333       0.22222222 </v>
   <v>      -0.11111111      -0.33333333       0.22222222 </v>
   <v>       0.00000000      -0.22222222       0.22222222 </v>
   <v>       0.11111111      -0.22222222       0.22222222 </v>
   <v>       0.22222222      -0.22222222       0.22222222 </v>
   <v>       0.33333333      -0.22222222       0.22222222 </v>
   <v>       0.44444444      -0.22222222       0.22222222 </v>
   <v>      -0.44444444      -0.22222222       0.22222222 </v>
   <v>      -0.33333333      -0.22222222       0.22222222 </v>
   <v>      -0.22222222      -0.22222222       0.22222222 </v>
   <v>      -0.11111111      -0.22222222       0.22222222 </v>
   <v>       0.00000000      -0.11111111       0.22222222 </v>
   <v>       0.11111111      -0.11111111       0.22222222 </v>
   <v>       0.22222222      -0.11111111       0.22222222 </v>
   <v>       0.33333333      -0.11111111       0.22222222 </v>
   <v>       0.44444444      -0.11111111       0.22222222 </v>
   <v>      -0.44444444      -0.11111111       0.22222222 </v>
   <v>      -0.33333333      -0.11111111       0.22222222 </v>
   <v>      -0.22222222      -0.11111111       0.22222222 </v>
   <v>      -0.11111111      -0.11111111       0.22222222 </v>
   <v>      -0.00000000       0.00000000       0.33333333 </v>
   <v>       0.11111111      -0.00000000       0.33333333 </v>
   <v>       0.22222222      -0.00000000       0.33333333 </v>
   <v>       0.33333333       0.00000000       0.33333333 </v>
   <v>       0.44444444       0.00000000       0.33333333 </v>
   <v>      -0.44444444       0.00000000       0.33333333 </v>
   <v>      -0.33333333       0.00000000       0.33333333 </v>
   <v>      -0.22222222       0.00000000       0.33333333 </v>
   <v>      -0.11111111      -0.00000000       0.33333333 </v>
   <v>       0.00000000       0.11111111       0.33333333 </v>
   <v>       0.11111111       0.11111111       0.33333333 </v>
   <v>       0.22222222       0.11111111       0.33333333 </v>
   <v>       0.33333333       0.11111111       0.33333333 </v>
   <v>       0.44444444       0.11111111       0.33333333 </v>
   <v>      -0.44444444       0.11111111       0.33333333 </v>
   <v>      -0.33333333       0.11111111       0.33333333 </v>
   <v>      -0.22222222       0.11111111       0.33333333 </v>
   <v>      -0.11111111       0.11111111       0.33333333 </v>
   <v>      -0.00000000       0.22222222       0.33333333 </v>
   <v>       0.11111111       0.22222222       0.33333333 </v>
   <v>       0.22222222       0.22222222       0.33333333 </v>
   <v>       0.33333333       0.22222222       0.33333333 </v>
   <v>       0.44444444       0.22222222       0.33333333 </v>
   <v>      -0.44444444       0.22222222       0.33333333 </v>
   <v>      -0.33333333       0.22222222       0.33333333 </v>
   <v>      -0.22222222       0.22222222       0.33333333 </v>
   <v>      -0.11111111       0.22222222       0.33333333 </v>
   <v>      -0.00000000       0.33333333       0.33333333 </v>
   <v>       0.11111111       0.33333333       0.33333333 </v>
   <v>       0.22222222       0.33333333       0.33333333 </v>
   <v>       0.33333333       0.33333333       0.33333333 </v>
   <v>       0.44444444       0.33333333       0.33333333 </v>
   <v>      -0.44444444       0.33333333       0.33333333 </v>
   <v>      -0.33333333       0.33333333       0.33333333 </v>
   <v>      -0.22222222       0.33333333       0.33333333 </v>
   <v>      -0.11111111       0.33333333       0.33333333 </v>
   <v>      -0.00000000       0.44444444       0.33333333 </v>
   <v>       0.11111111       0.44444444       0.33333333 </v>
   <v>       0.22222222       0.44444444       0.33333333 </v>
   <v>       0.33333333       0.44444444       0.33333333 </v>
   <v>       0.44444444       0.44444444       0.33333333 </v>
   <v>      -0.44444444       0.44444444       0.33333333 </v>
   <v>      -0.33333333       0.44444444       0.33333333 </v>
   <v>      -0.22222222       0.44444444       0.33333333 </v>
   <v>      -0.11111111       0.44444444       0.33333333 </v>
   <v>       0.00000000      -0.44444444       0.33333333 </v>
   <v>       0.11111111      -0.44444444       0.33333333 </v>
   <v>       0.22222222      -0.44444444       0.33333333 </v>
   <v>       0.33333333      -0.44444444       0.33333333 </v>
   <v>       0.44444444      -0.44444444       0.33333333 </v>
   <v>      -0.44444444      -0.44444444       0.33333333 </v>
   <v>      -0.33333333      -0.44444444       0.33333333 </v>
   <v>      -0.22222222      -0.44444444       0.33333333 </v>
   <v>      -0.11111111      -0.44444444       0.33333333 </v>
   <v>       0.00000000      -0.33333333       0.33333333 </v>
   <v>       0.11111111      -0.33333333       0.33333333 </v>
   <v>       0.22222222      -0.33333333       0.33333333 </v>
   <v>       0.33333333      -0.33333333       0.33333333 </v>
   <v>       0.44444444      -0.33333333       0.33333333 </v>
   <v>      -0.44444444      -0.33333333       0.33333333 </v>
   <v>      -0.33333333      -0.33333333       0.33333333 </v>
   <v>      -0.22222222      -0.33333333       0.33333333 </v>
   <v>      -0.11111111      -0.33333333       0.33333333 </v>
   <v>       0.00000000      -0.22222222       0.33333333 </v>
   <v>       0.11111111      -0.22222222       0.33333333 </v>
   <v>       0.22222222      -0.22222222       0.33333333 </v>
   <v>       0.33333333      -0.22222222       0.33333333 </v>
   <v>       0.44444444      -0.22222222       0.33333333 </v>
   <v>      -0.44444444      -0.22222222       0.33333333 </v>
   <v>      -0.33333333      -0.22222222       0.33333333 </v>
   <v>      -0.22222222      -0.22222222       0.33333333 </v>
   <v>      -0.11111111      -0.22222222       0.33333333 </v>
   <v>      -0.00000000      -0.11111111       0.33333333 </v>
   <v>       0.11111111      -0.11111111       0.33333333 </v>
   <v>       0.22222222      -0.11111111       0.33333333 </v>
   <v>       0.33333333      -0.11111111       0.33333333 </v>
   <v>       0.44444444      -0.11111111       0.33333333 </v>
   <v>      -0.44444444      -0.11111111       0.33333333 </v>
   <v>      -0.33333333      -0.11111111       0.33333333 </v>
   <v>      -0.22222222      -0.11111111       0.33333333 </v>
   <v>      -0.11111111      -0.11111111       0.33333333 </v>
   <v>       0.00000000       0.00000000       0.44444444 </v>
   <v>       0.11111111      -0.00000000       0.44444444 </v>
   <v>       0.22222222      -0.00000000       0.44444444 </v>
   <v>       0.33333333       0.00000000       0.44444444 </v>
   <v>       0.44444444       0.00000000       0.44444444 </v>
   <v>      -0.44444444       0.00000000       0.44444444 </v>
   <v>      -0.33333333       0.00000000       0.44444444 </v>
   <v>      -0.22222222      -0.00000000       0.44444444 </v>
   <v>      -0.11111111       0.00000000       0.44444444 </v>
   <v>      -0.00000000       0.11111111       0.44444444 </v>
   <v>       0.11111111       0.11111111       0.44444444 </v>
   <v>       0.22222222       0.11111111       0.44444444 </v>
   <v>       0.33333333       0.11111111       0.44444444 </v>
   <v>       0.44444444       0.11111111       0.44444444 </v>
   <v>      -0.44444444       0.11111111       0.44444444 </v>
   <v>      -0.33333333       0.11111111       0.44444444 </v>
   <v>      -0.22222222       0.11111111       0.44444444 </v>
   <v>      -0.11111111       0.11111111       0.44444444 </v>
   <v>      -0.00000000       0.22222222       0.44444444 </v>
   <v>       0.11111111       0.22222222       0.44444444 </v>
   <v>       0.22222222       0.22222222       0.44444444 </v>
   <v>       0.33333333       0.22222222       0.44444444 </v>
   <v>       0.44444444       0.22222222       0.44444444 </v>
   <v>      -0.44444444       0.22222222       0.44444444 </v>
   <v>      -0.33333333       0.22222222       0.44444444 </v>
   <v>      -0.22222222       0.22222222       0.44444444 </v>
   <v>      -0.11111111       0.22222222       0.44444444 </v>
   <v>      -0.00000000       0.33333333       0.44444444 </v>
   <v>       0.11111111       0.33333333       0.44444444 </v>
   <v>       0.22222222       0.33333333       0.44444444 </v>
   <v>       0.33333333       0.33333333       0.44444444 </v>
   <v>       0.44444444       0.33333333       0.44444444 </v>
   <v>      -0.44444444       0.33333333       0.44444444 </v>
   <v>      -0.33333333       0.33333333       0.44444444 </v>
   <v>      -0.22222222       0.33333333       0.44444444 </v>
   <v>      -0.11111111       0.33333333       0.44444444 </v>
   <v>       0.00000000       0.44444444       0.44444444 </v>
   <v>       0.11111111       0.44444444       0.44444444 </v>
   <v>       0.22222222       0.44444444       0.44444444 </v>
   <v>       0.33333333       0.44444444       0.44444444 </v>
   <v>       0.44444444       0.44444444       0.44444444 </v>
   <v>      -0.44444444       0.44444444       0.44444444 </v>
   <v>      -0.33333333       0.44444444       0.44444444 </v>
   <v>      -0.22222222       0.44444444       0.44444444 </v>
   <v>      -0.11111111       0.44444444       0.44444444 </v>
   <v>       0.00000000      -0.44444444       0.44444444 </v>
   <v>       0.11111111      -0.44444444       0.44444444 </v>
   <v>       0.22222222      -0.44444444       0.44444444 </v>
   <v>       0.33333333      -0.44444444       0.44444444 </v>
   <v>       0.44444444      -0.44444444       0.44444444 </v>
   <v>      -0.44444444      -0.44444444       0.44444444 </v>
   <v>      -0.33333333      -0.44444444       0.44444444 </v>
   <v>      -0.22222222      -0.44444444       0.44444444 </v>
   <v>      -0.11111111      -0.44444444       0.44444444 </v>
   <v>      -0.00000000      -0.33333333       0.44444444 </v>
   <v>       0.11111111      -0.33333333       0.44444444 </v>
   <v>       0.22222222      -0.33333333       0.44444444 </v>
   <v>       0.33333333      -0.33333333       0.44444444 </v>
   <v>       0.44444444      -0.33333333       0.44444444 </v>
   <v>      -0.44444444      -0.33333333       0.44444444 </v>
   <v>      -0.33333333      -0.33333333       0.44444444 </v>
   <v>      -0.22222222      -0.33333333       0.44444444 </v>
   <v>      -0.11111111      -0.33333333       0.44444444 </v>
   <v>       0.00000000      -0.22222222       0.44444444 </v>
   <v>       0.11111111      -0.22222222       0.44444444 </v>
   <v>       0.22222222      -0.22222222       0.44444444 </v>
   <v>       0.33333333      -0.22222222       0.44444444 </v>
   <v>       0.44444444      -0.22222222       0.44444444 </v>
   <v>      -0.44444444      -0.22222222       0.44444444 </v>
   <v>      -0.33333333      -0.22222222       0.44444444 </v>
   <v>      -0.22222222      -0.22222222       0.44444444 </v>
   <v>      -0.11111111      -0.22222222       0.44444444 </v>
   <v>       0.00000000      -0.11111111       0.44444444 </v>
   <v>       0.11111111      -0.11111111       0.44444444 </v>
   <v>       0.22222222      -0.11111111       0.44444444 </v>
   <v>       0.33333333      -0.11111111       0.44444444 </v>
   <v>       0.44444444      -0.11111111       0.44444444 </v>
   <v>      -0.44444444      -0.11111111       0.44444444 </v>
   <v>      -0.33333333      -0.11111111       0.44444444 </v>
   <v>      -0.22222222      -0.11111111       0.44444444 </v>
   <v>      -0.11111111      -0.11111111       0.44444444 </v>
  </varray>
  <varray name="weights" >
   <v>       0.00137174 </v>
   <v>       0.00274348 </v>
   <v>       0.00274348 </v>
   <v>       0.00274348 </v>
   <v>       0.00274348 </v>
   <v>       0.00274348 </v>
   <v>       0.00274348 </v>
   <v>       0.00274348 </v>
   <v>       0.00274348 </v>
   <v>       0.00274348 </v>
   <v>       0.00274348 </v>
   <v>       0.00274348 </v>
   <v>       0.00274348 </v>
   <v>       0.00274348 </v>
   <v>       0.00274348 </v>
   <v>       0.00274348 </v>
   <v>       0.00274348 </v>
   <v>       0.00274348 </v>
   <v>       0.00274348 </v>
   <v>       0.00274348 </v>
   <v>       0.00274348 </v>
   <v>       0.00274348 </v>
   <v>       0.00274348 </v>
   <v>       0.00274348 </v>
   <v>       0.00274348 </v>
   <v>       0.00274348 </v>
   <v>       0.00274348 </v>
   <v>       0.00274348 </v>
   <v>       0.00274348 </v>
   <v>       0.00274348 </v>
   <v>       0.00274348 </v>
   <v>       0.00274348 </v>
   <v>       0.00274348 </v>
   <v>       0.00274348 </v>
   <v>       0.00274348 </v>
   <v>       0.00274348 </v>
   <v>       0.00274348 </v>
   <v>       0.00274348 </v>
   <v>       0.00274348 </v>
   <v>       0.00274348 </v>
   <v>       0.00274348 </v>
   <v>       0.00274348 </v>
   <v>       0.00274348 </v>
   <v>       0.00274348 </v>
   <v>       0.00274348 </v>
   <v>       0.00274348 </v>
   <v>       0.00274348 </v>
   <v>       0.00274348 </v>
   <v>       0.00274348 </v>
   <v>       0.00274348 </v>
   <v>       0.00274348 </v>
   <v>       0.00274348 </v>
   <v>       0.00274348 </v>
   <v>       0.00274348 </v>
   <v>       0.00274348 </v>
   <v>       0.00274348 </v>
   <v>       0.00274348 </v>
   <v>       0.00274348 </v>
   <v>       0.00274348 </v>
   <v>       0.00274348 </v>
   <v>       0.00274348 </v>
   <v>       0.00274348 </v>
   <v>       0.00274348 </v>
   <v>       0.00274348 </v>
   <v>       0.00274348 </v>
   <v>       0.00274348 </v>
   <v>       0.00274348 </v>
   <v>       0.00274348 </v>
   <v>       0.00274348 </v>
   <v>       0.00274348 </v>
   <v>       0.00274348 </v>
   <v>       0.00274348 </v>
   <v>       0.00274348 </v>
   <v>       0.00274348 </v>
   <v>       0.00274348 </v>
   <v>       0.00274348 </v>
   <v>       0.00274348 </v>
   <v>       0.00274348 </v>
   <v>       0.00274348 </v>
   <v>       0.00274348 </v>
   <v>       0.00274348 </v>
   <v>       0.00274348 </v>
   <v>       0.00274348 </v>
   <v>       0.00274348 </v>
   <v>       0.00274348 </v>
   <v>       0.00274348 </v>
   <v>       0.00274348 </v>
   <v>       0.00274348 </v>
   <v>       0.00274348 </v>
   <v>       0.00274348 </v>
   <v>       0.00274348 </v>
   <v>       0.00274348 </v>
   <v>       0.00274348 </v>
   <v>       0.00274348 </v>
   <v>       0.00274348 </v>
   <v>       0.00274348 </v>
   <v>       0.00274348 </v>
   <v>       0.00274348 </v>
   <v>       0.00274348 </v>
   <v>       0.00274348 </v>
   <v>       0.00274348 </v>
   <v>       0.00274348 </v>
   <v>       0.00274348 </v>
   <v>       0.00274348 </v>
   <v>       0.00274348 </v>
   <v>       0.00274348 </v>
   <v>       0.00274348 </v>
   <v>       0.00274348 </v>
   <v>       0.00274348 </v>
   <v>       0.00274348 </v>
   <v>       0.00274348 </v>
   <v>       0.00274348 </v>
   <v>       0.00274348 </v>
   <v>       0.00274348 </v>
   <v>       0.00274348 </v>
   <v>       0.00274348 </v>
   <v>       0.00274348 </v>
   <v>       0.00274348 </v>
   <v>       0.00274348 </v>
   <v>       0.00274348 </v>
   <v>       0.00274348 </v>
   <v>       0.00274348 </v>
   <v>       0.00274348 </v>
   <v>       0.00274348 </v>
   <v>       0.00274348 </v>
   <v>       0.00274348 </v>
   <v>       0.00274348 </v>
   <v>       0.00274348 </v>
   <v>       0.00274348 </v>
   <v>       0.00274348 </v>
   <v>       0.00274348 </v>
   <v>       0.00274348 </v>
   <v>       0.00274348 </v>
   <v>       0.00274348 </v>
   <v>       0.00274348 </v>
   <v>       0.00274348 </v>
   <v>       0.00274348 </v>
   <v>       0.00274348 </v>
   <v>       0.00274348 </v>
   <v>       0.00274348 </v>
   <v>       0.00274348 </v>
   <v>       0.00274348 </v>
   <v>       0.00274348 </v>
   <v>       0.00274348 </v>
   <v>       0.00274348 </v>
   <v>       0.00274348 </v>
   <v>       0.00274348 </v>
   <v>       0.00274348 </v>
   <v>       0.00274348 </v>
   <v>       0.00274348 </v>
   <v>       0.00274348 </v>
   <v>       0.00274348 </v>
   <v>       0.00274348 </v>
   <v>       0.00274348 </v>
   <v>       0.00274348 </v>
   <v>       0.00274348 </v>
   <v>       0.00274348 </v>
   <v>       0.00274348 </v>
   <v>       0.00274348 </v>
   <v>       0.00274348 </v>
   <v>       0.00274348 </v>
   <v>       0.00274348 </v>
   <v>       0.00274348 </v>
   <v>       0.00274348 </v>
   <v>       0.00274348 </v>
   <v>       0.00274348 </v>
   <v>       0.00274348 </v>
   <v>       0.00274348 </v>
   <v>       0.00274348 </v>
   <v>       0.00274348 </v>
   <v>       0.00274348 </v>
   <v>       0.00274348 </v>
   <v>       0.00274348 </v>
   <v>       0.00274348 </v>
   <v>       0.00274348 </v>
   <v>       0.00274348 </v>
   <v>       0.00274348 </v>
   <v>       0.00274348 </v>
   <v>       0.00274348 </v>
   <v>       0.00274348 </v>
   <v>       0.00274348 </v>
   <v>       0.00274348 </v>
   <v>       0.00274348 </v>
   <v>       0.00274348 </v>
   <v>       0.00274348 </v>
   <v>       0.00274348 </v>
   <v>       0.00274348 </v>
   <v>       0.00274348 </v>
   <v>       0.00274348 </v>
   <v>       0.00274348 </v>
   <v>       0.00274348 </v>
   <v>       0.00274348 </v>
   <v>       0.00274348 </v>
   <v>       0.00274348 </v>
   <v>       0.00274348 </v>
   <v>       0.00274348 </v>
   <v>       0.00274348 </v>
   <v>       0.00274348 </v>
   <v>       0.00274348 </v>
   <v>       0.00274348 </v>
   <v>       0.00274348 </v>
   <v>       0.00274348 </v>
   <v>       0.00274348 </v>
   <v>       0.00274348 </v>
   <v>       0.00274348 </v>
   <v>       0.00274348 </v>
   <v>       0.00274348 </v>
   <v>       0.00274348 </v>
   <v>       0.00274348 </v>
   <v>       0.00274348 </v>
   <v>       0.00274348 </v>
   <v>       0.00274348 </v>
   <v>       0.00274348 </v>
   <v>       0.00274348 </v>
   <v>       0.00274348 </v>
   <v>       0.00274348 </v>
   <v>       0.00274348 </v>
   <v>       0.00274348 </v>
   <v>       0.00274348 </v>
   <v>       0.00274348 </v>
   <v>       0.00274348 </v>
   <v>       0.00274348 </v>
   <v>       0.00274348 </v>
   <v>       0.00274348 </v>
   <v>       0.00274348 </v>
   <v>       0.00274348 </v>
   <v>       0.00274348 </v>
   <v>       0.00274348 </v>
   <v>       0.00274348 </v>
   <v>       0.00274348 </v>
   <v>       0.00274348 </v>
   <v>       0.00274348 </v>
   <v>       0.00274348 </v>
   <v>       0.00274348 </v>
   <v>       0.00274348 </v>
   <v>       0.00274348 </v>
   <v>       0.00274348 </v>
   <v>       0.00274348 </v>
   <v>       0.00274348 </v>
   <v>       0.00274348 </v>
   <v>       0.00274348 </v>
   <v>       0.00274348 </v>
   <v>       0.00274348 </v>
   <v>       0.00274348 </v>
   <v>       0.00274348 </v>
   <v>       0.00274348 </v>
   <v>       0.00274348 </v>
   <v>       0.00274348 </v>
   <v>       0.00274348 </v>
   <v>       0.00274348 </v>
   <v>       0.00274348 </v>
   <v>       0.00274348 </v>
   <v>       0.00274348 </v>
   <v>       0.00274348 </v>
   <v>       0.00274348 </v>
   <v>       0.00274348 </v>
   <v>       0.00274348 </v>
   <v>       0.00274348 </v>
   <v>       0.00274348 </v>
   <v>       0.00274348 </v>
   <v>       0.00274348 </v>
   <v>       0.00274348 </v>
   <v>       0.00274348 </v>
   <v>       0.00274348 </v>
   <v>       0.00274348 </v>
   <v>       0.00274348 </v>
   <v>       0.00274348 </v>
   <v>       0.00274348 </v>
   <v>       0.00274348 </v>
   <v>       0.00274348 </v>
   <v>       0.00274348 </v>
   <v>       0.00274348 </v>
   <v>       0.00274348 </v>
   <v>       0.00274348 </v>
   <v>       0.00274348 </v>
   <v>       0.00274348 </v>
   <v>       0.00274348 </v>
   <v>       0.00274348 </v>
   <v>       0.00274348 </v>
   <v>       0.00274348 </v>
   <v>       0.00274348 </v>
   <v>       0.00274348 </v>
   <v>       0.00274348 </v>
   <v>       0.00274348 </v>
   <v>       0.00274348 </v>
   <v>       0.00274348 </v>
   <v>       0.00274348 </v>
   <v>       0.00274348 </v>
   <v>       0.00274348 </v>
   <v>       0.00274348 </v>
   <v>       0.00274348 </v>
   <v>       0.00274348 </v>
   <v>       0.00274348 </v>
   <v>       0.00274348 </v>
   <v>       0.00274348 </v>
   <v>       0.00274348 </v>
   <v>       0.00274348 </v>
   <v>       0.00274348 </v>
   <v>       0.00274348 </v>
   <v>       0.00274348 </v>
   <v>       0.00274348 </v>
   <v>       0.00274348 </v>
   <v>       0.00274348 </v>
   <v>       0.00274348 </v>
   <v>       0.00274348 </v>
   <v>       0.00274348 </v>
   <v>       0.00274348 </v>
   <v>       0.00274348 </v>
   <v>       0.00274348 </v>
   <v>       0.00274348 </v>
   <v>       0.00274348 </v>
   <v>       0.00274348 </v>
   <v>       0.00274348 </v>
   <v>       0.00274348 </v>
   <v>       0.00274348 </v>
   <v>       0.00274348 </v>
   <v>       0.00274348 </v>
   <v>       0.00274348 </v>
   <v>       0.00274348 </v>
   <v>       0.00274348 </v>
   <v>       0.00274348 </v>
   <v>       0.00274348 </v>
   <v>       0.00274348 </v>
   <v>       0.00274348 </v>
   <v>       0.00274348 </v>
   <v>       0.00274348 </v>
   <v>       0.00274348 </v>
   <v>       0.00274348 </v>
   <v>       0.00274348 </v>
   <v>       0.00274348 </v>
   <v>       0.00274348 </v>
   <v>       0.00274348 </v>
   <v>       0.00274348 </v>
   <v>       0.00274348 </v>
   <v>       0.00274348 </v>
   <v>       0.00274348 </v>
   <v>       0.00274348 </v>
   <v>       0.00274348 </v>
   <v>       0.00274348 </v>
   <v>       0.00274348 </v>
   <v>       0.00274348 </v>
   <v>       0.00274348 </v>
   <v>       0.00274348 </v>
   <v>       0.00274348 </v>
   <v>       0.00274348 </v>
   <v>       0.00274348 </v>
   <v>       0.00274348 </v>
   <v>       0.00274348 </v>
   <v>       0.00274348 </v>
   <v>       0.00274348 </v>
   <v>       0.00274348 </v>
   <v>       0.00274348 </v>
   <v>       0.00274348 </v>
   <v>       0.00274348 </v>
   <v>       0.00274348 </v>
   <v>       0.00274348 </v>
   <v>       0.00274348 </v>
   <v>       0.00274348 </v>
   <v>       0.00274348 </v>
   <v>       0.00274348 </v>
   <v>       0.00274348 </v>
   <v>       0.00274348 </v>
   <v>       0.00274348 </v>
   <v>       0.00274348 </v>
   <v>       0.00274348 </v>
  </varray>
 </kpoints>
 <parameters>
  <separator name="general" >
   <i type="string" name="SYSTEM">Og_FCC</i>
   <i type="logical" name="LCOMPAT"> F  </i>
  </separator>
  <separator name="electronic" >
   <i type="string" name="PREC">accura</i>
   <i name="ENMAX">    600.00000000</i>
   <i name="ENAUG">    361.02500000</i>
   <i name="EDIFF">      0.00000010</i>
   <i type="int" name="IALGO">    68</i>
   <i type="int" name="IWAVPR">    11</i>
   <i type="int" name="NBANDS">    28</i>
   <i name="NELECT">     18.00000000</i>
   <i type="int" name="TURBO">     0</i>
   <i type="int" name="IRESTART">     0</i>
   <i type="int" name="NREBOOT">     0</i>
   <i type="int" name="NMIN">     0</i>
   <i name="EREF">      0.00000000</i>
   <separator name="electronic smearing" >
    <i type="int" name="ISMEAR">     1</i>
    <i name="SIGMA">      0.10000000</i>
    <i name="KSPACING">      0.20000000</i>
    <i type="logical" name="KGAMMA"> T  </i>
   </separator>
   <separator name="electronic projectors" >
    <i type="logical" name="LREAL"> F  </i>
    <v name="ROPT">      0.00000000</v>
    <i type="int" name="LMAXPAW">  -100</i>
    <i type="int" name="LMAXMIX">     2</i>
    <i type="logical" name="NLSPLINE"> F  </i>
   </separator>
   <separator name="electronic startup" >
    <i type="int" name="ISTART">     0</i>
    <i type="int" name="ICHARG">     2</i>
    <i type="int" name="INIWAV">     1</i>
   </separator>
   <separator name="electronic spin" >
    <i type="int" name="ISPIN">     1</i>
    <i type="logical" name="LNONCOLLINEAR"> T  </i>
    <v name="MAGMOM">      1.00000000      1.00000000      1.00000000</v>
    <i name="NUPDOWN">     -1.00000000</i>
    <i type="logical" name="LSORBIT"> T  </i>
    <v name="SAXIS">      0.00000000      0.00000000      1.00000000</v>
    <i type="logical" name="LSPIRAL"> F  </i>
    <v name="QSPIRAL">      0.00000000      0.00000000      0.00000000</v>
    <i type="logical" name="LZEROZ"> F  </i>
   </separator>
   <separator name="electronic exchange-correlation" >
    <i type="logical" name="LASPH"> F  </i>
    <i type="logical" name="LMETAGGA"> F  </i>
   </separator>
   <separator name="electronic convergence" >
    <i type="int" name="NELM">   100</i>
    <i type="int" name="NELMDL">    -5</i>
    <i type="int" name="NELMIN">     5</i>
    <i name="ENINI">    600.00000000</i>
    <separator name="electronic convergence detail" >
     <i type="logical" name="LDIAG"> T  </i>
     <i type="logical" name="LSUBROT"> F  </i>
     <i name="WEIMIN">      0.00100000</i>
     <i name="EBREAK">      0.00000000</i>
     <i name="DEPER">      0.30000000</i>
     <i type="int" name="NRMM">     4</i>
     <i name="TIME">      0.40000000</i>
    </separator>
   </separator>
   <separator name="electronic mixer" >
    <i name="AMIX">      0.40000000</i>
    <i name="BMIX">      1.00000000</i>
    <i name="AMIN">      0.10000000</i>
    <i name="AMIX_MAG">      1.60000000</i>
    <i name="BMIX_MAG">      1.00000000</i>
    <separator name="electronic mixer details" >
     <i type="int" name="IMIX">     4</i>
     <i type="logical" name="MIXFIRST"> F  </i>
     <i type="int" name="MAXMIX">    50</i>
     <i name="WC">    100.00000000</i>
     <i type="int" name="INIMIX">     1</i>
     <i type="int" name="MIXPRE">     1</i>
     <i type="int" name="MREMOVE">     5</i>
    </separator>
   </separator>
   <separator name="electronic dipolcorrection" >
    <i type="logical" name="LDIPOL"> F  </i>
    <i type="logical" name="LMONO"> F  </i>
    <i type="int" name="IDIPOL">     0</i>
    <i name="EPSILON">      1.00000000</i>
    <v name="DIPOL">   -100.00000000   -100.00000000   -100.00000000</v>
    <i name="EFIELD">      0.00000000</i>
   </separator>
  </separator>
  <separator name="grids" >
   <i type="int" name="NGX">    36</i>
   <i type="int" name="NGY">    36</i>
   <i type="int" name="NGZ">    36</i>
   <i type="int" name="NGXF">    72</i>
   <i type="int" name="NGYF">    72</i>
   <i type="int" name="NGZF">    72</i>
   <i type="logical" name="ADDGRID"> T  </i>
  </separator>
  <separator name="ionic" >
   <i type="int" name="NSW">   999</i>
   <i type="int" name="IBRION">     1</i>
   <i type="int" name="MDALGO">     0</i>
   <i type="int" name="ISIF">     7</i>
   <i name="PSTRESS">      0.00000000</i>
   <i name="EDIFFG">      0.00001000</i>
   <i type="int" name="NFREE">     5</i>
   <i name="POTIM">      0.10000000</i>
   <i name="SMASS">     -3.00000000</i>
   <i name="SCALEE">      1.00000000</i>
  </separator>
  <separator name="ionic md" >
   <i name="TEBEG">      0.00010000</i>
   <i name="TEEND">      0.00010000</i>
   <i type="int" name="NBLOCK">     1</i>
   <i type="int" name="KBLOCK">   999</i>
   <i type="int" name="NPACO">   256</i>
   <i name="APACO">     16.00000000</i>
  </separator>
  <separator name="symmetry" >
   <i type="int" name="ISYM">     2</i>
   <i name="SYMPREC">      0.00000010</i>
  </separator>
  <separator name="dos" >
   <i type="int" name="LORBIT">     0</i>
   <v name="RWIGS">     -1.00000000</v>
   <i type="int" name="NEDOS">   301</i>
   <i name="EMIN">     10.00000000</i>
   <i name="EMAX">    -10.00000000</i>
   <i name="EFERMI">      0.00000000</i>
  </separator>
  <separator name="writing" >
   <i type="int" name="NWRITE">     2</i>
   <i type="logical" name="LWAVE"> F  </i>
   <i type="logical" name="LDOWNSAMPLE"> F  </i>
   <i type="logical" name="LCHARG"> F  </i>
   <i type="logical" name="LPARD"> F  </i>
   <i type="logical" name="LVTOT"> F  </i>
   <i type="logical" name="LVHAR"> F  </i>
   <i type="logical" name="LELF"> F  </i>
   <i type="logical" name="LOPTICS"> F  </i>
   <v name="STM">      0.00000000      0.00000000      0.00000000      0.00000000      0.00000000      0.00000000      0.00000000</v>
  </separator>
  <separator name="performance" >
   <i type="int" name="NPAR">     1</i>
   <i type="int" name="NSIM">     4</i>
   <i type="int" name="NBLK">    -1</i>
   <i type="logical" name="LPLANE"> T  </i>
   <i type="logical" name="LSCALAPACK"> T  </i>
   <i type="logical" name="LSCAAWARE"> F  </i>
   <i type="logical" name="LSCALU"> F  </i>
   <i type="logical" name="LASYNC"> F  </i>
   <i type="logical" name="LORBITALREAL"> F  </i>
  </separator>
  <separator name="miscellaneous" >
   <i type="int" name="IDIOT">     3</i>
   <i type="int" name="ISPECIAL">     0</i>
   <i type="logical" name="LMUSIC"> F  </i>
   <v name="POMASS">      0.01000000</v>
   <v name="DARWINR">      0.00000000</v>
   <v name="DARWINV">      1.00000000</v>
   <i type="logical" name="LCORR"> T  </i>
  </separator>
  <i type="logical" name="GGA_COMPAT"> F  </i>
  <i type="logical" name="LBERRY"> F  </i>
  <i type="int" name="ICORELEVEL">     0</i>
  <i type="logical" name="LDAU"> F  </i>
  <i type="int" name="I_CONSTRAINED_M">     0</i>
  <separator name="electronic exchange-correlation" >
   <i type="string" name="GGA">PE</i>
   <i type="int" name="VOSKOWN">     0</i>
   <i type="logical" name="LHFCALC"> F  </i>
   <i type="string" name="PRECFOCK"></i>
   <i type="logical" name="LSYMGRAD"> F  </i>
   <i type="logical" name="LHFONE"> F  </i>
   <i type="logical" name="LRHFCALC"> F  </i>
   <i type="logical" name="LTHOMAS"> F  </i>
   <i type="logical" name="LMODELHF"> F  </i>
   <i name="ENCUT4O">     -1.00000000</i>
   <i type="int" name="EXXOEP">     0</i>
   <i type="int" name="FOURORBIT">     0</i>
   <i name="AEXX">      0.00000000</i>
   <i name="HFALPHA">      0.00000000</i>
   <i name="MCALPHA">      0.00000000</i>
   <i name="ALDAX">      1.00000000</i>
   <i name="AGGAX">      1.00000000</i>
   <i name="ALDAC">      1.00000000</i>
   <i name="AGGAC">      1.00000000</i>
   <i type="int" name="NKREDX">     1</i>
   <i type="int" name="NKREDY">     1</i>
   <i type="int" name="NKREDZ">     1</i>
   <i type="logical" name="SHIFTRED"> F  </i>
   <i type="logical" name="ODDONLY"> F  </i>
   <i type="logical" name="EVENONLY"> F  </i>
   <i type="int" name="LMAXFOCK">     0</i>
   <i type="int" name="NMAXFOCKAE">     0</i>
   <i type="logical" name="LFOCKAEDFT"> F  </i>
   <i name="HFSCREEN">      0.00000000</i>
   <i name="HFSCREENC">      0.00000000</i>
   <i type="int" name="NBANDSGWLOW">     0</i>
  </separator>
  <separator name="vdW DFT" >
   <i type="logical" name="LUSE_VDW"> F  </i>
   <i name="Zab_VDW">     -0.84910000</i>
   <i name="PARAM1">      0.12340000</i>
   <i name="PARAM2">      1.00000000</i>
   <i name="PARAM3">      0.00000000</i>
  </separator>
  <separator name="model GW" >
   <i type="int" name="MODEL_GW">     0</i>
   <i name="MODEL_EPS0">     34.86895852</i>
   <i name="MODEL_ALPHA">      1.00000000</i>
  </separator>
  <separator name="linear response parameters" >
   <i type="logical" name="LEPSILON"> F  </i>
   <i type="logical" name="LRPA"> F  </i>
   <i type="logical" name="LNABLA"> F  </i>
   <i type="logical" name="LVEL"> F  </i>
   <i type="int" name="KINTER">     0</i>
   <i name="CSHIFT">      0.10000000</i>
   <i name="OMEGAMAX">     -1.00000000</i>
   <i name="DEG_THRESHOLD">      0.00200000</i>
   <i name="RTIME">     -0.10000000</i>
   <i name="WPLASMAI">      0.00000000</i>
   <v name="DFIELD">      0.00000000      0.00000000      0.00000000</v>
   <v name="WPLASMA">      0.00000000      0.00000000      0.00000000      0.00000000      0.00000000      0.00000000      0.00000000      0.00000000      0.00000000</v>
  </separator>
  <separator name="orbital magnetization" >
   <i type="logical" name="NUCIND"> F  </i>
   <v name="MAGPOS">      0.00000000      0.00000000      0.00000000</v>
   <i type="logical" name="LNICSALL"> T  </i>
   <i type="logical" name="ORBITALMAG"> F  </i>
   <i type="logical" name="LMAGBLOCH"> F  </i>
   <i type="logical" name="LCHIMAG"> F  </i>
   <i type="logical" name="LGAUGE"> T  </i>
   <i type="int" name="MAGATOM">     0</i>
   <v name="MAGDIPOL">      0.00000000      0.00000000      0.00000000</v>
   <v name="AVECCONST">      0.00000000      0.00000000      0.00000000</v>
  </separator>
  <separator name="response functions" >
   <i type="logical" name="LADDER"> F  </i>
   <i type="logical" name="LRPAFORCE"> F  </i>
   <i type="logical" name="LFXC"> F  </i>
   <i type="logical" name="LHARTREE"> T  </i>
   <i type="int" name="IBSE">     0</i>
   <v type="int" name="KPOINT">    -1     0     0     0</v>
   <i type="logical" name="LTCTE"> F  </i>
   <i type="logical" name="LTETE"> F  </i>
   <i type="logical" name="LTRIPLET"> F  </i>
   <i type="logical" name="LFXCEPS"> F  </i>
   <i type="logical" name="LFXHEG"> F  </i>
   <i type="int" name="NATURALO">     2</i>
   <i type="logical" name="L2ORDER"> F  </i>
   <i type="logical" name="LMP2LT"> F  </i>
   <i type="logical" name="LUSEW"> F  </i>
   <i name="ENCUTGW">     -2.00000000</i>
   <i name="ENCUTGWSOFT">     -2.00000000</i>
   <i name="ENCUTLF">     -1.00000000</i>
   <i type="int" name="LMAXMP2">    -1</i>
   <i name="SCISSOR">      0.00000000</i>
   <i type="int" name="NOMEGA">     0</i>
   <i type="int" name="NOMEGAR">     0</i>
   <i type="int" name="NBANDSGW">    -1</i>
   <i type="int" name="NBANDSO">    -1</i>
   <i type="int" name="NBANDSV">    -1</i>
   <i type="int" name="NELM">   100</i>
   <i type="int" name="NELMHF">     1</i>
   <i type="int" name="DIM">     3</i>
   <i type="int" name="ANTIRES">     0</i>
   <i name="OMEGAMAX">    -30.00000000</i>
   <i name="OMEGAMIN">    -30.00000000</i>
   <i name="OMEGATL">   -200.00000000</i>
   <i type="int" name="OMEGAGRID">   140</i>
   <i name="CSHIFT">     -0.10000000</i>
   <i type="logical" name="SELFENERGY"> F  </i>
   <i type="logical" name="LSPECTRAL"> F  </i>
   <i type="logical" name="LSPECTRALGW"> F  </i>
   <i type="logical" name="LSINGLES"> F  </i>
   <i type="logical" name="LFERMIGW"> F  </i>
   <i type="logical" name="ODDONLYGW"> F  </i>
   <i type="logical" name="EVENONLYGW"> F  </i>
   <i type="int" name="NKREDLFX">     1</i>
   <i type="int" name="NKREDLFY">     1</i>
   <i type="int" name="NKREDLFZ">     1</i>
   <i type="int" name="MAXMEM">  2800</i>
   <i type="int" name="TELESCOPE">     0</i>
   <i type="int" name="TAUPAR">     1</i>
   <i type="int" name="OMEGAPAR">    -1</i>
   <i name="LAMBDA">      1.00000000</i>
  </separator>
  <separator name="External order field" >
   <i name="OFIELD_KAPPA">      0.00000000</i>
   <v name="OFIELD_K">      0.00000000      0.00000000      0.00000000</v>
   <i name="OFIELD_Q6_NEAR">      0.00000000</i>
   <i name="OFIELD_Q6_FAR">      0.00000000</i>
   <i name="OFIELD_A">      0.00000000</i>
  </separator>
 </parameters>
 <atominfo>
  <atoms>       1 </atoms>
  <types>       1 </types>
  <array name="atoms" >
   <dimension dim="1">ion</dimension>
   <field type="string">element</field>
   <field type="int">atomtype</field>
   <set>
    <rc><c>Og</c><c>   1</c></rc>
   </set>
  </array>
  <array name="atomtypes" >
   <dimension dim="1">type</dimension>
   <field type="int">atomspertype</field>
   <field type="string">element</field>
   <field>mass</field>
   <field>valence</field>
   <field type="string">pseudopotential</field>
   <set>
    <rc><c>   1</c><c>Og</c><c>      0.01000000</c><c>     18.00000000</c><c>  PAW Og, JanMewes Oct 18               </c></rc>
   </set>
  </array>
 </atominfo>
 <structure name="initialpos" >
  <crystal>
   <varray name="basis" >
    <v>       4.34778014       0.00000000       0.00000000 </v>
    <v>       2.17389007       3.76528805      -0.00000000 </v>
    <v>       2.17389007       1.25509602       3.54994762 </v>
   </varray>
   <i name="volume">     58.11493087 </i>
   <varray name="rec_basis" >
    <v>       0.23000243      -0.13279197      -0.09389810 </v>
    <v>       0.00000000       0.26558393      -0.09389810 </v>
    <v>      -0.00000000       0.00000000       0.28169430 </v>
   </varray>
  </crystal>
  <varray name="positions" >
   <v>       0.00000000       0.00000000       0.00000000 </v>
  </varray>
 </structure>
 <calculation>
  <scstep>
   <time name="dav">    7.57    7.57</time>
   <time name="total">    8.11    8.11</time>
   <energy>
    <i name="alphaZ">     65.65019596 </i>
    <i name="ewald">  -1739.46137932 </i>
    <i name="hartreedc">   -661.33100310 </i>
    <i name="XCdc">    -69.16142381 </i>
    <i name="pawpsdc">   2268.28454800 </i>
    <i name="pawaedc">  -2184.08492831 </i>
    <i name="eentropy">      0.00022301 </i>
    <i name="bandstr">    -11.96725996 </i>
    <i name="atom">   2640.52872706 </i>
    <i name="e_fr_energy">    308.45769954 </i>
    <i name="e_wo_entrp">    308.45747653 </i>
    <i name="e_0_energy">    308.45762520 </i>
   </energy>
  </scstep>
  <scstep>
   <time name="dav">    8.94    8.94</time>
   <time name="total">    8.95    8.94</time>
   <energy>
    <i name="e_fr_energy">      1.73475342 </i>
    <i name="e_wo_entrp">      1.73468720 </i>
    <i name="e_0_energy">      1.73473135 </i>
   </energy>
  </scstep>
  <scstep>
   <time name="dav">    8.45    8.44</time>
   <time name="total">    8.45    8.45</time>
   <energy>
    <i name="e_fr_energy">    -12.92013702 </i>
    <i name="e_wo_entrp">    -12.92016895 </i>
    <i name="e_0_energy">    -12.92014766 </i>
   </energy>
  </scstep>
  <scstep>
   <time name="dav">   10.10   10.10</time>
   <time name="total">   10.11   10.10</time>
   <energy>
    <i name="e_fr_energy">    -13.36741735 </i>
    <i name="e_wo_entrp">    -13.36743133 </i>
    <i name="e_0_energy">    -13.36742201 </i>
   </energy>
  </scstep>
  <scstep>
   <time name="dav">    9.02    9.01</time>
   <time name="total">   10.19   10.19</time>
   <energy>
    <i name="e_fr_energy">    -13.38174358 </i>
    <i name="e_wo_entrp">    -13.38175730 </i>
    <i name="e_0_energy">    -13.38174816 </i>
   </energy>
  </scstep>
  <scstep>
   <time name="diag">    1.79    1.79</time>
   <time name="diis">    8.59    8.59</time>
   <time name="orth">    0.06    0.06</time>
   <time name="total">   12.06   12.06</time>
   <energy>
    <i name="e_fr_energy">    -13.26470949 </i>
    <i name="e_wo_entrp">    -13.26471221 </i>
    <i name="e_0_energy">    -13.26471039 </i>
   </energy>
  </scstep>
  <scstep>
   <time name="diag">    1.78    1.78</time>
   <time name="diis">    8.55    8.55</time>
   <time name="orth">    0.06    0.06</time>
   <time name="total">   12.03   12.02</time>
   <energy>
    <i name="e_fr_energy">    -13.26240550 </i>
    <i name="e_wo_entrp">    -13.26239852 </i>
    <i name="e_0_energy">    -13.26240317 </i>
   </energy>
  </scstep>
  <scstep>
   <time name="diag">    1.78    1.78</time>
   <time name="diis">    8.38    8.38</time>
   <time name="orth">    0.06    0.06</time>
   <time name="total">   11.92   11.91</time>
   <energy>
    <i name="e_fr_energy">    -13.27455528 </i>
    <i name="e_wo_entrp">    -13.27453828 </i>
    <i name="e_0_energy">    -13.27454962 </i>
   </energy>
  </scstep>
  <scstep>
   <time name="diag">    1.78    1.78</time>
   <time name="diis">    8.91    8.91</time>
   <time name="orth">    0.06    0.06</time>
   <time name="total">   12.50   12.49</time>
   <energy>
    <i name="e_fr_energy">    -13.28039833 </i>
    <i name="e_wo_entrp">    -13.28037811 </i>
    <i name="e_0_energy">    -13.28039159 </i>
   </energy>
  </scstep>
  <scstep>
   <time name="diag">    1.78    1.78</time>
   <time name="diis">    9.35    9.35</time>
   <time name="orth">    0.06    0.06</time>
   <time name="total">   12.94   12.94</time>
   <energy>
    <i name="e_fr_energy">    -13.28183935 </i>
    <i name="e_wo_entrp">    -13.28181692 </i>
    <i name="e_0_energy">    -13.28183187 </i>
   </energy>
  </scstep>
  <scstep>
   <time name="diag">    1.78    1.78</time>
   <time name="diis">    8.70    8.70</time>
   <time name="orth">    0.06    0.06</time>
   <time name="total">   12.29   12.28</time>
   <energy>
    <i name="e_fr_energy">    -13.28191325 </i>
    <i name="e_wo_entrp">    -13.28189035 </i>
    <i name="e_0_energy">    -13.28190561 </i>
   </energy>
  </scstep>
  <scstep>
   <time name="diag">    1.79    1.79</time>
   <time name="diis">    8.35    8.34</time>
   <time name="orth">    0.06    0.06</time>
   <time name="total">   11.94   11.94</time>
   <energy>
    <i name="e_fr_energy">    -13.28196848 </i>
    <i name="e_wo_entrp">    -13.28194527 </i>
    <i name="e_0_energy">    -13.28196074 </i>
   </energy>
  </scstep>
  <scstep>
   <time name="diag">    1.77    1.77</time>
   <time name="diis">    8.49    8.49</time>
   <time name="orth">    0.06    0.06</time>
   <time name="total">   12.08   12.07</time>
   <energy>
    <i name="e_fr_energy">    -13.28197821 </i>
    <i name="e_wo_entrp">    -13.28195501 </i>
    <i name="e_0_energy">    -13.28197048 </i>
   </energy>
  </scstep>
  <scstep>
   <time name="diag">    1.78    1.78</time>
   <time name="diis">    8.52    8.52</time>
   <time name="orth">    0.06    0.06</time>
   <time name="total">   12.12   12.12</time>
   <energy>
    <i name="e_fr_energy">    -13.28198076 </i>
    <i name="e_wo_entrp">    -13.28195757 </i>
    <i name="e_0_energy">    -13.28197303 </i>
   </energy>
  </scstep>
  <scstep>
   <time name="diag">    1.78    1.78</time>
   <time name="diis">    9.24    9.23</time>
   <time name="orth">    0.06    0.06</time>
   <time name="total">   12.84   12.83</time>
   <energy>
    <i name="e_fr_energy">    -13.28198184 </i>
    <i name="e_wo_entrp">    -13.28195865 </i>
    <i name="e_0_energy">    -13.28197411 </i>
   </energy>
  </scstep>
  <scstep>
   <time name="diag">    1.78    1.78</time>
   <time name="diis">    7.65    7.65</time>
   <time name="orth">    0.06    0.06</time>
   <time name="total">   11.26   11.25</time>
   <energy>
    <i name="e_fr_energy">    -13.28198124 </i>
    <i name="e_wo_entrp">    -13.28195805 </i>
    <i name="e_0_energy">    -13.28197351 </i>
   </energy>
  </scstep>
  <scstep>
   <time name="diag">    1.80    1.80</time>
   <time name="diis">    6.64    6.64</time>
   <time name="orth">    0.06    0.06</time>
   <time name="total">   10.27   10.27</time>
   <energy>
    <i name="e_fr_energy">    -13.28198111 </i>
    <i name="e_wo_entrp">    -13.28195792 </i>
    <i name="e_0_energy">    -13.28197338 </i>
   </energy>
  </scstep>
  <scstep>
   <time name="diag">    1.79    1.79</time>
   <time name="diis">    6.06    6.06</time>
   <time name="orth">    0.06    0.06</time>
   <time name="total">    8.46    8.45</time>
   <energy>
    <i name="alphaZ">     65.65019596 </i>
    <i name="ewald">  -1739.46137932 </i>
    <i name="hartreedc">   -673.95792728 </i>
    <i name="XCdc">    -68.79496162 </i>
    <i name="pawpsdc">   2321.04278230 </i>
    <i name="pawaedc">  -2245.62662942 </i>
    <i name="eentropy">     -0.00002319 </i>
    <i name="bandstr">   -312.66276564 </i>
    <i name="atom">   2640.52872706 </i>
    <i name="e_fr_energy">    -13.28198115 </i>
    <i name="e_wo_entrp">    -13.28195796 </i>
    <i name="e_0_energy">    -13.28197342 </i>
   </energy>
  </scstep>
  <structure>
   <crystal>
    <varray name="basis" >
     <v>       4.34778014       0.00000000       0.00000000 </v>
     <v>       2.17389007       3.76528805      -0.00000000 </v>
     <v>       2.17389007       1.25509602       3.54994762 </v>
    </varray>
    <i name="volume">     58.11493087 </i>
    <varray name="rec_basis" >
     <v>       0.23000243      -0.13279197      -0.09389810 </v>
     <v>       0.00000000       0.26558393      -0.09389810 </v>
     <v>      -0.00000000       0.00000000       0.28169430 </v>
    </varray>
   </crystal>
   <varray name="positions" >
    <v>       0.00000000       0.00000000       0.00000000 </v>
   </varray>
  </structure>
  <varray name="forces" >
   <v>       0.00000000       0.00000000       0.00000000 </v>
  </varray>
  <varray name="stress" >
   <v>      -0.14374256      -0.00002950      -0.00022126 </v>
   <v>      -0.00002760      -0.14377810      -0.00026812 </v>
   <v>      -0.00021191      -0.00025055      -0.14393318 </v>
  </varray>
  <energy>
   <i name="e_fr_energy">    -13.72025966 </i>
   <i name="e_wo_entrp">    -13.72025193 </i>
   <i name="e_0_energy">     -0.00002319 </i>
  </energy>
  <time name="totalsc">  209.59  209.50</time>
  <eigenvalues>
   <array>
    <dimension dim="1">band</dimension>
    <dimension dim="2">kpoint</dimension>
    <dimension dim="3">spin</dimension>
    <field>eigene</field>
    <field>occ</field>
    <set>
     <set comment="spin 1">
      <set comment="kpoint 1">
       <r>  -30.5195    1.0000 </r>
       <r>  -30.5195    1.0000 </r>
       <r>  -30.5195    1.0000 </r>
       <r>  -30.5195    1.0000 </r>
       <r>  -23.8316    1.0000 </r>
       <r>  -23.8316    1.0000 </r>
       <r>  -23.8277    1.0000 </r>
       <r>  -23.8277    1.0000 </r>
       <r>  -23.8277    1.0000 </r>
       <r>  -23.8277    1.0000 </r>
       <r>  -20.2521    1.0000 </r>
       <r>  -20.2521    1.0000 </r>
       <r>   -6.9378    1.0000 </r>
       <r>   -6.9378    1.0000 </r>
       <r>    3.6878    1.0029 </r>
       <r>    3.6878    1.0029 </r>
       <r>    3.9114    0.5410 </r>
       <r>    3.9114    0.5410 </r>
       <r>    3.9114    0.5410 </r>
       <r>    3.9114    0.5410 </r>
       <r>   10.8455    0.0000 </r>
       <r>   10.8455    0.0000 </r>
       <r>   10.8455    0.0000 </r>
       <r>   10.8455    0.0000 </r>
       <r>   11.0865    0.0000 </r>
       <r>   11.0866    0.0000 </r>
       <r>   11.2691    0.0000 </r>
       <r>   11.2697    0.0000 </r>
      </set>
      <set comment="kpoint 2">
       <r>  -30.5194    1.0000 </r>
       <r>  -30.5194    1.0000 </r>
       <r>  -30.5192    1.0000 </r>
       <r>  -30.5192    1.0000 </r>
       <r>  -23.8308    1.0000 </r>
       <r>  -23.8308    1.0000 </r>
       <r>  -23.8278    1.0000 </r>
       <r>  -23.8278    1.0000 </r>
       <r>  -23.8268    1.0000 </r>
       <r>  -23.8268    1.0000 </r>
       <r>  -20.2396    1.0000 </r>
       <r>  -20.2396    1.0000 </r>
       <r>   -6.9800    1.0000 </r>
       <r>   -6.9800    1.0000 </r>
       <r>    2.6589    1.0000 </r>
       <r>    2.6589    1.0000 </r>
       <r>    3.8371    0.9878 </r>
       <r>    3.8371    0.9878 </r>
       <r>    4.9826   -0.0000 </r>
       <r>    4.9826   -0.0000 </r>
       <r>   10.0130    0.0000 </r>
       <r>   10.0130    0.0000 </r>
       <r>   10.9668    0.0000 </r>
       <r>   10.9669    0.0000 </r>
       <r>   11.2556    0.0000 </r>
       <r>   11.2557    0.0000 </r>
       <r>   12.3710    0.0000 </r>
       <r>   12.6030    0.0000 </r>
      </set>
      <set comment="kpoint 3">
       <r>  -30.5192    1.0000 </r>
       <r>  -30.5192    1.0000 </r>
       <r>  -30.5183    1.0000 </r>
       <r>  -30.5183    1.0000 </r>
       <r>  -23.8297    1.0000 </r>
       <r>  -23.8297    1.0000 </r>
       <r>  -23.8273    1.0000 </r>
       <r>  -23.8273    1.0000 </r>
       <r>  -23.8245    1.0000 </r>
       <r>  -23.8245    1.0000 </r>
       <r>  -20.2077    1.0000 </r>
       <r>  -20.2077    1.0000 </r>
       <r>   -7.0869    1.0000 </r>
       <r>   -7.0869    1.0000 </r>
       <r>    1.7259    1.0000 </r>
       <r>    1.7259    1.0000 </r>
       <r>    3.6610    1.0009 </r>
       <r>    3.6610    1.0009 </r>
       <r>    5.8705   -0.0000 </r>
       <r>    5.8705   -0.0000 </r>
       <r>    9.7888    0.0000 </r>
       <r>    9.7888    0.0000 </r>
       <r>   10.9412    0.0000 </r>
       <r>   10.9413    0.0000 </r>
       <r>   11.3085    0.0000 </r>
       <r>   11.3096    0.0000 </r>
       <r>   11.7583    0.0000 </r>
       <r>   11.9602    0.0000 </r>
      </set>
      <set comment="kpoint 4">
       <r>  -30.5190    1.0000 </r>
       <r>  -30.5190    1.0000 </r>
       <r>  -30.5173    1.0000 </r>
       <r>  -30.5173    1.0000 </r>
       <r>  -23.8299    1.0000 </r>
       <r>  -23.8299    1.0000 </r>
       <r>  -23.8252    1.0000 </r>
       <r>  -23.8252    1.0000 </r>
       <r>  -23.8220    1.0000 </r>
       <r>  -23.8220    1.0000 </r>
       <r>  -20.1708    1.0000 </r>
       <r>  -20.1708    1.0000 </r>
       <r>   -7.2090    1.0000 </r>
       <r>   -7.2090    1.0000 </r>
       <r>    1.0703    1.0000 </r>
       <r>    1.0703    1.0000 </r>
       <r>    3.4780    1.0000 </r>
       <r>    3.4780    1.0000 </r>
       <r>    6.1817   -0.0000 </r>
       <r>    6.1818   -0.0000 </r>
       <r>   10.3683    0.0000 </r>
       <r>   10.3683    0.0000 </r>
       <r>   10.5740    0.0000 </r>
       <r>   10.5740    0.0000 </r>
       <r>   11.0051    0.0000 </r>
       <r>   11.0051    0.0000 </r>
       <r>   11.2451    0.0000 </r>
       <r>   11.2451    0.0000 </r>
      </set>
      <set comment="kpoint 5">
       <r>  -30.5188    1.0000 </r>
       <r>  -30.5188    1.0000 </r>
       <r>  -30.5166    1.0000 </r>
       <r>  -30.5166    1.0000 </r>
       <r>  -23.8303    1.0000 </r>
       <r>  -23.8303    1.0000 </r>
       <r>  -23.8236    1.0000 </r>
       <r>  -23.8236    1.0000 </r>
       <r>  -23.8203    1.0000 </r>
       <r>  -23.8203    1.0000 </r>
       <r>  -20.1464    1.0000 </r>
       <r>  -20.1464    1.0000 </r>
       <r>   -7.2890    1.0000 </r>
       <r>   -7.2890    1.0000 </r>
       <r>    0.7340    1.0000 </r>
       <r>    0.7340    1.0000 </r>
       <r>    3.3668    1.0000 </r>
       <r>    3.3668    1.0000 </r>
       <r>    6.1908   -0.0000 </r>
       <r>    6.1908   -0.0000 </r>
       <r>   10.3188    0.0000 </r>
       <r>   10.3188    0.0000 </r>
       <r>   10.5121    0.0000 </r>
       <r>   10.5121    0.0000 </r>
       <r>   10.7237    0.0000 </r>
       <r>   10.7237    0.0000 </r>
       <r>   11.8669    0.0000 </r>
       <r>   11.8669    0.0000 </r>
      </set>
      <set comment="kpoint 6">
       <r>  -30.5194    1.0000 </r>
       <r>  -30.5194    1.0000 </r>
       <r>  -30.5192    1.0000 </r>
       <r>  -30.5192    1.0000 </r>
       <r>  -23.8308    1.0000 </r>
       <r>  -23.8308    1.0000 </r>
       <r>  -23.8278    1.0000 </r>
       <r>  -23.8278    1.0000 </r>
       <r>  -23.8268    1.0000 </r>
       <r>  -23.8268    1.0000 </r>
       <r>  -20.2396    1.0000 </r>
       <r>  -20.2396    1.0000 </r>
       <r>   -6.9800    1.0000 </r>
       <r>   -6.9800    1.0000 </r>
       <r>    2.6589    1.0000 </r>
       <r>    2.6589    1.0000 </r>
       <r>    3.8371    0.9878 </r>
       <r>    3.8371    0.9878 </r>
       <r>    4.9826   -0.0000 </r>
       <r>    4.9826   -0.0000 </r>
       <r>   10.0130    0.0000 </r>
       <r>   10.0130    0.0000 </r>
       <r>   10.9668    0.0000 </r>
       <r>   10.9669    0.0000 </r>
       <r>   11.2557    0.0000 </r>
       <r>   11.2558    0.0000 </r>
       <r>   12.2998    0.0000 </r>
       <r>   12.5832    0.0000 </r>
      </set>
      <set comment="kpoint 7">
       <r>  -30.5193    1.0000 </r>
       <r>  -30.5193    1.0000 </r>
       <r>  -30.5191    1.0000 </r>
       <r>  -30.5191    1.0000 </r>
       <r>  -23.8307    1.0000 </r>
       <r>  -23.8307    1.0000 </r>
       <r>  -23.8273    1.0000 </r>
       <r>  -23.8273    1.0000 </r>
       <r>  -23.8270    1.0000 </r>
       <r>  -23.8270    1.0000 </r>
       <r>  -20.2355    1.0000 </r>
       <r>  -20.2355    1.0000 </r>
       <r>   -6.9935    1.0000 </r>
       <r>   -6.9935    1.0000 </r>
       <r>    2.5514    1.0000 </r>
       <r>    2.5514    1.0000 </r>
       <r>    3.6597    1.0009 </r>
       <r>    3.6597    1.0009 </r>
       <r>    5.2798   -0.0000 </r>
       <r>    5.2798   -0.0000 </r>
       <r>    9.7178    0.0000 </r>
       <r>    9.7178    0.0000 </r>
       <r>   10.9882    0.0000 </r>
       <r>   10.9882    0.0000 </r>
       <r>   11.5690    0.0000 </r>
       <r>   11.5721    0.0000 </r>
       <r>   11.6269    0.0000 </r>
       <r>   11.6296    0.0000 </r>
      </set>
      <set comment="kpoint 8">
       <r>  -30.5191    1.0000 </r>
       <r>  -30.5191    1.0000 </r>
       <r>  -30.5185    1.0000 </r>
       <r>  -30.5185    1.0000 </r>
       <r>  -23.8297    1.0000 </r>
       <r>  -23.8296    1.0000 </r>
       <r>  -23.8273    1.0000 </r>
       <r>  -23.8273    1.0000 </r>
       <r>  -23.8249    1.0000 </r>
       <r>  -23.8249    1.0000 </r>
       <r>  -20.2100    1.0000 </r>
       <r>  -20.2100    1.0000 </r>
       <r>   -7.0774    1.0000 </r>
       <r>   -7.0774    1.0000 </r>
       <r>    1.8597    1.0000 </r>
       <r>    1.8597    1.0000 </r>
       <r>    3.4396    1.0000 </r>
       <r>    3.4396    1.0000 </r>
       <r>    6.1017   -0.0000 </r>
       <r>    6.1017   -0.0000 </r>
       <r>    9.3438    0.0000 </r>
       <r>    9.3438    0.0000 </r>
       <r>   10.4741    0.0000 </r>
       <r>   10.4741    0.0000 </r>
       <r>   11.4118    0.0000 </r>
       <r>   11.4118    0.0000 </r>
       <r>   12.0792    0.0000 </r>
       <r>   12.0867    0.0000 </r>
      </set>
      <set comment="kpoint 9">
       <r>  -30.5189    1.0000 </r>
       <r>  -30.5189    1.0000 </r>
       <r>  -30.5175    1.0000 </r>
       <r>  -30.5175    1.0000 </r>
       <r>  -23.8292    1.0000 </r>
       <r>  -23.8292    1.0000 </r>
       <r>  -23.8259    1.0000 </r>
       <r>  -23.8259    1.0000 </r>
       <r>  -23.8224    1.0000 </r>
       <r>  -23.8224    1.0000 </r>
       <r>  -20.1748    1.0000 </r>
       <r>  -20.1748    1.0000 </r>
       <r>   -7.1923    1.0000 </r>
       <r>   -7.1923    1.0000 </r>
       <r>    1.2159    1.0000 </r>
       <r>    1.2159    1.0000 </r>
       <r>    3.2012    1.0000 </r>
       <r>    3.2012    1.0000 </r>
       <r>    6.6028   -0.0000 </r>
       <r>    6.6028   -0.0000 </r>
       <r>    9.6371    0.0000 </r>
       <r>    9.6371    0.0000 </r>
       <r>    9.9012    0.0000 </r>
       <r>    9.9012    0.0000 </r>
       <r>   11.2934    0.0000 </r>
       <r>   11.2935    0.0000 </r>
       <r>   12.5697    0.0000 </r>
       <r>   12.8350    0.0000 </r>
      </set>
      <set comment="kpoint 10">
       <r>  -30.5187    1.0000 </r>
       <r>  -30.5187    1.0000 </r>
       <r>  -30.5168    1.0000 </r>
       <r>  -30.5168    1.0000 </r>
       <r>  -23.8295    1.0000 </r>
       <r>  -23.8295    1.0000 </r>
       <r>  -23.8239    1.0000 </r>
       <r>  -23.8239    1.0000 </r>
       <r>  -23.8207    1.0000 </r>
       <r>  -23.8207    1.0000 </r>
       <r>  -20.1463    1.0000 </r>
       <r>  -20.1463    1.0000 </r>
       <r>   -7.2846    1.0000 </r>
       <r>   -7.2846    1.0000 </r>
       <r>    0.8145    1.0000 </r>
       <r>    0.8145    1.0000 </r>
       <r>    3.0181    1.0000 </r>
       <r>    3.0181    1.0000 </r>
       <r>    6.7011    0.0000 </r>
       <r>    6.7011    0.0000 </r>
       <r>    9.3594    0.0000 </r>
       <r>    9.3594    0.0000 </r>
       <r>   10.6665    0.0000 </r>
       <r>   10.6665    0.0000 </r>
       <r>   11.1778    0.0000 </r>
       <r>   11.1778    0.0000 </r>
       <r>   12.2968    0.0000 </r>
       <r>   12.2977    0.0000 </r>
      </set>
      <set comment="kpoint 11">
       <r>  -30.5186    1.0000 </r>
       <r>  -30.5186    1.0000 </r>
       <r>  -30.5166    1.0000 </r>
       <r>  -30.5166    1.0000 </r>
       <r>  -23.8296    1.0000 </r>
       <r>  -23.8296    1.0000 </r>
       <r>  -23.8232    1.0000 </r>
       <r>  -23.8232    1.0000 </r>
       <r>  -23.8204    1.0000 </r>
       <r>  -23.8204    1.0000 </r>
       <r>  -20.1381    1.0000 </r>
       <r>  -20.1381    1.0000 </r>
       <r>   -7.3107    1.0000 </r>
       <r>   -7.3107    1.0000 </r>
       <r>    0.7101    1.0000 </r>
       <r>    0.7101    1.0000 </r>
       <r>    2.9652    1.0000 </r>
       <r>    2.9652    1.0000 </r>
       <r>    6.7183    0.0000 </r>
       <r>    6.7183    0.0000 </r>
       <r>    9.2887    0.0000 </r>
       <r>    9.2887    0.0000 </r>
       <r>   10.6734    0.0000 </r>
       <r>   10.6734    0.0000 </r>
       <r>   11.5412    0.0000 </r>
       <r>   11.5412    0.0000 </r>
       <r>   12.4469    0.0000 </r>
       <r>   12.4472    0.0000 </r>
      </set>
      <set comment="kpoint 12">
       <r>  -30.5187    1.0000 </r>
       <r>  -30.5187    1.0000 </r>
       <r>  -30.5170    1.0000 </r>
       <r>  -30.5170    1.0000 </r>
       <r>  -23.8293    1.0000 </r>
       <r>  -23.8293    1.0000 </r>
       <r>  -23.8245    1.0000 </r>
       <r>  -23.8245    1.0000 </r>
       <r>  -23.8213    1.0000 </r>
       <r>  -23.8213    1.0000 </r>
       <r>  -20.1543    1.0000 </r>
       <r>  -20.1543    1.0000 </r>
       <r>   -7.2588    1.0000 </r>
       <r>   -7.2588    1.0000 </r>
       <r>    0.9131    1.0000 </r>
       <r>    0.9131    1.0000 </r>
       <r>    3.0671    1.0000 </r>
       <r>    3.0671    1.0000 </r>
       <r>    6.7272    0.0000 </r>
       <r>    6.7272    0.0000 </r>
       <r>    9.5188    0.0000 </r>
       <r>    9.5188    0.0000 </r>
       <r>   10.5899    0.0000 </r>
       <r>   10.5899    0.0000 </r>
       <r>   10.9209    0.0000 </r>
       <r>   10.9210    0.0000 </r>
       <r>   12.5356    0.0000 </r>
       <r>   12.5504    0.0000 </r>
      </set>
      <set comment="kpoint 13">
       <r>  -30.5190    1.0000 </r>
       <r>  -30.5190    1.0000 </r>
       <r>  -30.5178    1.0000 </r>
       <r>  -30.5178    1.0000 </r>
       <r>  -23.8289    1.0000 </r>
       <r>  -23.8289    1.0000 </r>
       <r>  -23.8269    1.0000 </r>
       <r>  -23.8269    1.0000 </r>
       <r>  -23.8232    1.0000 </r>
       <r>  -23.8232    1.0000 </r>
       <r>  -20.1871    1.0000 </r>
       <r>  -20.1871    1.0000 </r>
       <r>   -7.1531    1.0000 </r>
       <r>   -7.1531    1.0000 </r>
       <r>    1.3972    1.0000 </r>
       <r>    1.3972    1.0000 </r>
       <r>    3.3009    1.0000 </r>
       <r>    3.3009    1.0000 </r>
       <r>    6.5001   -0.0000 </r>
       <r>    6.5001   -0.0000 </r>
       <r>    9.6149    0.0000 </r>
       <r>    9.6149    0.0000 </r>
       <r>   10.2618    0.0000 </r>
       <r>   10.2618    0.0000 </r>
       <r>   11.1303    0.0000 </r>
       <r>   11.1303    0.0000 </r>
       <r>   12.0710    0.0000 </r>
       <r>   12.0835    0.0000 </r>
      </set>
      <set comment="kpoint 14">
       <r>  -30.5192    1.0000 </r>
       <r>  -30.5192    1.0000 </r>
       <r>  -30.5187    1.0000 </r>
       <r>  -30.5187    1.0000 </r>
       <r>  -23.8298    1.0000 </r>
       <r>  -23.8298    1.0000 </r>
       <r>  -23.8278    1.0000 </r>
       <r>  -23.8278    1.0000 </r>
       <r>  -23.8255    1.0000 </r>
       <r>  -23.8255    1.0000 </r>
       <r>  -20.2207    1.0000 </r>
       <r>  -20.2207    1.0000 </r>
       <r>   -7.0430    1.0000 </r>
       <r>   -7.0430    1.0000 </r>
       <r>    2.0718    1.0000 </r>
       <r>    2.0718    1.0000 </r>
       <r>    3.6047    1.0000 </r>
       <r>    3.6047    1.0000 </r>
       <r>    5.7515   -0.0000 </r>
       <r>    5.7515   -0.0000 </r>
       <r>    9.6109    0.0000 </r>
       <r>    9.6109    0.0000 </r>
       <r>   10.8543    0.0000 </r>
       <r>   10.8543    0.0000 </r>
       <r>   11.3531    0.0000 </r>
       <r>   11.3553    0.0000 </r>
       <r>   11.8894    0.0000 </r>
       <r>   12.0267    0.0000 </r>
      </set>
      <set comment="kpoint 15">
       <r>  -30.5192    1.0000 </r>
       <r>  -30.5192    1.0000 </r>
       <r>  -30.5183    1.0000 </r>
       <r>  -30.5183    1.0000 </r>
       <r>  -23.8297    1.0000 </r>
       <r>  -23.8297    1.0000 </r>
       <r>  -23.8273    1.0000 </r>
       <r>  -23.8273    1.0000 </r>
       <r>  -23.8245    1.0000 </r>
       <r>  -23.8245    1.0000 </r>
       <r>  -20.2077    1.0000 </r>
       <r>  -20.2077    1.0000 </r>
       <r>   -7.0869    1.0000 </r>
       <r>   -7.0869    1.0000 </r>
       <r>    1.7259    1.0000 </r>
       <r>    1.7259    1.0000 </r>
       <r>    3.6610    1.0009 </r>
       <r>    3.6610    1.0009 </r>
       <r>    5.8705   -0.0000 </r>
       <r>    5.8705   -0.0000 </r>
       <r>    9.7888    0.0000 </r>
       <r>    9.7888    0.0000 </r>
       <r>   10.9412    0.0000 </r>
       <r>   10.9413    0.0000 </r>
       <r>   11.3081    0.0000 </r>
       <r>   11.3082    0.0000 </r>
       <r>   11.7482    0.0000 </r>
       <r>   11.8815    0.0000 </r>
      </set>
      <set comment="kpoint 16">
       <r>  -30.5191    1.0000 </r>
       <r>  -30.5191    1.0000 </r>
       <r>  -30.5185    1.0000 </r>
       <r>  -30.5185    1.0000 </r>
       <r>  -23.8297    1.0000 </r>
       <r>  -23.8297    1.0000 </r>
       <r>  -23.8273    1.0000 </r>
       <r>  -23.8273    1.0000 </r>
       <r>  -23.8249    1.0000 </r>
       <r>  -23.8249    1.0000 </r>
       <r>  -20.2100    1.0000 </r>
       <r>  -20.2100    1.0000 </r>
       <r>   -7.0774    1.0000 </r>
       <r>   -7.0774    1.0000 </r>
       <r>    1.8597    1.0000 </r>
       <r>    1.8597    1.0000 </r>
       <r>    3.4396    1.0000 </r>
       <r>    3.4396    1.0000 </r>
       <r>    6.1017   -0.0000 </r>
       <r>    6.1017   -0.0000 </r>
       <r>    9.3438    0.0000 </r>
       <r>    9.3438    0.0000 </r>
       <r>   10.4741    0.0000 </r>
       <r>   10.4741    0.0000 </r>
       <r>   11.4117    0.0000 </r>
       <r>   11.4119    0.0000 </r>
       <r>   12.0794    0.0000 </r>
       <r>   12.0842    0.0000 </r>
      </set>
      <set comment="kpoint 17">
       <r>  -30.5188    1.0000 </r>
       <r>  -30.5188    1.0000 </r>
       <r>  -30.5182    1.0000 </r>
       <r>  -30.5182    1.0000 </r>
       <r>  -23.8297    1.0000 </r>
       <r>  -23.8297    1.0000 </r>
       <r>  -23.8263    1.0000 </r>
       <r>  -23.8263    1.0000 </r>
       <r>  -23.8238    1.0000 </r>
       <r>  -23.8238    1.0000 </r>
       <r>  -20.1931    1.0000 </r>
       <r>  -20.1931    1.0000 </r>
       <r>   -7.1302    1.0000 </r>
       <r>   -7.1302    1.0000 </r>
       <r>    1.6306    1.0000 </r>
       <r>    1.6306    1.0000 </r>
       <r>    3.1157    1.0000 </r>
       <r>    3.1157    1.0000 </r>
       <r>    6.6319   -0.0000 </r>
       <r>    6.6319   -0.0000 </r>
       <r>    8.7398    0.0000 </r>
       <r>    8.7398    0.0000 </r>
       <r>    9.9251    0.0000 </r>
       <r>    9.9251    0.0000 </r>
       <r>   11.6753    0.0000 </r>
       <r>   11.6754    0.0000 </r>
       <r>   12.6136    0.0000 </r>
       <r>   12.6141    0.0000 </r>
      </set>
      <set comment="kpoint 18">
       <r>  -30.5185    1.0000 </r>
       <r>  -30.5185    1.0000 </r>
       <r>  -30.5175    1.0000 </r>
       <r>  -30.5175    1.0000 </r>
       <r>  -23.8291    1.0000 </r>
       <r>  -23.8290    1.0000 </r>
       <r>  -23.8258    1.0000 </r>
       <r>  -23.8258    1.0000 </r>
       <r>  -23.8214    1.0000 </r>
       <r>  -23.8214    1.0000 </r>
       <r>  -20.1644    1.0000 </r>
       <r>  -20.1644    1.0000 </r>
       <r>   -7.2198    1.0000 </r>
       <r>   -7.2198    1.0000 </r>
       <r>    1.2223    1.0000 </r>
       <r>    1.2223    1.0000 </r>
       <r>    2.8136    1.0000 </r>
       <r>    2.8136    1.0000 </r>
       <r>    7.0223    0.0000 </r>
       <r>    7.0223    0.0000 </r>
       <r>    8.6232    0.0000 </r>
       <r>    8.6232    0.0000 </r>
       <r>    9.5781    0.0000 </r>
       <r>    9.5782    0.0000 </r>
       <r>   11.9787    0.0000 </r>
       <r>   11.9787    0.0000 </r>
       <r>   13.1503    0.0000 </r>
       <r>   13.1529    0.0000 </r>
      </set>
      <set comment="kpoint 19">
       <r>  -30.5183    1.0000 </r>
       <r>  -30.5183    1.0000 </r>
       <r>  -30.5169    1.0000 </r>
       <r>  -30.5169    1.0000 </r>
       <r>  -23.8284    1.0000 </r>
       <r>  -23.8284    1.0000 </r>
       <r>  -23.8245    1.0000 </r>
       <r>  -23.8245    1.0000 </r>
       <r>  -23.8200    1.0000 </r>
       <r>  -23.8200    1.0000 </r>
       <r>  -20.1374    1.0000 </r>
       <r>  -20.1374    1.0000 </r>
       <r>   -7.3031    1.0000 </r>
       <r>   -7.3031    1.0000 </r>
       <r>    0.8981    1.0000 </r>
       <r>    0.8981    1.0000 </r>
       <r>    2.5045    1.0000 </r>
       <r>    2.5045    1.0000 </r>
       <r>    7.2120    0.0000 </r>
       <r>    7.2120    0.0000 </r>
       <r>    8.7853    0.0000 </r>
       <r>    8.7853    0.0000 </r>
       <r>    9.8610    0.0000 </r>
       <r>    9.8610    0.0000 </r>
       <r>   11.7913    0.0000 </r>
       <r>   11.7913    0.0000 </r>
       <r>   13.4662    0.0000 </r>
       <r>   13.5099    0.0000 </r>
      </set>
      <set comment="kpoint 20">
       <r>  -30.5181    1.0000 </r>
       <r>  -30.5181    1.0000 </r>
       <r>  -30.5166    1.0000 </r>
       <r>  -30.5166    1.0000 </r>
       <r>  -23.8281    1.0000 </r>
       <r>  -23.8281    1.0000 </r>
       <r>  -23.8230    1.0000 </r>
       <r>  -23.8230    1.0000 </r>
       <r>  -23.8204    1.0000 </r>
       <r>  -23.8204    1.0000 </r>
       <r>  -20.1249    1.0000 </r>
       <r>  -20.1249    1.0000 </r>
       <r>   -7.3412    1.0000 </r>
       <r>   -7.3412    1.0000 </r>
       <r>    0.7554    1.0000 </r>
       <r>    0.7554    1.0000 </r>
       <r>    2.3399    1.0000 </r>
       <r>    2.3399    1.0000 </r>
       <r>    7.3899    0.0000 </r>
       <r>    7.3899    0.0000 </r>
       <r>    8.7100    0.0000 </r>
       <r>    8.7100    0.0000 </r>
       <r>   10.8635    0.0000 </r>
[...]
       <r>   12.0952    0.0000 </r>
       <r>   13.5279    0.0000 </r>
       <r>   13.5287    0.0000 </r>
      </set>
      <set comment="kpoint 348">
       <r>  -30.5181    1.0000 </r>
       <r>  -30.5181    1.0000 </r>
       <r>  -30.5166    1.0000 </r>
       <r>  -30.5166    1.0000 </r>
       <r>  -23.8281    1.0000 </r>
       <r>  -23.8281    1.0000 </r>
       <r>  -23.8230    1.0000 </r>
       <r>  -23.8230    1.0000 </r>
       <r>  -23.8204    1.0000 </r>
       <r>  -23.8204    1.0000 </r>
       <r>  -20.1249    1.0000 </r>
       <r>  -20.1249    1.0000 </r>
       <r>   -7.3412    1.0000 </r>
       <r>   -7.3412    1.0000 </r>
       <r>    0.7554    1.0000 </r>
       <r>    0.7554    1.0000 </r>
       <r>    2.3399    1.0000 </r>
       <r>    2.3399    1.0000 </r>
       <r>    7.3899    0.0000 </r>
       <r>    7.3899    0.0000 </r>
       <r>    8.7100    0.0000 </r>
       <r>    8.7100    0.0000 </r>
       <r>   10.8635    0.0000 </r>
       <r>   10.8635    0.0000 </r>
       <r>   11.6077    0.0000 </r>
       <r>   11.6077    0.0000 </r>
       <r>   12.8522    0.0000 </r>
       <r>   12.8629    0.0000 </r>
      </set>
      <set comment="kpoint 349">
       <r>  -30.5178    1.0000 </r>
       <r>  -30.5178    1.0000 </r>
       <r>  -30.5166    1.0000 </r>
       <r>  -30.5166    1.0000 </r>
       <r>  -23.8272    1.0000 </r>
       <r>  -23.8272    1.0000 </r>
       <r>  -23.8227    1.0000 </r>
       <r>  -23.8227    1.0000 </r>
       <r>  -23.8205    1.0000 </r>
       <r>  -23.8205    1.0000 </r>
       <r>  -20.1165    1.0000 </r>
       <r>  -20.1165    1.0000 </r>
       <r>   -7.3611    1.0000 </r>
       <r>   -7.3611    1.0000 </r>
       <r>    0.8138    1.0000 </r>
       <r>    0.8138    1.0000 </r>
       <r>    1.9769    1.0000 </r>
       <r>    1.9769    1.0000 </r>
       <r>    7.6642    0.0000 </r>
       <r>    7.6642    0.0000 </r>
       <r>    8.7800    0.0000 </r>
       <r>    8.7800    0.0000 </r>
       <r>   10.6191    0.0000 </r>
       <r>   10.6191    0.0000 </r>
       <r>   11.6045    0.0000 </r>
       <r>   11.6045    0.0000 </r>
       <r>   12.7324    0.0000 </r>
       <r>   12.7342    0.0000 </r>
      </set>
      <set comment="kpoint 350">
       <r>  -30.5176    1.0000 </r>
       <r>  -30.5176    1.0000 </r>
       <r>  -30.5167    1.0000 </r>
       <r>  -30.5167    1.0000 </r>
       <r>  -23.8268    1.0000 </r>
       <r>  -23.8268    1.0000 </r>
       <r>  -23.8232    1.0000 </r>
       <r>  -23.8232    1.0000 </r>
       <r>  -23.8197    1.0000 </r>
       <r>  -23.8197    1.0000 </r>
       <r>  -20.1100    1.0000 </r>
       <r>  -20.1100    1.0000 </r>
       <r>   -7.3767    1.0000 </r>
       <r>   -7.3767    1.0000 </r>
       <r>    0.9051    1.0000 </r>
       <r>    0.9051    1.0000 </r>
       <r>    1.6964    1.0000 </r>
       <r>    1.6964    1.0000 </r>
       <r>    7.6256    0.0000 </r>
       <r>    7.6256    0.0000 </r>
       <r>    9.3243    0.0000 </r>
       <r>    9.3243    0.0000 </r>
       <r>    9.8765    0.0000 </r>
       <r>    9.8765    0.0000 </r>
       <r>   11.2187    0.0000 </r>
       <r>   11.2187    0.0000 </r>
       <r>   13.5382    0.0000 </r>
       <r>   13.5384    0.0000 </r>
      </set>
      <set comment="kpoint 351">
       <r>  -30.5176    1.0000 </r>
       <r>  -30.5176    1.0000 </r>
       <r>  -30.5166    1.0000 </r>
       <r>  -30.5166    1.0000 </r>
       <r>  -23.8273    1.0000 </r>
       <r>  -23.8273    1.0000 </r>
       <r>  -23.8236    1.0000 </r>
       <r>  -23.8236    1.0000 </r>
       <r>  -23.8186    1.0000 </r>
       <r>  -23.8186    1.0000 </r>
       <r>  -20.1086    1.0000 </r>
       <r>  -20.1086    1.0000 </r>
       <r>   -7.3810    1.0000 </r>
       <r>   -7.3810    1.0000 </r>
       <r>    0.8455    1.0000 </r>
       <r>    0.8455    1.0000 </r>
       <r>    1.8077    1.0000 </r>
       <r>    1.8077    1.0000 </r>
       <r>    7.2335    0.0000 </r>
       <r>    7.2335    0.0000 </r>
       <r>    8.8346    0.0000 </r>
       <r>    8.8346    0.0000 </r>
       <r>   10.4160    0.0000 </r>
       <r>   10.4160    0.0000 </r>
       <r>   11.7889    0.0000 </r>
       <r>   11.7889    0.0000 </r>
       <r>   13.6617    0.0000 </r>
       <r>   13.6617    0.0000 </r>
      </set>
      <set comment="kpoint 352">
       <r>  -30.5178    1.0000 </r>
       <r>  -30.5178    1.0000 </r>
       <r>  -30.5165    1.0000 </r>
       <r>  -30.5165    1.0000 </r>
       <r>  -23.8278    1.0000 </r>
       <r>  -23.8278    1.0000 </r>
       <r>  -23.8238    1.0000 </r>
       <r>  -23.8238    1.0000 </r>
       <r>  -23.8184    1.0000 </r>
       <r>  -23.8184    1.0000 </r>
       <r>  -20.1128    1.0000 </r>
       <r>  -20.1128    1.0000 </r>
       <r>   -7.3703    1.0000 </r>
       <r>   -7.3703    1.0000 </r>
       <r>    0.7993    1.0000 </r>
       <r>    0.7993    1.0000 </r>
       <r>    2.0197    1.0000 </r>
       <r>    2.0197    1.0000 </r>
       <r>    7.0434    0.0000 </r>
       <r>    7.0434    0.0000 </r>
       <r>    8.6402    0.0000 </r>
       <r>    8.6402    0.0000 </r>
       <r>   10.4937    0.0000 </r>
       <r>   10.4937    0.0000 </r>
       <r>   12.3874    0.0000 </r>
       <r>   12.3874    0.0000 </r>
       <r>   13.4672    0.0000 </r>
       <r>   13.4698    0.0000 </r>
      </set>
      <set comment="kpoint 353">
       <r>  -30.5179    1.0000 </r>
       <r>  -30.5179    1.0000 </r>
       <r>  -30.5167    1.0000 </r>
       <r>  -30.5167    1.0000 </r>
       <r>  -23.8276    1.0000 </r>
       <r>  -23.8276    1.0000 </r>
       <r>  -23.8239    1.0000 </r>
       <r>  -23.8239    1.0000 </r>
       <r>  -23.8194    1.0000 </r>
       <r>  -23.8194    1.0000 </r>
       <r>  -20.1208    1.0000 </r>
       <r>  -20.1208    1.0000 </r>
       <r>   -7.3484    1.0000 </r>
       <r>   -7.3484    1.0000 </r>
       <r>    0.8460    1.0000 </r>
       <r>    0.8460    1.0000 </r>
       <r>    2.0961    1.0000 </r>
       <r>    2.0961    1.0000 </r>
       <r>    7.4211    0.0000 </r>
       <r>    7.4211    0.0000 </r>
       <r>    8.8041    0.0000 </r>
       <r>    8.8041    0.0000 </r>
       <r>    9.8613    0.0000 </r>
       <r>    9.8613    0.0000 </r>
       <r>   12.0952    0.0000 </r>
       <r>   12.0953    0.0000 </r>
       <r>   13.5267    0.0000 </r>
       <r>   13.5339    0.0000 </r>
      </set>
      <set comment="kpoint 354">
       <r>  -30.5180    1.0000 </r>
       <r>  -30.5180    1.0000 </r>
       <r>  -30.5168    1.0000 </r>
       <r>  -30.5168    1.0000 </r>
       <r>  -23.8274    1.0000 </r>
       <r>  -23.8274    1.0000 </r>
       <r>  -23.8237    1.0000 </r>
       <r>  -23.8237    1.0000 </r>
       <r>  -23.8208    1.0000 </r>
       <r>  -23.8208    1.0000 </r>
       <r>  -20.1288    1.0000 </r>
       <r>  -20.1288    1.0000 </r>
       <r>   -7.3269    1.0000 </r>
       <r>   -7.3269    1.0000 </r>
       <r>    0.8602    1.0000 </r>
       <r>    0.8602    1.0000 </r>
       <r>    2.2208    1.0000 </r>
       <r>    2.2208    1.0000 </r>
       <r>    7.8426    0.0000 </r>
       <r>    7.8426    0.0000 </r>
       <r>    8.6868    0.0000 </r>
       <r>    8.6868    0.0000 </r>
       <r>    9.9564    0.0000 </r>
       <r>    9.9564    0.0000 </r>
       <r>   11.9292    0.0000 </r>
       <r>   11.9293    0.0000 </r>
       <r>   13.1338    0.0000 </r>
       <r>   13.3547    0.0000 </r>
      </set>
      <set comment="kpoint 355">
       <r>  -30.5182    1.0000 </r>
       <r>  -30.5182    1.0000 </r>
       <r>  -30.5168    1.0000 </r>
       <r>  -30.5168    1.0000 </r>
       <r>  -23.8279    1.0000 </r>
       <r>  -23.8279    1.0000 </r>
       <r>  -23.8233    1.0000 </r>
       <r>  -23.8233    1.0000 </r>
       <r>  -23.8213    1.0000 </r>
       <r>  -23.8213    1.0000 </r>
       <r>  -20.1329    1.0000 </r>
       <r>  -20.1329    1.0000 </r>
       <r>   -7.3176    1.0000 </r>
       <r>   -7.3176    1.0000 </r>
       <r>    0.8147    1.0000 </r>
       <r>    0.8147    1.0000 </r>
       <r>    2.4266    1.0000 </r>
       <r>    2.4266    1.0000 </r>
       <r>    7.5947    0.0000 </r>
       <r>    7.5947    0.0000 </r>
       <r>    8.7250    0.0000 </r>
       <r>    8.7250    0.0000 </r>
       <r>   10.6499    0.0000 </r>
       <r>   10.6499    0.0000 </r>
       <r>   11.5880    0.0000 </r>
       <r>   11.5880    0.0000 </r>
       <r>   13.0429    0.0000 </r>
       <r>   13.0719    0.0000 </r>
      </set>
      <set comment="kpoint 356">
       <r>  -30.5183    1.0000 </r>
       <r>  -30.5183    1.0000 </r>
       <r>  -30.5167    1.0000 </r>
       <r>  -30.5167    1.0000 </r>
       <r>  -23.8284    1.0000 </r>
       <r>  -23.8284    1.0000 </r>
       <r>  -23.8232    1.0000 </r>
       <r>  -23.8232    1.0000 </r>
       <r>  -23.8207    1.0000 </r>
       <r>  -23.8207    1.0000 </r>
       <r>  -20.1313    1.0000 </r>
       <r>  -20.1313    1.0000 </r>
       <r>   -7.3241    1.0000 </r>
       <r>   -7.3241    1.0000 </r>
       <r>    0.7711    1.0000 </r>
       <r>    0.7711    1.0000 </r>
       <r>    2.5045    1.0000 </r>
       <r>    2.5045    1.0000 </r>
       <r>    7.3869    0.0000 </r>
       <r>    7.3869    0.0000 </r>
       <r>    8.7414    0.0000 </r>
       <r>    8.7414    0.0000 </r>
       <r>   10.6165    0.0000 </r>
       <r>   10.6165    0.0000 </r>
       <r>   11.6289    0.0000 </r>
       <r>   11.6289    0.0000 </r>
       <r>   13.0189    0.0000 </r>
       <r>   13.0451    0.0000 </r>
      </set>
      <set comment="kpoint 357">
       <r>  -30.5186    1.0000 </r>
       <r>  -30.5186    1.0000 </r>
       <r>  -30.5166    1.0000 </r>
       <r>  -30.5166    1.0000 </r>
       <r>  -23.8296    1.0000 </r>
       <r>  -23.8296    1.0000 </r>
       <r>  -23.8232    1.0000 </r>
       <r>  -23.8232    1.0000 </r>
       <r>  -23.8204    1.0000 </r>
       <r>  -23.8204    1.0000 </r>
       <r>  -20.1381    1.0000 </r>
       <r>  -20.1381    1.0000 </r>
       <r>   -7.3107    1.0000 </r>
       <r>   -7.3107    1.0000 </r>
       <r>    0.7101    1.0000 </r>
       <r>    0.7101    1.0000 </r>
       <r>    2.9652    1.0000 </r>
       <r>    2.9652    1.0000 </r>
       <r>    6.7183    0.0000 </r>
       <r>    6.7183    0.0000 </r>
       <r>    9.2887    0.0000 </r>
       <r>    9.2887    0.0000 </r>
       <r>   10.6734    0.0000 </r>
       <r>   10.6734    0.0000 </r>
       <r>   11.5412    0.0000 </r>
       <r>   11.5412    0.0000 </r>
       <r>   12.4470    0.0000 </r>
       <r>   12.4521    0.0000 </r>
      </set>
      <set comment="kpoint 358">
       <r>  -30.5183    1.0000 </r>
       <r>  -30.5183    1.0000 </r>
       <r>  -30.5167    1.0000 </r>
       <r>  -30.5167    1.0000 </r>
       <r>  -23.8284    1.0000 </r>
       <r>  -23.8284    1.0000 </r>
       <r>  -23.8232    1.0000 </r>
       <r>  -23.8232    1.0000 </r>
       <r>  -23.8207    1.0000 </r>
       <r>  -23.8207    1.0000 </r>
       <r>  -20.1313    1.0000 </r>
       <r>  -20.1313    1.0000 </r>
       <r>   -7.3241    1.0000 </r>
       <r>   -7.3241    1.0000 </r>
       <r>    0.7711    1.0000 </r>
       <r>    0.7711    1.0000 </r>
       <r>    2.5045    1.0000 </r>
       <r>    2.5045    1.0000 </r>
       <r>    7.3869    0.0000 </r>
       <r>    7.3869    0.0000 </r>
       <r>    8.7414    0.0000 </r>
       <r>    8.7414    0.0000 </r>
       <r>   10.6165    0.0000 </r>
       <r>   10.6165    0.0000 </r>
       <r>   11.6289    0.0000 </r>
       <r>   11.6289    0.0000 </r>
       <r>   13.0185    0.0000 </r>
       <r>   13.0284    0.0000 </r>
      </set>
      <set comment="kpoint 359">
       <r>  -30.5179    1.0000 </r>
       <r>  -30.5179    1.0000 </r>
       <r>  -30.5167    1.0000 </r>
       <r>  -30.5167    1.0000 </r>
       <r>  -23.8276    1.0000 </r>
       <r>  -23.8276    1.0000 </r>
       <r>  -23.8239    1.0000 </r>
       <r>  -23.8239    1.0000 </r>
       <r>  -23.8194    1.0000 </r>
       <r>  -23.8194    1.0000 </r>
       <r>  -20.1208    1.0000 </r>
       <r>  -20.1208    1.0000 </r>
       <r>   -7.3484    1.0000 </r>
       <r>   -7.3484    1.0000 </r>
       <r>    0.8460    1.0000 </r>
       <r>    0.8460    1.0000 </r>
       <r>    2.0961    1.0000 </r>
       <r>    2.0961    1.0000 </r>
       <r>    7.4211    0.0000 </r>
       <r>    7.4211    0.0000 </r>
       <r>    8.8041    0.0000 </r>
       <r>    8.8041    0.0000 </r>
       <r>    9.8613    0.0000 </r>
       <r>    9.8613    0.0000 </r>
       <r>   12.0952    0.0000 </r>
       <r>   12.0952    0.0000 </r>
       <r>   13.5277    0.0000 </r>
       <r>   13.5286    0.0000 </r>
      </set>
      <set comment="kpoint 360">
       <r>  -30.5178    1.0000 </r>
       <r>  -30.5178    1.0000 </r>
       <r>  -30.5165    1.0000 </r>
       <r>  -30.5165    1.0000 </r>
       <r>  -23.8282    1.0000 </r>
       <r>  -23.8282    1.0000 </r>
       <r>  -23.8243    1.0000 </r>
       <r>  -23.8243    1.0000 </r>
       <r>  -23.8174    1.0000 </r>
       <r>  -23.8174    1.0000 </r>
       <r>  -20.1115    1.0000 </r>
       <r>  -20.1115    1.0000 </r>
       <r>   -7.3735    1.0000 </r>
       <r>   -7.3735    1.0000 </r>
       <r>    0.8084    1.0000 </r>
       <r>    0.8084    1.0000 </r>
       <r>    2.0523    1.0000 </r>
       <r>    2.0523    1.0000 </r>
       <r>    6.8516    0.0000 </r>
       <r>    6.8516    0.0000 </r>
       <r>    8.2568    0.0000 </r>
       <r>    8.2568    0.0000 </r>
       <r>   10.4050    0.0000 </r>
       <r>   10.4050    0.0000 </r>
       <r>   12.8596    0.0000 </r>
       <r>   12.8596    0.0000 </r>
       <r>   14.4601    0.0000 </r>
       <r>   14.6171    0.0000 </r>
      </set>
      <set comment="kpoint 361">
       <r>  -30.5178    1.0000 </r>
       <r>  -30.5178    1.0000 </r>
       <r>  -30.5164    1.0000 </r>
       <r>  -30.5164    1.0000 </r>
       <r>  -23.8286    1.0000 </r>
       <r>  -23.8286    1.0000 </r>
       <r>  -23.8243    1.0000 </r>
       <r>  -23.8243    1.0000 </r>
       <r>  -23.8164    1.0000 </r>
       <r>  -23.8164    1.0000 </r>
       <r>  -20.1078    1.0000 </r>
       <r>  -20.1078    1.0000 </r>
       <r>   -7.3843    1.0000 </r>
       <r>   -7.3843    1.0000 </r>
       <r>    0.7548    1.0000 </r>
       <r>    0.7548    1.0000 </r>
       <r>    2.1340    1.0000 </r>
       <r>    2.1340    1.0000 </r>
       <r>    6.5424   -0.0000 </r>
       <r>    6.5424   -0.0000 </r>
       <r>    7.9783    0.0000 </r>
       <r>    7.9783    0.0000 </r>
       <r>   10.7364    0.0000 </r>
       <r>   10.7364    0.0000 </r>
       <r>   13.7373    0.0000 </r>
       <r>   13.7543    0.0000 </r>
       <r>   14.5020    0.0000 </r>
       <r>   14.9522    0.0000 </r>
      </set>
      <set comment="kpoint 362">
       <r>  -30.5178    1.0000 </r>
       <r>  -30.5178    1.0000 </r>
       <r>  -30.5165    1.0000 </r>
       <r>  -30.5165    1.0000 </r>
       <r>  -23.8282    1.0000 </r>
       <r>  -23.8282    1.0000 </r>
       <r>  -23.8243    1.0000 </r>
       <r>  -23.8243    1.0000 </r>
       <r>  -23.8174    1.0000 </r>
       <r>  -23.8174    1.0000 </r>
       <r>  -20.1115    1.0000 </r>
       <r>  -20.1115    1.0000 </r>
       <r>   -7.3735    1.0000 </r>
       <r>   -7.3735    1.0000 </r>
       <r>    0.8084    1.0000 </r>
       <r>    0.8084    1.0000 </r>
       <r>    2.0523    1.0000 </r>
       <r>    2.0523    1.0000 </r>
       <r>    6.8516    0.0000 </r>
       <r>    6.8516    0.0000 </r>
       <r>    8.2568    0.0000 </r>
       <r>    8.2568    0.0000 </r>
       <r>   10.4050    0.0000 </r>
       <r>   10.4050    0.0000 </r>
       <r>   12.8594    0.0000 </r>
       <r>   12.8594    0.0000 </r>
       <r>   14.4774    0.0000 </r>
       <r>   14.4929    0.0000 </r>
      </set>
      <set comment="kpoint 363">
       <r>  -30.5179    1.0000 </r>
       <r>  -30.5179    1.0000 </r>
       <r>  -30.5167    1.0000 </r>
       <r>  -30.5167    1.0000 </r>
       <r>  -23.8276    1.0000 </r>
       <r>  -23.8276    1.0000 </r>
       <r>  -23.8239    1.0000 </r>
       <r>  -23.8239    1.0000 </r>
       <r>  -23.8194    1.0000 </r>
       <r>  -23.8194    1.0000 </r>
       <r>  -20.1208    1.0000 </r>
       <r>  -20.1208    1.0000 </r>
       <r>   -7.3484    1.0000 </r>
       <r>   -7.3484    1.0000 </r>
       <r>    0.8460    1.0000 </r>
       <r>    0.8460    1.0000 </r>
       <r>    2.0961    1.0000 </r>
       <r>    2.0961    1.0000 </r>
       <r>    7.4211    0.0000 </r>
       <r>    7.4211    0.0000 </r>
       <r>    8.8041    0.0000 </r>
       <r>    8.8041    0.0000 </r>
       <r>    9.8613    0.0000 </r>
       <r>    9.8613    0.0000 </r>
       <r>   12.0953    0.0000 </r>
       <r>   12.0954    0.0000 </r>
       <r>   13.5271    0.0000 </r>
       <r>   13.7055    0.0000 </r>
      </set>
      <set comment="kpoint 364">
       <r>  -30.5183    1.0000 </r>
       <r>  -30.5183    1.0000 </r>
       <r>  -30.5167    1.0000 </r>
       <r>  -30.5167    1.0000 </r>
       <r>  -23.8284    1.0000 </r>
       <r>  -23.8284    1.0000 </r>
       <r>  -23.8232    1.0000 </r>
       <r>  -23.8232    1.0000 </r>
       <r>  -23.8207    1.0000 </r>
       <r>  -23.8207    1.0000 </r>
       <r>  -20.1313    1.0000 </r>
       <r>  -20.1313    1.0000 </r>
       <r>   -7.3241    1.0000 </r>
       <r>   -7.3241    1.0000 </r>
       <r>    0.7711    1.0000 </r>
       <r>    0.7711    1.0000 </r>
       <r>    2.5045    1.0000 </r>
       <r>    2.5045    1.0000 </r>
       <r>    7.3869    0.0000 </r>
       <r>    7.3869    0.0000 </r>
       <r>    8.7414    0.0000 </r>
       <r>    8.7414    0.0000 </r>
       <r>   10.6165    0.0000 </r>
       <r>   10.6165    0.0000 </r>
       <r>   11.6289    0.0000 </r>
       <r>   11.6290    0.0000 </r>
       <r>   13.0335    0.0000 </r>
       <r>   13.0416    0.0000 </r>
      </set>
      <set comment="kpoint 365">
       <r>  -30.5186    1.0000 </r>
       <r>  -30.5186    1.0000 </r>
       <r>  -30.5166    1.0000 </r>
       <r>  -30.5166    1.0000 </r>
       <r>  -23.8296    1.0000 </r>
       <r>  -23.8296    1.0000 </r>
       <r>  -23.8232    1.0000 </r>
       <r>  -23.8232    1.0000 </r>
       <r>  -23.8204    1.0000 </r>
       <r>  -23.8204    1.0000 </r>
       <r>  -20.1381    1.0000 </r>
       <r>  -20.1381    1.0000 </r>
       <r>   -7.3107    1.0000 </r>
       <r>   -7.3107    1.0000 </r>
       <r>    0.7101    1.0000 </r>
       <r>    0.7101    1.0000 </r>
       <r>    2.9652    1.0000 </r>
       <r>    2.9652    1.0000 </r>
       <r>    6.7183    0.0000 </r>
       <r>    6.7183    0.0000 </r>
       <r>    9.2887    0.0000 </r>
       <r>    9.2887    0.0000 </r>
       <r>   10.6734    0.0000 </r>
       <r>   10.6734    0.0000 </r>
       <r>   11.5412    0.0000 </r>
       <r>   11.5412    0.0000 </r>
       <r>   12.4473    0.0000 </r>
       <r>   12.4480    0.0000 </r>
      </set>
     </set>
    </set>
   </array>
  </eigenvalues>
  <separator name="orbital magnetization" >
   <v name="MAGDIPOLOUT">      0.00000000      0.00000000      0.00000000</v>
  </separator>
 </calculation>
 <structure name="finalpos" >
  <crystal>
   <varray name="basis" >
    <v>       4.34778014       0.00000000       0.00000000 </v>
    <v>       2.17389007       3.76528805      -0.00000000 </v>
    <v>       2.17389007       1.25509602       3.54994762 </v>
   </varray>
   <i name="volume">     58.11493087 </i>
   <varray name="rec_basis" >
    <v>       0.23000243      -0.13279197      -0.09389810 </v>
    <v>       0.00000000       0.26558393      -0.09389810 </v>
    <v>      -0.00000000       0.00000000       0.28169430 </v>
   </varray>
  </crystal>
  <varray name="positions" >
   <v>       0.00000000       0.00000000       0.00000000 </v>
  </varray>
 </structure>
</modeling>
