   1   1   0   0
  0.6156630E+02  0.4432200E-09  0.4432200E-09  0.4432200E-09  0.1000000E-15
  1.000000000000000E-004
  CAR 
 Og_FCC                                  
     55.97334337    -22.50738349  301     -5.96103024      1.00000000
    -22.507  0.0000E+00  0.0000E+00
    -22.246  0.0000E+00  0.0000E+00
    -21.984  0.0000E+00  0.0000E+00
    -21.723  0.0000E+00  0.0000E+00
    -21.461  0.0000E+00  0.0000E+00
    -21.199  0.0000E+00  0.0000E+00
    -20.938  0.0000E+00  0.0000E+00
    -20.676  0.0000E+00  0.0000E+00
    -20.415  0.0000E+00  0.0000E+00
    -20.153  0.0000E+00  0.0000E+00
    -19.891  0.0000E+00  0.0000E+00
    -19.630  0.0000E+00  0.0000E+00
    -19.368  0.0000E+00  0.0000E+00
    -19.107  0.0000E+00  0.0000E+00
    -18.845  0.9654E-09  0.8746E-01
    -18.583  0.0000E+00  0.2000E+01
    -18.322  0.0000E+00  0.2000E+01
    -18.060  0.0000E+00  0.2000E+01
    -17.799  0.0000E+00  0.2000E+01
    -17.537  0.0000E+00  0.2000E+01
    -17.275  0.0000E+00  0.2000E+01
    -17.014  0.0000E+00  0.2000E+01
    -16.752  0.0000E+00  0.2000E+01
    -16.491  0.0000E+00  0.2000E+01
    -16.229  0.0000E+00  0.2000E+01
    -15.967  0.0000E+00  0.2000E+01
    -15.706  0.0000E+00  0.2000E+01
    -15.444  0.0000E+00  0.2000E+01
    -15.183  0.0000E+00  0.2000E+01
    -14.921  0.0000E+00  0.2000E+01
    -14.659  0.0000E+00  0.2000E+01
    -14.398  0.0000E+00  0.2000E+01
    -14.136  0.0000E+00  0.2000E+01
    -13.875  0.0000E+00  0.2000E+01
    -13.613  0.0000E+00  0.2000E+01
    -13.351  0.0000E+00  0.2000E+01
    -13.090  0.0000E+00  0.2000E+01
    -12.828  0.0000E+00  0.2000E+01
    -12.566  0.0000E+00  0.2000E+01
    -12.305  0.0000E+00  0.2000E+01
    -12.043  0.0000E+00  0.2000E+01
    -11.782  0.0000E+00  0.2000E+01
    -11.520  0.0000E+00  0.2000E+01
    -11.258  0.0000E+00  0.2000E+01
    -10.997  0.0000E+00  0.2000E+01
    -10.735  0.0000E+00  0.2000E+01
    -10.474  0.0000E+00  0.2000E+01
    -10.212  0.0000E+00  0.2000E+01
     -9.950  0.0000E+00  0.2000E+01
     -9.689  0.0000E+00  0.2000E+01
     -9.427  0.0000E+00  0.2000E+01
     -9.166  0.0000E+00  0.2000E+01
     -8.904  0.0000E+00  0.2000E+01
     -8.642  0.0000E+00  0.2000E+01
     -8.381  0.0000E+00  0.3131E+01
     -8.119  0.0000E+00  0.3621E+01
     -7.858  0.0000E+00  0.3843E+01
     -7.596  0.0000E+00  0.3948E+01
     -7.334  0.0000E+00  0.4560E+01
     -7.073  0.1487E+00  0.5333E+01
     -6.811  0.0000E+00  0.6006E+01
     -6.550  0.2830E-06  0.6927E+01
     -6.288  0.0000E+00  0.7790E+01
     -6.026  0.0000E+00  0.8000E+01
     -5.765  0.0000E+00  0.8000E+01
     -5.503  0.0000E+00  0.8000E+01
     -5.242  0.0000E+00  0.8000E+01
     -4.980  0.0000E+00  0.8000E+01
     -4.718  0.0000E+00  0.8000E+01
     -4.457  0.0000E+00  0.8000E+01
     -4.195  0.0000E+00  0.8000E+01
     -3.934  0.0000E+00  0.8000E+01
     -3.672  0.0000E+00  0.8000E+01
     -3.410  0.0000E+00  0.8000E+01
     -3.149  0.0000E+00  0.8000E+01
     -2.887  0.0000E+00  0.8000E+01
     -2.626  0.0000E+00  0.8000E+01
     -2.364  0.0000E+00  0.8000E+01
     -2.102  0.0000E+00  0.8000E+01
     -1.841  0.0000E+00  0.8000E+01
     -1.579  0.0000E+00  0.8000E+01
     -1.318  0.0000E+00  0.8000E+01
     -1.056  0.0000E+00  0.8000E+01
     -0.794  0.0000E+00  0.8000E+01
     -0.533  0.0000E+00  0.8000E+01
     -0.271  0.0000E+00  0.8000E+01
     -0.010  0.0000E+00  0.8000E+01
      0.252  0.0000E+00  0.8000E+01
      0.514  0.0000E+00  0.8000E+01
      0.775  0.0000E+00  0.8000E+01
      1.037  0.0000E+00  0.8000E+01
      1.298  0.0000E+00  0.8000E+01
      1.560  0.0000E+00  0.8000E+01
      1.822  0.0000E+00  0.8000E+01
      2.083  0.0000E+00  0.8000E+01
      2.345  0.0000E+00  0.8000E+01
      2.606  0.0000E+00  0.8000E+01
      2.868  0.0000E+00  0.8000E+01
      3.130  0.0000E+00  0.8000E+01
      3.391  0.0000E+00  0.8006E+01
      3.653  0.0000E+00  0.8006E+01
      3.914  0.0000E+00  0.8052E+01
      4.176  0.0000E+00  0.8087E+01
      4.438  0.0000E+00  0.8087E+01
      4.699  0.0000E+00  0.8192E+01
      4.961  0.0000E+00  0.8449E+01
      5.222  0.0000E+00  0.8671E+01
      5.484  0.0000E+00  0.9090E+01
      5.746  0.0000E+00  0.9685E+01
      6.007  0.0000E+00  0.9755E+01
      6.269  0.9488E-11  0.1024E+02
      6.530  0.0000E+00  0.1070E+02
      6.792  0.0000E+00  0.1105E+02
      7.054  0.0000E+00  0.1161E+02
      7.315  0.0000E+00  0.1196E+02
      7.577  0.0000E+00  0.1222E+02
      7.838  0.0000E+00  0.1268E+02
      8.100  0.7133E+00  0.1356E+02
      8.362  0.5274E+00  0.1436E+02
      8.623  0.1783E+00  0.1494E+02
      8.885  0.0000E+00  0.1532E+02
      9.147  0.0000E+00  0.1585E+02
      9.408  0.0000E+00  0.1713E+02
      9.670  0.0000E+00  0.1745E+02
      9.931  0.2970E-16  0.1759E+02
     10.193  0.0000E+00  0.1882E+02
     10.455  0.0000E+00  0.1896E+02
     10.716  0.0000E+00  0.2025E+02
     10.978  0.0000E+00  0.2050E+02
     11.239  0.2675E+00  0.2089E+02
     11.501  0.0000E+00  0.2091E+02
     11.763  0.0000E+00  0.2122E+02
     12.024  0.2952E-05  0.2171E+02
     12.286  0.0000E+00  0.2217E+02
     12.547  0.0000E+00  0.2338E+02
     12.809  0.0000E+00  0.2399E+02
     13.071  0.6932E-13  0.2464E+02
     13.332  0.0000E+00  0.2518E+02
     13.594  0.0000E+00  0.2577E+02
     13.855  0.0000E+00  0.2598E+02
     14.117  0.0000E+00  0.2641E+02
     14.379  0.6717E-01  0.2653E+02
     14.640  0.0000E+00  0.2696E+02
     14.902  0.0000E+00  0.2801E+02
     15.163  0.1337E+00  0.2850E+02
     15.425  0.5349E+00  0.2965E+02
     15.687  0.0000E+00  0.3019E+02
     15.948  0.2675E+00  0.3107E+02
     16.210  0.0000E+00  0.3170E+02
     16.471  0.2407E+00  0.3219E+02
     16.733  0.5939E-16  0.3294E+02
     16.995  0.0000E+00  0.3417E+02
     17.256  0.0000E+00  0.3501E+02
     17.518  0.0000E+00  0.3508E+02
     17.779  0.0000E+00  0.3539E+02
     18.041  0.0000E+00  0.3620E+02
     18.303  0.5349E+00  0.3669E+02
     18.564  0.0000E+00  0.3739E+02
     18.826  0.5287E+00  0.3867E+02
     19.087  0.0000E+00  0.3917E+02
     19.349  0.0000E+00  0.3977E+02
     19.611  0.0000E+00  0.4037E+02
     19.872  0.0000E+00  0.4044E+02
     20.134  0.0000E+00  0.4209E+02
     20.395  0.0000E+00  0.4300E+02
     20.657  0.0000E+00  0.4328E+02
     20.919  0.0000E+00  0.4352E+02
     21.180  0.0000E+00  0.4485E+02
     21.442  0.0000E+00  0.4581E+02
     21.703  0.1067E+01  0.4663E+02
     21.965  0.0000E+00  0.4691E+02
     22.227  0.0000E+00  0.4752E+02
     22.488  0.2235E-04  0.4785E+02
     22.750  0.1900E+00  0.4841E+02
     23.011  0.1783E+00  0.4935E+02
     23.273  0.0000E+00  0.4957E+02
     23.535  0.2675E+00  0.5044E+02
     23.796  0.0000E+00  0.5135E+02
     24.058  0.0000E+00  0.5201E+02
     24.319  0.0000E+00  0.5230E+02
     24.581  0.0000E+00  0.5278E+02
     24.843  0.0000E+00  0.5354E+02
     25.104  0.0000E+00  0.5467E+02
     25.366  0.1871E-14  0.5514E+02
     25.627  0.0000E+00  0.5666E+02
     25.889  0.2808E+00  0.5801E+02
     26.151  0.0000E+00  0.5872E+02
     26.412  0.5349E+00  0.5921E+02
     26.674  0.0000E+00  0.5937E+02
     26.935  0.1954E-02  0.5956E+02
     27.197  0.9714E-14  0.5994E+02
     27.459  0.0000E+00  0.6134E+02
     27.720  0.0000E+00  0.6156E+02
     27.982  0.5349E+00  0.6220E+02
     28.243  0.0000E+00  0.6273E+02
     28.505  0.0000E+00  0.6322E+02
     28.767  0.0000E+00  0.6406E+02
     29.028  0.0000E+00  0.6502E+02
     29.290  0.1070E+01  0.6593E+02
     29.551  0.8051E-03  0.6657E+02
     29.813  0.0000E+00  0.6678E+02
     30.075  0.0000E+00  0.6755E+02
     30.336  0.0000E+00  0.6846E+02
     30.598  0.5349E+00  0.6986E+02
     30.860  0.0000E+00  0.7042E+02
     31.121  0.0000E+00  0.7118E+02
     31.383  0.0000E+00  0.7178E+02
     31.644  0.0000E+00  0.7234E+02
     31.906  0.0000E+00  0.7268E+02
     32.168  0.5896E-01  0.7380E+02
     32.429  0.0000E+00  0.7487E+02
     32.691  0.0000E+00  0.7536E+02
     32.952  0.5602E+00  0.7608E+02
     33.214  0.0000E+00  0.7679E+02
     33.476  0.0000E+00  0.7718E+02
     33.737  0.0000E+00  0.7804E+02
     33.999  0.4145E+00  0.7841E+02
     34.260  0.5910E-01  0.7873E+02
     34.522  0.0000E+00  0.7941E+02
     34.784  0.0000E+00  0.7976E+02
     35.045  0.0000E+00  0.8010E+02
     35.307  0.0000E+00  0.8117E+02
     35.568  0.2648E+00  0.8199E+02
     35.830  0.0000E+00  0.8317E+02
     36.092  0.0000E+00  0.8391E+02
     36.353  0.5349E+00  0.8506E+02
     36.615  0.7049E-09  0.8563E+02
     36.876  0.0000E+00  0.8631E+02
     37.138  0.0000E+00  0.8783E+02
     37.400  0.0000E+00  0.8825E+02
     37.661  0.0000E+00  0.8882E+02
     37.923  0.1335E+00  0.9005E+02
     38.184  0.0000E+00  0.9065E+02
     38.446  0.6044E-04  0.9100E+02
     38.708  0.0000E+00  0.9149E+02
     38.969  0.0000E+00  0.9251E+02
     39.231  0.0000E+00  0.9299E+02
     39.492  0.0000E+00  0.9320E+02
     39.754  0.8610E-01  0.9456E+02
     40.016  0.0000E+00  0.9511E+02
     40.277  0.3203E-05  0.9633E+02
     40.539  0.0000E+00  0.9751E+02
     40.800  0.1073E-03  0.9798E+02
     41.062  0.0000E+00  0.9882E+02
     41.324  0.0000E+00  0.9970E+02
     41.585  0.0000E+00  0.9998E+02
     41.847  0.0000E+00  0.1009E+03
     42.108  0.0000E+00  0.1016E+03
     42.370  0.0000E+00  0.1024E+03
     42.632  0.0000E+00  0.1032E+03
     42.893  0.0000E+00  0.1038E+03
     43.155  0.0000E+00  0.1047E+03
     43.416  0.0000E+00  0.1052E+03
     43.678  0.1286E-02  0.1063E+03
     43.940  0.0000E+00  0.1073E+03
     44.201  0.0000E+00  0.1075E+03
     44.463  0.0000E+00  0.1079E+03
     44.724  0.0000E+00  0.1087E+03
     44.986  0.0000E+00  0.1092E+03
     45.248  0.0000E+00  0.1098E+03
     45.509  0.1783E+00  0.1106E+03
     45.771  0.3566E+00  0.1111E+03
     46.032  0.8909E-16  0.1122E+03
     46.294  0.5349E+00  0.1135E+03
     46.556  0.2675E+00  0.1140E+03
     46.817  0.0000E+00  0.1160E+03
     47.079  0.0000E+00  0.1165E+03
     47.340  0.0000E+00  0.1167E+03
     47.602  0.0000E+00  0.1174E+03
     47.864  0.2231E+00  0.1185E+03
     48.125  0.4565E+00  0.1193E+03
     48.387  0.0000E+00  0.1204E+03
     48.648  0.1070E+01  0.1214E+03
     48.910  0.0000E+00  0.1218E+03
     49.172  0.0000E+00  0.1225E+03
     49.433  0.0000E+00  0.1233E+03
     49.695  0.0000E+00  0.1238E+03
     49.956  0.0000E+00  0.1253E+03
     50.218  0.0000E+00  0.1257E+03
     50.480  0.0000E+00  0.1266E+03
     50.741  0.0000E+00  0.1267E+03
     51.003  0.0000E+00  0.1270E+03
     51.264  0.0000E+00  0.1275E+03
     51.526  0.0000E+00  0.1277E+03
     51.788  0.0000E+00  0.1278E+03
     52.049  0.0000E+00  0.1280E+03
     52.311  0.0000E+00  0.1280E+03
     52.573  0.0000E+00  0.1280E+03
     52.834  0.0000E+00  0.1280E+03
     53.096  0.0000E+00  0.1280E+03
     53.357  0.0000E+00  0.1280E+03
     53.619  0.0000E+00  0.1280E+03
     53.881  0.0000E+00  0.1280E+03
     54.142  0.0000E+00  0.1280E+03
     54.404  0.0000E+00  0.1280E+03
     54.665  0.0000E+00  0.1280E+03
     54.927  0.0000E+00  0.1280E+03
     55.189  0.0000E+00  0.1280E+03
     55.450  0.0000E+00  0.1280E+03
     55.712  0.0000E+00  0.1280E+03
     55.973  0.0000E+00  0.1280E+03
