   1   1   0   0
  0.6532254E+02  0.4520565E-09  0.4520565E-09  0.4520565E-09  0.1000000E-15
  1.000000000000000E-004
  CAR 
 Og_FCC                                  
     90.44788201    -55.30363158  301     -5.01935939      1.00000000
    -55.304  0.0000E+00  0.0000E+00
    -54.818  0.0000E+00  0.0000E+00
    -54.332  0.0000E+00  0.0000E+00
    -53.846  0.0000E+00  0.0000E+00
    -53.360  0.0000E+00  0.0000E+00
    -52.874  0.0000E+00  0.0000E+00
    -52.389  0.0000E+00  0.0000E+00
    -51.903  0.0000E+00  0.0000E+00
    -51.417  0.0000E+00  0.0000E+00
    -50.931  0.0000E+00  0.0000E+00
    -50.445  0.0000E+00  0.0000E+00
    -49.959  0.0000E+00  0.0000E+00
    -49.474  0.0000E+00  0.0000E+00
    -48.988  0.0000E+00  0.0000E+00
    -48.502  0.0000E+00  0.1000E+02
    -48.016  0.0000E+00  0.1000E+02
    -47.530  0.0000E+00  0.1000E+02
    -47.044  0.0000E+00  0.1000E+02
    -46.559  0.0000E+00  0.1000E+02
    -46.073  0.0000E+00  0.1000E+02
    -45.587  0.0000E+00  0.1000E+02
    -45.101  0.0000E+00  0.1000E+02
    -44.615  0.0000E+00  0.1000E+02
    -44.129  0.0000E+00  0.1000E+02
    -43.644  0.0000E+00  0.1000E+02
    -43.158  0.0000E+00  0.1000E+02
    -42.672  0.0000E+00  0.1000E+02
    -42.186  0.0000E+00  0.1000E+02
    -41.700  0.0000E+00  0.1000E+02
    -41.214  0.0000E+00  0.1000E+02
    -40.728  0.0000E+00  0.1000E+02
    -40.243  0.0000E+00  0.1000E+02
    -39.757  0.0000E+00  0.1000E+02
    -39.271  0.0000E+00  0.1000E+02
    -38.785  0.0000E+00  0.1000E+02
    -38.299  0.0000E+00  0.1000E+02
    -37.813  0.0000E+00  0.1000E+02
    -37.328  0.0000E+00  0.1000E+02
    -36.842  0.0000E+00  0.1000E+02
    -36.356  0.0000E+00  0.1000E+02
    -35.870  0.0000E+00  0.1000E+02
    -35.384  0.0000E+00  0.1000E+02
    -34.898  0.0000E+00  0.1000E+02
    -34.413  0.0000E+00  0.1000E+02
    -33.927  0.0000E+00  0.1000E+02
    -33.441  0.0000E+00  0.1000E+02
    -32.955  0.0000E+00  0.1000E+02
    -32.469  0.0000E+00  0.1000E+02
    -31.983  0.0000E+00  0.1000E+02
    -31.498  0.0000E+00  0.1000E+02
    -31.012  0.0000E+00  0.1000E+02
    -30.526  0.0000E+00  0.1000E+02
    -30.040  0.0000E+00  0.1000E+02
    -29.554  0.0000E+00  0.1000E+02
    -29.068  0.0000E+00  0.1000E+02
    -28.583  0.0000E+00  0.1000E+02
    -28.097  0.0000E+00  0.1000E+02
    -27.611  0.0000E+00  0.1000E+02
    -27.125  0.0000E+00  0.1000E+02
    -26.639  0.0000E+00  0.1000E+02
    -26.153  0.0000E+00  0.1000E+02
    -25.667  0.0000E+00  0.1000E+02
    -25.182  0.0000E+00  0.1000E+02
    -24.696  0.0000E+00  0.1000E+02
    -24.210  0.0000E+00  0.1000E+02
    -23.724  0.0000E+00  0.1000E+02
    -23.238  0.0000E+00  0.1000E+02
    -22.752  0.0000E+00  0.1000E+02
    -22.267  0.0000E+00  0.1000E+02
    -21.781  0.0000E+00  0.1000E+02
    -21.295  0.0000E+00  0.1000E+02
    -20.809  0.0000E+00  0.1000E+02
    -20.323  0.0000E+00  0.1200E+02
    -19.837  0.0000E+00  0.1200E+02
    -19.352  0.0000E+00  0.1200E+02
    -18.866  0.0000E+00  0.1200E+02
    -18.380  0.0000E+00  0.1200E+02
    -17.894  0.0000E+00  0.1200E+02
    -17.408  0.0000E+00  0.1200E+02
    -16.922  0.0000E+00  0.1200E+02
    -16.437  0.0000E+00  0.1200E+02
    -15.951  0.0000E+00  0.1200E+02
    -15.465  0.0000E+00  0.1200E+02
    -14.979  0.0000E+00  0.1200E+02
    -14.493  0.0000E+00  0.1200E+02
    -14.007  0.0000E+00  0.1200E+02
    -13.522  0.0000E+00  0.1200E+02
    -13.036  0.0000E+00  0.1200E+02
    -12.550  0.0000E+00  0.1200E+02
    -12.064  0.0000E+00  0.1200E+02
    -11.578  0.0000E+00  0.1200E+02
    -11.092  0.0000E+00  0.1200E+02
    -10.607  0.0000E+00  0.1200E+02
    -10.121  0.0000E+00  0.1200E+02
     -9.635  0.0000E+00  0.1200E+02
     -9.149  0.0000E+00  0.1200E+02
     -8.663  0.0000E+00  0.1200E+02
     -8.177  0.0000E+00  0.1200E+02
     -7.691  0.0000E+00  0.1200E+02
     -7.206  0.0000E+00  0.1200E+02
     -6.720  0.0000E+00  0.1314E+02
     -6.234  0.0000E+00  0.1397E+02
     -5.748  0.0000E+00  0.1514E+02
     -5.262  0.0000E+00  0.1771E+02
     -4.776  0.0000E+00  0.1800E+02
     -4.291  0.0000E+00  0.1800E+02
     -3.805  0.0000E+00  0.1800E+02
     -3.319  0.0000E+00  0.1800E+02
     -2.833  0.0000E+00  0.1800E+02
     -2.347  0.0000E+00  0.1800E+02
     -1.861  0.0000E+00  0.1800E+02
     -1.376  0.0000E+00  0.1800E+02
     -0.890  0.0000E+00  0.1800E+02
     -0.404  0.0000E+00  0.1800E+02
      0.082  0.0000E+00  0.1800E+02
      0.568  0.0000E+00  0.1800E+02
      1.054  0.0000E+00  0.1800E+02
      1.539  0.0000E+00  0.1800E+02
      2.025  0.0000E+00  0.1800E+02
      2.511  0.0000E+00  0.1800E+02
      2.997  0.0000E+00  0.1800E+02
      3.483  0.0000E+00  0.1801E+02
      3.969  0.0000E+00  0.1801E+02
      4.454  0.0000E+00  0.1808E+02
      4.940  0.0000E+00  0.1814E+02
      5.426  0.0000E+00  0.1839E+02
      5.912  0.0000E+00  0.1900E+02
      6.398  0.0000E+00  0.1981E+02
      6.884  0.0000E+00  0.2031E+02
      7.370  0.0000E+00  0.2064E+02
      7.855  0.0000E+00  0.2203E+02
      8.341  0.0000E+00  0.2232E+02
      8.827  0.7860E-01  0.2307E+02
      9.313  0.2315E-10  0.2439E+02
      9.799  0.0000E+00  0.2517E+02
     10.285  0.0000E+00  0.2561E+02
     10.770  0.0000E+00  0.2594E+02
     11.256  0.0000E+00  0.2680E+02
     11.742  0.0000E+00  0.2776E+02
     12.228  0.0000E+00  0.2843E+02
     12.714  0.0000E+00  0.2920E+02
     13.200  0.0000E+00  0.3025E+02
     13.685  0.0000E+00  0.3069E+02
     14.171  0.0000E+00  0.3121E+02
     14.657  0.6124E-08  0.3205E+02
     15.143  0.4574E+00  0.3443E+02
     15.629  0.0000E+00  0.3504E+02
     16.115  0.0000E+00  0.3553E+02
     16.600  0.1525E+00  0.3582E+02
     17.086  0.0000E+00  0.3694E+02
     17.572  0.0000E+00  0.3908E+02
     18.058  0.7623E-01  0.4047E+02
     18.544  0.0000E+00  0.4208E+02
     19.030  0.1857E-01  0.4293E+02
     19.515  0.0000E+00  0.4354E+02
     20.001  0.0000E+00  0.4424E+02
     20.487  0.0000E+00  0.4522E+02
     20.973  0.2248E-03  0.4602E+02
     21.459  0.0000E+00  0.4769E+02
     21.945  0.0000E+00  0.4947E+02
     22.431  0.0000E+00  0.5115E+02
     22.916  0.0000E+00  0.5215E+02
     23.402  0.0000E+00  0.5281E+02
     23.888  0.1724E+00  0.5444E+02
     24.374  0.0000E+00  0.5581E+02
     24.860  0.0000E+00  0.5671E+02
     25.346  0.0000E+00  0.5756E+02
     25.831  0.0000E+00  0.5970E+02
     26.317  0.0000E+00  0.6157E+02
     26.803  0.7433E-01  0.6536E+02
     27.289  0.0000E+00  0.6869E+02
     27.775  0.0000E+00  0.7068E+02
     28.261  0.0000E+00  0.7219E+02
     28.746  0.0000E+00  0.7288E+02
     29.232  0.0000E+00  0.7374E+02
     29.718  0.0000E+00  0.7500E+02
     30.204  0.0000E+00  0.7701E+02
     30.690  0.0000E+00  0.7861E+02
     31.176  0.0000E+00  0.8013E+02
     31.661  0.0000E+00  0.8148E+02
     32.147  0.4574E+00  0.8316E+02
     32.633  0.0000E+00  0.8371E+02
     33.119  0.0000E+00  0.8583E+02
     33.605  0.5860E-02  0.8681E+02
     34.091  0.0000E+00  0.8819E+02
     34.576  0.0000E+00  0.8915E+02
     35.062  0.0000E+00  0.9011E+02
     35.548  0.0000E+00  0.9136E+02
     36.034  0.5716E-01  0.9297E+02
     36.520  0.0000E+00  0.9483E+02
     37.006  0.1248E-04  0.9585E+02
     37.491  0.0000E+00  0.9761E+02
     37.977  0.0000E+00  0.9852E+02
     38.463  0.1901E-05  0.1003E+03
     38.949  0.0000E+00  0.1018E+03
     39.435  0.0000E+00  0.1032E+03
     39.921  0.0000E+00  0.1049E+03
     40.407  0.0000E+00  0.1066E+03
     40.892  0.0000E+00  0.1084E+03
     41.378  0.0000E+00  0.1088E+03
     41.864  0.0000E+00  0.1106E+03
     42.350  0.0000E+00  0.1123E+03
     42.836  0.0000E+00  0.1144E+03
     43.322  0.2287E+00  0.1156E+03
     43.807  0.0000E+00  0.1176E+03
     44.293  0.0000E+00  0.1186E+03
     44.779  0.0000E+00  0.1203E+03
     45.265  0.0000E+00  0.1211E+03
     45.751  0.0000E+00  0.1223E+03
     46.237  0.4574E+00  0.1241E+03
     46.722  0.4479E+00  0.1256E+03
     47.208  0.0000E+00  0.1273E+03
     47.694  0.0000E+00  0.1294E+03
     48.180  0.0000E+00  0.1312E+03
     48.666  0.0000E+00  0.1325E+03
     49.152  0.0000E+00  0.1342E+03
     49.637  0.0000E+00  0.1359E+03
     50.123  0.1102E+00  0.1372E+03
     50.609  0.0000E+00  0.1385E+03
     51.095  0.0000E+00  0.1405E+03
     51.581  0.0000E+00  0.1419E+03
     52.067  0.0000E+00  0.1429E+03
     52.552  0.0000E+00  0.1452E+03
     53.038  0.0000E+00  0.1470E+03
     53.524  0.1143E+00  0.1478E+03
     54.010  0.0000E+00  0.1497E+03
     54.496  0.0000E+00  0.1516E+03
     54.982  0.0000E+00  0.1541E+03
     55.468  0.0000E+00  0.1553E+03
     55.953  0.0000E+00  0.1567E+03
     56.439  0.0000E+00  0.1591E+03
     56.925  0.0000E+00  0.1597E+03
     57.411  0.0000E+00  0.1620E+03
     57.897  0.2287E+00  0.1651E+03
     58.383  0.4574E+00  0.1667E+03
     58.868  0.2992E-03  0.1686E+03
     59.354  0.0000E+00  0.1702E+03
     59.840  0.2287E+00  0.1710E+03
     60.326  0.0000E+00  0.1730E+03
     60.812  0.0000E+00  0.1746E+03
     61.298  0.0000E+00  0.1765E+03
     61.783  0.7410E-03  0.1777E+03
     62.269  0.4051E+00  0.1798E+03
     62.755  0.0000E+00  0.1819E+03
     63.241  0.0000E+00  0.1834E+03
     63.727  0.1143E+00  0.1855E+03
     64.213  0.1206E+00  0.1868E+03
     64.698  0.7623E-01  0.1887E+03
     65.184  0.0000E+00  0.1902E+03
     65.670  0.0000E+00  0.1922E+03
     66.156  0.0000E+00  0.1935E+03
     66.642  0.0000E+00  0.1958E+03
     67.128  0.3049E+00  0.1972E+03
     67.613  0.1060E-08  0.1998E+03
     68.099  0.2180E+00  0.2019E+03
     68.585  0.0000E+00  0.2032E+03
     69.071  0.0000E+00  0.2054E+03
     69.557  0.0000E+00  0.2074E+03
     70.043  0.0000E+00  0.2094E+03
     70.529  0.0000E+00  0.2108E+03
     71.014  0.0000E+00  0.2129E+03
     71.500  0.0000E+00  0.2146E+03
     71.986  0.0000E+00  0.2165E+03
     72.472  0.0000E+00  0.2192E+03
     72.958  0.0000E+00  0.2206E+03
     73.444  0.0000E+00  0.2222E+03
     73.929  0.0000E+00  0.2241E+03
     74.415  0.1524E+00  0.2261E+03
     74.901  0.0000E+00  0.2282E+03
     75.387  0.0000E+00  0.2304E+03
     75.873  0.0000E+00  0.2322E+03
     76.359  0.0000E+00  0.2338E+03
     76.844  0.0000E+00  0.2359E+03
     77.330  0.0000E+00  0.2375E+03
     77.816  0.0000E+00  0.2397E+03
     78.302  0.0000E+00  0.2417E+03
     78.788  0.0000E+00  0.2436E+03
     79.274  0.7623E-01  0.2459E+03
     79.759  0.0000E+00  0.2482E+03
     80.245  0.1140E-09  0.2494E+03
     80.731  0.0000E+00  0.2514E+03
     81.217  0.6099E+00  0.2533E+03
     81.703  0.4574E+00  0.2547E+03
     82.189  0.0000E+00  0.2554E+03
     82.674  0.0000E+00  0.2558E+03
     83.160  0.0000E+00  0.2558E+03
     83.646  0.0000E+00  0.2559E+03
     84.132  0.0000E+00  0.2560E+03
     84.618  0.0000E+00  0.2560E+03
     85.104  0.0000E+00  0.2560E+03
     85.589  0.0000E+00  0.2560E+03
     86.075  0.0000E+00  0.2560E+03
     86.561  0.0000E+00  0.2560E+03
     87.047  0.0000E+00  0.2560E+03
     87.533  0.0000E+00  0.2560E+03
     88.019  0.0000E+00  0.2560E+03
     88.505  0.0000E+00  0.2560E+03
     88.990  0.0000E+00  0.2560E+03
     89.476  0.0000E+00  0.2560E+03
     89.962  0.0000E+00  0.2560E+03
     90.448  0.0000E+00  0.2560E+03
