    1    1    1    1
  0.6532254E+02  0.4520565E-09  0.4520565E-09  0.4520565E-09  0.1000000E-15
  1.000000000000000E-004
  CAR 
 Og_FCC                                  
     18    112    128
 
  0.0000000E+00  0.0000000E+00  0.0000000E+00  0.4629630E-02
    1      -48.678192   1.000000
    2      -48.678119   1.000000
    3      -48.675247   1.000000
    4      -48.674401   1.000000
    5      -48.674308   1.000000
    6      -20.671801   1.000000
    7       -5.094218   1.000000
    8       -5.086254   1.000000
    9       -5.084950   1.000000
   10        3.326984   0.000000
   11        9.084405   0.000000
   12        9.086526   0.000000
   13        9.090072   0.000000
   14       10.617862   0.000000
   15       11.834467   0.000000
   16       11.834927   0.000000
   17       12.801872   0.000000
   18       12.804339   0.000000
   19       12.866020   0.000000
   20       14.634451   0.000000
   21       21.980193   0.000000
   22       21.980935   0.000000
   23       21.981022   0.000000
   24       24.418046   0.000000
   25       24.421474   0.000000
   26       24.834735   0.000000
   27       26.231803   0.000000
   28       26.234821   0.000000
   29       26.239003   0.000000
   30       27.363014   0.000000
   31       28.321116   0.000000
   32       28.321459   0.000000
   33       24.924060   0.000000
   34       25.160424   0.000000
   35       25.160424   0.000000
   36       26.781872   0.000000
   37       32.790883   0.000000
   38       32.790883   0.000000
   39       32.790884   0.000000
   40       34.555045   0.000000
   41       34.555045   0.000000
   42       35.329768   0.000000
   43       35.329769   0.000000
   44       35.329769   0.000000
   45       35.704890   0.000000
   46       35.704890   0.000000
   47       35.704891   0.000000
   48       35.795925   0.000000
   49       35.795925   0.000000
   50       35.795926   0.000000
   51       38.165987   0.000000
   52       38.165987   0.000000
   53       38.165987   0.000000
   54       38.559908   0.000000
   55       38.866813   0.000000
   56       38.866814   0.000000
   57       40.855504   0.000000
   58       40.855504   0.000000
   59       40.855505   0.000000
   60       41.119399   0.000000
   61       41.880046   0.000000
   62       42.176586   0.000000
   63       42.176586   0.000000
   64       42.176587   0.000000
   65       42.391398   0.000000
   66       42.391398   0.000000
   67       42.391399   0.000000
   68       45.462231   0.000000
   69       45.462232   0.000000
   70       45.462233   0.000000
   71       47.977014   0.000000
   72       54.371001   0.000000
   73       54.550756   0.000000
   74       54.550757   0.000000
   75       57.741446   0.000000
   76       57.741446   0.000000
   77       57.741447   0.000000
   78       60.623917   0.000000
   79       60.623918   0.000000
   80       62.123517   0.000000
   81       62.123517   0.000000
   82       62.123518   0.000000
   83       65.009605   0.000000
   84       65.009606   0.000000
   85       65.009606   0.000000
   86       65.115636   0.000000
   87       65.115636   0.000000
   88       65.115637   0.000000
   89       66.547365   0.000000
   90       66.547366   0.000000
   91       67.014599   0.000000
   92       67.014600   0.000000
   93       67.014601   0.000000
   94       67.470964   0.000000
   95       67.470964   0.000000
   96       67.470965   0.000000
   97       67.562270   0.000000
   98       67.562270   0.000000
   99       67.562270   0.000000
  100       68.111995   0.000000
  101       68.111997   0.000000
  102       68.111997   0.000000
  103       68.696933   0.000000
  104       69.656715   0.000000
  105       70.410225   0.000000
  106       70.410226   0.000000
  107       71.005385   0.000000
  108       71.005385   0.000000
  109       71.005386   0.000000
  110       71.306488   0.000000
  111       71.306490   0.000000
  112       71.306490   0.000000
  113       71.362416   0.000000
  114       71.362416   0.000000
  115       71.362417   0.000000
  116       71.824514   0.000000
  117       72.155349   0.000000
  118       72.155350   0.000000
  119       74.430296   0.000000
  120       74.430298   0.000000
  121       74.430299   0.000000
  122       74.751809   0.000000
  123       75.286462   0.000000
  124       75.286462   0.000000
  125       75.286463   0.000000
  126       81.734699   0.000000
  127       81.734700   0.000000
  128       81.734700   0.000000
 
  0.1666667E+00  0.1538294E-16  0.2081668E-16  0.9259259E-02
    1      -48.678426   1.000000
    2      -48.678374   1.000000
    3      -48.675297   1.000000
    4      -48.674623   1.000000
    5      -48.674520   1.000000
    6      -20.620320   1.000000
    7       -5.725798   1.000000
    8       -5.146667   1.000000
    9       -5.145479   1.000000
   10        4.164184   0.000000
   11        8.230524   0.000000
   12        9.296792   0.000000
   13        9.297293   0.000000
   14       10.894737   0.000000
   15       10.896178   0.000000
   16       11.356970   0.000000
   17       12.767778   0.000000
   18       14.692105   0.000000
   19       14.693150   0.000000
   20       16.594254   0.000000
   21       20.226342   0.000000
   22       20.226750   0.000000
   23       20.923940   0.000000
   24       22.072069   0.000000
   25       23.898255   0.000000
   26       23.898653   0.000000
   27       26.611902   0.000000
   28       26.612772   0.000000
   29       26.627652   0.000000
   30       27.424060   0.000000
   31       27.428667   0.000000
   32       27.509176   0.000000
   33       25.840661   0.000000
   34       26.722150   0.000000
   35       26.722151   0.000000
   36       29.638937   0.000000
   37       31.535571   0.000000
   38       31.609217   0.000000
   39       31.715915   0.000000
   40       31.715915   0.000000
   41       32.722038   0.000000
   42       32.722038   0.000000
   43       34.701921   0.000000
   44       34.701922   0.000000
   45       35.276838   0.000000
   46       35.476765   0.000000
   47       35.476765   0.000000
   48       36.163036   0.000000
   49       36.163036   0.000000
   50       36.452917   0.000000
   51       36.596486   0.000000
   52       38.372231   0.000000
   53       38.466265   0.000000
   54       38.466265   0.000000
   55       39.876622   0.000000
   56       40.066860   0.000000
   57       40.066860   0.000000
   58       42.010104   0.000000
   59       42.010104   0.000000
   60       42.764741   0.000000
   61       43.203420   0.000000
   62       43.483667   0.000000
   63       43.789019   0.000000
   64       43.789019   0.000000
   65       45.012980   0.000000
   66       45.012981   0.000000
   67       45.463795   0.000000
   68       46.105657   0.000000
   69       46.105657   0.000000
   70       47.390139   0.000000
   71       49.706279   0.000000
   72       52.098577   0.000000
   73       52.098577   0.000000
   74       52.943382   0.000000
   75       57.267977   0.000000
   76       57.267978   0.000000
   77       58.465336   0.000000
   78       58.966792   0.000000
   79       58.966792   0.000000
   80       59.653955   0.000000
   81       61.147358   0.000000
   82       61.568447   0.000000
   83       61.686348   0.000000
   84       61.686348   0.000000
   85       62.332183   0.000000
   86       62.332184   0.000000
   87       63.435765   0.000000
   88       63.435765   0.000000
   89       64.212036   0.000000
   90       64.622936   0.000000
   91       64.622936   0.000000
   92       65.562000   0.000000
   93       65.562001   0.000000
   94       66.282250   0.000000
   95       66.465240   0.000000
   96       66.465241   0.000000
   97       67.631931   0.000000
   98       67.821087   0.000000
   99       67.821087   0.000000
  100       67.894911   0.000000
  101       69.213800   0.000000
  102       69.213800   0.000000
  103       69.429285   0.000000
  104       69.480683   0.000000
  105       69.480684   0.000000
  106       70.144696   0.000000
  107       70.792970   0.000000
  108       72.628494   0.000000
  109       72.628494   0.000000
  110       72.724152   0.000000
  111       72.724153   0.000000
  112       73.355601   0.000000
  113       73.825998   0.000000
  114       73.825998   0.000000
  115       74.412874   0.000000
  116       74.718598   0.000000
  117       74.811424   0.000000
  118       74.811425   0.000000
  119       76.175871   0.000000
  120       76.407653   0.000000
  121       76.407653   0.000000
  122       76.662331   0.000000
  123       78.101045   0.000000
  124       78.101045   0.000000
  125       79.097085   0.000000
  126       79.406060   0.000000
  127       79.406060   0.000000
  128       79.906418   0.000000
 
  0.3333333E+00  0.5852146E-16  0.1387779E-16  0.9259259E-02
    1      -48.677843   1.000000
    2      -48.677595   1.000000
    3      -48.674653   1.000000
    4      -48.674295   1.000000
    5      -48.673540   1.000000
    6      -20.528926   1.000000
    7       -6.748555   1.000000
    8       -5.279972   1.000000
    9       -5.278857   1.000000
   10        5.185511   0.000000
   11        8.349859   0.000000
   12        8.933123   0.000000
   13        8.933864   0.000000
   14       10.575422   0.000000
   15       11.783043   0.000000
   16       11.784578   0.000000
   17       15.916469   0.000000
   18       16.933299   0.000000
   19       17.017405   0.000000
   20       17.018063   0.000000
   21       17.509568   0.000000
   22       17.510369   0.000000
   23       19.983677   0.000000
   24       22.265169   0.000000
   25       23.989577   0.000000
   26       23.990156   0.000000
   27       24.534115   0.000000
   28       25.400393   0.000000
   29       25.401197   0.000000
   30       27.268824   0.000000
   31       27.393433   0.000000
   32       27.395672   0.000000
   33       25.694237   0.000000
   34       26.793821   0.000000
   35       26.793821   0.000000
   36       27.383085   0.000000
   37       30.078262   0.000000
   38       30.146931   0.000000
   39       30.146932   0.000000
   40       30.252220   0.000000
   41       31.282343   0.000000
   42       31.282343   0.000000
   43       34.285631   0.000000
   44       34.354077   0.000000
   45       34.354078   0.000000
   46       35.045825   0.000000
   47       35.045826   0.000000
   48       37.008445   0.000000
   49       37.008446   0.000000
   50       37.149011   0.000000
   51       37.508121   0.000000
   52       38.430391   0.000000
   53       39.714863   0.000000
   54       39.714863   0.000000
   55       40.483573   0.000000
   56       41.470883   0.000000
   57       41.470883   0.000000
   58       43.559296   0.000000
   59       45.367357   0.000000
   60       45.367357   0.000000
   61       45.792943   0.000000
   62       45.816581   0.000000
   63       45.816582   0.000000
   64       46.513448   0.000000
   65       47.762183   0.000000
   66       48.152930   0.000000
   67       48.152931   0.000000
   68       49.176504   0.000000
   69       49.176504   0.000000
   70       49.878048   0.000000
   71       50.138113   0.000000
   72       50.138113   0.000000
   73       51.960540   0.000000
   74       52.192651   0.000000
   75       52.530640   0.000000
   76       52.530640   0.000000
   77       55.436185   0.000000
   78       55.827413   0.000000
   79       56.312992   0.000000
   80       56.312993   0.000000
   81       57.743318   0.000000
   82       57.743318   0.000000
   83       58.213455   0.000000
   84       58.788145   0.000000
   85       58.926441   0.000000
   86       58.926442   0.000000
   87       61.261154   0.000000
   88       61.261155   0.000000
   89       64.575391   0.000000
   90       64.901123   0.000000
   91       64.901123   0.000000
   92       65.760477   0.000000
   93       65.760478   0.000000
   94       66.334980   0.000000
   95       66.334981   0.000000
   96       66.700313   0.000000
   97       67.120733   0.000000
   98       67.120733   0.000000
   99       67.327219   0.000000
  100       67.510162   0.000000
  101       67.573101   0.000000
  102       67.573101   0.000000
  103       67.968159   0.000000
  104       70.143155   0.000000
  105       70.143155   0.000000
  106       70.291694   0.000000
  107       70.815499   0.000000
  108       71.756300   0.000000
  109       71.756301   0.000000
  110       72.676538   0.000000
  111       74.103127   0.000000
  112       74.967855   0.000000
  113       75.058898   0.000000
  114       75.058899   0.000000
  115       75.560468   0.000000
  116       75.560468   0.000000
  117       76.077214   0.000000
  118       76.535237   0.000000
  119       76.535237   0.000000
  120       77.851536   0.000000
  121       77.851537   0.000000
  122       79.166355   0.000000
  123       79.166356   0.000000
  124       79.213973   0.000000
  125       79.988075   0.000000
  126       80.304625   0.000000
  127       81.120255   0.000000
  128       81.209077   0.000000
 
  0.5000000E+00  0.6002661E-16  0.0000000E+00  0.4629630E-02
    1      -48.677411   1.000000
    2      -48.677135   1.000000
    3      -48.674210   1.000000
    4      -48.673994   1.000000
    5      -48.672939   1.000000
    6      -20.493864   1.000000
    7       -7.181271   1.000000
    8       -5.358469   1.000000
    9       -5.351727   1.000000
   10        5.315045   0.000000
   11        8.667917   0.000000
   12        8.673238   0.000000
   13        8.846857   0.000000
   14       10.962678   0.000000
   15       13.984701   0.000000
   16       14.026510   0.000000
   17       14.114462   0.000000
   18       14.139894   0.000000
   19       14.672627   0.000000
   20       19.033106   0.000000
   21       19.824524   0.000000
   22       19.959938   0.000000
   23       21.098445   0.000000
   24       22.362795   0.000000
   25       22.386415   0.000000
   26       22.395527   0.000000
   27       23.436641   0.000000
   28       24.715993   0.000000
   29       24.811589   0.000000
   30       24.899357   0.000000
   31       27.943178   0.000000
   32       28.466678   0.000000
   33       25.559010   0.000000
   34       26.142848   0.000000
   35       26.142848   0.000000
   36       26.898869   0.000000
   37       27.492915   0.000000
   38       29.669178   0.000000
   39       29.669179   0.000000
   40       29.739147   0.000000
   41       30.953663   0.000000
   42       30.953664   0.000000
   43       34.079380   0.000000
   44       34.079380   0.000000
   45       34.597207   0.000000
   46       34.906630   0.000000
   47       34.906631   0.000000
   48       37.388540   0.000000
   49       37.550012   0.000000
   50       37.550012   0.000000
   51       37.805414   0.000000
   52       41.176091   0.000000
   53       41.176092   0.000000
   54       41.534083   0.000000
   55       42.048693   0.000000
   56       42.789773   0.000000
   57       43.554167   0.000000
   58       43.554168   0.000000
   59       44.761159   0.000000
   60       44.761160   0.000000
   61       45.051265   0.000000
   62       46.728511   0.000000
   63       46.728512   0.000000
   64       48.313217   0.000000
   65       48.313218   0.000000
   66       48.771612   0.000000
   67       48.951034   0.000000
   68       49.137484   0.000000
   69       50.099853   0.000000
   70       50.099853   0.000000
   71       51.287877   0.000000
   72       51.726255   0.000000
   73       51.726255   0.000000
   74       52.599118   0.000000
   75       52.696854   0.000000
   76       52.735261   0.000000
   77       52.735262   0.000000
   78       53.930201   0.000000
   79       53.930203   0.000000
   80       54.389778   0.000000
   81       56.354553   0.000000
   82       56.354553   0.000000
   83       57.291917   0.000000
   84       57.291918   0.000000
   85       59.161252   0.000000
   86       59.663442   0.000000
   87       59.663442   0.000000
   88       60.986493   0.000000
   89       60.986494   0.000000
   90       61.204687   0.000000
   91       64.691823   0.000000
   92       65.560034   0.000000
   93       65.560034   0.000000
   94       65.657747   0.000000
   95       65.657748   0.000000
   96       66.396864   0.000000
   97       66.517496   0.000000
   98       66.595177   0.000000
   99       68.071532   0.000000
  100       68.071532   0.000000
  101       68.815342   0.000000
  102       68.978957   0.000000
  103       69.159124   0.000000
  104       70.138038   0.000000
  105       70.138039   0.000000
  106       70.641964   0.000000
  107       71.519015   0.000000
  108       71.519015   0.000000
  109       72.241035   0.000000
  110       72.241035   0.000000
  111       73.582273   0.000000
  112       73.582273   0.000000
  113       73.893972   0.000000
  114       74.101464   0.000000
  115       74.101465   0.000000
  116       76.051841   0.000000
  117       76.455753   0.000000
  118       76.500163   0.000000
  119       77.076235   0.000000
  120       77.076236   0.000000
  121       78.868579   0.000000
  122       78.868581   0.000000
  123       79.270729   0.000000
  124       79.606711   0.000000
  125       79.606713   0.000000
  126       80.009888   0.000000
  127       80.380407   0.000000
  128       80.380409   0.000000
 
  0.3851860E-33  0.1666667E+00  0.6938894E-17  0.9259259E-02
    1      -48.678451   1.000000
    2      -48.678350   1.000000
    3      -48.675296   1.000000
    4      -48.674695   1.000000
    5      -48.674447   1.000000
    6      -20.620310   1.000000
    7       -5.726023   1.000000
    8       -5.146826   1.000000
    9       -5.145563   1.000000
   10        4.164461   0.000000
   11        8.230563   0.000000
   12        9.296836   0.000000
   13        9.297327   0.000000
   14       10.894676   0.000000
   15       10.896181   0.000000
   16       11.357007   0.000000
   17       12.767919   0.000000
   18       14.692285   0.000000
   19       14.693209   0.000000
   20       16.594284   0.000000
   21       20.226171   0.000000
   22       20.226616   0.000000
   23       20.923776   0.000000
   24       22.072186   0.000000
   25       23.898422   0.000000
   26       23.898626   0.000000
   27       26.611833   0.000000
   28       26.612788   0.000000
   29       26.627542   0.000000
   30       27.423971   0.000000
   31       27.428994   0.000000
   32       27.508702   0.000000
   33       25.840662   0.000000
   34       26.722150   0.000000
   35       26.722150   0.000000
   36       29.638937   0.000000
   37       31.535571   0.000000
   38       31.609216   0.000000
   39       31.715914   0.000000
   40       31.715915   0.000000
   41       32.722038   0.000000
   42       32.722038   0.000000
   43       34.701922   0.000000
   44       34.701922   0.000000
   45       35.276839   0.000000
   46       35.476765   0.000000
   47       35.476765   0.000000
   48       36.163036   0.000000
   49       36.163036   0.000000
   50       36.452917   0.000000
   51       36.596486   0.000000
   52       38.372232   0.000000
   53       38.466265   0.000000
   54       38.466265   0.000000
   55       39.876622   0.000000
   56       40.066859   0.000000
   57       40.066860   0.000000
   58       42.010104   0.000000
   59       42.010104   0.000000
   60       42.764741   0.000000
   61       43.203419   0.000000
   62       43.483667   0.000000
   63       43.789019   0.000000
   64       43.789020   0.000000
   65       45.012980   0.000000
   66       45.012981   0.000000
   67       45.463795   0.000000
   68       46.105656   0.000000
   69       46.105658   0.000000
   70       47.390139   0.000000
   71       49.706279   0.000000
   72       52.098577   0.000000
   73       52.098577   0.000000
   74       52.943382   0.000000
   75       57.267976   0.000000
   76       57.267977   0.000000
   77       58.465337   0.000000
   78       58.966792   0.000000
   79       58.966792   0.000000
   80       59.653956   0.000000
   81       61.147358   0.000000
   82       61.568447   0.000000
   83       61.686347   0.000000
   84       61.686348   0.000000
   85       62.332184   0.000000
   86       62.332184   0.000000
   87       63.435765   0.000000
   88       63.435765   0.000000
   89       64.212036   0.000000
   90       64.622936   0.000000
   91       64.622937   0.000000
   92       65.562000   0.000000
   93       65.562001   0.000000
   94       66.282249   0.000000
   95       66.465240   0.000000
   96       66.465241   0.000000
   97       67.631930   0.000000
   98       67.821087   0.000000
   99       67.821088   0.000000
  100       67.894912   0.000000
  101       69.213799   0.000000
  102       69.213801   0.000000
  103       69.429285   0.000000
  104       69.480683   0.000000
  105       69.480683   0.000000
  106       70.144696   0.000000
  107       70.792969   0.000000
  108       72.628494   0.000000
  109       72.628495   0.000000
  110       72.724152   0.000000
  111       72.724153   0.000000
  112       73.355602   0.000000
  113       73.825999   0.000000
  114       73.825999   0.000000
  115       74.412873   0.000000
  116       74.718598   0.000000
  117       74.811424   0.000000
  118       74.811425   0.000000
  119       76.175871   0.000000
  120       76.407653   0.000000
  121       76.407653   0.000000
  122       76.662331   0.000000
  123       78.101045   0.000000
  124       78.101046   0.000000
  125       79.097086   0.000000
  126       79.406059   0.000000
  127       79.406061   0.000000
  128       79.906418   0.000000
 
  0.1666667E+00  0.1666667E+00  0.1387779E-16  0.9259259E-02
    1      -48.678480   1.000000
    2      -48.678325   1.000000
    3      -48.675192   1.000000
    4      -48.674432   1.000000
    5      -48.674355   1.000000
    6      -20.605786   1.000000
    7       -5.709849   1.000000
    8       -5.283351   1.000000
    9       -5.281884   1.000000
   10        4.465629   0.000000
   11        7.736672   0.000000
   12        9.254858   0.000000
   13        9.693410   0.000000
   14        9.693641   0.000000
   15       12.159613   0.000000
   16       12.700212   0.000000
   17       13.574329   0.000000
   18       13.574610   0.000000
   19       13.907751   0.000000
   20       17.775699   0.000000
   21       20.154171   0.000000
   22       20.334234   0.000000
   23       20.334545   0.000000
   24       21.126280   0.000000
   25       23.331432   0.000000
   26       23.331550   0.000000
   27       26.163341   0.000000
   28       26.765812   0.000000
   29       26.770052   0.000000
   30       27.020608   0.000000
   31       27.128305   0.000000
   32       28.437301   0.000000
   33       25.999258   0.000000
   34       27.709008   0.000000
   35       27.709009   0.000000
   36       29.148070   0.000000
   37       30.548910   0.000000
   38       30.548911   0.000000
   39       31.833100   0.000000
   40       32.459374   0.000000
   41       32.714072   0.000000
   42       32.714072   0.000000
   43       33.067736   0.000000
   44       34.473650   0.000000
   45       35.165525   0.000000
   46       35.746671   0.000000
   47       36.187472   0.000000
   48       36.187473   0.000000
   49       36.284570   0.000000
   50       37.582672   0.000000
   51       37.708731   0.000000
   52       37.708731   0.000000
   53       38.601804   0.000000
   54       38.998320   0.000000
   55       38.998320   0.000000
   56       39.340378   0.000000
   57       39.340378   0.000000
   58       40.528648   0.000000
   59       42.131132   0.000000
   60       43.070758   0.000000
   61       43.313522   0.000000
   62       43.842499   0.000000
   63       43.842499   0.000000
   64       44.803970   0.000000
   65       45.905684   0.000000
   66       46.169937   0.000000
   67       46.169937   0.000000
   68       47.236947   0.000000
   69       47.713506   0.000000
   70       47.713506   0.000000
   71       49.230948   0.000000
   72       50.122028   0.000000
   73       54.862666   0.000000
   74       55.126211   0.000000
   75       57.004681   0.000000
   76       57.004681   0.000000
   77       57.620580   0.000000
   78       58.191506   0.000000
   79       58.191506   0.000000
   80       58.201573   0.000000
   81       59.521239   0.000000
   82       60.121143   0.000000
   83       60.121144   0.000000
   84       60.414465   0.000000
   85       62.000266   0.000000
   86       62.118543   0.000000
   87       62.118544   0.000000
   88       62.629688   0.000000
   89       63.721785   0.000000
   90       64.044105   0.000000
   91       64.860153   0.000000
   92       64.860154   0.000000
   93       65.633036   0.000000
   94       65.877491   0.000000
   95       65.877492   0.000000
   96       66.389614   0.000000
   97       66.678484   0.000000
   98       67.196011   0.000000
   99       68.975970   0.000000
  100       69.119301   0.000000
  101       69.119301   0.000000
  102       69.207856   0.000000
  103       70.177012   0.000000
  104       71.041498   0.000000
  105       71.041498   0.000000
  106       71.556596   0.000000
  107       71.996094   0.000000
  108       72.660790   0.000000
  109       72.660792   0.000000
  110       73.561698   0.000000
  111       73.798470   0.000000
  112       73.977583   0.000000
  113       73.977584   0.000000
  114       74.207850   0.000000
  115       74.207851   0.000000
  116       74.266790   0.000000
  117       75.310803   0.000000
  118       75.310804   0.000000
  119       75.806330   0.000000
  120       76.634456   0.000000
  121       76.637994   0.000000
  122       77.157682   0.000000
  123       77.617512   0.000000
  124       78.246538   0.000000
  125       78.259927   0.000000
  126       78.259928   0.000000
  127       79.706976   0.000000
  128       79.706976   0.000000
 
  0.3333333E+00  0.1666667E+00  0.2775558E-16  0.9259259E-02
    1      -48.678014   1.000000
    2      -48.677611   1.000000
    3      -48.674650   1.000000
    4      -48.674155   1.000000
    5      -48.673532   1.000000
    6      -20.530410   1.000000
    7       -6.466767   1.000000
    8       -5.465001   1.000000
    9       -5.443429   1.000000
   10        5.526684   0.000000
   11        7.444889   0.000000
   12        8.166649   0.000000
   13        9.811331   0.000000
   14       10.883624   0.000000
   15       12.537628   0.000000
   16       12.663527   0.000000
   17       15.138489   0.000000
   18       15.671267   0.000000
   19       16.683998   0.000000
   20       16.959773   0.000000
   21       16.987001   0.000000
   22       20.402598   0.000000
   23       20.742344   0.000000
   24       20.976179   0.000000
   25       21.261030   0.000000
   26       23.556990   0.000000
   27       24.265347   0.000000
   28       25.362613   0.000000
   29       25.653057   0.000000
   30       26.600831   0.000000
   31       27.400126   0.000000
   32       28.238987   0.000000
   33       26.098048   0.000000
   34       27.065579   0.000000
   35       27.363741   0.000000
   36       28.996258   0.000000
   37       29.412766   0.000000
   38       29.972906   0.000000
   39       30.398981   0.000000
   40       30.950574   0.000000
   41       31.687588   0.000000
   42       32.467335   0.000000
   43       32.821433   0.000000
   44       33.892878   0.000000
   45       33.925676   0.000000
   46       35.722581   0.000000
   47       35.976939   0.000000
   48       36.462640   0.000000
   49       37.480162   0.000000
   50       37.622121   0.000000
   51       38.081424   0.000000
   52       38.286480   0.000000
   53       39.071436   0.000000
   54       39.244563   0.000000
   55       39.994411   0.000000
   56       40.187383   0.000000
   57       41.739899   0.000000
   58       42.515565   0.000000
   59       42.549004   0.000000
   60       43.355086   0.000000
   61       44.757922   0.000000
   62       45.960973   0.000000
   63       46.088367   0.000000
   64       47.221746   0.000000
   65       47.466165   0.000000
   66       48.727624   0.000000
   67       48.759844   0.000000
   68       48.903184   0.000000
   69       50.629442   0.000000
   70       50.679388   0.000000
   71       51.379329   0.000000
   72       52.110005   0.000000
   73       52.992118   0.000000
   74       53.077565   0.000000
   75       53.387668   0.000000
   76       54.117419   0.000000
   77       54.832445   0.000000
   78       55.454294   0.000000
   79       55.632595   0.000000
   80       56.277381   0.000000
   81       57.074589   0.000000
   82       57.916817   0.000000
   83       58.517321   0.000000
   84       59.249305   0.000000
   85       59.649418   0.000000
   86       60.157916   0.000000
   87       60.790120   0.000000
   88       61.232832   0.000000
   89       61.965952   0.000000
   90       61.999629   0.000000
   91       62.690323   0.000000
   92       63.701418   0.000000
   93       64.438227   0.000000
   94       64.528118   0.000000
   95       65.757934   0.000000
   96       66.173698   0.000000
   97       66.566119   0.000000
   98       68.099360   0.000000
   99       68.109888   0.000000
  100       68.816409   0.000000
  101       69.198139   0.000000
  102       69.497700   0.000000
  103       70.355202   0.000000
  104       70.796811   0.000000
  105       71.244995   0.000000
  106       71.710166   0.000000
  107       71.955648   0.000000
  108       72.121863   0.000000
  109       72.765691   0.000000
  110       73.146354   0.000000
  111       73.810710   0.000000
  112       74.116065   0.000000
  113       74.704929   0.000000
  114       74.721129   0.000000
  115       75.168320   0.000000
  116       75.456705   0.000000
  117       75.590857   0.000000
  118       76.761794   0.000000
  119       76.966196   0.000000
  120       77.420368   0.000000
  121       77.516794   0.000000