 vasp.5.4.4.18Apr17-6-g9f103f2a35 (build Jul 09 2018 16:43:14) complex          
  
 executed on             LinuxIFC date 2018.11.22  03:45:14
 running on   32 total cores
 distrk:  each k-point on    8 cores,    4 groups
 distr:  one band on NCORES_PER_BAND=   1 cores,    8 groups


--------------------------------------------------------------------------------------------------------


 INCAR:
 POTCAR:    PAW_PBE Rn_d_GW 14Apr2014             

 ----------------------------------------------------------------------------- 
|                                                                             |
|           W    W    AA    RRRRR   N    N  II  N    N   GGGG   !!!           |
|           W    W   A  A   R    R  NN   N  II  NN   N  G    G  !!!           |
|           W    W  A    A  R    R  N N  N  II  N N  N  G       !!!           |
|           W WW W  AAAAAA  RRRRR   N  N N  II  N  N N  G  GGG   !            |
|           WW  WW  A    A  R   R   N   NN  II  N   NN  G    G                |
|           W    W  A    A  R    R  N    N  II  N    N   GGGG   !!!           |
|                                                                             |
|      For optimal performance we recommend to set                            |
|        NCORE= 4 - approx SQRT( number of cores)                             |
|      NCORE specifies how many cores store one orbital (NPAR=cpu/NCORE).     |
|      This setting can  greatly improve the performance of VASP for DFT.     |
|      The default,   NCORE=1            might be grossly inefficient         |
|      on modern multi-core architectures or massively parallel machines.     |
|      Do your own testing !!!!                                               |
|      Unfortunately you need to use the default for GW and RPA calculations. |
|      (for HF NCORE is supported but not extensively tested yet)             |
|                                                                             |
 ----------------------------------------------------------------------------- 


 ----------------------------------------------------------------------------- 
|                                                                             |
|           W    W    AA    RRRRR   N    N  II  N    N   GGGG   !!!           |
|           W    W   A  A   R    R  NN   N  II  NN   N  G    G  !!!           |
|           W    W  A    A  R    R  N N  N  II  N N  N  G       !!!           |
|           W WW W  AAAAAA  RRRRR   N  N N  II  N  N N  G  GGG   !            |
|           WW  WW  A    A  R   R   N   NN  II  N   NN  G    G                |
|           W    W  A    A  R    R  N    N  II  N    N   GGGG   !!!           |
|                                                                             |
|      You have enabled k-point parallelism (KPAR>1).                         |
|      This developmental code was originally  written by Paul Kent at ORNL,  |
|      and carefully double checked in Vienna.                                |
|      GW as well as linear response parallelism added by Martijn Marsman     |
|      and Georg Kresse.                                                      |
|      Carefully verify results versus KPAR=1.                                |
|      Report problems to Paul Kent and Vienna.                               |
|                                                                             |
 ----------------------------------------------------------------------------- 

 POTCAR:    PAW_PBE Rn_d_GW 14Apr2014             
  local pseudopotential read in
  partial core-charges read in
  partial kinetic energy density read in
  kinetic energy density of atom read in
  atomic valenz-charges read in
  non local Contribution for L=           2  read in
    real space projection operators read in
  non local Contribution for L=           2  read in
    real space projection operators read in
  non local Contribution for L=           2  read in
    real space projection operators read in
  non local Contribution for L=           0  read in
    real space projection operators read in
  non local Contribution for L=           0  read in
    real space projection operators read in
  non local Contribution for L=           1  read in
    real space projection operators read in
  non local Contribution for L=           1  read in
    real space projection operators read in
  non local Contribution for L=           3  read in
    real space projection operators read in
  non local Contribution for L=           3  read in
    real space projection operators read in
    PAW grid and wavefunctions read in
 
   number of l-projection  operators is LMAX  =           9
   number of lm-projection operators is LMMAX =          37
 
  PAW_PBE Rn_d_GW 14Apr2014             :
 energy of atom  1       EATOM=-3030.7130
 kinetic energy error for atom=    0.0889 (will be added to EATOM!!)
 
 
 POSCAR: Rn_FCC                                  
  positions in direct lattice
  velocities in cartesian coordinates
 exchange correlation table for  LEXCH =        8
   RHO(1)=    0.500       N(1)  =     2000
   RHO(2)=  100.500       N(2)  =     4000
 


--------------------------------------------------------------------------------------------------------


 ion  position               nearest neighbor table
   1  0.000  0.000  0.000-
 

IMPORTANT INFORMATION: All symmetrisations will be switched off!
NOSYMM: (Re-)initialisation of all symmetry stuff for point group C_1.

 
 
 KPOINTS: k-points                                

Automatic generation of k-mesh.
Space group operators:
 irot       det(A)        alpha          n_x          n_y          n_z        tau_x        tau_y        tau_z
    1     1.000000     0.000000     1.000000     0.000000     0.000000     0.000000     0.000000     0.000000
 
 Subroutine IBZKPT returns following result:
 ===========================================
 
 Found    112 irreducible k-points:
 
 Following reciprocal coordinates:
            Coordinates               Weight
  0.000000  0.000000  0.000000      1.000000
  0.166667  0.000000  0.000000      2.000000
  0.333333  0.000000  0.000000      2.000000
  0.500000  0.000000  0.000000      1.000000
  0.000000  0.166667  0.000000      2.000000
  0.166667  0.166667  0.000000      2.000000
  0.333333  0.166667  0.000000      2.000000
  0.500000  0.166667  0.000000      2.000000
 -0.333333  0.166667  0.000000      2.000000
 -0.166667  0.166667  0.000000      2.000000
  0.000000  0.333333  0.000000      2.000000
  0.166667  0.333333  0.000000      2.000000
  0.333333  0.333333  0.000000      2.000000
  0.500000  0.333333  0.000000      2.000000
 -0.333333  0.333333 -0.000000      2.000000
 -0.166667  0.333333 -0.000000      2.000000
  0.000000  0.500000  0.000000      1.000000
  0.166667  0.500000  0.000000      2.000000
  0.333333  0.500000  0.000000      2.000000
  0.500000  0.500000 -0.000000      1.000000
 -0.000000 -0.000000  0.166667      2.000000
  0.166667  0.000000  0.166667      2.000000
  0.333333  0.000000  0.166667      2.000000
  0.500000  0.000000  0.166667      2.000000
 -0.333333 -0.000000  0.166667      2.000000
 -0.166667 -0.000000  0.166667      2.000000
  0.000000  0.166667  0.166667      2.000000
  0.166667  0.166667  0.166667      2.000000
  0.333333  0.166667  0.166667      2.000000
  0.500000  0.166667  0.166667      2.000000
 -0.333333  0.166667  0.166667      2.000000
 -0.166667  0.166667  0.166667      2.000000
  0.000000  0.333333  0.166667      2.000000
  0.166667  0.333333  0.166667      2.000000
  0.333333  0.333333  0.166667      2.000000
  0.500000  0.333333  0.166667      2.000000
 -0.333333  0.333333  0.166667      2.000000
 -0.166667  0.333333  0.166667      2.000000
  0.000000  0.500000  0.166667      2.000000
  0.166667  0.500000  0.166667      2.000000
  0.333333  0.500000  0.166667      2.000000
  0.500000  0.500000  0.166667      2.000000
 -0.333333  0.500000  0.166667      2.000000
 -0.166667  0.500000  0.166667      2.000000
 -0.000000 -0.333333  0.166667      2.000000
  0.166667 -0.333333  0.166667      2.000000
  0.333333 -0.333333  0.166667      2.000000
  0.500000 -0.333333  0.166667      2.000000
 -0.333333 -0.333333  0.166667      2.000000
 -0.166667 -0.333333  0.166667      2.000000
 -0.000000 -0.166667  0.166667      2.000000
  0.166667 -0.166667  0.166667      2.000000
  0.333333 -0.166667  0.166667      2.000000
  0.500000 -0.166667  0.166667      2.000000
 -0.333333 -0.166667  0.166667      2.000000
 -0.166667 -0.166667  0.166667      2.000000
  0.000000 -0.000000  0.333333      2.000000
  0.166667  0.000000  0.333333      2.000000
  0.333333  0.000000  0.333333      2.000000
  0.500000  0.000000  0.333333      2.000000
 -0.333333 -0.000000  0.333333      2.000000
 -0.166667 -0.000000  0.333333      2.000000
  0.000000  0.166667  0.333333      2.000000
  0.166667  0.166667  0.333333      2.000000
  0.333333  0.166667  0.333333      2.000000
  0.500000  0.166667  0.333333      2.000000
 -0.333333  0.166667  0.333333      2.000000
 -0.166667  0.166667  0.333333      2.000000
 -0.000000  0.333333  0.333333      2.000000
  0.166667  0.333333  0.333333      2.000000
  0.333333  0.333333  0.333333      2.000000
  0.500000  0.333333  0.333333      2.000000
 -0.333333  0.333333  0.333333      2.000000
 -0.166667  0.333333  0.333333      2.000000
  0.000000  0.500000  0.333333      2.000000
  0.166667  0.500000  0.333333      2.000000
  0.333333  0.500000  0.333333      2.000000
  0.500000  0.500000  0.333333      2.000000
 -0.333333  0.500000  0.333333      2.000000
 -0.166667  0.500000  0.333333      2.000000
 -0.000000 -0.333333  0.333333      2.000000
  0.166667 -0.333333  0.333333      2.000000
  0.333333 -0.333333  0.333333      2.000000
  0.500000 -0.333333  0.333333      2.000000
 -0.333333 -0.333333  0.333333      2.000000
 -0.166667 -0.333333  0.333333      2.000000
 -0.000000 -0.166667  0.333333      2.000000
  0.166667 -0.166667  0.333333      2.000000
  0.333333 -0.166667  0.333333      2.000000
  0.500000 -0.166667  0.333333      2.000000
 -0.333333 -0.166667  0.333333      2.000000
 -0.166667 -0.166667  0.333333      2.000000
 -0.000000 -0.000000  0.500000      1.000000
  0.166667  0.000000  0.500000      2.000000
  0.333333  0.000000  0.500000      2.000000
  0.500000  0.000000  0.500000      1.000000
 -0.000000  0.166667  0.500000      2.000000
  0.166667  0.166667  0.500000      2.000000
  0.333333  0.166667  0.500000      2.000000
  0.500000  0.166667  0.500000      2.000000
 -0.333333  0.166667  0.500000      2.000000
 -0.166667  0.166667  0.500000      2.000000
 -0.000000  0.333333  0.500000      2.000000
  0.166667  0.333333  0.500000      2.000000
  0.333333  0.333333  0.500000      2.000000
  0.500000  0.333333  0.500000      2.000000
 -0.333333  0.333333  0.500000      2.000000
 -0.166667  0.333333  0.500000      2.000000
  0.000000  0.500000  0.500000      1.000000
  0.166667  0.500000  0.500000      2.000000
  0.333333  0.500000  0.500000      2.000000
  0.500000  0.500000  0.500000      1.000000
 
 Following cartesian coordinates:
            Coordinates               Weight
  0.000000  0.000000  0.000000      1.000000
  0.036869 -0.021286 -0.015052      2.000000
  0.073737 -0.042572 -0.030103      2.000000
  0.110606 -0.063858 -0.045155      1.000000
  0.000000  0.042572 -0.015052      2.000000
  0.036869  0.021286 -0.030103      2.000000
  0.073737  0.000000 -0.045155      2.000000
  0.110606 -0.021286 -0.060206      2.000000
 -0.073737  0.085144  0.015052      2.000000
 -0.036869  0.063858  0.000000      2.000000
  0.000000  0.085144 -0.030103      2.000000
  0.036869  0.063858 -0.045155      2.000000
  0.073737  0.042572 -0.060206      2.000000
  0.110606  0.021286 -0.075258      2.000000
 -0.073737  0.127716  0.000000      2.000000
 -0.036869  0.106430 -0.015052      2.000000
  0.000000  0.127716 -0.045155      1.000000
  0.036869  0.106430 -0.060206      2.000000
  0.073737  0.085144 -0.075258      2.000000
  0.110606  0.063858 -0.090309      1.000000
 -0.000000  0.000000  0.045155      2.000000
  0.036869 -0.021286  0.030103      2.000000
  0.073737 -0.042572  0.015052      2.000000
  0.110606 -0.063858 -0.000000      2.000000
 -0.073737  0.042572  0.075258      2.000000
 -0.036869  0.021286  0.060206      2.000000
 -0.000000  0.042572  0.030103      2.000000
  0.036869  0.021286  0.015052      2.000000
  0.073737  0.000000  0.000000      2.000000
  0.110606 -0.021286 -0.015052      2.000000
 -0.073737  0.085144  0.060206      2.000000
 -0.036869  0.063858  0.045155      2.000000
 -0.000000  0.085144  0.015052      2.000000
  0.036869  0.063858  0.000000      2.000000
  0.073737  0.042572 -0.015052      2.000000
  0.110606  0.021286 -0.030103      2.000000
 -0.073737  0.127716  0.045155      2.000000
 -0.036869  0.106430  0.030103      2.000000
 -0.000000  0.127716  0.000000      2.000000
  0.036869  0.106430 -0.015052      2.000000
  0.073737  0.085144 -0.030103      2.000000
  0.110606  0.063858 -0.045155      2.000000
 -0.073737  0.170289  0.030103      2.000000
 -0.036869  0.149002  0.015052      2.000000
 -0.000000 -0.085144  0.075258      2.000000
  0.036869 -0.106430  0.060206      2.000000
  0.073737 -0.127716  0.045155      2.000000
  0.110606 -0.149002  0.030103      2.000000
 -0.073737 -0.042572  0.105361      2.000000
 -0.036869 -0.063858  0.090309      2.000000
 -0.000000 -0.042572  0.060206      2.000000
  0.036869 -0.063858  0.045155      2.000000
  0.073737 -0.085144  0.030103      2.000000
  0.110606 -0.106430  0.015052      2.000000
 -0.073737  0.000000  0.090309      2.000000
 -0.036869 -0.021286  0.075258      2.000000
 -0.000000  0.000000  0.090309      2.000000
  0.036869 -0.021286  0.075258      2.000000
  0.073737 -0.042572  0.060206      2.000000
  0.110606 -0.063858  0.045155      2.000000
 -0.073737  0.042572  0.120412      2.000000
 -0.036869  0.021286  0.105361      2.000000
 -0.000000  0.042572  0.075258      2.000000
  0.036869  0.021286  0.060206      2.000000
  0.073737  0.000000  0.045155      2.000000
  0.110606 -0.021286  0.030103      2.000000
 -0.073737  0.085144  0.105361      2.000000
 -0.036869  0.063858  0.090309      2.000000
 -0.000000  0.085144  0.060206      2.000000
  0.036869  0.063858  0.045155      2.000000
  0.073737  0.042572  0.030103      2.000000
  0.110606  0.021286  0.015052      2.000000
 -0.073737  0.127716  0.090309      2.000000
 -0.036869  0.106430  0.075258      2.000000
 -0.000000  0.127716  0.045155      2.000000
  0.036869  0.106430  0.030103      2.000000
  0.073737  0.085144  0.015052      2.000000
  0.110606  0.063858  0.000000      2.000000
 -0.073737  0.170289  0.075258      2.000000
 -0.036869  0.149002  0.060206      2.000000
 -0.000000 -0.085144  0.120412      2.000000
  0.036869 -0.106430  0.105361      2.000000
  0.073737 -0.127716  0.090309      2.000000
  0.110606 -0.149002  0.075258      2.000000
 -0.073737 -0.042572  0.150515      2.000000
 -0.036869 -0.063858  0.135464      2.000000
 -0.000000 -0.042572  0.105361      2.000000
  0.036869 -0.063858  0.090309      2.000000
  0.073737 -0.085144  0.075258      2.000000
  0.110606 -0.106430  0.060206      2.000000
 -0.073737  0.000000  0.135464      2.000000
 -0.036869 -0.021286  0.120412      2.000000
 -0.000000  0.000000  0.135464      1.000000
  0.036869 -0.021286  0.120412      2.000000
  0.073737 -0.042572  0.105361      2.000000
  0.110606 -0.063858  0.090309      1.000000
 -0.000000  0.042572  0.120412      2.000000
  0.036869  0.021286  0.105361      2.000000
  0.073737  0.000000  0.090309      2.000000
  0.110606 -0.021286  0.075258      2.000000
 -0.073737  0.085144  0.150515      2.000000
 -0.036869  0.063858  0.135464      2.000000
 -0.000000  0.085144  0.105361      2.000000
  0.036869  0.063858  0.090309      2.000000
  0.073737  0.042572  0.075258      2.000000
  0.110606  0.021286  0.060206      2.000000
 -0.073737  0.127716  0.135464      2.000000
 -0.036869  0.106430  0.120412      2.000000
 -0.000000  0.127716  0.090309      1.000000
  0.036869  0.106430  0.075258      2.000000
  0.073737  0.085144  0.060206      2.000000
  0.110606  0.063858  0.045155      1.000000
 
 
 Subroutine IBZKPT_HF returns following result:
 ==============================================
 
 Found    216 k-points in 1st BZ
 the following    216 k-points will be used (e.g. in the exchange kernel)
 Following reciprocal coordinates:   # in IRBZ
  0.000000  0.000000  0.000000    0.00462963   1 t-inv F
  0.166667  0.000000  0.000000    0.00462963   2 t-inv F
  0.333333  0.000000  0.000000    0.00462963   3 t-inv F
  0.500000  0.000000  0.000000    0.00462963   4 t-inv F
  0.000000  0.166667  0.000000    0.00462963   5 t-inv F
  0.166667  0.166667  0.000000    0.00462963   6 t-inv F
  0.333333  0.166667  0.000000    0.00462963   7 t-inv F
  0.500000  0.166667  0.000000    0.00462963   8 t-inv F
 -0.333333  0.166667  0.000000    0.00462963   9 t-inv F
 -0.166667  0.166667  0.000000    0.00462963  10 t-inv F
  0.000000  0.333333  0.000000    0.00462963  11 t-inv F
  0.166667  0.333333  0.000000    0.00462963  12 t-inv F
  0.333333  0.333333  0.000000    0.00462963  13 t-inv F
  0.500000  0.333333  0.000000    0.00462963  14 t-inv F
 -0.333333  0.333333 -0.000000    0.00462963  15 t-inv F
 -0.166667  0.333333 -0.000000    0.00462963  16 t-inv F
  0.000000  0.500000  0.000000    0.00462963  17 t-inv F
  0.166667  0.500000  0.000000    0.00462963  18 t-inv F
  0.333333  0.500000  0.000000    0.00462963  19 t-inv F
  0.500000  0.500000 -0.000000    0.00462963  20 t-inv F
 -0.000000 -0.000000  0.166667    0.00462963  21 t-inv F
  0.166667  0.000000  0.166667    0.00462963  22 t-inv F
  0.333333  0.000000  0.166667    0.00462963  23 t-inv F
  0.500000  0.000000  0.166667    0.00462963  24 t-inv F
 -0.333333 -0.000000  0.166667    0.00462963  25 t-inv F
 -0.166667 -0.000000  0.166667    0.00462963  26 t-inv F
  0.000000  0.166667  0.166667    0.00462963  27 t-inv F
  0.166667  0.166667  0.166667    0.00462963  28 t-inv F
  0.333333  0.166667  0.166667    0.00462963  29 t-inv F
  0.500000  0.166667  0.166667    0.00462963  30 t-inv F
 -0.333333  0.166667  0.166667    0.00462963  31 t-inv F
 -0.166667  0.166667  0.166667    0.00462963  32 t-inv F
  0.000000  0.333333  0.166667    0.00462963  33 t-inv F
  0.166667  0.333333  0.166667    0.00462963  34 t-inv F
  0.333333  0.333333  0.166667    0.00462963  35 t-inv F
  0.500000  0.333333  0.166667    0.00462963  36 t-inv F
 -0.333333  0.333333  0.166667    0.00462963  37 t-inv F
 -0.166667  0.333333  0.166667    0.00462963  38 t-inv F
  0.000000  0.500000  0.166667    0.00462963  39 t-inv F
  0.166667  0.500000  0.166667    0.00462963  40 t-inv F
  0.333333  0.500000  0.166667    0.00462963  41 t-inv F
  0.500000  0.500000  0.166667    0.00462963  42 t-inv F
 -0.333333  0.500000  0.166667    0.00462963  43 t-inv F
 -0.166667  0.500000  0.166667    0.00462963  44 t-inv F
 -0.000000 -0.333333  0.166667    0.00462963  45 t-inv F
  0.166667 -0.333333  0.166667    0.00462963  46 t-inv F
  0.333333 -0.333333  0.166667    0.00462963  47 t-inv F
  0.500000 -0.333333  0.166667    0.00462963  48 t-inv F
 -0.333333 -0.333333  0.166667    0.00462963  49 t-inv F
 -0.166667 -0.333333  0.166667    0.00462963  50 t-inv F
 -0.000000 -0.166667  0.166667    0.00462963  51 t-inv F
  0.166667 -0.166667  0.166667    0.00462963  52 t-inv F
  0.333333 -0.166667  0.166667    0.00462963  53 t-inv F
  0.500000 -0.166667  0.166667    0.00462963  54 t-inv F
 -0.333333 -0.166667  0.166667    0.00462963  55 t-inv F
 -0.166667 -0.166667  0.166667    0.00462963  56 t-inv F
  0.000000 -0.000000  0.333333    0.00462963  57 t-inv F
  0.166667  0.000000  0.333333    0.00462963  58 t-inv F
  0.333333  0.000000  0.333333    0.00462963  59 t-inv F
  0.500000  0.000000  0.333333    0.00462963  60 t-inv F
 -0.333333 -0.000000  0.333333    0.00462963  61 t-inv F
 -0.166667 -0.000000  0.333333    0.00462963  62 t-inv F
  0.000000  0.166667  0.333333    0.00462963  63 t-inv F
  0.166667  0.166667  0.333333    0.00462963  64 t-inv F
  0.333333  0.166667  0.333333    0.00462963  65 t-inv F
  0.500000  0.166667  0.333333    0.00462963  66 t-inv F
 -0.333333  0.166667  0.333333    0.00462963  67 t-inv F
 -0.166667  0.166667  0.333333    0.00462963  68 t-inv F
 -0.000000  0.333333  0.333333    0.00462963  69 t-inv F
  0.166667  0.333333  0.333333    0.00462963  70 t-inv F
  0.333333  0.333333  0.333333    0.00462963  71 t-inv F
  0.500000  0.333333  0.333333    0.00462963  72 t-inv F
 -0.333333  0.333333  0.333333    0.00462963  73 t-inv F
 -0.166667  0.333333  0.333333    0.00462963  74 t-inv F
  0.000000  0.500000  0.333333    0.00462963  75 t-inv F
  0.166667  0.500000  0.333333    0.00462963  76 t-inv F
  0.333333  0.500000  0.333333    0.00462963  77 t-inv F
  0.500000  0.500000  0.333333    0.00462963  78 t-inv F
 -0.333333  0.500000  0.333333    0.00462963  79 t-inv F
 -0.166667  0.500000  0.333333    0.00462963  80 t-inv F
 -0.000000 -0.333333  0.333333    0.00462963  81 t-inv F
  0.166667 -0.333333  0.333333    0.00462963  82 t-inv F
  0.333333 -0.333333  0.333333    0.00462963  83 t-inv F
  0.500000 -0.333333  0.333333    0.00462963  84 t-inv F
 -0.333333 -0.333333  0.333333    0.00462963  85 t-inv F
 -0.166667 -0.333333  0.333333    0.00462963  86 t-inv F
 -0.000000 -0.166667  0.333333    0.00462963  87 t-inv F
  0.166667 -0.166667  0.333333    0.00462963  88 t-inv F
  0.333333 -0.166667  0.333333    0.00462963  89 t-inv F
  0.500000 -0.166667  0.333333    0.00462963  90 t-inv F
 -0.333333 -0.166667  0.333333    0.00462963  91 t-inv F
 -0.166667 -0.166667  0.333333    0.00462963  92 t-inv F
 -0.000000 -0.000000  0.500000    0.00462963  93 t-inv F
  0.166667  0.000000  0.500000    0.00462963  94 t-inv F
  0.333333  0.000000  0.500000    0.00462963  95 t-inv F
  0.500000  0.000000  0.500000    0.00462963  96 t-inv F
 -0.000000  0.166667  0.500000    0.00462963  97 t-inv F
  0.166667  0.166667  0.500000    0.00462963  98 t-inv F
  0.333333  0.166667  0.500000    0.00462963  99 t-inv F
  0.500000  0.166667  0.500000    0.00462963 100 t-inv F
 -0.333333  0.166667  0.500000    0.00462963 101 t-inv F
 -0.166667  0.166667  0.500000    0.00462963 102 t-inv F
 -0.000000  0.333333  0.500000    0.00462963 103 t-inv F
  0.166667  0.333333  0.500000    0.00462963 104 t-inv F
  0.333333  0.333333  0.500000    0.00462963 105 t-inv F
  0.500000  0.333333  0.500000    0.00462963 106 t-inv F
 -0.333333  0.333333  0.500000    0.00462963 107 t-inv F
 -0.166667  0.333333  0.500000    0.00462963 108 t-inv F
  0.000000  0.500000  0.500000    0.00462963 109 t-inv F
  0.166667  0.500000  0.500000    0.00462963 110 t-inv F
  0.333333  0.500000  0.500000    0.00462963 111 t-inv F
  0.500000  0.500000  0.500000    0.00462963 112 t-inv F
 -0.166667 -0.000000 -0.000000    0.00462963   2 t-inv T
 -0.333333 -0.000000 -0.000000    0.00462963   3 t-inv T
 -0.000000 -0.166667 -0.000000    0.00462963   5 t-inv T
 -0.166667 -0.166667 -0.000000    0.00462963   6 t-inv T
 -0.333333 -0.166667 -0.000000    0.00462963   7 t-inv T
 -0.500000 -0.166667  0.000000    0.00462963   8 t-inv T
  0.333333 -0.166667  0.000000    0.00462963   9 t-inv T
  0.166667 -0.166667 -0.000000    0.00462963  10 t-inv T
 -0.000000 -0.333333  0.000000    0.00462963  11 t-inv T
 -0.166667 -0.333333  0.000000    0.00462963  12 t-inv T
 -0.333333 -0.333333 -0.000000    0.00462963  13 t-inv T
 -0.500000 -0.333333 -0.000000    0.00462963  14 t-inv T
  0.333333 -0.333333  0.000000    0.00462963  15 t-inv T
  0.166667 -0.333333  0.000000    0.00462963  16 t-inv T
 -0.166667 -0.500000 -0.000000    0.00462963  18 t-inv T
 -0.333333 -0.500000  0.000000    0.00462963  19 t-inv T
  0.000000  0.000000 -0.166667    0.00462963  21 t-inv T
 -0.166667 -0.000000 -0.166667    0.00462963  22 t-inv T
 -0.333333 -0.000000 -0.166667    0.00462963  23 t-inv T
 -0.500000 -0.000000 -0.166667    0.00462963  24 t-inv T
  0.333333  0.000000 -0.166667    0.00462963  25 t-inv T
  0.166667  0.000000 -0.166667    0.00462963  26 t-inv T
  0.000000 -0.166667 -0.166667    0.00462963  27 t-inv T
 -0.166667 -0.166667 -0.166667    0.00462963  28 t-inv T
 -0.333333 -0.166667 -0.166667    0.00462963  29 t-inv T
 -0.500000 -0.166667 -0.166667    0.00462963  30 t-inv T
  0.333333 -0.166667 -0.166667    0.00462963  31 t-inv T
  0.166667 -0.166667 -0.166667    0.00462963  32 t-inv T
  0.000000 -0.333333 -0.166667    0.00462963  33 t-inv T
 -0.166667 -0.333333 -0.166667    0.00462963  34 t-inv T
 -0.333333 -0.333333 -0.166667    0.00462963  35 t-inv T
 -0.500000 -0.333333 -0.166667    0.00462963  36 t-inv T
  0.333333 -0.333333 -0.166667    0.00462963  37 t-inv T
  0.166667 -0.333333 -0.166667    0.00462963  38 t-inv T
 -0.000000 -0.500000 -0.166667    0.00462963  39 t-inv T
 -0.166667 -0.500000 -0.166667    0.00462963  40 t-inv T
 -0.333333 -0.500000 -0.166667    0.00462963  41 t-inv T
 -0.500000 -0.500000 -0.166667    0.00462963  42 t-inv T
  0.333333 -0.500000 -0.166667    0.00462963  43 t-inv T
  0.166667 -0.500000 -0.166667    0.00462963  44 t-inv T
  0.000000  0.333333 -0.166667    0.00462963  45 t-inv T
 -0.166667  0.333333 -0.166667    0.00462963  46 t-inv T
 -0.333333  0.333333 -0.166667    0.00462963  47 t-inv T
 -0.500000  0.333333 -0.166667    0.00462963  48 t-inv T
  0.333333  0.333333 -0.166667    0.00462963  49 t-inv T
  0.166667  0.333333 -0.166667    0.00462963  50 t-inv T
  0.000000  0.166667 -0.166667    0.00462963  51 t-inv T
 -0.166667  0.166667 -0.166667    0.00462963  52 t-inv T
 -0.333333  0.166667 -0.166667    0.00462963  53 t-inv T
 -0.500000  0.166667 -0.166667    0.00462963  54 t-inv T
  0.333333  0.166667 -0.166667    0.00462963  55 t-inv T
  0.166667  0.166667 -0.166667    0.00462963  56 t-inv T
  0.000000  0.000000 -0.333333    0.00462963  57 t-inv T
 -0.166667 -0.000000 -0.333333    0.00462963  58 t-inv T
 -0.333333 -0.000000 -0.333333    0.00462963  59 t-inv T
 -0.500000 -0.000000 -0.333333    0.00462963  60 t-inv T
  0.333333  0.000000 -0.333333    0.00462963  61 t-inv T
  0.166667  0.000000 -0.333333    0.00462963  62 t-inv T
  0.000000 -0.166667 -0.333333    0.00462963  63 t-inv T
 -0.166667 -0.166667 -0.333333    0.00462963  64 t-inv T
 -0.333333 -0.166667 -0.333333    0.00462963  65 t-inv T
 -0.500000 -0.166667 -0.333333    0.00462963  66 t-inv T
  0.333333 -0.166667 -0.333333    0.00462963  67 t-inv T
  0.166667 -0.166667 -0.333333    0.00462963  68 t-inv T
  0.000000 -0.333333 -0.333333    0.00462963  69 t-inv T
 -0.166667 -0.333333 -0.333333    0.00462963  70 t-inv T
 -0.333333 -0.333333 -0.333333    0.00462963  71 t-inv T
 -0.500000 -0.333333 -0.333333    0.00462963  72 t-inv T
  0.333333 -0.333333 -0.333333    0.00462963  73 t-inv T
  0.166667 -0.333333 -0.333333    0.00462963  74 t-inv T
  0.000000 -0.500000 -0.333333    0.00462963  75 t-inv T
 -0.166667 -0.500000 -0.333333    0.00462963  76 t-inv T
 -0.333333 -0.500000 -0.333333    0.00462963  77 t-inv T
 -0.500000 -0.500000 -0.333333    0.00462963  78 t-inv T
  0.333333 -0.500000 -0.333333    0.00462963  79 t-inv T
  0.166667 -0.500000 -0.333333    0.00462963  80 t-inv T
  0.000000  0.333333 -0.333333    0.00462963  81 t-inv T
 -0.166667  0.333333 -0.333333    0.00462963  82 t-inv T
 -0.333333  0.333333 -0.333333    0.00462963  83 t-inv T
 -0.500000  0.333333 -0.333333    0.00462963  84 t-inv T
  0.333333  0.333333 -0.333333    0.00462963  85 t-inv T
  0.166667  0.333333 -0.333333    0.00462963  86 t-inv T
  0.000000  0.166667 -0.333333    0.00462963  87 t-inv T
 -0.166667  0.166667 -0.333333    0.00462963  88 t-inv T
 -0.333333  0.166667 -0.333333    0.00462963  89 t-inv T
 -0.500000  0.166667 -0.333333    0.00462963  90 t-inv T
  0.333333  0.166667 -0.333333    0.00462963  91 t-inv T
  0.166667  0.166667 -0.333333    0.00462963  92 t-inv T
 -0.166667 -0.000000 -0.500000    0.00462963  94 t-inv T
 -0.333333 -0.000000 -0.500000    0.00462963  95 t-inv T
  0.000000 -0.166667 -0.500000    0.00462963  97 t-inv T
 -0.166667 -0.166667 -0.500000    0.00462963  98 t-inv T
 -0.333333 -0.166667 -0.500000    0.00462963  99 t-inv T
 -0.500000 -0.166667 -0.500000    0.00462963 100 t-inv T
  0.333333 -0.166667 -0.500000    0.00462963 101 t-inv T
  0.166667 -0.166667 -0.500000    0.00462963 102 t-inv T
  0.000000 -0.333333 -0.500000    0.00462963 103 t-inv T
 -0.166667 -0.333333 -0.500000    0.00462963 104 t-inv T
 -0.333333 -0.333333 -0.500000    0.00462963 105 t-inv T
 -0.500000 -0.333333 -0.500000    0.00462963 106 t-inv T
  0.333333 -0.333333 -0.500000    0.00462963 107 t-inv T
  0.166667 -0.333333 -0.500000    0.00462963 108 t-inv T
 -0.166667 -0.500000 -0.500000    0.00462963 110 t-inv T
 -0.333333 -0.500000 -0.500000    0.00462963 111 t-inv T


--------------------------------------------------------------------------------------------------------




 Dimension of arrays:
   k-points           NKPTS =    112   k-points in BZ     NKDIM =    216   number of bands    NBANDS=    128
   number of dos      NEDOS =    301   number of ions     NIONS =      1
   non local maximal  LDIM  =      9   non local SUM 2l+1 LMDIM =     37
   total plane-waves  NPLWV =  21952
   max r-space proj   IRMAX =      1   max aug-charges    IRDMAX= 103641
   dimension x,y,z NGX =    28 NGY =   28 NGZ =   28
   dimension x,y,z NGXF=    56 NGYF=   56 NGZF=   56
   support grid    NGXF=   112 NGYF=  112 NGZF=  112
   ions per type =               1
   NGX,Y,Z   is equivalent  to a cutoff of  10.30, 10.30, 10.30 a.u.
   NGXF,Y,Z  is equivalent  to a cutoff of  20.59, 20.59, 20.59 a.u.

 SYSTEM =  Og_FCC                                  
 POSCAR =  Rn_FCC                                  

 Startparameter for this run:
   NWRITE =      1    write-flag & timer
   PREC   = accura    normal or accurate (medium, high low for compatibility)
   ISTART =      1    job   : 0-new  1-cont  2-samecut
   ICHARG =      0    charge: 1-file 2-atom 10-const
   ISPIN  =      1    spin polarized calculation?
   LNONCOLLINEAR =      F non collinear calculations
   LSORBIT =      F    spin-orbit coupling
   INIWAV =      1    electr: 0-lowe 1-rand  2-diag
   LASPH  =      F    aspherical Exc in radial PAW
   METAGGA=      F    non-selfconsistent MetaGGA calc.

 Electronic Relaxation 1
   ENCUT  =  300.0 eV  22.05 Ry    4.70 a.u.   6.38  6.38  6.38*2*pi/ulx,y,z
   ENINI  =  300.0     initial cutoff
   ENAUG  =  715.6 eV  augmentation charge cutoff
   NELM   =      1;   NELMIN=  2; NELMDL=  0     # of ELM steps 
   EDIFF  = 0.1E-07   stopping-criterion for ELM
   LREAL  =      F    real-space projection
   NLSPLINE    = F    spline interpolate recip. space projectors
   LCOMPAT=      F    compatible to vasp.4.4
   GGA_COMPAT  = F    GGA compatible to vasp.4.4-vasp.4.6
   LMAXPAW     = -100 max onsite density
   LMAXMIX     =    2 max onsite mixed and CHGCAR
   VOSKOWN=      0    Vosko Wilk Nusair interpolation
   ROPT   =    0.00000
 Ionic relaxation
   EDIFFG = 0.1E-04   stopping-criterion for IOM
   NSW    =      1    number of steps for IOM
   NBLOCK =      1;   KBLOCK =      1    inner block; outer block 
   IBRION =     -1    ionic relax: 0-MD 1-quasi-New 2-CG
   NFREE  =      5    steps in history (QN), initial steepest desc. (CG)
   ISIF   =      3    stress and relaxation
   IWAVPR =     10    prediction:  0-non 1-charg 2-wave 3-comb
   ISYM   =      0    0-nonsym 1-usesym 2-fastsym
   LCORR  =      T    Harris-Foulkes like correction to forces

   POTIM  = 0.1000    time-step for ionic-motion
   TEIN   =    0.0    initial temperature
   TEBEG  =    0.0;   TEEND  =   0.0 temperature during run
   SMASS  =  -3.00    Nose mass-parameter (am)
   estimated Nose-frequenzy (Omega)   =  0.10E-29 period in steps =****** mass=  -0.467E-27a.u.
   SCALEE = 1.0000    scale energy and forces
   NPACO  =    256;   APACO  = 16.0  distance and # of slots for P.C.
   PSTRESS=    0.0 pullay stress

  Mass of Ions in am
   POMASS = 220.17
  Ionic Valenz
   ZVAL   =  18.00
  Atomic Wigner-Seitz radii
   RWIGS  =  -1.00
  virtual crystal weights 
   VCA    =   1.00
   NELECT =      18.0000    total number of electrons
   NUPDOWN=      -1.0000    fix difference up-down

 DOS related values:
   EMIN   =  10.00;   EMAX   =-10.00  energy-range for DOS
   EFERMI =   0.00
   ISMEAR =     0;   SIGMA  =   0.00  broadening in eV -4-tet -1-fermi 0-gaus

 Electronic relaxation 2 (details)
   IALGO  =     38    algorithm
   LDIAG  =      T    sub-space diagonalisation (order eigenvalues)
   LSUBROT=      F    optimize rotation matrix (better conditioning)
   TURBO    =      0    0=normal 1=particle mesh
   IRESTART =      0    0=no restart 2=restart with 2 vectors
   NREBOOT  =      0    no. of reboots
   NMIN     =      0    reboot dimension
   EREF     =   0.00    reference energy to select bands
   IMIX   =      1    mixing-type and parameters
     AMIX     =   0.40;   BMIX     =  1.00
     AMIX_MAG =   1.60;   BMIX_MAG =  1.00
     AMIN     =   0.10
     WC   =   100.;   INIMIX=   1;  MIXPRE=   1;  MAXMIX=  50

 Intra band minimization:
   WEIMIN = 0.0000     energy-eigenvalue tresh-hold
   EBREAK =  0.20E-10  absolut break condition
   DEPER  =   0.30     relativ break condition  

   TIME   =   0.40     timestep for ELM

  volume/ion in A,a.u.               =      65.32       440.82
  Fermi-wavevector in a.u.,A,eV,Ry     =   1.065315  2.013153 15.441193  1.134896
  Thomas-Fermi vector in A             =   2.200862
 
 Write flags
   LWAVE        =      T    write WAVECAR
   LDOWNSAMPLE  =      F    k-point downsampling of WAVECAR
   LCHARG       =      F    write CHGCAR
   LVTOT        =      F    write LOCPOT, total local potential
   LVHAR        =      F    write LOCPOT, Hartree potential only
   LELF         =      F    write electronic localiz. function (ELF)
   LORBIT       =      0    0 simple, 1 ext, 2 COOP (PROOUT), +10 PAW based schemes


 Dipole corrections
   LMONO  =      F    monopole corrections only (constant potential shift)
   LDIPOL =      F    correct potential (dipole corrections)
   IDIPOL =      0    1-x, 2-y, 3-z, 4-all directions 
   EPSILON=  1.0000000 bulk dielectric constant

 Exchange correlation treatment:
   GGA     =    PE    GGA type
   LEXCH   =     8    internal setting for exchange type
   VOSKOWN=      0    Vosko Wilk Nusair interpolation
   EXXOEP  =     0    0=HF, 1=EXX-LHF (local Hartree Fock) 2=EXX OEP
   LHFCALC =     T    Hartree Fock is set to
   LSYMGRAD=     F    symmetrize gradient (conserves proper symmetry)
   PRECFOCK=normal    Normal, Fast or Accurate (Low or Medium for compatibility)
   LRHFCALC=     F    long range Hartree Fock
   LRSCOR  =     F    long range correlation only (use DFT for short range part)
   LTHOMAS =     F    Thomas Fermi screening in HF
   LMODELHF=     F    short range full HF, long range fraction AEXX
   ENCUT4O =  -1.0   cutoff for four orbital integrals eV
   LMAXFOCK=     4    L truncation for augmentation on plane wave grid
   LMAXFOCKAE=   4    L truncation for all-electron charge restoration on plane wave grid
   NMAXFOCKAE=   1    number of basis functions for all-electron charge restoration
   LFOCKAEDFT=     F  apply the AE augmentation even for DFT
   NKREDX  =     1    reduce k-point grid by
   NKREDY  =     1    reduce k-point grid by
   NKREDZ  =     1    reduce k-point grid by
   SHIFTRED=     F    shift reduced grid of Gamma
   HFKIDENT=     F    idential grid for each k-point
   ODDONLY =     F    use only odd q-grid points
   EVENONLY=     F    use only even q-grid points
   HFALPHA =   -1.0000 decay constant for conv. correction
   MCALPHA =    0.0000 extent of test-charge in conv. correction in multipole expansion
   AEXX    =    1.0000 exact exchange contribution
   HFSCREEN=    0.0000 screening length (either q_TF or 0.3 A-1)
   HFSCREENC=   0.0000 screening length for correlation (either q_TF or 0.3 A-1)
   HFRCUT  =    0.0000 spherical cutoff for potential kernel
   ALDAX   =    0.0000 LDA exchange part
   AGGAX   =    0.0000 GGA exchange part
   ALDAC   =    0.0000 LDA correlation
   AGGAC   =    0.0000 GGA correlation
   ENCUTFOCK=  -1.0 apply spherical cutoff to Coloumb kernel
   NBANDSGWLOW=     1    first orbital included in HF term
   NBLOCK_FOCK=    64    blocking factor in FOCK_ACC
 Linear response parameters
   LEPSILON=     F    determine dielectric tensor
   LRPA    =     F    only Hartree local field effects (RPA)
   LNABLA  =     F    use nabla operator in PAW spheres
   LVEL    =     F    velocity operator in full k-point grid
   LINTERFAST=   F  fast interpolation
   KINTER  =     0    interpolate to denser k-point grid
   CSHIFT  =0.1000    complex shift for real part using Kramers Kronig
   OMEGAMAX=  -1.0    maximum frequency
   DEG_THRESHOLD= 0.2000000E-02 threshold for treating states as degnerate
   RTIME   =   -0.100 relaxation time in fs
  (WPLASMAI=    0.000 imaginary part of plasma frequency in eV, 0.658/RTIME)
   DFIELD  = 0.0000000 0.0000000 0.0000000 field for delta impulse in time
 
 Orbital magnetization related:
   ORBITALMAG=     F  switch on orbital magnetization
   LCHIMAG   =     F  perturbation theory with respect to B field
   DQ        =  0.001000  dq finite difference perturbation B field
   LLRAUG    =     F  two centre corrections for induced B field

 Response functions by sum over occupied states:
   ALGO    =QPGW       execute GW part
   LFXC    =     F    include DFT xc kernel in TD-HF and W
   LADDER  =     F    particle hole ladder diagrams for BSE/TD-HF and W (Nano-quanta)
   LRPAFORCE=     F   calculate RPA forces
   LHARTREE=     T    include Hartree terms (bubbles-RPA) in BSE/TD-HF
   IBSE    =     0    BSE modus: 0 exact, 1 time-evolution (store matrix), 10 time-evolution (implicit)
   KPOINT  =    -1   0   0   0    k-point index at which BSE equation is solved (and G at which response is eval.)
   LTRIPLET=     F    triplet instead of singlet excitation (BSE only)
   LRSRPA  =     F    range separated RPA (total - short) in ACFDT
   LTCTE   =     F    use test-charge test-electron dielectric function
   LTETE   =     F    use test-electron test-electron dielectric function
   LFXCEPS =     F    determine f_xc=epsilon-1/Xi Sharma and Gross kernel
   LFXHEG  =     F    model exchange using f_x(G,k_F) from free electron gas
   NATURALO=     2    0 natural orbitals, 1 only virtual, 2 only occupied-virtual rotation
   L2ORDER =     F    2nd order terms only
   LMP2LT   =     F    use LT MP2
   LUSEW   =     F    use screened W from WXXXX.tmp files instead of (screened) HF kernel
   ENCUTGW = 200.0    cutoff for response function in eV
   ENCUTGWSOFT = 200.0 soft cutoff for Coulomb kernel in GW response function in eV
   ENCUTLF =  -1.0    cutoff for local field effects
   LMAXMP2 =    -1    maximum L for one center terms
   SCISSOR =   0.0    scissor correction
   NOMEGA  =    50    number of frequencies
   NOMEGAR =    50    number of frequencies along real axis
   NBANDSGW=    -1    number of bands for which selfenergy shift is calculated
   NBANDSGWLOW=     1 lowest band included in GW (to exclude core correlation)
   NBANDSO =    -1    number of bands for electron-hole treatment (occupied)
   NBANDSV =    -1    number of bands for electron-hole treatment (virtual)
   NELM    =     1    number of iterations in solving QP/BSE equation
   NELMHF  =     1    number of iterations in the inner HF iteration
   DIM     =     3    dimensionality of system (0=0D molecules, 3=3D)
   ANTIRES =     0    antiresonant part (0) no TDA (1) w=0 exact (2) accurate
   OMEGAMAX= -30.0    maximum frequency
   OMEGAMIN= -30.000    minimum frequency
   OMEGATL =-200.0    maximum frequency of tail
   OMEGAGRID=     0    grid type (0 default)
   CSHIFT  =-0.100    complex shift used in evaluation of response functions
   SELFENERGY=   F    calculate selfenergy instead of QP shifts
   LSPECTRAL =   T    use spectral functions                   
   LSPECTRALGW=   F   use spectral functions to calculate int dz G(w-z) W(z) (more accurate)
   LSINGLES  =   F   calculate the singles contribution to the correlation energy
   LFERMIGW  =   F   update Fermi-energy in the Greens function

   ODDONLYGW =   F    avoid all even points for polarizability 
   EVENONLYGW=   F    avoid all odd  points for polarizability 
   NKREDLFX  =   1   NKREDLFY  =   1   NKREDLFZ  =   1

   TELESCOPE =   0   use telescope k-point sampling
   TAUPAR    =   1   number of TAU groups used in imaginary time calculation
   OMEGAPAR  =  -1   number of OMEGA groups used in imaginary frequency calculation



--------------------------------------------------------------------------------------------------------


 Static calculation
 charge density and potential will be updated during run
 non-spin polarized calculation
 Variant of blocked Davidson
 Davidson routine will perform the subspace rotation
 perform sub-space diagonalisation
    after iterative eigenvector-optimisation
 Kerker-like  mixing scheme
 using additional bands          119
 reciprocal scheme for non local part
 use partial core corrections
 calculate Harris-corrections to forces 
   (improved forces if not selfconsistent)
 use gradient corrections 
 use of overlap-Matrix (Vanderbilt PP)
 Gauss-broadening in eV      SIGMA  =   0.00


--------------------------------------------------------------------------------------------------------


  energy-cutoff  :      300.00
  volume of cell :       65.32
      direct lattice vectors                 reciprocal lattice vectors
     4.520564769  0.000000000  0.000000000     0.221211298 -0.127716402 -0.090309134
     2.260282385  3.914923930 -0.000000000     0.000000000  0.255432805 -0.090309134
     2.260282385  1.304974643  3.691025678    -0.000000000  0.000000000  0.270927403

  length of vectors
     4.520564769  4.520564769  4.520564769     0.270927403  0.270927403  0.270927403


 
 old parameters found on file WAVECAR:
  energy-cutoff  :      300.00
  volume of cell :       65.32
      direct lattice vectors                 reciprocal lattice vectors
     4.520564769  0.000000000  0.000000000     0.221211298 -0.127716402 -0.090309134
     2.260282385  3.914923930 -0.000000000     0.000000000  0.255432805 -0.090309134
     2.260282385  1.304974643  3.691025678    -0.000000000  0.000000000  0.270927403

  length of vectors

 
 k-points in units of 2pi/SCALE and weight: k-points                                
   0.00000000  0.00000000  0.00000000       0.005
   0.03686855 -0.02128607 -0.01505152       0.009
   0.07373710 -0.04257213 -0.03010304       0.009
   0.11060565 -0.06385820 -0.04515457       0.005
   0.00000000  0.04257213 -0.01505152       0.009
   0.03686855  0.02128607 -0.03010304       0.009
   0.07373710  0.00000000 -0.04515457       0.009
   0.11060565 -0.02128607 -0.06020609       0.009
  -0.07373710  0.08514427  0.01505152       0.009
  -0.03686855  0.06385820  0.00000000       0.009
   0.00000000  0.08514427 -0.03010304       0.009
   0.03686855  0.06385820 -0.04515457       0.009
   0.07373710  0.04257213 -0.06020609       0.009
   0.11060565  0.02128607 -0.07525761       0.009
  -0.07373710  0.12771640  0.00000000       0.009
  -0.03686855  0.10643034 -0.01505152       0.009
   0.00000000  0.12771640 -0.04515457       0.005
   0.03686855  0.10643034 -0.06020609       0.009
   0.07373710  0.08514427 -0.07525761       0.009
   0.11060565  0.06385820 -0.09030913       0.005
  -0.00000000  0.00000000  0.04515457       0.009
   0.03686855 -0.02128607  0.03010304       0.009
   0.07373710 -0.04257213  0.01505152       0.009
   0.11060565 -0.06385820 -0.00000000       0.009
  -0.07373710  0.04257213  0.07525761       0.009
  -0.03686855  0.02128607  0.06020609       0.009
  -0.00000000  0.04257213  0.03010304       0.009
   0.03686855  0.02128607  0.01505152       0.009
   0.07373710  0.00000000  0.00000000       0.009
   0.11060565 -0.02128607 -0.01505152       0.009
  -0.07373710  0.08514427  0.06020609       0.009
  -0.03686855  0.06385820  0.04515457       0.009
  -0.00000000  0.08514427  0.01505152       0.009
   0.03686855  0.06385820  0.00000000       0.009
   0.07373710  0.04257213 -0.01505152       0.009
   0.11060565  0.02128607 -0.03010304       0.009
  -0.07373710  0.12771640  0.04515457       0.009
  -0.03686855  0.10643034  0.03010304       0.009
  -0.00000000  0.12771640  0.00000000       0.009
   0.03686855  0.10643034 -0.01505152       0.009
   0.07373710  0.08514427 -0.03010304       0.009
   0.11060565  0.06385820 -0.04515457       0.009
  -0.07373710  0.17028854  0.03010304       0.009
  -0.03686855  0.14900247  0.01505152       0.009
  -0.00000000 -0.08514427  0.07525761       0.009
   0.03686855 -0.10643034  0.06020609       0.009
   0.07373710 -0.12771640  0.04515457       0.009
   0.11060565 -0.14900247  0.03010304       0.009
  -0.07373710 -0.04257213  0.10536066       0.009
  -0.03686855 -0.06385820  0.09030913       0.009
  -0.00000000 -0.04257213  0.06020609       0.009
   0.03686855 -0.06385820  0.04515457       0.009
   0.07373710 -0.08514427  0.03010304       0.009
   0.11060565 -0.10643034  0.01505152       0.009
  -0.07373710  0.00000000  0.09030913       0.009
  -0.03686855 -0.02128607  0.07525761       0.009
  -0.00000000  0.00000000  0.09030913       0.009
   0.03686855 -0.02128607  0.07525761       0.009
   0.07373710 -0.04257213  0.06020609       0.009
   0.11060565 -0.06385820  0.04515457       0.009
  -0.07373710  0.04257213  0.12041218       0.009
  -0.03686855  0.02128607  0.10536066       0.009
  -0.00000000  0.04257213  0.07525761       0.009
   0.03686855  0.02128607  0.06020609       0.009
   0.07373710  0.00000000  0.04515457       0.009
   0.11060565 -0.02128607  0.03010304       0.009
  -0.07373710  0.08514427  0.10536066       0.009
  -0.03686855  0.06385820  0.09030913       0.009
  -0.00000000  0.08514427  0.06020609       0.009
   0.03686855  0.06385820  0.04515457       0.009
   0.07373710  0.04257213  0.03010304       0.009
   0.11060565  0.02128607  0.01505152       0.009
  -0.07373710  0.12771640  0.09030913       0.009
  -0.03686855  0.10643034  0.07525761       0.009
  -0.00000000  0.12771640  0.04515457       0.009
   0.03686855  0.10643034  0.03010304       0.009
   0.07373710  0.08514427  0.01505152       0.009
   0.11060565  0.06385820  0.00000000       0.009
  -0.07373710  0.17028854  0.07525761       0.009
  -0.03686855  0.14900247  0.06020609       0.009
  -0.00000000 -0.08514427  0.12041218       0.009
   0.03686855 -0.10643034  0.10536066       0.009
   0.07373710 -0.12771640  0.09030913       0.009
   0.11060565 -0.14900247  0.07525761       0.009
  -0.07373710 -0.04257213  0.15051522       0.009
  -0.03686855 -0.06385820  0.13546370       0.009
  -0.00000000 -0.04257213  0.10536066       0.009
   0.03686855 -0.06385820  0.09030913       0.009
   0.07373710 -0.08514427  0.07525761       0.009
   0.11060565 -0.10643034  0.06020609       0.009
  -0.07373710  0.00000000  0.13546370       0.009
  -0.03686855 -0.02128607  0.12041218       0.009
  -0.00000000  0.00000000  0.13546370       0.005
   0.03686855 -0.02128607  0.12041218       0.009
   0.07373710 -0.04257213  0.10536066       0.009
   0.11060565 -0.06385820  0.09030913       0.005
  -0.00000000  0.04257213  0.12041218       0.009
   0.03686855  0.02128607  0.10536066       0.009
   0.07373710  0.00000000  0.09030913       0.009
   0.11060565 -0.02128607  0.07525761       0.009
  -0.07373710  0.08514427  0.15051522       0.009
  -0.03686855  0.06385820  0.13546370       0.009
  -0.00000000  0.08514427  0.10536066       0.009
   0.03686855  0.06385820  0.09030913       0.009
   0.07373710  0.04257213  0.07525761       0.009
   0.11060565  0.02128607  0.06020609       0.009
  -0.07373710  0.12771640  0.13546370       0.009
  -0.03686855  0.10643034  0.12041218       0.009
  -0.00000000  0.12771640  0.09030913       0.005
   0.03686855  0.10643034  0.07525761       0.009
   0.07373710  0.08514427  0.06020609       0.009
   0.11060565  0.06385820  0.04515457       0.005
 
 k-points in reciprocal lattice and weights: k-points                                
   0.00000000  0.00000000  0.00000000       0.005
   0.16666667  0.00000000  0.00000000       0.009
   0.33333333  0.00000000  0.00000000       0.009
   0.50000000  0.00000000  0.00000000       0.005
   0.00000000  0.16666667  0.00000000       0.009
   0.16666667  0.16666667  0.00000000       0.009
   0.33333333  0.16666667  0.00000000       0.009
   0.50000000  0.16666667  0.00000000       0.009
  -0.33333333  0.16666667  0.00000000       0.009
  -0.16666667  0.16666667  0.00000000       0.009
   0.00000000  0.33333333  0.00000000       0.009
   0.16666667  0.33333333  0.00000000       0.009
   0.33333333  0.33333333  0.00000000       0.009
   0.50000000  0.33333333  0.00000000       0.009
  -0.33333333  0.33333333 -0.00000000       0.009
  -0.16666667  0.33333333 -0.00000000       0.009
   0.00000000  0.50000000  0.00000000       0.005
   0.16666667  0.50000000  0.00000000       0.009
   0.33333333  0.50000000  0.00000000       0.009
   0.50000000  0.50000000 -0.00000000       0.005
  -0.00000000 -0.00000000  0.16666667       0.009
   0.16666667  0.00000000  0.16666667       0.009
   0.33333333  0.00000000  0.16666667       0.009
   0.50000000  0.00000000  0.16666667       0.009
  -0.33333333 -0.00000000  0.16666667       0.009
  -0.16666667 -0.00000000  0.16666667       0.009
   0.00000000  0.16666667  0.16666667       0.009
   0.16666667  0.16666667  0.16666667       0.009
   0.33333333  0.16666667  0.16666667       0.009
   0.50000000  0.16666667  0.16666667       0.009
  -0.33333333  0.16666667  0.16666667       0.009
  -0.16666667  0.16666667  0.16666667       0.009
   0.00000000  0.33333333  0.16666667       0.009
   0.16666667  0.33333333  0.16666667       0.009
   0.33333333  0.33333333  0.16666667       0.009
   0.50000000  0.33333333  0.16666667       0.009
  -0.33333333  0.33333333  0.16666667       0.009
  -0.16666667  0.33333333  0.16666667       0.009
   0.00000000  0.50000000  0.16666667       0.009
   0.16666667  0.50000000  0.16666667       0.009
   0.33333333  0.50000000  0.16666667       0.009
   0.50000000  0.50000000  0.16666667       0.009
  -0.33333333  0.50000000  0.16666667       0.009
  -0.16666667  0.50000000  0.16666667       0.009
  -0.00000000 -0.33333333  0.16666667       0.009
   0.16666667 -0.33333333  0.16666667       0.009
   0.33333333 -0.33333333  0.16666667       0.009
   0.50000000 -0.33333333  0.16666667       0.009
  -0.33333333 -0.33333333  0.16666667       0.009
  -0.16666667 -0.33333333  0.16666667       0.009
  -0.00000000 -0.16666667  0.16666667       0.009
   0.16666667 -0.16666667  0.16666667       0.009
   0.33333333 -0.16666667  0.16666667       0.009
   0.50000000 -0.16666667  0.16666667       0.009
  -0.33333333 -0.16666667  0.16666667       0.009
  -0.16666667 -0.16666667  0.16666667       0.009
   0.00000000 -0.00000000  0.33333333       0.009
   0.16666667  0.00000000  0.33333333       0.009
   0.33333333  0.00000000  0.33333333       0.009
   0.50000000  0.00000000  0.33333333       0.009
  -0.33333333 -0.00000000  0.33333333       0.009
  -0.16666667 -0.00000000  0.33333333       0.009
   0.00000000  0.16666667  0.33333333       0.009
   0.16666667  0.16666667  0.33333333       0.009
   0.33333333  0.16666667  0.33333333       0.009
   0.50000000  0.16666667  0.33333333       0.009
  -0.33333333  0.16666667  0.33333333       0.009
  -0.16666667  0.16666667  0.33333333       0.009
  -0.00000000  0.33333333  0.33333333       0.009
   0.16666667  0.33333333  0.33333333       0.009
   0.33333333  0.33333333  0.33333333       0.009
   0.50000000  0.33333333  0.33333333       0.009
  -0.33333333  0.33333333  0.33333333       0.009
  -0.16666667  0.33333333  0.33333333       0.009
   0.00000000  0.50000000  0.33333333       0.009
   0.16666667  0.50000000  0.33333333       0.009
   0.33333333  0.50000000  0.33333333       0.009
   0.50000000  0.50000000  0.33333333       0.009
  -0.33333333  0.50000000  0.33333333       0.009
  -0.16666667  0.50000000  0.33333333       0.009
  -0.00000000 -0.33333333  0.33333333       0.009
   0.16666667 -0.33333333  0.33333333       0.009
   0.33333333 -0.33333333  0.33333333       0.009
   0.50000000 -0.33333333  0.33333333       0.009
  -0.33333333 -0.33333333  0.33333333       0.009
  -0.16666667 -0.33333333  0.33333333       0.009
  -0.00000000 -0.16666667  0.33333333       0.009
   0.16666667 -0.16666667  0.33333333       0.009
   0.33333333 -0.16666667  0.33333333       0.009
   0.50000000 -0.16666667  0.33333333       0.009
  -0.33333333 -0.16666667  0.33333333       0.009
  -0.16666667 -0.16666667  0.33333333       0.009
  -0.00000000 -0.00000000  0.50000000       0.005
   0.16666667  0.00000000  0.50000000       0.009
   0.33333333  0.00000000  0.50000000       0.009
   0.50000000  0.00000000  0.50000000       0.005
  -0.00000000  0.16666667  0.50000000       0.009
   0.16666667  0.16666667  0.50000000       0.009
   0.33333333  0.16666667  0.50000000       0.009
   0.50000000  0.16666667  0.50000000       0.009
  -0.33333333  0.16666667  0.50000000       0.009
  -0.16666667  0.16666667  0.50000000       0.009
  -0.00000000  0.33333333  0.50000000       0.009
   0.16666667  0.33333333  0.50000000       0.009
   0.33333333  0.33333333  0.50000000       0.009
   0.50000000  0.33333333  0.50000000       0.009
  -0.33333333  0.33333333  0.50000000       0.009
  -0.16666667  0.33333333  0.50000000       0.009
   0.00000000  0.50000000  0.50000000       0.005
   0.16666667  0.50000000  0.50000000       0.009
   0.33333333  0.50000000  0.50000000       0.009
   0.50000000  0.50000000  0.50000000       0.005
 
 position of ions in fractional coordinates (direct lattice) 
   0.00000000  0.00000000  0.00000000
 
 position of ions in cartesian coordinates  (Angst):
   0.00000000  0.00000000  0.00000000
 


--------------------------------------------------------------------------------------------------------


 k-point  1 :   0.0000 0.0000 0.0000  plane waves:     749
 k-point  2 :   0.1667 0.0000 0.0000  plane waves:     785
 k-point  3 :   0.3333 0.0000 0.0000  plane waves:     769
 k-point  4 :   0.5000 0.0000 0.0000  plane waves:     778
 k-point  5 :   0.0000 0.1667 0.0000  plane waves:     785
 k-point  6 :   0.1667 0.1667 0.0000  plane waves:     785
 k-point  7 :   0.3333 0.1667 0.0000  plane waves:     773
 k-point  8 :   0.5000 0.1667 0.0000  plane waves:     772
 k-point  9 :  -0.3333 0.1667 0.0000  plane waves:     773
 k-point 10 :  -0.1667 0.1667 0.0000  plane waves:     767
 k-point 11 :   0.0000 0.3333 0.0000  plane waves:     769
 k-point 12 :   0.1667 0.3333 0.0000  plane waves:     773
 k-point 13 :   0.3333 0.3333 0.0000  plane waves:     769
 k-point 14 :   0.5000 0.3333 0.0000  plane waves:     769
 k-point 15 :  -0.3333 0.3333-0.0000  plane waves:     776
 k-point 16 :  -0.1667 0.3333-0.0000  plane waves:     773
 k-point 17 :   0.0000 0.5000 0.0000  plane waves:     778
 k-point 18 :   0.1667 0.5000 0.0000  plane waves:     772
 k-point 19 :   0.3333 0.5000 0.0000  plane waves:     769
 k-point 20 :   0.5000 0.5000-0.0000  plane waves:     774
 k-point 21 :  -0.0000-0.0000 0.1667  plane waves:     785
 k-point 22 :   0.1667 0.0000 0.1667  plane waves:     785
 k-point 23 :   0.3333 0.0000 0.1667  plane waves:     773
 k-point 24 :   0.5000 0.0000 0.1667  plane waves:     772
 k-point 25 :  -0.3333-0.0000 0.1667  plane waves:     773
 k-point 26 :  -0.1667-0.0000 0.1667  plane waves:     767
 k-point 27 :   0.0000 0.1667 0.1667  plane waves:     785
 k-point 28 :   0.1667 0.1667 0.1667  plane waves:     785
 k-point 29 :   0.3333 0.1667 0.1667  plane waves:     767
 k-point 30 :   0.5000 0.1667 0.1667  plane waves:     773
 k-point 31 :  -0.3333 0.1667 0.1667  plane waves:     772
 k-point 32 :  -0.1667 0.1667 0.1667  plane waves:     773
 k-point 33 :   0.0000 0.3333 0.1667  plane waves:     773
 k-point 34 :   0.1667 0.3333 0.1667  plane waves:     767
 k-point 35 :   0.3333 0.3333 0.1667  plane waves:     773
 k-point 36 :   0.5000 0.3333 0.1667  plane waves:     763
 k-point 37 :  -0.3333 0.3333 0.1667  plane waves:     760
 k-point 38 :  -0.1667 0.3333 0.1667  plane waves:     763
 k-point 39 :   0.0000 0.5000 0.1667  plane waves:     772
 k-point 40 :   0.1667 0.5000 0.1667  plane waves:     773
 k-point 41 :   0.3333 0.5000 0.1667  plane waves:     763
 k-point 42 :   0.5000 0.5000 0.1667  plane waves:     769
 k-point 43 :  -0.3333 0.5000 0.1667  plane waves:     768
 k-point 44 :  -0.1667 0.5000 0.1667  plane waves:     760
 k-point 45 :  -0.0000-0.3333 0.1667  plane waves:     773
 k-point 46 :   0.1667-0.3333 0.1667  plane waves:     772
 k-point 47 :   0.3333-0.3333 0.1667  plane waves:     760
 k-point 48 :   0.5000-0.3333 0.1667  plane waves:     768
 k-point 49 :  -0.3333-0.3333 0.1667  plane waves:     769
 k-point 50 :  -0.1667-0.3333 0.1667  plane waves:     763
 k-point 51 :  -0.0000-0.1667 0.1667  plane waves:     767
 k-point 52 :   0.1667-0.1667 0.1667  plane waves:     773
 k-point 53 :   0.3333-0.1667 0.1667  plane waves:     763
 k-point 54 :   0.5000-0.1667 0.1667  plane waves:     760
 k-point 55 :  -0.3333-0.1667 0.1667  plane waves:     763
 k-point 56 :  -0.1667-0.1667 0.1667  plane waves:     773
 k-point 57 :   0.0000-0.0000 0.3333  plane waves:     769
 k-point 58 :   0.1667 0.0000 0.3333  plane waves:     773
 k-point 59 :   0.3333 0.0000 0.3333  plane waves:     769
 k-point 60 :   0.5000 0.0000 0.3333  plane waves:     769
 k-point 61 :  -0.3333-0.0000 0.3333  plane waves:     776
 k-point 62 :  -0.1667-0.0000 0.3333  plane waves:     773
 k-point 63 :   0.0000 0.1667 0.3333  plane waves:     773
 k-point 64 :   0.1667 0.1667 0.3333  plane waves:     767
 k-point 65 :   0.3333 0.1667 0.3333  plane waves:     773
 k-point 66 :   0.5000 0.1667 0.3333  plane waves:     763
 k-point 67 :  -0.3333 0.1667 0.3333  plane waves:     760
 k-point 68 :  -0.1667 0.1667 0.3333  plane waves:     763
 k-point 69 :  -0.0000 0.3333 0.3333  plane waves:     769
 k-point 70 :   0.1667 0.3333 0.3333  plane waves:     773
 k-point 71 :   0.3333 0.3333 0.3333  plane waves:     769
 k-point 72 :   0.5000 0.3333 0.3333  plane waves:     773
 k-point 73 :  -0.3333 0.3333 0.3333  plane waves:     776
 k-point 74 :  -0.1667 0.3333 0.3333  plane waves:     769
 k-point 75 :   0.0000 0.5000 0.3333  plane waves:     769
 k-point 76 :   0.1667 0.5000 0.3333  plane waves:     763
 k-point 77 :   0.3333 0.5000 0.3333  plane waves:     773
 k-point 78 :   0.5000 0.5000 0.3333  plane waves:     772
 k-point 79 :  -0.3333 0.5000 0.3333  plane waves:     760
 k-point 80 :  -0.1667 0.5000 0.3333  plane waves:     768
 k-point 81 :  -0.0000-0.3333 0.3333  plane waves:     776
 k-point 82 :   0.1667-0.3333 0.3333  plane waves:     760
 k-point 83 :   0.3333-0.3333 0.3333  plane waves:     776
 k-point 84 :   0.5000-0.3333 0.3333  plane waves:     760
 k-point 85 :  -0.3333-0.3333 0.3333  plane waves:     776
 k-point 86 :  -0.1667-0.3333 0.3333  plane waves:     760
 k-point 87 :  -0.0000-0.1667 0.3333  plane waves:     773
 k-point 88 :   0.1667-0.1667 0.3333  plane waves:     763
 k-point 89 :   0.3333-0.1667 0.3333  plane waves:     769
 k-point 90 :   0.5000-0.1667 0.3333  plane waves:     768
 k-point 91 :  -0.3333-0.1667 0.3333  plane waves:     760
 k-point 92 :  -0.1667-0.1667 0.3333  plane waves:     772
 k-point 93 :  -0.0000-0.0000 0.5000  plane waves:     778
 k-point 94 :   0.1667 0.0000 0.5000  plane waves:     772
 k-point 95 :   0.3333 0.0000 0.5000  plane waves:     769
 k-point 96 :   0.5000 0.0000 0.5000  plane waves:     774
 k-point 97 :  -0.0000 0.1667 0.5000  plane waves:     772
 k-point 98 :   0.1667 0.1667 0.5000  plane waves:     773
 k-point 99 :   0.3333 0.1667 0.5000  plane waves:     763
 k-point ** :   0.5000 0.1667 0.5000  plane waves:     769
 k-point ** :  -0.3333 0.1667 0.5000  plane waves:     768
 k-point ** :  -0.1667 0.1667 0.5000  plane waves:     760
 k-point ** :  -0.0000 0.3333 0.5000  plane waves:     769
 k-point ** :   0.1667 0.3333 0.5000  plane waves:     763
 k-point ** :   0.3333 0.3333 0.5000  plane waves:     773
 k-point ** :   0.5000 0.3333 0.5000  plane waves:     772
 k-point ** :  -0.3333 0.3333 0.5000  plane waves:     760
 k-point ** :  -0.1667 0.3333 0.5000  plane waves:     768
 k-point ** :   0.0000 0.5000 0.5000  plane waves:     774
 k-point ** :   0.1667 0.5000 0.5000  plane waves:     769
 k-point ** :   0.3333 0.5000 0.5000  plane waves:     772
 k-point ** :   0.5000 0.5000 0.5000  plane waves:     778

 maximum and minimum number of plane-waves per node :       785      749

 maximum number of plane-waves:       785
 maximum index in each direction: 
   IXMAX=    6   IYMAX=    6   IZMAX=    6
   IXMIN=   -6   IYMIN=   -6   IZMIN=   -6


 serial   3D FFT for wavefunctions
 parallel 3D FFT for charge:
    minimum data exchange during FFTs selected (reduces bandwidth)


 FFT grid for exact exchange (Hartree Fock) 
  NGX = 20; NGY = 20; NGZ = 20

 
 Radii for the augmentation spheres in the non-local exchange
 for species   1 augmentation radius   1.037 (default was   1.037)
 error exchange integrals (PW-AE in eV) (mean, max) 0.669 3.927 density error[0,qmax] 0.0390
 Maximum index for augmentation-charges in exchange          603
  SETUP_FOCK is finished

 total amount of memory used by VASP MPI-rank0    90033. kBytes
=======================================================================

   base      :      30000. kBytes
   nonl-proj :      26269. kBytes
   fftplans  :       6564. kBytes
   grid      :       2458. kBytes
   one-center:         65. kBytes
   HF        :        547. kBytes
   nonlr-proj:        275. kBytes
   wavefun   :      23855. kBytes
 
     INWAV:  cpu time    1.2674: real time    1.2675
 charge density for first step will be calculated from the start-wavefunctions


--------------------------------------------------------------------------------------------------------


 Maximum index for augmentation-charges        12423 (set IRDMAX)


--------------------------------------------------------------------------------------------------------


 initial charge from wavefunction
    FEWALD:  cpu time    0.0012: real time    0.0012

 The Fermi energy was updated, please check that it is located mid-gap
 values below the HOMO (VB) or above the LUMO (CB) will cause erroneous energies
 E-fermi :   0.0175

 Response functions by sum over occupied states:
 ===============================================
   NOMEGA  =    50    number of frequencies
   NOMEGAR =    50    number of frequencies along real axis
   OMEGAMAX=  30.16   maximum frequency
   OMEGAMIN=   2.43   minimum frequency
   OMEGATL = 173.29   maximum frequency of tail
   CSHIFT  =  0.784   complex shift used in evaluation of response functions


 Energies iw= 
 ============
   0.000   0.000   1.258   0.000   2.512   0.000   3.758   0.000   4.991   0.000
   6.209   0.000   7.410   0.000   8.592   0.000   9.754   0.000  10.897   0.000
  12.020   0.000  13.125   0.000  14.213   0.000  15.287   0.000  16.349   0.000
  17.402   0.000  18.449   0.000  19.492   0.000  20.536   0.000  21.584   0.000
  22.639   0.000  23.707   0.000  24.791   0.000  25.898   0.000  27.031   0.000
  28.197   0.000  29.404   0.000  30.657   0.000  31.968   0.000  33.344   0.000
  34.798   0.000  36.344   0.000  37.996   0.000  39.776   0.000  41.706   0.000
  43.814   0.000  46.135   0.000  48.713   0.000  51.603   0.000  54.877   0.000
  58.627   0.000  62.978   0.000  68.096   0.000  74.217   0.000  81.677   0.000
  90.978   0.000 102.900   0.000 118.723   0.000 140.713   0.000 173.288   0.000
 

IMPORTANT INFORMATION: All symmetrisations will be switched off!
NOSYMM: (Re-)initialisation of all symmetry stuff for point group C_1.

 
 KPOINTS: k-points                                

Automatic generation of k-mesh.
Space group operators:
 irot       det(A)        alpha          n_x          n_y          n_z        tau_x        tau_y        tau_z
    1     1.000000     0.000000     1.000000     0.000000     0.000000     0.000000     0.000000     0.000000
 
 Subroutine IBZKPT returns following result:
 ===========================================
 
 Found    216 irreducible k-points:
 
 Following reciprocal coordinates:
            Coordinates               Weight
  0.000000  0.000000  0.000000      1.000000
  0.166667  0.000000  0.000000      1.000000
  0.333333  0.000000  0.000000      1.000000
  0.500000  0.000000  0.000000      1.000000
 -0.333333 -0.000000 -0.000000      1.000000
 -0.166667 -0.000000  0.000000      1.000000
  0.000000  0.166667  0.000000      1.000000
  0.166667  0.166667  0.000000      1.000000
  0.333333  0.166667  0.000000      1.000000
  0.500000  0.166667  0.000000      1.000000
 -0.333333  0.166667  0.000000      1.000000
 -0.166667  0.166667  0.000000      1.000000
  0.000000  0.333333  0.000000      1.000000
  0.166667  0.333333  0.000000      1.000000
  0.333333  0.333333  0.000000      1.000000
  0.500000  0.333333  0.000000      1.000000
 -0.333333  0.333333 -0.000000      1.000000
 -0.166667  0.333333 -0.000000      1.000000
  0.000000  0.500000  0.000000      1.000000
  0.166667  0.500000  0.000000      1.000000
  0.333333  0.500000  0.000000      1.000000
  0.500000  0.500000 -0.000000      1.000000
 -0.333333  0.500000 -0.000000      1.000000
 -0.166667  0.500000  0.000000      1.000000
 -0.000000 -0.333333  0.000000      1.000000
  0.166667 -0.333333  0.000000      1.000000
  0.333333 -0.333333  0.000000      1.000000
  0.500000 -0.333333 -0.000000      1.000000
 -0.333333 -0.333333 -0.000000      1.000000
 -0.166667 -0.333333  0.000000      1.000000
 -0.000000 -0.166667 -0.000000      1.000000
  0.166667 -0.166667  0.000000      1.000000
  0.333333 -0.166667  0.000000      1.000000
  0.500000 -0.166667  0.000000      1.000000
 -0.333333 -0.166667 -0.000000      1.000000
 -0.166667 -0.166667  0.000000      1.000000
 -0.000000 -0.000000  0.166667      1.000000
  0.166667  0.000000  0.166667      1.000000
  0.333333  0.000000  0.166667      1.000000
  0.500000  0.000000  0.166667      1.000000
 -0.333333 -0.000000  0.166667      1.000000
 -0.166667 -0.000000  0.166667      1.000000
  0.000000  0.166667  0.166667      1.000000
  0.166667  0.166667  0.166667      1.000000
  0.333333  0.166667  0.166667      1.000000
  0.500000  0.166667  0.166667      1.000000
 -0.333333  0.166667  0.166667      1.000000
 -0.166667  0.166667  0.166667      1.000000
  0.000000  0.333333  0.166667      1.000000
  0.166667  0.333333  0.166667      1.000000
  0.333333  0.333333  0.166667      1.000000
  0.500000  0.333333  0.166667      1.000000
 -0.333333  0.333333  0.166667      1.000000
 -0.166667  0.333333  0.166667      1.000000
  0.000000  0.500000  0.166667      1.000000
  0.166667  0.500000  0.166667      1.000000
  0.333333  0.500000  0.166667      1.000000
  0.500000  0.500000  0.166667      1.000000
 -0.333333  0.500000  0.166667      1.000000
 -0.166667  0.500000  0.166667      1.000000
 -0.000000 -0.333333  0.166667      1.000000
  0.166667 -0.333333  0.166667      1.000000
  0.333333 -0.333333  0.166667      1.000000
  0.500000 -0.333333  0.166667      1.000000
 -0.333333 -0.333333  0.166667      1.000000
 -0.166667 -0.333333  0.166667      1.000000
 -0.000000 -0.166667  0.166667      1.000000
  0.166667 -0.166667  0.166667      1.000000
  0.333333 -0.166667  0.166667      1.000000
  0.500000 -0.166667  0.166667      1.000000
 -0.333333 -0.166667  0.166667      1.000000
 -0.166667 -0.166667  0.166667      1.000000
  0.000000 -0.000000  0.333333      1.000000
  0.166667  0.000000  0.333333      1.000000
  0.333333  0.000000  0.333333      1.000000
  0.500000  0.000000  0.333333      1.000000
 -0.333333 -0.000000  0.333333      1.000000
 -0.166667 -0.000000  0.333333      1.000000
  0.000000  0.166667  0.333333      1.000000
  0.166667  0.166667  0.333333      1.000000
  0.333333  0.166667  0.333333      1.000000
  0.500000  0.166667  0.333333      1.000000
 -0.333333  0.166667  0.333333      1.000000
 -0.166667  0.166667  0.333333      1.000000
 -0.000000  0.333333  0.333333      1.000000
  0.166667  0.333333  0.333333      1.000000
  0.333333  0.333333  0.333333      1.000000
  0.500000  0.333333  0.333333      1.000000
 -0.333333  0.333333  0.333333      1.000000
 -0.166667  0.333333  0.333333      1.000000
  0.000000  0.500000  0.333333      1.000000
  0.166667  0.500000  0.333333      1.000000
  0.333333  0.500000  0.333333      1.000000
  0.500000  0.500000  0.333333      1.000000
 -0.333333  0.500000  0.333333      1.000000
 -0.166667  0.500000  0.333333      1.000000
 -0.000000 -0.333333  0.333333      1.000000
  0.166667 -0.333333  0.333333      1.000000
  0.333333 -0.333333  0.333333      1.000000
  0.500000 -0.333333  0.333333      1.000000
 -0.333333 -0.333333  0.333333      1.000000
 -0.166667 -0.333333  0.333333      1.000000
 -0.000000 -0.166667  0.333333      1.000000
  0.166667 -0.166667  0.333333      1.000000
  0.333333 -0.166667  0.333333      1.000000
  0.500000 -0.166667  0.333333      1.000000
 -0.333333 -0.166667  0.333333      1.000000
 -0.166667 -0.166667  0.333333      1.000000
 -0.000000 -0.000000  0.500000      1.000000
  0.166667  0.000000  0.500000      1.000000
  0.333333  0.000000  0.500000      1.000000
  0.500000  0.000000  0.500000      1.000000
 -0.333333 -0.000000  0.500000      1.000000
 -0.166667 -0.000000  0.500000      1.000000
 -0.000000  0.166667  0.500000      1.000000
  0.166667  0.166667  0.500000      1.000000
  0.333333  0.166667  0.500000      1.000000
  0.500000  0.166667  0.500000      1.000000
 -0.333333  0.166667  0.500000      1.000000
 -0.166667  0.166667  0.500000      1.000000
 -0.000000  0.333333  0.500000      1.000000
  0.166667  0.333333  0.500000      1.000000
  0.333333  0.333333  0.500000      1.000000
  0.500000  0.333333  0.500000      1.000000
 -0.333333  0.333333  0.500000      1.000000
 -0.166667  0.333333  0.500000      1.000000
  0.000000  0.500000  0.500000      1.000000
  0.166667  0.500000  0.500000      1.000000
  0.333333  0.500000  0.500000      1.000000
  0.500000  0.500000  0.500000      1.000000
 -0.333333  0.500000  0.500000      1.000000
 -0.166667  0.500000  0.500000      1.000000
 -0.000000 -0.333333  0.500000      1.000000
  0.166667 -0.333333  0.500000      1.000000
  0.333333 -0.333333  0.500000      1.000000
  0.500000 -0.333333  0.500000      1.000000
 -0.333333 -0.333333  0.500000      1.000000
 -0.166667 -0.333333  0.500000      1.000000
 -0.000000 -0.166667  0.500000      1.000000
  0.166667 -0.166667  0.500000      1.000000
  0.333333 -0.166667  0.500000      1.000000
  0.500000 -0.166667  0.500000      1.000000
 -0.333333 -0.166667  0.500000      1.000000
 -0.166667 -0.166667  0.500000      1.000000
  0.000000  0.000000 -0.333333      1.000000
  0.166667  0.000000 -0.333333      1.000000
  0.333333  0.000000 -0.333333      1.000000
  0.500000  0.000000 -0.333333      1.000000
 -0.333333 -0.000000 -0.333333      1.000000
 -0.166667 -0.000000 -0.333333      1.000000
  0.000000  0.166667 -0.333333      1.000000
  0.166667  0.166667 -0.333333      1.000000
  0.333333  0.166667 -0.333333      1.000000
  0.500000  0.166667 -0.333333      1.000000
 -0.333333  0.166667 -0.333333      1.000000
 -0.166667  0.166667 -0.333333      1.000000
  0.000000  0.333333 -0.333333      1.000000
  0.166667  0.333333 -0.333333      1.000000
  0.333333  0.333333 -0.333333      1.000000
  0.500000  0.333333 -0.333333      1.000000
 -0.333333  0.333333 -0.333333      1.000000
 -0.166667  0.333333 -0.333333      1.000000
  0.000000  0.500000 -0.333333      1.000000
  0.166667  0.500000 -0.333333      1.000000
  0.333333  0.500000 -0.333333      1.000000
  0.500000  0.500000 -0.333333      1.000000
 -0.333333  0.500000 -0.333333      1.000000
 -0.166667  0.500000 -0.333333      1.000000
  0.000000 -0.333333 -0.333333      1.000000
  0.166667 -0.333333 -0.333333      1.000000
  0.333333 -0.333333 -0.333333      1.000000
  0.500000 -0.333333 -0.333333      1.000000
 -0.333333 -0.333333 -0.333333      1.000000
 -0.166667 -0.333333 -0.333333      1.000000
  0.000000 -0.166667 -0.333333      1.000000
  0.166667 -0.166667 -0.333333      1.000000
  0.333333 -0.166667 -0.333333      1.000000
  0.500000 -0.166667 -0.333333      1.000000
 -0.333333 -0.166667 -0.333333      1.000000
 -0.166667 -0.166667 -0.333333      1.000000
  0.000000  0.000000 -0.166667      1.000000
  0.166667  0.000000 -0.166667      1.000000
  0.333333  0.000000 -0.166667      1.000000
  0.500000  0.000000 -0.166667      1.000000
 -0.333333 -0.000000 -0.166667      1.000000
 -0.166667  0.000000 -0.166667      1.000000
  0.000000  0.166667 -0.166667      1.000000
  0.166667  0.166667 -0.166667      1.000000
  0.333333  0.166667 -0.166667      1.000000
  0.500000  0.166667 -0.166667      1.000000
 -0.333333  0.166667 -0.166667      1.000000
 -0.166667  0.166667 -0.166667      1.000000
  0.000000  0.333333 -0.166667      1.000000
  0.166667  0.333333 -0.166667      1.000000
  0.333333  0.333333 -0.166667      1.000000
  0.500000  0.333333 -0.166667      1.000000
 -0.333333  0.333333 -0.166667      1.000000
 -0.166667  0.333333 -0.166667      1.000000
  0.000000  0.500000 -0.166667      1.000000
  0.166667  0.500000 -0.166667      1.000000
  0.333333  0.500000 -0.166667      1.000000
  0.500000  0.500000 -0.166667      1.000000
 -0.333333  0.500000 -0.166667      1.000000
 -0.166667  0.500000 -0.166667      1.000000
 -0.000000 -0.333333 -0.166667      1.000000
  0.166667 -0.333333 -0.166667      1.000000
  0.333333 -0.333333 -0.166667      1.000000
  0.500000 -0.333333 -0.166667      1.000000
 -0.333333 -0.333333 -0.166667      1.000000
 -0.166667 -0.333333 -0.166667      1.000000
  0.000000 -0.166667 -0.166667      1.000000
  0.166667 -0.166667 -0.166667      1.000000
  0.333333 -0.166667 -0.166667      1.000000
  0.500000 -0.166667 -0.166667      1.000000
 -0.333333 -0.166667 -0.166667      1.000000
 -0.166667 -0.166667 -0.166667      1.000000
 
 Following cartesian coordinates:
            Coordinates               Weight
  0.000000  0.000000  0.000000      1.000000
  0.036869 -0.021286 -0.015052      1.000000
  0.073737 -0.042572 -0.030103      1.000000
  0.110606 -0.063858 -0.045155      1.000000
 -0.073737  0.042572  0.030103      1.000000
 -0.036869  0.021286  0.015052      1.000000
  0.000000  0.042572 -0.015052      1.000000
  0.036869  0.021286 -0.030103      1.000000
  0.073737  0.000000 -0.045155      1.000000
  0.110606 -0.021286 -0.060206      1.000000
 -0.073737  0.085144  0.015052      1.000000
 -0.036869  0.063858  0.000000      1.000000
  0.000000  0.085144 -0.030103      1.000000
  0.036869  0.063858 -0.045155      1.000000
  0.073737  0.042572 -0.060206      1.000000
  0.110606  0.021286 -0.075258      1.000000
 -0.073737  0.127716  0.000000      1.000000
 -0.036869  0.106430 -0.015052      1.000000
  0.000000  0.127716 -0.045155      1.000000
  0.036869  0.106430 -0.060206      1.000000
  0.073737  0.085144 -0.075258      1.000000
  0.110606  0.063858 -0.090309      1.000000
 -0.073737  0.170289 -0.015052      1.000000
 -0.036869  0.149002 -0.030103      1.000000
 -0.000000 -0.085144  0.030103      1.000000
  0.036869 -0.106430  0.015052      1.000000
  0.073737 -0.127716 -0.000000      1.000000
  0.110606 -0.149002 -0.015052      1.000000
 -0.073737 -0.042572  0.060206      1.000000
 -0.036869 -0.063858  0.045155      1.000000
 -0.000000 -0.042572  0.015052      1.000000
  0.036869 -0.063858 -0.000000      1.000000
  0.073737 -0.085144 -0.015052      1.000000
  0.110606 -0.106430 -0.030103      1.000000
 -0.073737  0.000000  0.045155      1.000000
 -0.036869 -0.021286  0.030103      1.000000
 -0.000000  0.000000  0.045155      1.000000
  0.036869 -0.021286  0.030103      1.000000
  0.073737 -0.042572  0.015052      1.000000
  0.110606 -0.063858 -0.000000      1.000000
 -0.073737  0.042572  0.075258      1.000000
 -0.036869  0.021286  0.060206      1.000000
 -0.000000  0.042572  0.030103      1.000000
  0.036869  0.021286  0.015052      1.000000
  0.073737  0.000000  0.000000      1.000000
  0.110606 -0.021286 -0.015052      1.000000
 -0.073737  0.085144  0.060206      1.000000
 -0.036869  0.063858  0.045155      1.000000
 -0.000000  0.085144  0.015052      1.000000
  0.036869  0.063858  0.000000      1.000000
  0.073737  0.042572 -0.015052      1.000000
  0.110606  0.021286 -0.030103      1.000000
 -0.073737  0.127716  0.045155      1.000000
 -0.036869  0.106430  0.030103      1.000000
 -0.000000  0.127716  0.000000      1.000000
  0.036869  0.106430 -0.015052      1.000000
  0.073737  0.085144 -0.030103      1.000000
  0.110606  0.063858 -0.045155      1.000000
 -0.073737  0.170289  0.030103      1.000000
 -0.036869  0.149002  0.015052      1.000000
 -0.000000 -0.085144  0.075258      1.000000
  0.036869 -0.106430  0.060206      1.000000
  0.073737 -0.127716  0.045155      1.000000
  0.110606 -0.149002  0.030103      1.000000
 -0.073737 -0.042572  0.105361      1.000000
 -0.036869 -0.063858  0.090309      1.000000
 -0.000000 -0.042572  0.060206      1.000000
  0.036869 -0.063858  0.045155      1.000000
  0.073737 -0.085144  0.030103      1.000000
  0.110606 -0.106430  0.015052      1.000000
 -0.073737  0.000000  0.090309      1.000000
 -0.036869 -0.021286  0.075258      1.000000
 -0.000000  0.000000  0.090309      1.000000
  0.036869 -0.021286  0.075258      1.000000
  0.073737 -0.042572  0.060206      1.000000
  0.110606 -0.063858  0.045155      1.000000
 -0.073737  0.042572  0.120412      1.000000
 -0.036869  0.021286  0.105361      1.000000
 -0.000000  0.042572  0.075258      1.000000
  0.036869  0.021286  0.060206      1.000000
  0.073737  0.000000  0.045155      1.000000
  0.110606 -0.021286  0.030103      1.000000
 -0.073737  0.085144  0.105361      1.000000
 -0.036869  0.063858  0.090309      1.000000
 -0.000000  0.085144  0.060206      1.000000
  0.036869  0.063858  0.045155      1.000000
  0.073737  0.042572  0.030103      1.000000
  0.110606  0.021286  0.015052      1.000000
 -0.073737  0.127716  0.090309      1.000000
 -0.036869  0.106430  0.075258      1.000000
 -0.000000  0.127716  0.045155      1.000000
  0.036869  0.106430  0.030103      1.000000
  0.073737  0.085144  0.015052      1.000000
  0.110606  0.063858  0.000000      1.000000
 -0.073737  0.170289  0.075258      1.000000
 -0.036869  0.149002  0.060206      1.000000
 -0.000000 -0.085144  0.120412      1.000000
  0.036869 -0.106430  0.105361      1.000000
  0.073737 -0.127716  0.090309      1.000000
  0.110606 -0.149002  0.075258      1.000000
 -0.073737 -0.042572  0.150515      1.000000
 -0.036869 -0.063858  0.135464      1.000000
 -0.000000 -0.042572  0.105361      1.000000
  0.036869 -0.063858  0.090309      1.000000
  0.073737 -0.085144  0.075258      1.000000
  0.110606 -0.106430  0.060206      1.000000
 -0.073737  0.000000  0.135464      1.000000
 -0.036869 -0.021286  0.120412      1.000000
 -0.000000  0.000000  0.135464      1.000000
  0.036869 -0.021286  0.120412      1.000000
  0.073737 -0.042572  0.105361      1.000000
  0.110606 -0.063858  0.090309      1.000000
 -0.073737  0.042572  0.165567      1.000000
 -0.036869  0.021286  0.150515      1.000000
 -0.000000  0.042572  0.120412      1.000000
  0.036869  0.021286  0.105361      1.000000
  0.073737  0.000000  0.090309      1.000000
  0.110606 -0.021286  0.075258      1.000000
 -0.073737  0.085144  0.150515      1.000000
 -0.036869  0.063858  0.135464      1.000000
 -0.000000  0.085144  0.105361      1.000000
  0.036869  0.063858  0.090309      1.000000
  0.073737  0.042572  0.075258      1.000000
  0.110606  0.021286  0.060206      1.000000
 -0.073737  0.127716  0.135464      1.000000
 -0.036869  0.106430  0.120412      1.000000
 -0.000000  0.127716  0.090309      1.000000
  0.036869  0.106430  0.075258      1.000000
[...]
     23      17.7571      20.3474      20.3986      21.0202       0.8095       0.0000
     24      19.3684      20.6844      21.1566      21.4827       0.8458       0.0000
     25      19.5787      21.2858      20.9278      21.1723       0.8465       0.0000
     26      20.1574      21.7466      21.4750      21.7143       0.8463       0.0000
     27      20.4451      22.8456      22.8323      23.3212       0.8300       0.0000
     28      21.8268      23.6926      24.0941      24.5610       0.8292       0.0000
     29      21.8347      23.9704      23.5181      23.8241       0.8462       0.0000
     30      24.0339      25.3785      25.6448      25.9144       0.8566       0.0000
     31      24.3170      25.9961      25.4265      25.5948       0.8683       0.0000
     32      24.7168      26.1266      25.9298      26.1084       0.8716       0.0000
 

 k-point 107 :      -0.3333    0.3333    0.5000
  band No. DFT-energies  QP-energies  QP-e(diag)   sigma(DFT)    Z            occupation

      1     -41.6221     -46.3431     -46.2645     -47.5601       0.7818       2.0000
      2     -41.6219     -46.3226     -46.2901     -47.5550       0.7868       2.0000
      3     -41.6217     -46.3185     -46.3164     -47.5588       0.7907       2.0000
      4     -41.6216     -46.2905     -46.3169     -47.5554       0.7913       2.0000
      5     -41.6212     -46.2661     -46.3346     -47.5533       0.7946       2.0000
      6     -17.2591     -19.2040     -19.1833     -19.6846       0.7933       2.0000
      7      -3.7895      -5.9510      -5.9408      -6.4235       0.8167       2.0000
      8      -3.3675      -5.4532      -5.4421      -5.9042       0.8178       2.0000
      9      -2.9135      -4.9250      -4.9131      -5.3495       0.8209       2.0000
     10       5.6728       6.2888       6.3338       6.4492       0.8514       0.0000
     11       5.9556       6.7760       6.7929       6.9414       0.8493       0.0000
     12       7.2612       8.1314       8.1521       8.3221       0.8397       0.0000
     13       8.3269       9.2508       9.2898       9.4768       0.8373       0.0000
     14       9.9779      11.0482      11.0825      11.3085       0.8302       0.0000
     15      11.5562      12.4854      12.5452      12.7624       0.8199       0.0000
     16      12.6650      14.0672      14.1627      14.4788       0.8257       0.0000
     17      13.0427      14.1453      14.1657      14.4114       0.8205       0.0000
     18      15.2803      16.6681      16.7625      17.0722       0.8272       0.0000
     19      15.6161      17.1653      17.2947      17.6545       0.8235       0.0000
     20      15.6883      17.3212      17.5244      17.9275       0.8200       0.0000
     21      15.8323      17.4009      17.4915      17.8466       0.8237       0.0000
     22      16.3698      18.3923      18.4282      18.8658       0.8247       0.0000
     23      16.8476      19.1925      19.2135      19.7605       0.8122       0.0000
     24      18.4650      21.0139      21.0011      21.5484       0.8225       0.0000
     25      19.0685      21.1784      21.1271      21.5340       0.8349       0.0000
     26      19.7597      21.3719      21.3369      21.6446       0.8367       0.0000
     27      20.8024      22.1636      22.2412      22.5081       0.8435       0.0000
     28      21.1892      22.2029      22.3955      22.6156       0.8457       0.0000
     29      21.9777      23.3586      23.9570      24.3451       0.8361       0.0000
     30      22.2121      24.3371      23.2180      23.3749       0.8651       0.0000
     31      23.8805      25.5324      25.3923      25.6419       0.8583       0.0000
     32      24.8065      26.1193      26.0066      26.1887       0.8682       0.0000
 

 k-point 108 :      -0.1667    0.3333    0.5000
  band No. DFT-energies  QP-energies  QP-e(diag)   sigma(DFT)    Z            occupation

      1     -41.6223     -46.3491     -46.2486     -47.5556       0.7797       2.0000
      2     -41.6220     -46.3462     -46.3053     -47.5600       0.7887       2.0000
      3     -41.6216     -46.3096     -46.2878     -47.5545       0.7865       2.0000
      4     -41.6215     -46.2915     -46.3435     -47.5601       0.7951       2.0000
      5     -41.6211     -46.2516     -46.3452     -47.5536       0.7963       2.0000
      6     -17.2486     -19.1932     -19.1733     -19.6709       0.7946       2.0000
      7      -3.7994      -5.9598      -5.9509      -6.4374       0.8156       2.0000
      8      -3.3192      -5.3973      -5.3881      -5.8484       0.8180       2.0000
      9      -3.0904      -5.1307      -5.1181      -5.5666       0.8189       2.0000
     10       4.9849       5.5727       5.6152       5.7217       0.8555       0.0000
     11       5.9847       6.7908       6.8114       6.9585       0.8490       0.0000
     12       7.9583       8.8588       8.8794       9.0643       0.8328       0.0000
     13       8.3125       9.2102       9.2489       9.4297       0.8381       0.0000
     14      11.4209      12.3357      12.3642      12.5733       0.8186       0.0000
     15      12.0961      13.1926      13.2226      13.4736       0.8178       0.0000
     16      12.6010      14.0720      14.0824      14.3868       0.8295       0.0000
     17      12.9460      14.4940      14.5173      14.8630       0.8197       0.0000
     18      15.0950      16.4649      16.6290      16.9458       0.8288       0.0000
     19      15.4496      16.8644      17.0957      17.4484       0.8235       0.0000
     20      15.4971      17.1408      17.2572      17.6420       0.8206       0.0000
     21      15.9234      17.4960      17.7597      18.1565       0.8223       0.0000
     22      16.0030      17.7845      17.6280      17.9547       0.8326       0.0000
     23      16.1975      17.8197      18.1196      18.5440       0.8191       0.0000
     24      18.6564      20.5289      20.6694      21.0828       0.8296       0.0000
     25      18.6960      21.1266      21.1305      21.6458       0.8253       0.0000
     26      19.1701      21.4583      21.1747      21.5887       0.8288       0.0000
     27      20.2589      21.4786      21.2907      21.4787       0.8459       0.0000
     28      20.7602      22.2654      22.1428      22.3989       0.8437       0.0000
     29      21.0298      22.5595      22.6037      22.9063       0.8388       0.0000
     30      23.9870      25.3424      25.5469      25.7857       0.8673       0.0000
     31      24.0199      25.6603      25.1336      25.3165       0.8589       0.0000
     32      24.7706      25.8232      25.7321      25.8807       0.8662       0.0000
 

 k-point 109 :       0.0000    0.5000    0.5000
  band No. DFT-energies  QP-energies  QP-e(diag)   sigma(DFT)    Z            occupation

      1     -41.6228     -46.3634     -46.2161     -47.5562       0.7741       2.0000
      2     -41.6221     -46.3463     -46.2680     -47.5597       0.7825       2.0000
      3     -41.6214     -46.3453     -46.3595     -47.5597       0.7979       2.0000
      4     -41.6211     -46.2719     -46.3418     -47.5528       0.7958       2.0000
      5     -41.6211     -46.2191     -46.3431     -47.5541       0.7959       2.0000
      6     -17.2492     -19.2174     -19.1708     -19.6718       0.7932       2.0000
      7      -4.0084      -6.1965      -6.1851      -6.6939       0.8106       2.0000
      8      -3.0355      -5.0768      -5.0586      -5.5048       0.8193       2.0000
      9      -3.0355      -5.0743      -5.0584      -5.5045       0.8193       2.0000
     10       4.1814       4.7294       4.7612       4.8564       0.8589       0.0000
     11       5.1317       5.8712       5.8853       6.0156       0.8526       0.0000
     12       9.3027      10.1426      10.1526      10.3404       0.8190       0.0000
     13      11.1180      11.9661      12.0253      12.2266       0.8185       0.0000
     14      11.1180      11.9822      12.0254      12.2266       0.8185       0.0000
     15      12.2130      13.7585      13.7536      14.0847       0.8231       0.0000
     16      12.9086      14.1944      14.2205      14.4701       0.8402       0.0000
     17      12.9107      14.4365      14.4669      14.8050       0.8215       0.0000
     18      12.9107      14.4570      14.4664      14.8045       0.8215       0.0000
     19      13.7062      15.2528      15.2269      15.5735       0.8144       0.0000
     20      15.8932      17.6057      17.9015      18.3510       0.8171       0.0000
     21      15.8932      17.6722      17.9015      18.3510       0.8171       0.0000
     22      16.1094      17.8794      17.9200      18.3058       0.8243       0.0000
     23      16.4523      18.3617      18.6362      19.1306       0.8154       0.0000
     24      17.3497      18.3832      18.2482      18.4086       0.8485       0.0000
     25      19.6170      20.1736      20.1358      20.2229       0.8562       0.0000
     26      19.6170      20.1817      20.1358      20.2229       0.8562       0.0000
     27      19.8182      20.6487      20.6133      20.7470       0.8560       0.0000
     28      20.1013      23.0697      23.0503      23.7451       0.8093       0.0000
     29      20.1013      23.0730      23.0502      23.7450       0.8093       0.0000
     30      23.7312      25.8929      25.6852      26.0667       0.8367       0.0000
     31      25.7970      27.7501      27.5738      27.8821       0.8522       0.0000
     32      26.0262      28.5590      28.3903      28.7813       0.8581       0.0000
 

 k-point 110 :       0.1667    0.5000    0.5000
  band No. DFT-energies  QP-energies  QP-e(diag)   sigma(DFT)    Z            occupation

      1     -41.6225     -46.3562     -46.2275     -47.5565       0.7760       2.0000
      2     -41.6220     -46.3237     -46.2940     -47.5589       0.7869       2.0000
      3     -41.6216     -46.3198     -46.3232     -47.5606       0.7917       2.0000
      4     -41.6213     -46.2979     -46.3200     -47.5528       0.7922       2.0000
      5     -41.6212     -46.2301     -46.3457     -47.5535       0.7964       2.0000
      6     -17.2598     -19.1944     -19.1739     -19.6855       0.7891       2.0000
      7      -3.8763      -6.0456      -6.0376      -6.5288       0.8148       2.0000
      8      -3.1844      -5.2378      -5.2271      -5.6823       0.8178       2.0000
      9      -2.9415      -4.9626      -4.9481      -5.3878       0.8202       2.0000
     10       4.6525       5.2429       5.2792       5.3849       0.8557       0.0000
     11       5.6860       6.4508       6.4753       6.6141       0.8504       0.0000
     12       7.9087       8.8043       8.8227       9.0037       0.8348       0.0000
     13       9.5222      10.5318      10.5731      10.7867       0.8311       0.0000
     14      10.4312      11.2890      11.3132      11.5063       0.8204       0.0000
     15      12.2924      13.6292      13.6920      13.9980       0.8206       0.0000
     16      12.9373      14.3663      14.4002      14.7060       0.8271       0.0000
     17      12.9742      14.3809      14.3646      14.6773       0.8164       0.0000
     18      13.7686      14.8326      14.9711      15.2271       0.8245       0.0000
     19      15.2490      16.8894      16.9979      17.3820       0.8199       0.0000
     20      15.6048      16.9034      16.9743      17.2379       0.8386       0.0000
     21      15.8842      17.4865      17.8139      18.2452       0.8173       0.0000
     22      15.9035      17.6687      17.6823      18.0648       0.8230       0.0000
     23      16.2437      18.1197      18.3067      18.7660       0.8179       0.0000
     24      18.3832      19.5886      19.6847      19.9272       0.8430       0.0000
     25      18.7901      21.1208      21.1093      21.5989       0.8257       0.0000
     26      20.1236      21.5044      22.9703      23.6252       0.8130       0.0000
     27      20.2483      21.7596      21.3952      21.6018       0.8474       0.0000
     28      20.6819      23.0064      21.7180      21.9016       0.8494       0.0000
     29      21.1363      23.1871      23.0712      23.4682       0.8298       0.0000
     30      23.6149      25.1045      24.8974      25.1168       0.8539       0.0000
     31      24.8641      26.8472      26.6947      26.9958       0.8587       0.0000
     32      25.3277      27.1746      27.0288      27.2856       0.8688       0.0000
 

 k-point 111 :       0.3333    0.5000    0.5000
  band No. DFT-energies  QP-energies  QP-e(diag)   sigma(DFT)    Z            occupation

      1     -41.6223     -46.3511     -46.2439     -47.5599       0.7784       2.0000
      2     -41.6221     -46.3299     -46.2739     -47.5605       0.7833       2.0000
      3     -41.6219     -46.2862     -46.2843     -47.5532       0.7861       2.0000
      4     -41.6215     -46.2759     -46.3231     -47.5545       0.7924       2.0000
      5     -41.6213     -46.2451     -46.3463     -47.5541       0.7964       2.0000
      6     -17.2812     -19.2215     -19.1992     -19.7133       0.7886       2.0000
      7      -3.9937      -6.1792      -6.1708      -6.6727       0.8127       2.0000
      8      -2.9406      -4.9515      -4.9401      -5.3778       0.8204       2.0000
      9      -2.7408      -4.7283      -4.7124      -5.1377       0.8226       2.0000
     10       4.8992       5.6393       5.6537       5.7821       0.8546       0.0000
     11       6.3369       7.0185       7.0647       7.1940       0.8492       0.0000
     12       7.6219       8.4910       8.5123       8.6864       0.8364       0.0000
     13       7.9417       8.9011       8.9301       9.1171       0.8409       0.0000
     14      10.3075      11.1253      11.1772      11.3605       0.8259       0.0000
     15      11.2869      12.1937      12.2374      12.4459       0.8201       0.0000
     16      12.0140      13.2692      13.3614      13.6522       0.8225       0.0000
     17      12.7149      14.0767      14.1212      14.4132       0.8281       0.0000
     18      12.7684      14.0809      14.0898      14.3859       0.8169       0.0000
     19      15.5652      17.1986      17.3258      17.7006       0.8244       0.0000
     20      16.1674      17.7388      17.9412      18.3250       0.8221       0.0000
     21      16.1757      17.9712      18.1489      18.5855       0.8188       0.0000
     22      16.5853      18.6403      18.7708      19.2613       0.8167       0.0000
     23      17.7571      20.3481      20.3994      21.0203       0.8097       0.0000
     24      19.3684      20.6846      21.1568      21.4826       0.8459       0.0000
     25      19.5787      21.2861      20.9275      21.1723       0.8464       0.0000
     26      20.1574      21.7469      21.4753      21.7143       0.8465       0.0000
     27      20.4451      22.8454      22.8322      23.3213       0.8299       0.0000
     28      21.8268      23.6925      24.0937      24.5610       0.8291       0.0000
     29      21.8347      23.9703      23.5180      23.8242       0.8461       0.0000
     30      24.0339      25.3788      25.6451      25.9144       0.8568       0.0000
     31      24.3170      25.9958      25.4265      25.5948       0.8683       0.0000
     32      24.7168      26.1263      25.9297      26.1084       0.8716       0.0000
 

 k-point 112 :       0.5000    0.5000    0.5000
  band No. DFT-energies  QP-energies  QP-e(diag)   sigma(DFT)    Z            occupation

      1     -41.6223     -46.3375     -46.2476     -47.5604       0.7789       2.0000
      2     -41.6223     -46.3374     -46.2476     -47.5604       0.7789       2.0000
      3     -41.6219     -46.2791     -46.2756     -47.5516       0.7848       2.0000
      4     -41.6214     -46.2496     -46.3317     -47.5543       0.7939       2.0000
      5     -41.6214     -46.2495     -46.3316     -47.5542       0.7939       2.0000
      6     -17.2919     -19.2539     -19.2071     -19.7272       0.7864       2.0000
      7      -4.1488      -6.3615      -6.3491      -6.8636       0.8105       2.0000
      8      -2.6329      -4.6152      -4.5892      -5.0034       0.8253       2.0000
      9      -2.6329      -4.6081      -4.5892      -5.0034       0.8253       2.0000
     10       4.2687       4.9753       4.9825       5.1019       0.8567       0.0000
     11       7.3472       8.2740       8.3003       8.4738       0.8460       0.0000
     12       7.3472       8.2755       8.3003       8.4738       0.8460       0.0000
     13       7.8917       8.4450       8.4927       8.6128       0.8335       0.0000
     14       9.7527      10.4559      10.5137      10.6751       0.8250       0.0000
     15      12.1056      13.2507      13.5655      13.8764       0.8244       0.0000
     16      12.1056      13.3683      13.5656      13.8765       0.8244       0.0000
     17      12.3463      13.6014      13.4939      13.7544       0.8150       0.0000
     18      12.3463      13.7070      13.4939      13.7544       0.8150       0.0000
     19      12.8828      14.1410      14.1818      14.4425       0.8328       0.0000
     20      16.4584      18.3519      18.5709      19.0410       0.8180       0.0000
     21      16.8541      19.0859      19.2255      19.7761       0.8116       0.0000
     22      16.8541      19.1922      19.2255      19.7761       0.8115       0.0000
     23      18.4741      20.6335      21.5307      22.2897       0.8011       0.0000
     24      19.5622      21.5305      20.5182      20.6785       0.8564       0.0000
     25      20.8818      21.9226      21.8711      22.0236       0.8664       0.0000
     26      20.8818      21.9391      21.8711      22.0236       0.8664       0.0000
     27      20.8856      22.7623      22.9671      23.4117       0.8240       0.0000
     28      21.5725      24.0833      24.1006      24.6063       0.8333       0.0000
     29      21.5725      24.1577      24.1006      24.6064       0.8333       0.0000
     30      23.8826      24.4888      24.4442      24.5208       0.8800       0.0000
     31      24.4745      27.2319      26.8807      27.3446       0.8384       0.0000
     32      25.5590      27.9032      27.7269      28.1043       0.8518       0.0000
 


--------------------------------------------------------------------------------------------------------



IMPORTANT INFORMATION: All symmetrisations will be switched off!
NOSYMM: (Re-)initialisation of all symmetry stuff for point group C_1.

   GW_DIAG:  cpu time    0.8801: real time    0.8838
    GWLOOP:  cpu time 4274.9449: real time 4275.5132
 writing wavefunctions
    --------------------------------------------
   GWTOTAL:  cpu time 4276.0405: real time 4276.6138
    4ORBIT:  cpu time    0.0000: real time    0.0000

 total amount of memory used by VASP MPI-rank0    90033. kBytes
=======================================================================

   base      :      30000. kBytes
   nonl-proj :      26269. kBytes
   fftplans  :       6564. kBytes
   grid      :       2458. kBytes
   one-center:         65. kBytes
   HF        :        547. kBytes
   nonlr-proj:        275. kBytes
   wavefun   :      23855. kBytes
   2eintegral:          0. kBytes
   fockhandle:          0. kBytes
   response  :          0. kBytes
   cacher    :          0. kBytes
 
  
  
 General timing and accounting informations for this job:
 ========================================================
  
                  Total CPU time used (sec):     4280.848
                            User time (sec):     4276.837
                          System time (sec):        4.011
                         Elapsed time (sec):     4282.074
  
                   Maximum memory used (kb):      711744.
                   Average memory used (kb):           0.
  
                          Minor page faults:       407443
                          Major page faults:            0
                 Voluntary context switches:         5735
