 vasp.5.4.4.18Apr17-6-g9f103f2a35 (build Jul 09 2018 16:43:14) complex          
  
 executed on             LinuxIFC date 2018.11.22  06:08:00
 running on   32 total cores
 distrk:  each k-point on    8 cores,    4 groups
 distr:  one band on NCORES_PER_BAND=   1 cores,    8 groups


--------------------------------------------------------------------------------------------------------


 INCAR:
 POTCAR:    PAW_PBE Rn_d_GW 14Apr2014             

 ----------------------------------------------------------------------------- 
|                                                                             |
|           W    W    AA    RRRRR   N    N  II  N    N   GGGG   !!!           |
|           W    W   A  A   R    R  NN   N  II  NN   N  G    G  !!!           |
|           W    W  A    A  R    R  N N  N  II  N N  N  G       !!!           |
|           W WW W  AAAAAA  RRRRR   N  N N  II  N  N N  G  GGG   !            |
|           WW  WW  A    A  R   R   N   NN  II  N   NN  G    G                |
|           W    W  A    A  R    R  N    N  II  N    N   GGGG   !!!           |
|                                                                             |
|      For optimal performance we recommend to set                            |
|        NCORE= 4 - approx SQRT( number of cores)                             |
|      NCORE specifies how many cores store one orbital (NPAR=cpu/NCORE).     |
|      This setting can  greatly improve the performance of VASP for DFT.     |
|      The default,   NCORE=1            might be grossly inefficient         |
|      on modern multi-core architectures or massively parallel machines.     |
|      Do your own testing !!!!                                               |
|      Unfortunately you need to use the default for GW and RPA calculations. |
|      (for HF NCORE is supported but not extensively tested yet)             |
|                                                                             |
 ----------------------------------------------------------------------------- 


 ----------------------------------------------------------------------------- 
|                                                                             |
|           W    W    AA    RRRRR   N    N  II  N    N   GGGG   !!!           |
|           W    W   A  A   R    R  NN   N  II  NN   N  G    G  !!!           |
|           W    W  A    A  R    R  N N  N  II  N N  N  G       !!!           |
|           W WW W  AAAAAA  RRRRR   N  N N  II  N  N N  G  GGG   !            |
|           WW  WW  A    A  R   R   N   NN  II  N   NN  G    G                |
|           W    W  A    A  R    R  N    N  II  N    N   GGGG   !!!           |
|                                                                             |
|      You have enabled k-point parallelism (KPAR>1).                         |
|      This developmental code was originally  written by Paul Kent at ORNL,  |
|      and carefully double checked in Vienna.                                |
|      GW as well as linear response parallelism added by Martijn Marsman     |
|      and Georg Kresse.                                                      |
|      Carefully verify results versus KPAR=1.                                |
|      Report problems to Paul Kent and Vienna.                               |
|                                                                             |
 ----------------------------------------------------------------------------- 

 POTCAR:    PAW_PBE Rn_d_GW 14Apr2014             
  local pseudopotential read in
  partial core-charges read in
  partial kinetic energy density read in
  kinetic energy density of atom read in
  atomic valenz-charges read in
  non local Contribution for L=           2  read in
    real space projection operators read in
  non local Contribution for L=           2  read in
    real space projection operators read in
  non local Contribution for L=           2  read in
    real space projection operators read in
  non local Contribution for L=           0  read in
    real space projection operators read in
  non local Contribution for L=           0  read in
    real space projection operators read in
  non local Contribution for L=           1  read in
    real space projection operators read in
  non local Contribution for L=           1  read in
    real space projection operators read in
  non local Contribution for L=           3  read in
    real space projection operators read in
  non local Contribution for L=           3  read in
    real space projection operators read in
    PAW grid and wavefunctions read in
 
   number of l-projection  operators is LMAX  =           9
   number of lm-projection operators is LMMAX =          37
 
  PAW_PBE Rn_d_GW 14Apr2014             :
 energy of atom  1       EATOM=-3030.7130
 kinetic energy error for atom=    0.0889 (will be added to EATOM!!)
 
 
 POSCAR: Rn_FCC                                  
  positions in direct lattice
  velocities in cartesian coordinates
 exchange correlation table for  LEXCH =        8
   RHO(1)=    0.500       N(1)  =     2000
   RHO(2)=  100.500       N(2)  =     4000
 


--------------------------------------------------------------------------------------------------------


 ion  position               nearest neighbor table
   1  0.000  0.000  0.000-
 

IMPORTANT INFORMATION: All symmetrisations will be switched off!
NOSYMM: (Re-)initialisation of all symmetry stuff for point group C_1.

 
 
 KPOINTS: k-points                                

Automatic generation of k-mesh.
Space group operators:
 irot       det(A)        alpha          n_x          n_y          n_z        tau_x        tau_y        tau_z
    1     1.000000     0.000000     1.000000     0.000000     0.000000     0.000000     0.000000     0.000000
 
 Subroutine IBZKPT returns following result:
 ===========================================
 
 Found    112 irreducible k-points:
 
 Following reciprocal coordinates:
            Coordinates               Weight
  0.000000  0.000000  0.000000      1.000000
  0.166667  0.000000  0.000000      2.000000
  0.333333  0.000000  0.000000      2.000000
  0.500000  0.000000  0.000000      1.000000
  0.000000  0.166667  0.000000      2.000000
  0.166667  0.166667  0.000000      2.000000
  0.333333  0.166667  0.000000      2.000000
  0.500000  0.166667  0.000000      2.000000
 -0.333333  0.166667  0.000000      2.000000
 -0.166667  0.166667  0.000000      2.000000
  0.000000  0.333333  0.000000      2.000000
  0.166667  0.333333  0.000000      2.000000
  0.333333  0.333333  0.000000      2.000000
  0.500000  0.333333  0.000000      2.000000
 -0.333333  0.333333 -0.000000      2.000000
 -0.166667  0.333333 -0.000000      2.000000
  0.000000  0.500000  0.000000      1.000000
  0.166667  0.500000  0.000000      2.000000
  0.333333  0.500000  0.000000      2.000000
  0.500000  0.500000 -0.000000      1.000000
 -0.000000 -0.000000  0.166667      2.000000
  0.166667  0.000000  0.166667      2.000000
  0.333333  0.000000  0.166667      2.000000
  0.500000  0.000000  0.166667      2.000000
 -0.333333 -0.000000  0.166667      2.000000
 -0.166667 -0.000000  0.166667      2.000000
  0.000000  0.166667  0.166667      2.000000
  0.166667  0.166667  0.166667      2.000000
  0.333333  0.166667  0.166667      2.000000
  0.500000  0.166667  0.166667      2.000000
 -0.333333  0.166667  0.166667      2.000000
 -0.166667  0.166667  0.166667      2.000000
  0.000000  0.333333  0.166667      2.000000
  0.166667  0.333333  0.166667      2.000000
  0.333333  0.333333  0.166667      2.000000
  0.500000  0.333333  0.166667      2.000000
 -0.333333  0.333333  0.166667      2.000000
 -0.166667  0.333333  0.166667      2.000000
  0.000000  0.500000  0.166667      2.000000
  0.166667  0.500000  0.166667      2.000000
  0.333333  0.500000  0.166667      2.000000
  0.500000  0.500000  0.166667      2.000000
 -0.333333  0.500000  0.166667      2.000000
 -0.166667  0.500000  0.166667      2.000000
 -0.000000 -0.333333  0.166667      2.000000
  0.166667 -0.333333  0.166667      2.000000
  0.333333 -0.333333  0.166667      2.000000
  0.500000 -0.333333  0.166667      2.000000
 -0.333333 -0.333333  0.166667      2.000000
 -0.166667 -0.333333  0.166667      2.000000
 -0.000000 -0.166667  0.166667      2.000000
  0.166667 -0.166667  0.166667      2.000000
  0.333333 -0.166667  0.166667      2.000000
  0.500000 -0.166667  0.166667      2.000000
 -0.333333 -0.166667  0.166667      2.000000
 -0.166667 -0.166667  0.166667      2.000000
  0.000000 -0.000000  0.333333      2.000000
  0.166667  0.000000  0.333333      2.000000
  0.333333  0.000000  0.333333      2.000000
  0.500000  0.000000  0.333333      2.000000
 -0.333333 -0.000000  0.333333      2.000000
 -0.166667 -0.000000  0.333333      2.000000
  0.000000  0.166667  0.333333      2.000000
  0.166667  0.166667  0.333333      2.000000
  0.333333  0.166667  0.333333      2.000000
  0.500000  0.166667  0.333333      2.000000
 -0.333333  0.166667  0.333333      2.000000
 -0.166667  0.166667  0.333333      2.000000
 -0.000000  0.333333  0.333333      2.000000
  0.166667  0.333333  0.333333      2.000000
  0.333333  0.333333  0.333333      2.000000
  0.500000  0.333333  0.333333      2.000000
 -0.333333  0.333333  0.333333      2.000000
 -0.166667  0.333333  0.333333      2.000000
  0.000000  0.500000  0.333333      2.000000
  0.166667  0.500000  0.333333      2.000000
  0.333333  0.500000  0.333333      2.000000
  0.500000  0.500000  0.333333      2.000000
 -0.333333  0.500000  0.333333      2.000000
 -0.166667  0.500000  0.333333      2.000000
 -0.000000 -0.333333  0.333333      2.000000
  0.166667 -0.333333  0.333333      2.000000
  0.333333 -0.333333  0.333333      2.000000
  0.500000 -0.333333  0.333333      2.000000
 -0.333333 -0.333333  0.333333      2.000000
 -0.166667 -0.333333  0.333333      2.000000
 -0.000000 -0.166667  0.333333      2.000000
  0.166667 -0.166667  0.333333      2.000000
  0.333333 -0.166667  0.333333      2.000000
  0.500000 -0.166667  0.333333      2.000000
 -0.333333 -0.166667  0.333333      2.000000
 -0.166667 -0.166667  0.333333      2.000000
 -0.000000 -0.000000  0.500000      1.000000
  0.166667  0.000000  0.500000      2.000000
  0.333333  0.000000  0.500000      2.000000
  0.500000  0.000000  0.500000      1.000000
 -0.000000  0.166667  0.500000      2.000000
  0.166667  0.166667  0.500000      2.000000
  0.333333  0.166667  0.500000      2.000000
  0.500000  0.166667  0.500000      2.000000
 -0.333333  0.166667  0.500000      2.000000
 -0.166667  0.166667  0.500000      2.000000
 -0.000000  0.333333  0.500000      2.000000
  0.166667  0.333333  0.500000      2.000000
  0.333333  0.333333  0.500000      2.000000
  0.500000  0.333333  0.500000      2.000000
 -0.333333  0.333333  0.500000      2.000000
 -0.166667  0.333333  0.500000      2.000000
  0.000000  0.500000  0.500000      1.000000
  0.166667  0.500000  0.500000      2.000000
  0.333333  0.500000  0.500000      2.000000
  0.500000  0.500000  0.500000      1.000000
 
 Following cartesian coordinates:
            Coordinates               Weight
  0.000000  0.000000  0.000000      1.000000
  0.036869 -0.021286 -0.015052      2.000000
  0.073737 -0.042572 -0.030103      2.000000
  0.110606 -0.063858 -0.045155      1.000000
  0.000000  0.042572 -0.015052      2.000000
  0.036869  0.021286 -0.030103      2.000000
  0.073737  0.000000 -0.045155      2.000000
  0.110606 -0.021286 -0.060206      2.000000
 -0.073737  0.085144  0.015052      2.000000
 -0.036869  0.063858  0.000000      2.000000
  0.000000  0.085144 -0.030103      2.000000
  0.036869  0.063858 -0.045155      2.000000
  0.073737  0.042572 -0.060206      2.000000
  0.110606  0.021286 -0.075258      2.000000
 -0.073737  0.127716  0.000000      2.000000
 -0.036869  0.106430 -0.015052      2.000000
  0.000000  0.127716 -0.045155      1.000000
  0.036869  0.106430 -0.060206      2.000000
  0.073737  0.085144 -0.075258      2.000000
  0.110606  0.063858 -0.090309      1.000000
 -0.000000  0.000000  0.045155      2.000000
  0.036869 -0.021286  0.030103      2.000000
  0.073737 -0.042572  0.015052      2.000000
  0.110606 -0.063858 -0.000000      2.000000
 -0.073737  0.042572  0.075258      2.000000
 -0.036869  0.021286  0.060206      2.000000
 -0.000000  0.042572  0.030103      2.000000
  0.036869  0.021286  0.015052      2.000000
  0.073737  0.000000  0.000000      2.000000
  0.110606 -0.021286 -0.015052      2.000000
 -0.073737  0.085144  0.060206      2.000000
 -0.036869  0.063858  0.045155      2.000000
 -0.000000  0.085144  0.015052      2.000000
  0.036869  0.063858  0.000000      2.000000
  0.073737  0.042572 -0.015052      2.000000
  0.110606  0.021286 -0.030103      2.000000
 -0.073737  0.127716  0.045155      2.000000
 -0.036869  0.106430  0.030103      2.000000
 -0.000000  0.127716  0.000000      2.000000
  0.036869  0.106430 -0.015052      2.000000
  0.073737  0.085144 -0.030103      2.000000
  0.110606  0.063858 -0.045155      2.000000
 -0.073737  0.170289  0.030103      2.000000
 -0.036869  0.149002  0.015052      2.000000
 -0.000000 -0.085144  0.075258      2.000000
  0.036869 -0.106430  0.060206      2.000000
  0.073737 -0.127716  0.045155      2.000000
  0.110606 -0.149002  0.030103      2.000000
 -0.073737 -0.042572  0.105361      2.000000
 -0.036869 -0.063858  0.090309      2.000000
 -0.000000 -0.042572  0.060206      2.000000
  0.036869 -0.063858  0.045155      2.000000
  0.073737 -0.085144  0.030103      2.000000
  0.110606 -0.106430  0.015052      2.000000
 -0.073737  0.000000  0.090309      2.000000
 -0.036869 -0.021286  0.075258      2.000000
 -0.000000  0.000000  0.090309      2.000000
  0.036869 -0.021286  0.075258      2.000000
  0.073737 -0.042572  0.060206      2.000000
  0.110606 -0.063858  0.045155      2.000000
 -0.073737  0.042572  0.120412      2.000000
 -0.036869  0.021286  0.105361      2.000000
 -0.000000  0.042572  0.075258      2.000000
  0.036869  0.021286  0.060206      2.000000
  0.073737  0.000000  0.045155      2.000000
  0.110606 -0.021286  0.030103      2.000000
 -0.073737  0.085144  0.105361      2.000000
 -0.036869  0.063858  0.090309      2.000000
 -0.000000  0.085144  0.060206      2.000000
  0.036869  0.063858  0.045155      2.000000
  0.073737  0.042572  0.030103      2.000000
  0.110606  0.021286  0.015052      2.000000
 -0.073737  0.127716  0.090309      2.000000
 -0.036869  0.106430  0.075258      2.000000
 -0.000000  0.127716  0.045155      2.000000
  0.036869  0.106430  0.030103      2.000000
  0.073737  0.085144  0.015052      2.000000
  0.110606  0.063858  0.000000      2.000000
 -0.073737  0.170289  0.075258      2.000000
 -0.036869  0.149002  0.060206      2.000000
 -0.000000 -0.085144  0.120412      2.000000
  0.036869 -0.106430  0.105361      2.000000
  0.073737 -0.127716  0.090309      2.000000
  0.110606 -0.149002  0.075258      2.000000
 -0.073737 -0.042572  0.150515      2.000000
 -0.036869 -0.063858  0.135464      2.000000
 -0.000000 -0.042572  0.105361      2.000000
  0.036869 -0.063858  0.090309      2.000000
  0.073737 -0.085144  0.075258      2.000000
  0.110606 -0.106430  0.060206      2.000000
 -0.073737  0.000000  0.135464      2.000000
 -0.036869 -0.021286  0.120412      2.000000
 -0.000000  0.000000  0.135464      1.000000
  0.036869 -0.021286  0.120412      2.000000
  0.073737 -0.042572  0.105361      2.000000
  0.110606 -0.063858  0.090309      1.000000
 -0.000000  0.042572  0.120412      2.000000
  0.036869  0.021286  0.105361      2.000000
  0.073737  0.000000  0.090309      2.000000
  0.110606 -0.021286  0.075258      2.000000
 -0.073737  0.085144  0.150515      2.000000
 -0.036869  0.063858  0.135464      2.000000
 -0.000000  0.085144  0.105361      2.000000
  0.036869  0.063858  0.090309      2.000000
  0.073737  0.042572  0.075258      2.000000
  0.110606  0.021286  0.060206      2.000000
 -0.073737  0.127716  0.135464      2.000000
 -0.036869  0.106430  0.120412      2.000000
 -0.000000  0.127716  0.090309      1.000000
  0.036869  0.106430  0.075258      2.000000
  0.073737  0.085144  0.060206      2.000000
  0.110606  0.063858  0.045155      1.000000
 
 
 Subroutine IBZKPT_HF returns following result:
 ==============================================
 
 Found    216 k-points in 1st BZ
 the following    216 k-points will be used (e.g. in the exchange kernel)
 Following reciprocal coordinates:   # in IRBZ
  0.000000  0.000000  0.000000    0.00462963   1 t-inv F
  0.166667  0.000000  0.000000    0.00462963   2 t-inv F
  0.333333  0.000000  0.000000    0.00462963   3 t-inv F
  0.500000  0.000000  0.000000    0.00462963   4 t-inv F
  0.000000  0.166667  0.000000    0.00462963   5 t-inv F
  0.166667  0.166667  0.000000    0.00462963   6 t-inv F
  0.333333  0.166667  0.000000    0.00462963   7 t-inv F
  0.500000  0.166667  0.000000    0.00462963   8 t-inv F
 -0.333333  0.166667  0.000000    0.00462963   9 t-inv F
 -0.166667  0.166667  0.000000    0.00462963  10 t-inv F
  0.000000  0.333333  0.000000    0.00462963  11 t-inv F
  0.166667  0.333333  0.000000    0.00462963  12 t-inv F
  0.333333  0.333333  0.000000    0.00462963  13 t-inv F
  0.500000  0.333333  0.000000    0.00462963  14 t-inv F
 -0.333333  0.333333 -0.000000    0.00462963  15 t-inv F
 -0.166667  0.333333 -0.000000    0.00462963  16 t-inv F
  0.000000  0.500000  0.000000    0.00462963  17 t-inv F
  0.166667  0.500000  0.000000    0.00462963  18 t-inv F
  0.333333  0.500000  0.000000    0.00462963  19 t-inv F
  0.500000  0.500000 -0.000000    0.00462963  20 t-inv F
 -0.000000 -0.000000  0.166667    0.00462963  21 t-inv F
  0.166667  0.000000  0.166667    0.00462963  22 t-inv F
  0.333333  0.000000  0.166667    0.00462963  23 t-inv F
  0.500000  0.000000  0.166667    0.00462963  24 t-inv F
 -0.333333 -0.000000  0.166667    0.00462963  25 t-inv F
 -0.166667 -0.000000  0.166667    0.00462963  26 t-inv F
  0.000000  0.166667  0.166667    0.00462963  27 t-inv F
  0.166667  0.166667  0.166667    0.00462963  28 t-inv F
  0.333333  0.166667  0.166667    0.00462963  29 t-inv F
  0.500000  0.166667  0.166667    0.00462963  30 t-inv F
 -0.333333  0.166667  0.166667    0.00462963  31 t-inv F
 -0.166667  0.166667  0.166667    0.00462963  32 t-inv F
  0.000000  0.333333  0.166667    0.00462963  33 t-inv F
  0.166667  0.333333  0.166667    0.00462963  34 t-inv F
  0.333333  0.333333  0.166667    0.00462963  35 t-inv F
  0.500000  0.333333  0.166667    0.00462963  36 t-inv F
 -0.333333  0.333333  0.166667    0.00462963  37 t-inv F
 -0.166667  0.333333  0.166667    0.00462963  38 t-inv F
  0.000000  0.500000  0.166667    0.00462963  39 t-inv F
  0.166667  0.500000  0.166667    0.00462963  40 t-inv F
  0.333333  0.500000  0.166667    0.00462963  41 t-inv F
  0.500000  0.500000  0.166667    0.00462963  42 t-inv F
 -0.333333  0.500000  0.166667    0.00462963  43 t-inv F
 -0.166667  0.500000  0.166667    0.00462963  44 t-inv F
 -0.000000 -0.333333  0.166667    0.00462963  45 t-inv F
  0.166667 -0.333333  0.166667    0.00462963  46 t-inv F
  0.333333 -0.333333  0.166667    0.00462963  47 t-inv F
  0.500000 -0.333333  0.166667    0.00462963  48 t-inv F
 -0.333333 -0.333333  0.166667    0.00462963  49 t-inv F
 -0.166667 -0.333333  0.166667    0.00462963  50 t-inv F
 -0.000000 -0.166667  0.166667    0.00462963  51 t-inv F
  0.166667 -0.166667  0.166667    0.00462963  52 t-inv F
  0.333333 -0.166667  0.166667    0.00462963  53 t-inv F
  0.500000 -0.166667  0.166667    0.00462963  54 t-inv F
 -0.333333 -0.166667  0.166667    0.00462963  55 t-inv F
 -0.166667 -0.166667  0.166667    0.00462963  56 t-inv F
  0.000000 -0.000000  0.333333    0.00462963  57 t-inv F
  0.166667  0.000000  0.333333    0.00462963  58 t-inv F
  0.333333  0.000000  0.333333    0.00462963  59 t-inv F
  0.500000  0.000000  0.333333    0.00462963  60 t-inv F
 -0.333333 -0.000000  0.333333    0.00462963  61 t-inv F
 -0.166667 -0.000000  0.333333    0.00462963  62 t-inv F
  0.000000  0.166667  0.333333    0.00462963  63 t-inv F
  0.166667  0.166667  0.333333    0.00462963  64 t-inv F
  0.333333  0.166667  0.333333    0.00462963  65 t-inv F
  0.500000  0.166667  0.333333    0.00462963  66 t-inv F
 -0.333333  0.166667  0.333333    0.00462963  67 t-inv F
 -0.166667  0.166667  0.333333    0.00462963  68 t-inv F
 -0.000000  0.333333  0.333333    0.00462963  69 t-inv F
  0.166667  0.333333  0.333333    0.00462963  70 t-inv F
  0.333333  0.333333  0.333333    0.00462963  71 t-inv F
  0.500000  0.333333  0.333333    0.00462963  72 t-inv F
 -0.333333  0.333333  0.333333    0.00462963  73 t-inv F
 -0.166667  0.333333  0.333333    0.00462963  74 t-inv F
  0.000000  0.500000  0.333333    0.00462963  75 t-inv F
  0.166667  0.500000  0.333333    0.00462963  76 t-inv F
  0.333333  0.500000  0.333333    0.00462963  77 t-inv F
  0.500000  0.500000  0.333333    0.00462963  78 t-inv F
 -0.333333  0.500000  0.333333    0.00462963  79 t-inv F
 -0.166667  0.500000  0.333333    0.00462963  80 t-inv F
 -0.000000 -0.333333  0.333333    0.00462963  81 t-inv F
  0.166667 -0.333333  0.333333    0.00462963  82 t-inv F
  0.333333 -0.333333  0.333333    0.00462963  83 t-inv F
  0.500000 -0.333333  0.333333    0.00462963  84 t-inv F
 -0.333333 -0.333333  0.333333    0.00462963  85 t-inv F
 -0.166667 -0.333333  0.333333    0.00462963  86 t-inv F
 -0.000000 -0.166667  0.333333    0.00462963  87 t-inv F
  0.166667 -0.166667  0.333333    0.00462963  88 t-inv F
  0.333333 -0.166667  0.333333    0.00462963  89 t-inv F
  0.500000 -0.166667  0.333333    0.00462963  90 t-inv F
 -0.333333 -0.166667  0.333333    0.00462963  91 t-inv F
 -0.166667 -0.166667  0.333333    0.00462963  92 t-inv F
 -0.000000 -0.000000  0.500000    0.00462963  93 t-inv F
  0.166667  0.000000  0.500000    0.00462963  94 t-inv F
  0.333333  0.000000  0.500000    0.00462963  95 t-inv F
  0.500000  0.000000  0.500000    0.00462963  96 t-inv F
 -0.000000  0.166667  0.500000    0.00462963  97 t-inv F
  0.166667  0.166667  0.500000    0.00462963  98 t-inv F
  0.333333  0.166667  0.500000    0.00462963  99 t-inv F
  0.500000  0.166667  0.500000    0.00462963 100 t-inv F
 -0.333333  0.166667  0.500000    0.00462963 101 t-inv F
 -0.166667  0.166667  0.500000    0.00462963 102 t-inv F
 -0.000000  0.333333  0.500000    0.00462963 103 t-inv F
  0.166667  0.333333  0.500000    0.00462963 104 t-inv F
  0.333333  0.333333  0.500000    0.00462963 105 t-inv F
  0.500000  0.333333  0.500000    0.00462963 106 t-inv F
 -0.333333  0.333333  0.500000    0.00462963 107 t-inv F
 -0.166667  0.333333  0.500000    0.00462963 108 t-inv F
  0.000000  0.500000  0.500000    0.00462963 109 t-inv F
  0.166667  0.500000  0.500000    0.00462963 110 t-inv F
  0.333333  0.500000  0.500000    0.00462963 111 t-inv F
  0.500000  0.500000  0.500000    0.00462963 112 t-inv F
 -0.166667 -0.000000 -0.000000    0.00462963   2 t-inv T
 -0.333333 -0.000000 -0.000000    0.00462963   3 t-inv T
 -0.000000 -0.166667 -0.000000    0.00462963   5 t-inv T
 -0.166667 -0.166667 -0.000000    0.00462963   6 t-inv T
 -0.333333 -0.166667 -0.000000    0.00462963   7 t-inv T
 -0.500000 -0.166667  0.000000    0.00462963   8 t-inv T
  0.333333 -0.166667  0.000000    0.00462963   9 t-inv T
  0.166667 -0.166667 -0.000000    0.00462963  10 t-inv T
 -0.000000 -0.333333  0.000000    0.00462963  11 t-inv T
 -0.166667 -0.333333  0.000000    0.00462963  12 t-inv T
 -0.333333 -0.333333 -0.000000    0.00462963  13 t-inv T
 -0.500000 -0.333333 -0.000000    0.00462963  14 t-inv T
  0.333333 -0.333333  0.000000    0.00462963  15 t-inv T
  0.166667 -0.333333  0.000000    0.00462963  16 t-inv T
 -0.166667 -0.500000 -0.000000    0.00462963  18 t-inv T
 -0.333333 -0.500000  0.000000    0.00462963  19 t-inv T
  0.000000  0.000000 -0.166667    0.00462963  21 t-inv T
 -0.166667 -0.000000 -0.166667    0.00462963  22 t-inv T
 -0.333333 -0.000000 -0.166667    0.00462963  23 t-inv T
 -0.500000 -0.000000 -0.166667    0.00462963  24 t-inv T
  0.333333  0.000000 -0.166667    0.00462963  25 t-inv T
  0.166667  0.000000 -0.166667    0.00462963  26 t-inv T
  0.000000 -0.166667 -0.166667    0.00462963  27 t-inv T
 -0.166667 -0.166667 -0.166667    0.00462963  28 t-inv T
 -0.333333 -0.166667 -0.166667    0.00462963  29 t-inv T
 -0.500000 -0.166667 -0.166667    0.00462963  30 t-inv T
  0.333333 -0.166667 -0.166667    0.00462963  31 t-inv T
  0.166667 -0.166667 -0.166667    0.00462963  32 t-inv T
  0.000000 -0.333333 -0.166667    0.00462963  33 t-inv T
 -0.166667 -0.333333 -0.166667    0.00462963  34 t-inv T
 -0.333333 -0.333333 -0.166667    0.00462963  35 t-inv T
 -0.500000 -0.333333 -0.166667    0.00462963  36 t-inv T
  0.333333 -0.333333 -0.166667    0.00462963  37 t-inv T
  0.166667 -0.333333 -0.166667    0.00462963  38 t-inv T
 -0.000000 -0.500000 -0.166667    0.00462963  39 t-inv T
 -0.166667 -0.500000 -0.166667    0.00462963  40 t-inv T
 -0.333333 -0.500000 -0.166667    0.00462963  41 t-inv T
 -0.500000 -0.500000 -0.166667    0.00462963  42 t-inv T
  0.333333 -0.500000 -0.166667    0.00462963  43 t-inv T
  0.166667 -0.500000 -0.166667    0.00462963  44 t-inv T
  0.000000  0.333333 -0.166667    0.00462963  45 t-inv T
 -0.166667  0.333333 -0.166667    0.00462963  46 t-inv T
 -0.333333  0.333333 -0.166667    0.00462963  47 t-inv T
 -0.500000  0.333333 -0.166667    0.00462963  48 t-inv T
  0.333333  0.333333 -0.166667    0.00462963  49 t-inv T
  0.166667  0.333333 -0.166667    0.00462963  50 t-inv T
  0.000000  0.166667 -0.166667    0.00462963  51 t-inv T
 -0.166667  0.166667 -0.166667    0.00462963  52 t-inv T
 -0.333333  0.166667 -0.166667    0.00462963  53 t-inv T
 -0.500000  0.166667 -0.166667    0.00462963  54 t-inv T
  0.333333  0.166667 -0.166667    0.00462963  55 t-inv T
  0.166667  0.166667 -0.166667    0.00462963  56 t-inv T
  0.000000  0.000000 -0.333333    0.00462963  57 t-inv T
 -0.166667 -0.000000 -0.333333    0.00462963  58 t-inv T
 -0.333333 -0.000000 -0.333333    0.00462963  59 t-inv T
 -0.500000 -0.000000 -0.333333    0.00462963  60 t-inv T
  0.333333  0.000000 -0.333333    0.00462963  61 t-inv T
  0.166667  0.000000 -0.333333    0.00462963  62 t-inv T
  0.000000 -0.166667 -0.333333    0.00462963  63 t-inv T
 -0.166667 -0.166667 -0.333333    0.00462963  64 t-inv T
 -0.333333 -0.166667 -0.333333    0.00462963  65 t-inv T
 -0.500000 -0.166667 -0.333333    0.00462963  66 t-inv T
  0.333333 -0.166667 -0.333333    0.00462963  67 t-inv T
  0.166667 -0.166667 -0.333333    0.00462963  68 t-inv T
  0.000000 -0.333333 -0.333333    0.00462963  69 t-inv T
 -0.166667 -0.333333 -0.333333    0.00462963  70 t-inv T
 -0.333333 -0.333333 -0.333333    0.00462963  71 t-inv T
 -0.500000 -0.333333 -0.333333    0.00462963  72 t-inv T
  0.333333 -0.333333 -0.333333    0.00462963  73 t-inv T
  0.166667 -0.333333 -0.333333    0.00462963  74 t-inv T
  0.000000 -0.500000 -0.333333    0.00462963  75 t-inv T
 -0.166667 -0.500000 -0.333333    0.00462963  76 t-inv T
 -0.333333 -0.500000 -0.333333    0.00462963  77 t-inv T
 -0.500000 -0.500000 -0.333333    0.00462963  78 t-inv T
  0.333333 -0.500000 -0.333333    0.00462963  79 t-inv T
  0.166667 -0.500000 -0.333333    0.00462963  80 t-inv T
  0.000000  0.333333 -0.333333    0.00462963  81 t-inv T
 -0.166667  0.333333 -0.333333    0.00462963  82 t-inv T
 -0.333333  0.333333 -0.333333    0.00462963  83 t-inv T
 -0.500000  0.333333 -0.333333    0.00462963  84 t-inv T
  0.333333  0.333333 -0.333333    0.00462963  85 t-inv T
  0.166667  0.333333 -0.333333    0.00462963  86 t-inv T
  0.000000  0.166667 -0.333333    0.00462963  87 t-inv T
 -0.166667  0.166667 -0.333333    0.00462963  88 t-inv T
 -0.333333  0.166667 -0.333333    0.00462963  89 t-inv T
 -0.500000  0.166667 -0.333333    0.00462963  90 t-inv T
  0.333333  0.166667 -0.333333    0.00462963  91 t-inv T
  0.166667  0.166667 -0.333333    0.00462963  92 t-inv T
 -0.166667 -0.000000 -0.500000    0.00462963  94 t-inv T
 -0.333333 -0.000000 -0.500000    0.00462963  95 t-inv T
  0.000000 -0.166667 -0.500000    0.00462963  97 t-inv T
 -0.166667 -0.166667 -0.500000    0.00462963  98 t-inv T
 -0.333333 -0.166667 -0.500000    0.00462963  99 t-inv T
 -0.500000 -0.166667 -0.500000    0.00462963 100 t-inv T
  0.333333 -0.166667 -0.500000    0.00462963 101 t-inv T
  0.166667 -0.166667 -0.500000    0.00462963 102 t-inv T
  0.000000 -0.333333 -0.500000    0.00462963 103 t-inv T
 -0.166667 -0.333333 -0.500000    0.00462963 104 t-inv T
 -0.333333 -0.333333 -0.500000    0.00462963 105 t-inv T
 -0.500000 -0.333333 -0.500000    0.00462963 106 t-inv T
  0.333333 -0.333333 -0.500000    0.00462963 107 t-inv T
  0.166667 -0.333333 -0.500000    0.00462963 108 t-inv T
 -0.166667 -0.500000 -0.500000    0.00462963 110 t-inv T
 -0.333333 -0.500000 -0.500000    0.00462963 111 t-inv T


--------------------------------------------------------------------------------------------------------




 Dimension of arrays:
   k-points           NKPTS =    112   k-points in BZ     NKDIM =    216   number of bands    NBANDS=    128
   number of dos      NEDOS =    301   number of ions     NIONS =      1
   non local maximal  LDIM  =      9   non local SUM 2l+1 LMDIM =     37
   total plane-waves  NPLWV =  21952
   max r-space proj   IRMAX =      1   max aug-charges    IRDMAX= 103641
   dimension x,y,z NGX =    28 NGY =   28 NGZ =   28
   dimension x,y,z NGXF=    56 NGYF=   56 NGZF=   56
   support grid    NGXF=   112 NGYF=  112 NGZF=  112
   ions per type =               1
   NGX,Y,Z   is equivalent  to a cutoff of  10.30, 10.30, 10.30 a.u.
   NGXF,Y,Z  is equivalent  to a cutoff of  20.59, 20.59, 20.59 a.u.

 SYSTEM =  Og_FCC                                  
 POSCAR =  Rn_FCC                                  

 Startparameter for this run:
   NWRITE =      1    write-flag & timer
   PREC   = accura    normal or accurate (medium, high low for compatibility)
   ISTART =      1    job   : 0-new  1-cont  2-samecut
   ICHARG =      0    charge: 1-file 2-atom 10-const
   ISPIN  =      1    spin polarized calculation?
   LNONCOLLINEAR =      F non collinear calculations
   LSORBIT =      F    spin-orbit coupling
   INIWAV =      1    electr: 0-lowe 1-rand  2-diag
   LASPH  =      F    aspherical Exc in radial PAW
   METAGGA=      F    non-selfconsistent MetaGGA calc.

 Electronic Relaxation 1
   ENCUT  =  300.0 eV  22.05 Ry    4.70 a.u.   6.38  6.38  6.38*2*pi/ulx,y,z
   ENINI  =  300.0     initial cutoff
   ENAUG  =  715.6 eV  augmentation charge cutoff
   NELM   =      1;   NELMIN=  2; NELMDL=  0     # of ELM steps 
   EDIFF  = 0.1E-07   stopping-criterion for ELM
   LREAL  =      F    real-space projection
   NLSPLINE    = F    spline interpolate recip. space projectors
   LCOMPAT=      F    compatible to vasp.4.4
   GGA_COMPAT  = F    GGA compatible to vasp.4.4-vasp.4.6
   LMAXPAW     = -100 max onsite density
   LMAXMIX     =    2 max onsite mixed and CHGCAR
   VOSKOWN=      0    Vosko Wilk Nusair interpolation
   ROPT   =    0.00000
 Ionic relaxation
   EDIFFG = 0.1E-04   stopping-criterion for IOM
   NSW    =      1    number of steps for IOM
   NBLOCK =      1;   KBLOCK =      1    inner block; outer block 
   IBRION =     -1    ionic relax: 0-MD 1-quasi-New 2-CG
   NFREE  =      5    steps in history (QN), initial steepest desc. (CG)
   ISIF   =      3    stress and relaxation
   IWAVPR =     10    prediction:  0-non 1-charg 2-wave 3-comb
   ISYM   =      0    0-nonsym 1-usesym 2-fastsym
   LCORR  =      T    Harris-Foulkes like correction to forces

   POTIM  = 0.1000    time-step for ionic-motion
   TEIN   =    0.0    initial temperature
   TEBEG  =    0.0;   TEEND  =   0.0 temperature during run
   SMASS  =  -3.00    Nose mass-parameter (am)
   estimated Nose-frequenzy (Omega)   =  0.10E-29 period in steps =****** mass=  -0.467E-27a.u.
   SCALEE = 1.0000    scale energy and forces
   NPACO  =    256;   APACO  = 16.0  distance and # of slots for P.C.
   PSTRESS=    0.0 pullay stress

  Mass of Ions in am
   POMASS = 220.17
  Ionic Valenz
   ZVAL   =  18.00
  Atomic Wigner-Seitz radii
   RWIGS  =  -1.00
  virtual crystal weights 
   VCA    =   1.00
   NELECT =      18.0000    total number of electrons
   NUPDOWN=      -1.0000    fix difference up-down

 DOS related values:
   EMIN   =  10.00;   EMAX   =-10.00  energy-range for DOS
   EFERMI =   0.00
   ISMEAR =     0;   SIGMA  =   0.00  broadening in eV -4-tet -1-fermi 0-gaus

 Electronic relaxation 2 (details)
   IALGO  =     38    algorithm
   LDIAG  =      T    sub-space diagonalisation (order eigenvalues)
   LSUBROT=      F    optimize rotation matrix (better conditioning)
   TURBO    =      0    0=normal 1=particle mesh
   IRESTART =      0    0=no restart 2=restart with 2 vectors
   NREBOOT  =      0    no. of reboots
   NMIN     =      0    reboot dimension
   EREF     =   0.00    reference energy to select bands
   IMIX   =      1    mixing-type and parameters
     AMIX     =   0.40;   BMIX     =  1.00
     AMIX_MAG =   1.60;   BMIX_MAG =  1.00
     AMIN     =   0.10
     WC   =   100.;   INIMIX=   1;  MIXPRE=   1;  MAXMIX=  50

 Intra band minimization:
   WEIMIN = 0.0000     energy-eigenvalue tresh-hold
   EBREAK =  0.20E-10  absolut break condition
   DEPER  =   0.30     relativ break condition  

   TIME   =   0.40     timestep for ELM

  volume/ion in A,a.u.               =      65.32       440.82
  Fermi-wavevector in a.u.,A,eV,Ry     =   1.065315  2.013153 15.441193  1.134896
  Thomas-Fermi vector in A             =   2.200862
 
 Write flags
   LWAVE        =      T    write WAVECAR
   LDOWNSAMPLE  =      F    k-point downsampling of WAVECAR
   LCHARG       =      F    write CHGCAR
   LVTOT        =      F    write LOCPOT, total local potential
   LVHAR        =      F    write LOCPOT, Hartree potential only
   LELF         =      F    write electronic localiz. function (ELF)
   LORBIT       =      0    0 simple, 1 ext, 2 COOP (PROOUT), +10 PAW based schemes


 Dipole corrections
   LMONO  =      F    monopole corrections only (constant potential shift)
   LDIPOL =      F    correct potential (dipole corrections)
   IDIPOL =      0    1-x, 2-y, 3-z, 4-all directions 
   EPSILON=  1.0000000 bulk dielectric constant

 Exchange correlation treatment:
   GGA     =    PE    GGA type
   LEXCH   =     8    internal setting for exchange type
   VOSKOWN=      0    Vosko Wilk Nusair interpolation
   EXXOEP  =     0    0=HF, 1=EXX-LHF (local Hartree Fock) 2=EXX OEP
   LHFCALC =     T    Hartree Fock is set to
   LSYMGRAD=     F    symmetrize gradient (conserves proper symmetry)
   PRECFOCK=normal    Normal, Fast or Accurate (Low or Medium for compatibility)
   LRHFCALC=     F    long range Hartree Fock
   LRSCOR  =     F    long range correlation only (use DFT for short range part)
   LTHOMAS =     F    Thomas Fermi screening in HF
   LMODELHF=     F    short range full HF, long range fraction AEXX
   ENCUT4O =  -1.0   cutoff for four orbital integrals eV
   LMAXFOCK=     4    L truncation for augmentation on plane wave grid
   LMAXFOCKAE=   4    L truncation for all-electron charge restoration on plane wave grid
   NMAXFOCKAE=   1    number of basis functions for all-electron charge restoration
   LFOCKAEDFT=     F  apply the AE augmentation even for DFT
   NKREDX  =     1    reduce k-point grid by
   NKREDY  =     1    reduce k-point grid by
   NKREDZ  =     1    reduce k-point grid by
   SHIFTRED=     F    shift reduced grid of Gamma
   HFKIDENT=     F    idential grid for each k-point
   ODDONLY =     F    use only odd q-grid points
   EVENONLY=     F    use only even q-grid points
   HFALPHA =   -1.0000 decay constant for conv. correction
   MCALPHA =    0.0000 extent of test-charge in conv. correction in multipole expansion
   AEXX    =    1.0000 exact exchange contribution
   HFSCREEN=    0.0000 screening length (either q_TF or 0.3 A-1)
   HFSCREENC=   0.0000 screening length for correlation (either q_TF or 0.3 A-1)
   HFRCUT  =    0.0000 spherical cutoff for potential kernel
   ALDAX   =    0.0000 LDA exchange part
   AGGAX   =    0.0000 GGA exchange part
   ALDAC   =    0.0000 LDA correlation
   AGGAC   =    0.0000 GGA correlation
   ENCUTFOCK=  -1.0 apply spherical cutoff to Coloumb kernel
   NBANDSGWLOW=     1    first orbital included in HF term
   NBLOCK_FOCK=    64    blocking factor in FOCK_ACC
 Linear response parameters
   LEPSILON=     F    determine dielectric tensor
   LRPA    =     F    only Hartree local field effects (RPA)
   LNABLA  =     F    use nabla operator in PAW spheres
   LVEL    =     F    velocity operator in full k-point grid
   LINTERFAST=   F  fast interpolation
   KINTER  =     0    interpolate to denser k-point grid
   CSHIFT  =0.1000    complex shift for real part using Kramers Kronig
   OMEGAMAX=  -1.0    maximum frequency
   DEG_THRESHOLD= 0.2000000E-02 threshold for treating states as degnerate
   RTIME   =   -0.100 relaxation time in fs
  (WPLASMAI=    0.000 imaginary part of plasma frequency in eV, 0.658/RTIME)
   DFIELD  = 0.0000000 0.0000000 0.0000000 field for delta impulse in time
 
 Orbital magnetization related:
   ORBITALMAG=     F  switch on orbital magnetization
   LCHIMAG   =     F  perturbation theory with respect to B field
   DQ        =  0.001000  dq finite difference perturbation B field
   LLRAUG    =     F  two centre corrections for induced B field

 Response functions by sum over occupied states:
   ALGO    =QPGW       execute GW part
   LFXC    =     F    include DFT xc kernel in TD-HF and W
   LADDER  =     F    particle hole ladder diagrams for BSE/TD-HF and W (Nano-quanta)
   LRPAFORCE=     F   calculate RPA forces
   LHARTREE=     T    include Hartree terms (bubbles-RPA) in BSE/TD-HF
   IBSE    =     0    BSE modus: 0 exact, 1 time-evolution (store matrix), 10 time-evolution (implicit)
   KPOINT  =    -1   0   0   0    k-point index at which BSE equation is solved (and G at which response is eval.)
   LTRIPLET=     F    triplet instead of singlet excitation (BSE only)
   LRSRPA  =     F    range separated RPA (total - short) in ACFDT
   LTCTE   =     F    use test-charge test-electron dielectric function
   LTETE   =     F    use test-electron test-electron dielectric function
   LFXCEPS =     F    determine f_xc=epsilon-1/Xi Sharma and Gross kernel
   LFXHEG  =     F    model exchange using f_x(G,k_F) from free electron gas
   NATURALO=     2    0 natural orbitals, 1 only virtual, 2 only occupied-virtual rotation
   L2ORDER =     F    2nd order terms only
   LMP2LT   =     F    use LT MP2
   LUSEW   =     F    use screened W from WXXXX.tmp files instead of (screened) HF kernel
   ENCUTGW = 200.0    cutoff for response function in eV
   ENCUTGWSOFT = 200.0 soft cutoff for Coulomb kernel in GW response function in eV
   ENCUTLF =  -1.0    cutoff for local field effects
   LMAXMP2 =    -1    maximum L for one center terms
   SCISSOR =   0.0    scissor correction
   NOMEGA  =    50    number of frequencies
   NOMEGAR =    50    number of frequencies along real axis
   NBANDSGW=    -1    number of bands for which selfenergy shift is calculated
   NBANDSGWLOW=     1 lowest band included in GW (to exclude core correlation)
   NBANDSO =    -1    number of bands for electron-hole treatment (occupied)
   NBANDSV =    -1    number of bands for electron-hole treatment (virtual)
   NELM    =     1    number of iterations in solving QP/BSE equation
   NELMHF  =     1    number of iterations in the inner HF iteration
   DIM     =     3    dimensionality of system (0=0D molecules, 3=3D)
   ANTIRES =     0    antiresonant part (0) no TDA (1) w=0 exact (2) accurate
   OMEGAMAX= -30.0    maximum frequency
   OMEGAMIN= -30.000    minimum frequency
   OMEGATL =-200.0    maximum frequency of tail
   OMEGAGRID=     0    grid type (0 default)
   CSHIFT  =-0.100    complex shift used in evaluation of response functions
   SELFENERGY=   F    calculate selfenergy instead of QP shifts
   LSPECTRAL =   T    use spectral functions                   
   LSPECTRALGW=   F   use spectral functions to calculate int dz G(w-z) W(z) (more accurate)
   LSINGLES  =   F   calculate the singles contribution to the correlation energy
   LFERMIGW  =   F   update Fermi-energy in the Greens function

   ODDONLYGW =   F    avoid all even points for polarizability 
   EVENONLYGW=   F    avoid all odd  points for polarizability 
   NKREDLFX  =   1   NKREDLFY  =   1   NKREDLFZ  =   1

   TELESCOPE =   0   use telescope k-point sampling
   TAUPAR    =   1   number of TAU groups used in imaginary time calculation
   OMEGAPAR  =  -1   number of OMEGA groups used in imaginary frequency calculation



--------------------------------------------------------------------------------------------------------


 Static calculation
 charge density and potential will be updated during run
 non-spin polarized calculation
 Variant of blocked Davidson
 Davidson routine will perform the subspace rotation
 perform sub-space diagonalisation
    after iterative eigenvector-optimisation
 Kerker-like  mixing scheme
 using additional bands          119
 reciprocal scheme for non local part
 use partial core corrections
 calculate Harris-corrections to forces 
   (improved forces if not selfconsistent)
 use gradient corrections 
 use of overlap-Matrix (Vanderbilt PP)
 Gauss-broadening in eV      SIGMA  =   0.00


--------------------------------------------------------------------------------------------------------


  energy-cutoff  :      300.00
  volume of cell :       65.32
      direct lattice vectors                 reciprocal lattice vectors
     4.520564769  0.000000000  0.000000000     0.221211298 -0.127716402 -0.090309134
     2.260282385  3.914923930 -0.000000000     0.000000000  0.255432805 -0.090309134
     2.260282385  1.304974643  3.691025678    -0.000000000  0.000000000  0.270927403

  length of vectors
     4.520564769  4.520564769  4.520564769     0.270927403  0.270927403  0.270927403


 
 old parameters found on file WAVECAR:
  energy-cutoff  :      300.00
  volume of cell :       65.32
      direct lattice vectors                 reciprocal lattice vectors
     4.520564769  0.000000000  0.000000000     0.221211298 -0.127716402 -0.090309134
     2.260282385  3.914923930 -0.000000000     0.000000000  0.255432805 -0.090309134
     2.260282385  1.304974643  3.691025678    -0.000000000  0.000000000  0.270927403

  length of vectors

 
 k-points in units of 2pi/SCALE and weight: k-points                                
   0.00000000  0.00000000  0.00000000       0.005
   0.03686855 -0.02128607 -0.01505152       0.009
   0.07373710 -0.04257213 -0.03010304       0.009
   0.11060565 -0.06385820 -0.04515457       0.005
   0.00000000  0.04257213 -0.01505152       0.009
   0.03686855  0.02128607 -0.03010304       0.009
   0.07373710  0.00000000 -0.04515457       0.009
   0.11060565 -0.02128607 -0.06020609       0.009
  -0.07373710  0.08514427  0.01505152       0.009
  -0.03686855  0.06385820  0.00000000       0.009
   0.00000000  0.08514427 -0.03010304       0.009
   0.03686855  0.06385820 -0.04515457       0.009
   0.07373710  0.04257213 -0.06020609       0.009
   0.11060565  0.02128607 -0.07525761       0.009
  -0.07373710  0.12771640  0.00000000       0.009
  -0.03686855  0.10643034 -0.01505152       0.009
   0.00000000  0.12771640 -0.04515457       0.005
   0.03686855  0.10643034 -0.06020609       0.009
   0.07373710  0.08514427 -0.07525761       0.009
   0.11060565  0.06385820 -0.09030913       0.005
  -0.00000000  0.00000000  0.04515457       0.009
   0.03686855 -0.02128607  0.03010304       0.009
   0.07373710 -0.04257213  0.01505152       0.009
   0.11060565 -0.06385820 -0.00000000       0.009
  -0.07373710  0.04257213  0.07525761       0.009
  -0.03686855  0.02128607  0.06020609       0.009
  -0.00000000  0.04257213  0.03010304       0.009
   0.03686855  0.02128607  0.01505152       0.009
   0.07373710  0.00000000  0.00000000       0.009
   0.11060565 -0.02128607 -0.01505152       0.009
  -0.07373710  0.08514427  0.06020609       0.009
  -0.03686855  0.06385820  0.04515457       0.009
  -0.00000000  0.08514427  0.01505152       0.009
   0.03686855  0.06385820  0.00000000       0.009
   0.07373710  0.04257213 -0.01505152       0.009
   0.11060565  0.02128607 -0.03010304       0.009
  -0.07373710  0.12771640  0.04515457       0.009
  -0.03686855  0.10643034  0.03010304       0.009
  -0.00000000  0.12771640  0.00000000       0.009
   0.03686855  0.10643034 -0.01505152       0.009
   0.07373710  0.08514427 -0.03010304       0.009
   0.11060565  0.06385820 -0.04515457       0.009
  -0.07373710  0.17028854  0.03010304       0.009
  -0.03686855  0.14900247  0.01505152       0.009
  -0.00000000 -0.08514427  0.07525761       0.009
   0.03686855 -0.10643034  0.06020609       0.009
   0.07373710 -0.12771640  0.04515457       0.009
   0.11060565 -0.14900247  0.03010304       0.009
  -0.07373710 -0.04257213  0.10536066       0.009
  -0.03686855 -0.06385820  0.09030913       0.009
  -0.00000000 -0.04257213  0.06020609       0.009
   0.03686855 -0.06385820  0.04515457       0.009
   0.07373710 -0.08514427  0.03010304       0.009
   0.11060565 -0.10643034  0.01505152       0.009
  -0.07373710  0.00000000  0.09030913       0.009
  -0.03686855 -0.02128607  0.07525761       0.009
  -0.00000000  0.00000000  0.09030913       0.009
   0.03686855 -0.02128607  0.07525761       0.009
   0.07373710 -0.04257213  0.06020609       0.009
   0.11060565 -0.06385820  0.04515457       0.009
  -0.07373710  0.04257213  0.12041218       0.009
  -0.03686855  0.02128607  0.10536066       0.009
  -0.00000000  0.04257213  0.07525761       0.009
   0.03686855  0.02128607  0.06020609       0.009
   0.07373710  0.00000000  0.04515457       0.009
   0.11060565 -0.02128607  0.03010304       0.009
  -0.07373710  0.08514427  0.10536066       0.009
  -0.03686855  0.06385820  0.09030913       0.009
  -0.00000000  0.08514427  0.06020609       0.009
   0.03686855  0.06385820  0.04515457       0.009
   0.07373710  0.04257213  0.03010304       0.009
   0.11060565  0.02128607  0.01505152       0.009
  -0.07373710  0.12771640  0.09030913       0.009
  -0.03686855  0.10643034  0.07525761       0.009
  -0.00000000  0.12771640  0.04515457       0.009
   0.03686855  0.10643034  0.03010304       0.009
   0.07373710  0.08514427  0.01505152       0.009
   0.11060565  0.06385820  0.00000000       0.009
  -0.07373710  0.17028854  0.07525761       0.009
  -0.03686855  0.14900247  0.06020609       0.009
  -0.00000000 -0.08514427  0.12041218       0.009
   0.03686855 -0.10643034  0.10536066       0.009
   0.07373710 -0.12771640  0.09030913       0.009
   0.11060565 -0.14900247  0.07525761       0.009
  -0.07373710 -0.04257213  0.15051522       0.009
  -0.03686855 -0.06385820  0.13546370       0.009
  -0.00000000 -0.04257213  0.10536066       0.009
   0.03686855 -0.06385820  0.09030913       0.009
   0.07373710 -0.08514427  0.07525761       0.009
   0.11060565 -0.10643034  0.06020609       0.009
  -0.07373710  0.00000000  0.13546370       0.009
  -0.03686855 -0.02128607  0.12041218       0.009
  -0.00000000  0.00000000  0.13546370       0.005
   0.03686855 -0.02128607  0.12041218       0.009
   0.07373710 -0.04257213  0.10536066       0.009
   0.11060565 -0.06385820  0.09030913       0.005
  -0.00000000  0.04257213  0.12041218       0.009
   0.03686855  0.02128607  0.10536066       0.009
   0.07373710  0.00000000  0.09030913       0.009
   0.11060565 -0.02128607  0.07525761       0.009
  -0.07373710  0.08514427  0.15051522       0.009
  -0.03686855  0.06385820  0.13546370       0.009
  -0.00000000  0.08514427  0.10536066       0.009
   0.03686855  0.06385820  0.09030913       0.009
   0.07373710  0.04257213  0.07525761       0.009
   0.11060565  0.02128607  0.06020609       0.009
  -0.07373710  0.12771640  0.13546370       0.009
  -0.03686855  0.10643034  0.12041218       0.009
  -0.00000000  0.12771640  0.09030913       0.005
   0.03686855  0.10643034  0.07525761       0.009
   0.07373710  0.08514427  0.06020609       0.009
   0.11060565  0.06385820  0.04515457       0.005
 
 k-points in reciprocal lattice and weights: k-points                                
   0.00000000  0.00000000  0.00000000       0.005
   0.16666667  0.00000000  0.00000000       0.009
   0.33333333  0.00000000  0.00000000       0.009
   0.50000000  0.00000000  0.00000000       0.005
   0.00000000  0.16666667  0.00000000       0.009
   0.16666667  0.16666667  0.00000000       0.009
   0.33333333  0.16666667  0.00000000       0.009
   0.50000000  0.16666667  0.00000000       0.009
  -0.33333333  0.16666667  0.00000000       0.009
  -0.16666667  0.16666667  0.00000000       0.009
   0.00000000  0.33333333  0.00000000       0.009
   0.16666667  0.33333333  0.00000000       0.009
   0.33333333  0.33333333  0.00000000       0.009
   0.50000000  0.33333333  0.00000000       0.009
  -0.33333333  0.33333333 -0.00000000       0.009
  -0.16666667  0.33333333 -0.00000000       0.009
   0.00000000  0.50000000  0.00000000       0.005
   0.16666667  0.50000000  0.00000000       0.009
   0.33333333  0.50000000  0.00000000       0.009
   0.50000000  0.50000000 -0.00000000       0.005
  -0.00000000 -0.00000000  0.16666667       0.009
   0.16666667  0.00000000  0.16666667       0.009
   0.33333333  0.00000000  0.16666667       0.009
   0.50000000  0.00000000  0.16666667       0.009
  -0.33333333 -0.00000000  0.16666667       0.009
  -0.16666667 -0.00000000  0.16666667       0.009
   0.00000000  0.16666667  0.16666667       0.009
   0.16666667  0.16666667  0.16666667       0.009
   0.33333333  0.16666667  0.16666667       0.009
   0.50000000  0.16666667  0.16666667       0.009
  -0.33333333  0.16666667  0.16666667       0.009
  -0.16666667  0.16666667  0.16666667       0.009
   0.00000000  0.33333333  0.16666667       0.009
   0.16666667  0.33333333  0.16666667       0.009
   0.33333333  0.33333333  0.16666667       0.009
   0.50000000  0.33333333  0.16666667       0.009
  -0.33333333  0.33333333  0.16666667       0.009
  -0.16666667  0.33333333  0.16666667       0.009
   0.00000000  0.50000000  0.16666667       0.009
   0.16666667  0.50000000  0.16666667       0.009
   0.33333333  0.50000000  0.16666667       0.009
   0.50000000  0.50000000  0.16666667       0.009
  -0.33333333  0.50000000  0.16666667       0.009
  -0.16666667  0.50000000  0.16666667       0.009
  -0.00000000 -0.33333333  0.16666667       0.009
   0.16666667 -0.33333333  0.16666667       0.009
   0.33333333 -0.33333333  0.16666667       0.009
   0.50000000 -0.33333333  0.16666667       0.009
  -0.33333333 -0.33333333  0.16666667       0.009
  -0.16666667 -0.33333333  0.16666667       0.009
  -0.00000000 -0.16666667  0.16666667       0.009
   0.16666667 -0.16666667  0.16666667       0.009
   0.33333333 -0.16666667  0.16666667       0.009
   0.50000000 -0.16666667  0.16666667       0.009
  -0.33333333 -0.16666667  0.16666667       0.009
  -0.16666667 -0.16666667  0.16666667       0.009
   0.00000000 -0.00000000  0.33333333       0.009
   0.16666667  0.00000000  0.33333333       0.009
   0.33333333  0.00000000  0.33333333       0.009
   0.50000000  0.00000000  0.33333333       0.009
  -0.33333333 -0.00000000  0.33333333       0.009
  -0.16666667 -0.00000000  0.33333333       0.009
   0.00000000  0.16666667  0.33333333       0.009
   0.16666667  0.16666667  0.33333333       0.009
   0.33333333  0.16666667  0.33333333       0.009
   0.50000000  0.16666667  0.33333333       0.009
  -0.33333333  0.16666667  0.33333333       0.009
  -0.16666667  0.16666667  0.33333333       0.009
  -0.00000000  0.33333333  0.33333333       0.009
   0.16666667  0.33333333  0.33333333       0.009
   0.33333333  0.33333333  0.33333333       0.009
   0.50000000  0.33333333  0.33333333       0.009
  -0.33333333  0.33333333  0.33333333       0.009
  -0.16666667  0.33333333  0.33333333       0.009
   0.00000000  0.50000000  0.33333333       0.009
   0.16666667  0.50000000  0.33333333       0.009
   0.33333333  0.50000000  0.33333333       0.009
   0.50000000  0.50000000  0.33333333       0.009
  -0.33333333  0.50000000  0.33333333       0.009
  -0.16666667  0.50000000  0.33333333       0.009
  -0.00000000 -0.33333333  0.33333333       0.009
   0.16666667 -0.33333333  0.33333333       0.009
   0.33333333 -0.33333333  0.33333333       0.009
   0.50000000 -0.33333333  0.33333333       0.009
  -0.33333333 -0.33333333  0.33333333       0.009
  -0.16666667 -0.33333333  0.33333333       0.009
  -0.00000000 -0.16666667  0.33333333       0.009
   0.16666667 -0.16666667  0.33333333       0.009
   0.33333333 -0.16666667  0.33333333       0.009
   0.50000000 -0.16666667  0.33333333       0.009
  -0.33333333 -0.16666667  0.33333333       0.009
  -0.16666667 -0.16666667  0.33333333       0.009
  -0.00000000 -0.00000000  0.50000000       0.005
   0.16666667  0.00000000  0.50000000       0.009
   0.33333333  0.00000000  0.50000000       0.009
   0.50000000  0.00000000  0.50000000       0.005
  -0.00000000  0.16666667  0.50000000       0.009
   0.16666667  0.16666667  0.50000000       0.009
   0.33333333  0.16666667  0.50000000       0.009
   0.50000000  0.16666667  0.50000000       0.009
  -0.33333333  0.16666667  0.50000000       0.009
  -0.16666667  0.16666667  0.50000000       0.009
  -0.00000000  0.33333333  0.50000000       0.009
   0.16666667  0.33333333  0.50000000       0.009
   0.33333333  0.33333333  0.50000000       0.009
   0.50000000  0.33333333  0.50000000       0.009
  -0.33333333  0.33333333  0.50000000       0.009
  -0.16666667  0.33333333  0.50000000       0.009
   0.00000000  0.50000000  0.50000000       0.005
   0.16666667  0.50000000  0.50000000       0.009
   0.33333333  0.50000000  0.50000000       0.009
   0.50000000  0.50000000  0.50000000       0.005
 
 position of ions in fractional coordinates (direct lattice) 
   0.00000000  0.00000000  0.00000000
 
 position of ions in cartesian coordinates  (Angst):
   0.00000000  0.00000000  0.00000000
 


--------------------------------------------------------------------------------------------------------


 k-point  1 :   0.0000 0.0000 0.0000  plane waves:     749
 k-point  2 :   0.1667 0.0000 0.0000  plane waves:     785
 k-point  3 :   0.3333 0.0000 0.0000  plane waves:     769
 k-point  4 :   0.5000 0.0000 0.0000  plane waves:     778
 k-point  5 :   0.0000 0.1667 0.0000  plane waves:     785
 k-point  6 :   0.1667 0.1667 0.0000  plane waves:     785
 k-point  7 :   0.3333 0.1667 0.0000  plane waves:     773
 k-point  8 :   0.5000 0.1667 0.0000  plane waves:     772
 k-point  9 :  -0.3333 0.1667 0.0000  plane waves:     773
 k-point 10 :  -0.1667 0.1667 0.0000  plane waves:     767
 k-point 11 :   0.0000 0.3333 0.0000  plane waves:     769
 k-point 12 :   0.1667 0.3333 0.0000  plane waves:     773
 k-point 13 :   0.3333 0.3333 0.0000  plane waves:     769
 k-point 14 :   0.5000 0.3333 0.0000  plane waves:     769
 k-point 15 :  -0.3333 0.3333-0.0000  plane waves:     776
 k-point 16 :  -0.1667 0.3333-0.0000  plane waves:     773
 k-point 17 :   0.0000 0.5000 0.0000  plane waves:     778
 k-point 18 :   0.1667 0.5000 0.0000  plane waves:     772
 k-point 19 :   0.3333 0.5000 0.0000  plane waves:     769
 k-point 20 :   0.5000 0.5000-0.0000  plane waves:     774
 k-point 21 :  -0.0000-0.0000 0.1667  plane waves:     785
 k-point 22 :   0.1667 0.0000 0.1667  plane waves:     785
 k-point 23 :   0.3333 0.0000 0.1667  plane waves:     773
 k-point 24 :   0.5000 0.0000 0.1667  plane waves:     772
 k-point 25 :  -0.3333-0.0000 0.1667  plane waves:     773
 k-point 26 :  -0.1667-0.0000 0.1667  plane waves:     767
 k-point 27 :   0.0000 0.1667 0.1667  plane waves:     785
 k-point 28 :   0.1667 0.1667 0.1667  plane waves:     785
 k-point 29 :   0.3333 0.1667 0.1667  plane waves:     767
 k-point 30 :   0.5000 0.1667 0.1667  plane waves:     773
 k-point 31 :  -0.3333 0.1667 0.1667  plane waves:     772
 k-point 32 :  -0.1667 0.1667 0.1667  plane waves:     773
 k-point 33 :   0.0000 0.3333 0.1667  plane waves:     773
 k-point 34 :   0.1667 0.3333 0.1667  plane waves:     767
 k-point 35 :   0.3333 0.3333 0.1667  plane waves:     773
 k-point 36 :   0.5000 0.3333 0.1667  plane waves:     763
 k-point 37 :  -0.3333 0.3333 0.1667  plane waves:     760
 k-point 38 :  -0.1667 0.3333 0.1667  plane waves:     763
 k-point 39 :   0.0000 0.5000 0.1667  plane waves:     772
 k-point 40 :   0.1667 0.5000 0.1667  plane waves:     773
 k-point 41 :   0.3333 0.5000 0.1667  plane waves:     763
 k-point 42 :   0.5000 0.5000 0.1667  plane waves:     769
 k-point 43 :  -0.3333 0.5000 0.1667  plane waves:     768
 k-point 44 :  -0.1667 0.5000 0.1667  plane waves:     760
 k-point 45 :  -0.0000-0.3333 0.1667  plane waves:     773
 k-point 46 :   0.1667-0.3333 0.1667  plane waves:     772
 k-point 47 :   0.3333-0.3333 0.1667  plane waves:     760
 k-point 48 :   0.5000-0.3333 0.1667  plane waves:     768
 k-point 49 :  -0.3333-0.3333 0.1667  plane waves:     769
 k-point 50 :  -0.1667-0.3333 0.1667  plane waves:     763
 k-point 51 :  -0.0000-0.1667 0.1667  plane waves:     767
 k-point 52 :   0.1667-0.1667 0.1667  plane waves:     773
 k-point 53 :   0.3333-0.1667 0.1667  plane waves:     763
 k-point 54 :   0.5000-0.1667 0.1667  plane waves:     760
 k-point 55 :  -0.3333-0.1667 0.1667  plane waves:     763
 k-point 56 :  -0.1667-0.1667 0.1667  plane waves:     773
 k-point 57 :   0.0000-0.0000 0.3333  plane waves:     769
 k-point 58 :   0.1667 0.0000 0.3333  plane waves:     773
 k-point 59 :   0.3333 0.0000 0.3333  plane waves:     769
 k-point 60 :   0.5000 0.0000 0.3333  plane waves:     769
 k-point 61 :  -0.3333-0.0000 0.3333  plane waves:     776
 k-point 62 :  -0.1667-0.0000 0.3333  plane waves:     773
 k-point 63 :   0.0000 0.1667 0.3333  plane waves:     773
 k-point 64 :   0.1667 0.1667 0.3333  plane waves:     767
 k-point 65 :   0.3333 0.1667 0.3333  plane waves:     773
 k-point 66 :   0.5000 0.1667 0.3333  plane waves:     763
 k-point 67 :  -0.3333 0.1667 0.3333  plane waves:     760
 k-point 68 :  -0.1667 0.1667 0.3333  plane waves:     763
 k-point 69 :  -0.0000 0.3333 0.3333  plane waves:     769
 k-point 70 :   0.1667 0.3333 0.3333  plane waves:     773
 k-point 71 :   0.3333 0.3333 0.3333  plane waves:     769
 k-point 72 :   0.5000 0.3333 0.3333  plane waves:     773
 k-point 73 :  -0.3333 0.3333 0.3333  plane waves:     776
 k-point 74 :  -0.1667 0.3333 0.3333  plane waves:     769
 k-point 75 :   0.0000 0.5000 0.3333  plane waves:     769
 k-point 76 :   0.1667 0.5000 0.3333  plane waves:     763
 k-point 77 :   0.3333 0.5000 0.3333  plane waves:     773
 k-point 78 :   0.5000 0.5000 0.3333  plane waves:     772
 k-point 79 :  -0.3333 0.5000 0.3333  plane waves:     760
 k-point 80 :  -0.1667 0.5000 0.3333  plane waves:     768
 k-point 81 :  -0.0000-0.3333 0.3333  plane waves:     776
 k-point 82 :   0.1667-0.3333 0.3333  plane waves:     760
 k-point 83 :   0.3333-0.3333 0.3333  plane waves:     776
 k-point 84 :   0.5000-0.3333 0.3333  plane waves:     760
 k-point 85 :  -0.3333-0.3333 0.3333  plane waves:     776
 k-point 86 :  -0.1667-0.3333 0.3333  plane waves:     760
 k-point 87 :  -0.0000-0.1667 0.3333  plane waves:     773
 k-point 88 :   0.1667-0.1667 0.3333  plane waves:     763
 k-point 89 :   0.3333-0.1667 0.3333  plane waves:     769
 k-point 90 :   0.5000-0.1667 0.3333  plane waves:     768
 k-point 91 :  -0.3333-0.1667 0.3333  plane waves:     760
 k-point 92 :  -0.1667-0.1667 0.3333  plane waves:     772
 k-point 93 :  -0.0000-0.0000 0.5000  plane waves:     778
 k-point 94 :   0.1667 0.0000 0.5000  plane waves:     772
 k-point 95 :   0.3333 0.0000 0.5000  plane waves:     769
 k-point 96 :   0.5000 0.0000 0.5000  plane waves:     774
 k-point 97 :  -0.0000 0.1667 0.5000  plane waves:     772
 k-point 98 :   0.1667 0.1667 0.5000  plane waves:     773
 k-point 99 :   0.3333 0.1667 0.5000  plane waves:     763
 k-point ** :   0.5000 0.1667 0.5000  plane waves:     769
 k-point ** :  -0.3333 0.1667 0.5000  plane waves:     768
 k-point ** :  -0.1667 0.1667 0.5000  plane waves:     760
 k-point ** :  -0.0000 0.3333 0.5000  plane waves:     769
 k-point ** :   0.1667 0.3333 0.5000  plane waves:     763
 k-point ** :   0.3333 0.3333 0.5000  plane waves:     773
 k-point ** :   0.5000 0.3333 0.5000  plane waves:     772
 k-point ** :  -0.3333 0.3333 0.5000  plane waves:     760
 k-point ** :  -0.1667 0.3333 0.5000  plane waves:     768
 k-point ** :   0.0000 0.5000 0.5000  plane waves:     774
 k-point ** :   0.1667 0.5000 0.5000  plane waves:     769
 k-point ** :   0.3333 0.5000 0.5000  plane waves:     772
 k-point ** :   0.5000 0.5000 0.5000  plane waves:     778

 maximum and minimum number of plane-waves per node :       785      749

 maximum number of plane-waves:       785
 maximum index in each direction: 
   IXMAX=    6   IYMAX=    6   IZMAX=    6
   IXMIN=   -6   IYMIN=   -6   IZMIN=   -6


 serial   3D FFT for wavefunctions
 parallel 3D FFT for charge:
    minimum data exchange during FFTs selected (reduces bandwidth)


 FFT grid for exact exchange (Hartree Fock) 
  NGX = 20; NGY = 20; NGZ = 20

 
 Radii for the augmentation spheres in the non-local exchange
 for species   1 augmentation radius   1.037 (default was   1.037)
 error exchange integrals (PW-AE in eV) (mean, max) 0.669 3.927 density error[0,qmax] 0.0390
 Maximum index for augmentation-charges in exchange          603
  SETUP_FOCK is finished

 total amount of memory used by VASP MPI-rank0    90033. kBytes
=======================================================================

   base      :      30000. kBytes
   nonl-proj :      26269. kBytes
   fftplans  :       6564. kBytes
   grid      :       2458. kBytes
   one-center:         65. kBytes
   HF        :        547. kBytes
   nonlr-proj:        275. kBytes
   wavefun   :      23855. kBytes
 
     INWAV:  cpu time    1.3054: real time    1.3054
 charge density for first step will be calculated from the start-wavefunctions


--------------------------------------------------------------------------------------------------------


 Maximum index for augmentation-charges        12423 (set IRDMAX)


--------------------------------------------------------------------------------------------------------


 initial charge from wavefunction
    FEWALD:  cpu time    0.0009: real time    0.0010

 The Fermi energy was updated, please check that it is located mid-gap
 values below the HOMO (VB) or above the LUMO (CB) will cause erroneous energies
 E-fermi :  -0.9202

 Response functions by sum over occupied states:
 ===============================================
   NOMEGA  =    50    number of frequencies
   NOMEGAR =    50    number of frequencies along real axis
   OMEGAMAX=  33.38   maximum frequency
   OMEGAMIN=   4.08   minimum frequency
   OMEGATL = 173.29   maximum frequency of tail
   CSHIFT  =  0.868   complex shift used in evaluation of response functions


 Energies iw= 
 ============
   0.000   0.000   1.380   0.000   2.755   0.000   4.121   0.000   5.474   0.000
   6.810   0.000   8.128   0.000   9.425   0.000  10.701   0.000  11.956   0.000
  13.189   0.000  14.402   0.000  15.598   0.000  16.777   0.000  17.944   0.000
  19.099   0.000  20.248   0.000  21.392   0.000  22.536   0.000  23.684   0.000
  24.840   0.000  26.007   0.000  27.192   0.000  28.400   0.000  29.635   0.000
  30.905   0.000  32.217   0.000  33.578   0.000  34.998   0.000  36.486   0.000
  38.056   0.000  39.720   0.000  41.496   0.000  43.402   0.000  45.463   0.000
  47.707   0.000  50.170   0.000  52.894   0.000  55.935   0.000  59.362   0.000
  63.267   0.000  67.768   0.000  73.026   0.000  79.262   0.000  86.788   0.000
  96.061   0.000 107.772   0.000 123.028   0.000 143.709   0.000 173.288   0.000
 

IMPORTANT INFORMATION: All symmetrisations will be switched off!
NOSYMM: (Re-)initialisation of all symmetry stuff for point group C_1.

 
 KPOINTS: k-points                                

Automatic generation of k-mesh.
Space group operators:
 irot       det(A)        alpha          n_x          n_y          n_z        tau_x        tau_y        tau_z
    1     1.000000     0.000000     1.000000     0.000000     0.000000     0.000000     0.000000     0.000000
 
 Subroutine IBZKPT returns following result:
 ===========================================
 
 Found    216 irreducible k-points:
 
 Following reciprocal coordinates:
            Coordinates               Weight
  0.000000  0.000000  0.000000      1.000000
  0.166667  0.000000  0.000000      1.000000
  0.333333  0.000000  0.000000      1.000000
  0.500000  0.000000  0.000000      1.000000
 -0.333333 -0.000000 -0.000000      1.000000
 -0.166667 -0.000000  0.000000      1.000000
  0.000000  0.166667  0.000000      1.000000
  0.166667  0.166667  0.000000      1.000000
  0.333333  0.166667  0.000000      1.000000
  0.500000  0.166667  0.000000      1.000000
 -0.333333  0.166667  0.000000      1.000000
 -0.166667  0.166667  0.000000      1.000000
  0.000000  0.333333  0.000000      1.000000
  0.166667  0.333333  0.000000      1.000000
  0.333333  0.333333  0.000000      1.000000
  0.500000  0.333333  0.000000      1.000000
 -0.333333  0.333333 -0.000000      1.000000
 -0.166667  0.333333 -0.000000      1.000000
  0.000000  0.500000  0.000000      1.000000
  0.166667  0.500000  0.000000      1.000000
  0.333333  0.500000  0.000000      1.000000
  0.500000  0.500000 -0.000000      1.000000
 -0.333333  0.500000 -0.000000      1.000000
 -0.166667  0.500000  0.000000      1.000000
 -0.000000 -0.333333  0.000000      1.000000
  0.166667 -0.333333  0.000000      1.000000
  0.333333 -0.333333  0.000000      1.000000
  0.500000 -0.333333 -0.000000      1.000000
 -0.333333 -0.333333 -0.000000      1.000000
 -0.166667 -0.333333  0.000000      1.000000
 -0.000000 -0.166667 -0.000000      1.000000
  0.166667 -0.166667  0.000000      1.000000
  0.333333 -0.166667  0.000000      1.000000
  0.500000 -0.166667  0.000000      1.000000
 -0.333333 -0.166667 -0.000000      1.000000
 -0.166667 -0.166667  0.000000      1.000000
 -0.000000 -0.000000  0.166667      1.000000
  0.166667  0.000000  0.166667      1.000000
  0.333333  0.000000  0.166667      1.000000
  0.500000  0.000000  0.166667      1.000000
 -0.333333 -0.000000  0.166667      1.000000
 -0.166667 -0.000000  0.166667      1.000000
  0.000000  0.166667  0.166667      1.000000
  0.166667  0.166667  0.166667      1.000000
  0.333333  0.166667  0.166667      1.000000
  0.500000  0.166667  0.166667      1.000000
 -0.333333  0.166667  0.166667      1.000000
 -0.166667  0.166667  0.166667      1.000000
  0.000000  0.333333  0.166667      1.000000
  0.166667  0.333333  0.166667      1.000000
  0.333333  0.333333  0.166667      1.000000
  0.500000  0.333333  0.166667      1.000000
 -0.333333  0.333333  0.166667      1.000000
 -0.166667  0.333333  0.166667      1.000000
  0.000000  0.500000  0.166667      1.000000
  0.166667  0.500000  0.166667      1.000000
  0.333333  0.500000  0.166667      1.000000
  0.500000  0.500000  0.166667      1.000000
 -0.333333  0.500000  0.166667      1.000000
 -0.166667  0.500000  0.166667      1.000000
 -0.000000 -0.333333  0.166667      1.000000
  0.166667 -0.333333  0.166667      1.000000
  0.333333 -0.333333  0.166667      1.000000
  0.500000 -0.333333  0.166667      1.000000
 -0.333333 -0.333333  0.166667      1.000000
 -0.166667 -0.333333  0.166667      1.000000
 -0.000000 -0.166667  0.166667      1.000000
  0.166667 -0.166667  0.166667      1.000000
  0.333333 -0.166667  0.166667      1.000000
  0.500000 -0.166667  0.166667      1.000000
 -0.333333 -0.166667  0.166667      1.000000
 -0.166667 -0.166667  0.166667      1.000000
  0.000000 -0.000000  0.333333      1.000000
  0.166667  0.000000  0.333333      1.000000
  0.333333  0.000000  0.333333      1.000000
  0.500000  0.000000  0.333333      1.000000
 -0.333333 -0.000000  0.333333      1.000000
 -0.166667 -0.000000  0.333333      1.000000
  0.000000  0.166667  0.333333      1.000000
  0.166667  0.166667  0.333333      1.000000
  0.333333  0.166667  0.333333      1.000000
  0.500000  0.166667  0.333333      1.000000
 -0.333333  0.166667  0.333333      1.000000
 -0.166667  0.166667  0.333333      1.000000
 -0.000000  0.333333  0.333333      1.000000
  0.166667  0.333333  0.333333      1.000000
  0.333333  0.333333  0.333333      1.000000
  0.500000  0.333333  0.333333      1.000000
 -0.333333  0.333333  0.333333      1.000000
 -0.166667  0.333333  0.333333      1.000000
  0.000000  0.500000  0.333333      1.000000
  0.166667  0.500000  0.333333      1.000000
  0.333333  0.500000  0.333333      1.000000
  0.500000  0.500000  0.333333      1.000000
 -0.333333  0.500000  0.333333      1.000000
 -0.166667  0.500000  0.333333      1.000000
 -0.000000 -0.333333  0.333333      1.000000
  0.166667 -0.333333  0.333333      1.000000
  0.333333 -0.333333  0.333333      1.000000
  0.500000 -0.333333  0.333333      1.000000
 -0.333333 -0.333333  0.333333      1.000000
 -0.166667 -0.333333  0.333333      1.000000
 -0.000000 -0.166667  0.333333      1.000000
  0.166667 -0.166667  0.333333      1.000000
  0.333333 -0.166667  0.333333      1.000000
  0.500000 -0.166667  0.333333      1.000000
 -0.333333 -0.166667  0.333333      1.000000
 -0.166667 -0.166667  0.333333      1.000000
 -0.000000 -0.000000  0.500000      1.000000
  0.166667  0.000000  0.500000      1.000000
  0.333333  0.000000  0.500000      1.000000
  0.500000  0.000000  0.500000      1.000000
 -0.333333 -0.000000  0.500000      1.000000
 -0.166667 -0.000000  0.500000      1.000000
 -0.000000  0.166667  0.500000      1.000000
  0.166667  0.166667  0.500000      1.000000
  0.333333  0.166667  0.500000      1.000000
  0.500000  0.166667  0.500000      1.000000
 -0.333333  0.166667  0.500000      1.000000
 -0.166667  0.166667  0.500000      1.000000
 -0.000000  0.333333  0.500000      1.000000
  0.166667  0.333333  0.500000      1.000000
  0.333333  0.333333  0.500000      1.000000
  0.500000  0.333333  0.500000      1.000000
 -0.333333  0.333333  0.500000      1.000000
 -0.166667  0.333333  0.500000      1.000000
  0.000000  0.500000  0.500000      1.000000
  0.166667  0.500000  0.500000      1.000000
  0.333333  0.500000  0.500000      1.000000
  0.500000  0.500000  0.500000      1.000000
 -0.333333  0.500000  0.500000      1.000000
 -0.166667  0.500000  0.500000      1.000000
 -0.000000 -0.333333  0.500000      1.000000
  0.166667 -0.333333  0.500000      1.000000
  0.333333 -0.333333  0.500000      1.000000
  0.500000 -0.333333  0.500000      1.000000
 -0.333333 -0.333333  0.500000      1.000000
 -0.166667 -0.333333  0.500000      1.000000
 -0.000000 -0.166667  0.500000      1.000000
  0.166667 -0.166667  0.500000      1.000000
  0.333333 -0.166667  0.500000      1.000000
  0.500000 -0.166667  0.500000      1.000000
 -0.333333 -0.166667  0.500000      1.000000
 -0.166667 -0.166667  0.500000      1.000000
  0.000000  0.000000 -0.333333      1.000000
  0.166667  0.000000 -0.333333      1.000000
  0.333333  0.000000 -0.333333      1.000000
  0.500000  0.000000 -0.333333      1.000000
 -0.333333 -0.000000 -0.333333      1.000000
 -0.166667 -0.000000 -0.333333      1.000000
  0.000000  0.166667 -0.333333      1.000000
  0.166667  0.166667 -0.333333      1.000000
  0.333333  0.166667 -0.333333      1.000000
  0.500000  0.166667 -0.333333      1.000000
 -0.333333  0.166667 -0.333333      1.000000
 -0.166667  0.166667 -0.333333      1.000000
  0.000000  0.333333 -0.333333      1.000000
  0.166667  0.333333 -0.333333      1.000000
  0.333333  0.333333 -0.333333      1.000000
  0.500000  0.333333 -0.333333      1.000000
 -0.333333  0.333333 -0.333333      1.000000
 -0.166667  0.333333 -0.333333      1.000000
  0.000000  0.500000 -0.333333      1.000000
  0.166667  0.500000 -0.333333      1.000000
  0.333333  0.500000 -0.333333      1.000000
  0.500000  0.500000 -0.333333      1.000000
 -0.333333  0.500000 -0.333333      1.000000
 -0.166667  0.500000 -0.333333      1.000000
  0.000000 -0.333333 -0.333333      1.000000
  0.166667 -0.333333 -0.333333      1.000000
  0.333333 -0.333333 -0.333333      1.000000
  0.500000 -0.333333 -0.333333      1.000000
 -0.333333 -0.333333 -0.333333      1.000000
 -0.166667 -0.333333 -0.333333      1.000000
  0.000000 -0.166667 -0.333333      1.000000
  0.166667 -0.166667 -0.333333      1.000000
  0.333333 -0.166667 -0.333333      1.000000
  0.500000 -0.166667 -0.333333      1.000000
 -0.333333 -0.166667 -0.333333      1.000000
 -0.166667 -0.166667 -0.333333      1.000000
  0.000000  0.000000 -0.166667      1.000000
  0.166667  0.000000 -0.166667      1.000000
  0.333333  0.000000 -0.166667      1.000000
  0.500000  0.000000 -0.166667      1.000000
 -0.333333 -0.000000 -0.166667      1.000000
 -0.166667  0.000000 -0.166667      1.000000
  0.000000  0.166667 -0.166667      1.000000
  0.166667  0.166667 -0.166667      1.000000
  0.333333  0.166667 -0.166667      1.000000
  0.500000  0.166667 -0.166667      1.000000
 -0.333333  0.166667 -0.166667      1.000000
 -0.166667  0.166667 -0.166667      1.000000
  0.000000  0.333333 -0.166667      1.000000
  0.166667  0.333333 -0.166667      1.000000
  0.333333  0.333333 -0.166667      1.000000
  0.500000  0.333333 -0.166667      1.000000
 -0.333333  0.333333 -0.166667      1.000000
 -0.166667  0.333333 -0.166667      1.000000
  0.000000  0.500000 -0.166667      1.000000
  0.166667  0.500000 -0.166667      1.000000
  0.333333  0.500000 -0.166667      1.000000
  0.500000  0.500000 -0.166667      1.000000
 -0.333333  0.500000 -0.166667      1.000000
 -0.166667  0.500000 -0.166667      1.000000
 -0.000000 -0.333333 -0.166667      1.000000
  0.166667 -0.333333 -0.166667      1.000000
  0.333333 -0.333333 -0.166667      1.000000
  0.500000 -0.333333 -0.166667      1.000000
 -0.333333 -0.333333 -0.166667      1.000000
 -0.166667 -0.333333 -0.166667      1.000000
  0.000000 -0.166667 -0.166667      1.000000
  0.166667 -0.166667 -0.166667      1.000000
  0.333333 -0.166667 -0.166667      1.000000
  0.500000 -0.166667 -0.166667      1.000000
 -0.333333 -0.166667 -0.166667      1.000000
 -0.166667 -0.166667 -0.166667      1.000000
 
 Following cartesian coordinates:
            Coordinates               Weight
  0.000000  0.000000  0.000000      1.000000
  0.036869 -0.021286 -0.015052      1.000000
  0.073737 -0.042572 -0.030103      1.000000
  0.110606 -0.063858 -0.045155      1.000000
 -0.073737  0.042572  0.030103      1.000000
 -0.036869  0.021286  0.015052      1.000000
  0.000000  0.042572 -0.015052      1.000000
  0.036869  0.021286 -0.030103      1.000000
  0.073737  0.000000 -0.045155      1.000000
  0.110606 -0.021286 -0.060206      1.000000
 -0.073737  0.085144  0.015052      1.000000
 -0.036869  0.063858  0.000000      1.000000
  0.000000  0.085144 -0.030103      1.000000
  0.036869  0.063858 -0.045155      1.000000
  0.073737  0.042572 -0.060206      1.000000
  0.110606  0.021286 -0.075258      1.000000
 -0.073737  0.127716  0.000000      1.000000
 -0.036869  0.106430 -0.015052      1.000000
  0.000000  0.127716 -0.045155      1.000000
  0.036869  0.106430 -0.060206      1.000000
  0.073737  0.085144 -0.075258      1.000000
  0.110606  0.063858 -0.090309      1.000000
 -0.073737  0.170289 -0.015052      1.000000
 -0.036869  0.149002 -0.030103      1.000000
 -0.000000 -0.085144  0.030103      1.000000
  0.036869 -0.106430  0.015052      1.000000
  0.073737 -0.127716 -0.000000      1.000000
  0.110606 -0.149002 -0.015052      1.000000
 -0.073737 -0.042572  0.060206      1.000000
 -0.036869 -0.063858  0.045155      1.000000
 -0.000000 -0.042572  0.015052      1.000000
  0.036869 -0.063858 -0.000000      1.000000
  0.073737 -0.085144 -0.015052      1.000000
  0.110606 -0.106430 -0.030103      1.000000
 -0.073737  0.000000  0.045155      1.000000
 -0.036869 -0.021286  0.030103      1.000000
 -0.000000  0.000000  0.045155      1.000000
  0.036869 -0.021286  0.030103      1.000000
  0.073737 -0.042572  0.015052      1.000000
  0.110606 -0.063858 -0.000000      1.000000
 -0.073737  0.042572  0.075258      1.000000
 -0.036869  0.021286  0.060206      1.000000
 -0.000000  0.042572  0.030103      1.000000
  0.036869  0.021286  0.015052      1.000000
  0.073737  0.000000  0.000000      1.000000
  0.110606 -0.021286 -0.015052      1.000000
 -0.073737  0.085144  0.060206      1.000000
 -0.036869  0.063858  0.045155      1.000000
 -0.000000  0.085144  0.015052      1.000000
  0.036869  0.063858  0.000000      1.000000
  0.073737  0.042572 -0.015052      1.000000
  0.110606  0.021286 -0.030103      1.000000
 -0.073737  0.127716  0.045155      1.000000
 -0.036869  0.106430  0.030103      1.000000
 -0.000000  0.127716  0.000000      1.000000
  0.036869  0.106430 -0.015052      1.000000
  0.073737  0.085144 -0.030103      1.000000
  0.110606  0.063858 -0.045155      1.000000
 -0.073737  0.170289  0.030103      1.000000
 -0.036869  0.149002  0.015052      1.000000
 -0.000000 -0.085144  0.075258      1.000000
  0.036869 -0.106430  0.060206      1.000000
  0.073737 -0.127716  0.045155      1.000000
  0.110606 -0.149002  0.030103      1.000000
 -0.073737 -0.042572  0.105361      1.000000
 -0.036869 -0.063858  0.090309      1.000000
 -0.000000 -0.042572  0.060206      1.000000
  0.036869 -0.063858  0.045155      1.000000
  0.073737 -0.085144  0.030103      1.000000
  0.110606 -0.106430  0.015052      1.000000
 -0.073737  0.000000  0.090309      1.000000
 -0.036869 -0.021286  0.075258      1.000000
 -0.000000  0.000000  0.090309      1.000000
  0.036869 -0.021286  0.075258      1.000000
  0.073737 -0.042572  0.060206      1.000000
  0.110606 -0.063858  0.045155      1.000000
 -0.073737  0.042572  0.120412      1.000000
 -0.036869  0.021286  0.105361      1.000000
 -0.000000  0.042572  0.075258      1.000000
  0.036869  0.021286  0.060206      1.000000
  0.073737  0.000000  0.045155      1.000000
  0.110606 -0.021286  0.030103      1.000000
 -0.073737  0.085144  0.105361      1.000000
 -0.036869  0.063858  0.090309      1.000000
 -0.000000  0.085144  0.060206      1.000000
  0.036869  0.063858  0.045155      1.000000
  0.073737  0.042572  0.030103      1.000000
  0.110606  0.021286  0.015052      1.000000
 -0.073737  0.127716  0.090309      1.000000
 -0.036869  0.106430  0.075258      1.000000
 -0.000000  0.127716  0.045155      1.000000
  0.036869  0.106430  0.030103      1.000000
  0.073737  0.085144  0.015052      1.000000
  0.110606  0.063858  0.000000      1.000000
 -0.073737  0.170289  0.075258      1.000000
 -0.036869  0.149002  0.060206      1.000000
 -0.000000 -0.085144  0.120412      1.000000
  0.036869 -0.106430  0.105361      1.000000
  0.073737 -0.127716  0.090309      1.000000
  0.110606 -0.149002  0.075258      1.000000
 -0.073737 -0.042572  0.150515      1.000000
 -0.036869 -0.063858  0.135464      1.000000
 -0.000000 -0.042572  0.105361      1.000000
  0.036869 -0.063858  0.090309      1.000000
  0.073737 -0.085144  0.075258      1.000000
  0.110606 -0.106430  0.060206      1.000000
 -0.073737  0.000000  0.135464      1.000000
 -0.036869 -0.021286  0.120412      1.000000
 -0.000000  0.000000  0.135464      1.000000
  0.036869 -0.021286  0.120412      1.000000
  0.073737 -0.042572  0.105361      1.000000
  0.110606 -0.063858  0.090309      1.000000
 -0.073737  0.042572  0.165567      1.000000
 -0.036869  0.021286  0.150515      1.000000
 -0.000000  0.042572  0.120412      1.000000
  0.036869  0.021286  0.105361      1.000000
  0.073737  0.000000  0.090309      1.000000
  0.110606 -0.021286  0.075258      1.000000
 -0.073737  0.085144  0.150515      1.000000
 -0.036869  0.063858  0.135464      1.000000
 -0.000000  0.085144  0.105361      1.000000
  0.036869  0.063858  0.090309      1.000000
  0.073737  0.042572  0.075258      1.000000
  0.110606  0.021286  0.060206      1.000000
 -0.073737  0.127716  0.135464      1.000000
 -0.036869  0.106430  0.120412      1.000000
 -0.000000  0.127716  0.090309      1.000000
  0.036869  0.106430  0.075258      1.000000
[...]
     23      20.7487      21.0300      21.0306      21.0801       0.8507       0.0000
     24      20.9731      21.1528      21.1533      21.1807       0.8678       0.0000
     25      21.5630      21.7878      21.7885      21.8236       0.8654       0.0000
     26      22.0995      22.3348      22.3343      22.3720       0.8616       0.0000
     27      23.2056      23.4748      23.4757      23.5213       0.8557       0.0000
     28      24.0180      24.2611      24.2608      24.3004       0.8600       0.0000
     29      24.3208      24.5532      24.5558      24.5939       0.8606       0.0000
     30      25.6543      25.8355      25.8350      25.8624       0.8684       0.0000
     31      26.2367      26.4102      26.4098      26.4353       0.8716       0.0000
     32      26.4380      26.6990      26.6977      26.7422       0.8536       0.0000
 

 k-point 107 :      -0.3333    0.3333    0.5000
  band No. DFT-energies  QP-energies  QP-e(diag)   sigma(DFT)    Z            occupation

      1     -48.3996     -48.5954     -48.5942     -48.6331       0.8335       2.0000
      2     -48.3883     -48.5947     -48.5948     -48.6343       0.8394       2.0000
      3     -48.3788     -48.5913     -48.5914     -48.6323       0.8385       2.0000
      4     -48.3777     -48.5911     -48.5911     -48.6322       0.8384       2.0000
      5     -48.3718     -48.5904     -48.5909     -48.6324       0.8408       2.0000
      6     -20.2543     -20.3800     -20.3783     -20.4019       0.8404       2.0000
      7      -6.6375      -6.7121      -6.7148      -6.7264       0.8694       2.0000
      8      -6.1334      -6.2011      -6.2010      -6.2111       0.8702       2.0000
      9      -5.5958      -5.6559      -5.6559      -5.6647       0.8717       2.0000
     10       6.4802       6.5918       6.5928       6.6065       0.8917       0.0000
     11       6.9692       7.0995       7.1002       7.1165       0.8896       0.0000
     12       8.3428       8.4838       8.4844       8.5030       0.8842       0.0000
     13       9.5046       9.6468       9.6478       9.6668       0.8827       0.0000
     14      11.3500      11.5102      11.5111      11.5337       0.8772       0.0000
     15      12.8230      12.9905      12.9920      13.0176       0.8683       0.0000
     16      14.4315      14.6071      14.6091      14.6369       0.8646       0.0000
     17      14.4658      14.6641      14.6644      14.6947       0.8677       0.0000
     18      17.0003      17.2040      17.2050      17.2384       0.8596       0.0000
     19      17.5131      17.7192      17.7224      17.7576       0.8562       0.0000
     20      17.6703      17.8817      17.8811      17.9158       0.8586       0.0000
     21      17.7672      17.9869      17.9884      18.0256       0.8561       0.0000
     22      18.7529      18.9914      18.9922      19.0327       0.8554       0.0000
     23      19.6158      19.8780      19.8783      19.9230       0.8547       0.0000
     24      21.3751      21.6468      21.6475      21.6937       0.8552       0.0000
     25      21.4872      21.7244      21.7277      21.7670       0.8597       0.0000
     26      21.7312      21.9640      21.9623      21.9994       0.8619       0.0000
     27      22.4828      22.6520      22.6522      22.6780       0.8678       0.0000
     28      22.5152      22.7078      22.7092      22.7390       0.8668       0.0000
     29      23.6340      23.8214      23.8208      23.8485       0.8709       0.0000
     30      24.7434      25.0324      25.0323      25.0833       0.8499       0.0000
     31      25.8192      26.0354      26.0350      26.0692       0.8632       0.0000
     32      26.3771      26.5603      26.5598      26.5878       0.8670       0.0000
 

 k-point 108 :      -0.1667    0.3333    0.5000
  band No. DFT-energies  QP-energies  QP-e(diag)   sigma(DFT)    Z            occupation

      1     -48.3951     -48.5955     -48.5943     -48.6332       0.8367       2.0000
      2     -48.3915     -48.5950     -48.5915     -48.6313       0.8342       2.0000
      3     -48.3825     -48.5916     -48.5940     -48.6347       0.8386       2.0000
      4     -48.3803     -48.5913     -48.5916     -48.6322       0.8386       2.0000
      5     -48.3684     -48.5903     -48.5918     -48.6337       0.8424       2.0000
      6     -20.2445     -20.3657     -20.3639     -20.3864       0.8414       2.0000
      7      -6.6530      -6.7286      -6.7300      -6.7417       0.8684       2.0000
      8      -6.0787      -6.1461      -6.1470      -6.1572       0.8700       2.0000
      9      -5.8040      -5.8678      -5.8679      -5.8774       0.8705       2.0000
     10       5.7543       5.8624       5.8636       5.8765       0.8943       0.0000
     11       6.9823       7.1092       7.1099       7.1258       0.8890       0.0000
     12       9.0893       9.2392       9.2396       9.2602       0.8794       0.0000
     13       9.4712       9.6125       9.6137       9.6325       0.8836       0.0000
     14      12.6729      12.8462      12.8469      12.8736       0.8670       0.0000
     15      13.5464      13.7295      13.7299      13.7586       0.8649       0.0000
     16      14.3871      14.5807      14.5809      14.6099       0.8697       0.0000
     17      14.8263      15.0334      15.0336      15.0662       0.8642       0.0000
     18      16.8025      16.9926      16.9941      17.0243       0.8637       0.0000
     19      17.2271      17.4187      17.4213      17.4527       0.8608       0.0000
     20      17.5230      17.7355      17.7366      17.7720       0.8579       0.0000
     21      17.8091      18.0180      18.0184      18.0531       0.8578       0.0000
     22      18.1507      18.3910      18.3924      18.4342       0.8528       0.0000
     23      18.1926      18.3923      18.3938      18.4267       0.8595       0.0000
     24      20.8889      21.1209      21.1221      21.1591       0.8631       0.0000
     25      21.4647      21.7337      21.7340      21.7796       0.8554       0.0000
     26      21.8213      22.0253      22.0259      22.0585       0.8624       0.0000
     27      21.8398      22.1094      22.1096      22.1554       0.8548       0.0000
     28      22.6208      22.8438      22.8433      22.8793       0.8607       0.0000
     29      22.9076      23.1088      23.1110      23.1433       0.8631       0.0000
     30      25.6499      25.8563      25.8555      25.8881       0.8629       0.0000
     31      25.9028      26.1127      26.1125      26.1446       0.8670       0.0000
     32      26.0879      26.2514      26.2512      26.2749       0.8734       0.0000
 

 k-point 109 :       0.0000    0.5000    0.5000
  band No. DFT-energies  QP-energies  QP-e(diag)   sigma(DFT)    Z            occupation

      1     -48.4055     -48.5953     -48.5922     -48.6303       0.8307       2.0000
      2     -48.4019     -48.5943     -48.5909     -48.6298       0.8294       2.0000
      3     -48.3752     -48.5911     -48.5944     -48.6353       0.8429       2.0000
      4     -48.3694     -48.5907     -48.5909     -48.6326       0.8417       2.0000
      5     -48.3692     -48.5903     -48.5907     -48.6325       0.8413       2.0000
      6     -20.2489     -20.3793     -20.3665     -20.3888       0.8402       2.0000
      7      -6.9073      -6.9889      -6.9901      -7.0029       0.8664       2.0000
      8      -5.7546      -5.8172      -5.8177      -5.8271       0.8707       2.0000
      9      -5.7532      -5.8159      -5.8145      -5.8236       0.8706       2.0000
     10       4.9076       5.0107       5.0106       5.0224       0.8970       0.0000
     11       6.0558       6.1742       6.1753       6.1897       0.8920       0.0000
     12      10.4113      10.5785      10.5791      10.6038       0.8714       0.0000
     13      12.2998      12.4693      12.4715      12.4979       0.8667       0.0000
     14      12.3144      12.4843      12.4858      12.5121       0.8671       0.0000
     15      14.0792      14.2765      14.2760      14.3052       0.8710       0.0000
     16      14.4961      14.6718      14.6598      14.6839       0.8716       0.0000
     17      14.7689      14.9748      14.9748      15.0072       0.8640       0.0000
     18      14.7810      14.9850      14.9849      15.0166       0.8653       0.0000
     19      15.6568      15.8685      15.8685      15.9033       0.8589       0.0000
     20      17.9655      18.1582      18.1636      18.1957       0.8609       0.0000
     21      18.0674      18.2825      18.2895      18.3263       0.8578       0.0000
     22      18.2931      18.5347      18.5350      18.5764       0.8540       0.0000
     23      18.6318      18.8052      18.8034      18.8283       0.8730       0.0000
     24      18.7759      18.9976      19.0046      19.0428       0.8569       0.0000
     25      20.4779      20.6292      20.6291      20.6522       0.8674       0.0000
     26      20.4822      20.6327      20.6326      20.6555       0.8681       0.0000
     27      20.9285      21.0933      21.0929      21.1179       0.8680       0.0000
     28      23.4750      23.7892      23.7890      23.8459       0.8467       0.0000
     29      23.4798      23.7946      23.7942      23.8511       0.8466       0.0000
     30      26.2388      26.5069      26.5067      26.5536       0.8511       0.0000
     31      28.0093      28.2408      28.2405      28.2792       0.8568       0.0000
     32      28.7464      29.0084      29.0068      29.0524       0.8512       0.0000
 

 k-point 110 :       0.1667    0.5000    0.5000
  band No. DFT-energies  QP-energies  QP-e(diag)   sigma(DFT)    Z            occupation

      1     -48.4026     -48.5952     -48.5937     -48.6324       0.8317       2.0000
      2     -48.3939     -48.5947     -48.5910     -48.6300       0.8346       2.0000
      3     -48.3857     -48.5912     -48.5950     -48.6350       0.8394       2.0000
      4     -48.3723     -48.5912     -48.5908     -48.6325       0.8398       2.0000
      5     -48.3687     -48.5899     -48.5913     -48.6328       0.8427       2.0000
      6     -20.2582     -20.3804     -20.3786     -20.4019       0.8380       2.0000
      7      -6.7403      -6.8175      -6.8196      -6.8316       0.8684       2.0000
      8      -5.9184      -5.9839      -5.9843      -5.9942       0.8698       2.0000
      9      -5.6340      -5.6957      -5.6958      -5.7050       0.8710       2.0000
     10       5.4240       5.5317       5.5328       5.5456       0.8946       0.0000
     11       6.6417       6.7647       6.7655       6.7807       0.8906       0.0000
     12       9.0377       9.1872       9.1876       9.2080       0.8803       0.0000
     13      10.8109      10.9654      10.9662      10.9876       0.8788       0.0000
     14      11.5990      11.7626      11.7639      11.7883       0.8708       0.0000
     15      13.9788      14.1690      14.1696      14.1989       0.8667       0.0000
     16      14.6836      14.8785      14.8787      14.9087       0.8669       0.0000
     17      14.7350      14.9386      14.9389      14.9713       0.8631       0.0000
     18      15.1903      15.3663      15.3679      15.3960       0.8636       0.0000
     19      17.1923      17.3869      17.3874      17.4186       0.8621       0.0000
     20      17.2740      17.4873      17.4893      17.5250       0.8578       0.0000
     21      17.8432      18.0479      18.0499      18.0840       0.8584       0.0000
     22      18.0636      18.2887      18.2907      18.3290       0.8554       0.0000
     23      18.5041      18.7227      18.7264      18.7630       0.8586       0.0000
     24      19.8968      20.0839      20.0845      20.1131       0.8678       0.0000
     25      21.4535      21.7047      21.7079      21.7501       0.8577       0.0000
     26      21.8486      22.0578      22.0567      22.0898       0.8628       0.0000
     27      22.0963      22.2801      22.2811      22.3099       0.8652       0.0000
     28      23.4062      23.7148      23.7148      23.7700       0.8482       0.0000
     29      23.5846      23.8419      23.8421      23.8853       0.8563       0.0000
     30      25.4179      25.6359      25.6354      25.6703       0.8617       0.0000
     31      27.1028      27.3380      27.3378      27.3766       0.8584       0.0000
     32      27.3934      27.6092      27.6090      27.6433       0.8626       0.0000
 

 k-point 111 :       0.3333    0.5000    0.5000
  band No. DFT-energies  QP-energies  QP-e(diag)   sigma(DFT)    Z            occupation

      1     -48.4041     -48.5951     -48.5942     -48.6329       0.8309       2.0000
      2     -48.3973     -48.5945     -48.5949     -48.6338       0.8352       2.0000
      3     -48.3806     -48.5911     -48.5902     -48.6310       0.8369       2.0000
      4     -48.3757     -48.5910     -48.5907     -48.6318       0.8395       2.0000
      5     -48.3703     -48.5898     -48.5911     -48.6324       0.8422       2.0000
      6     -20.2823     -20.4096     -20.4078     -20.4322       0.8372       2.0000
      7      -6.8783      -6.9581      -6.9607      -6.9733       0.8668       2.0000
      8      -5.6235      -5.6839      -5.6839      -5.6928       0.8711       2.0000
      9      -5.3930      -5.4499      -5.4499      -5.4583       0.8724       2.0000
     10       5.8160       5.9391       5.9397       5.9545       0.8933       0.0000
     11       7.2236       7.3417       7.3428       7.3575       0.8903       0.0000
     12       8.7131       8.8571       8.8575       8.8769       0.8817       0.0000
     13       9.1401       9.2781       9.2786       9.2965       0.8855       0.0000
     14      11.4355      11.5839      11.5858      11.6071       0.8762       0.0000
     15      12.5368      12.7026      12.7042      12.7294       0.8694       0.0000
     16      13.6148      13.7972      13.7987      13.8266       0.8683       0.0000
     17      14.3998      14.5896      14.5898      14.6186       0.8687       0.0000
     18      14.4322      14.6268      14.6278      14.6585       0.8643       0.0000
     19      17.5424      17.7581      17.7593      17.7957       0.8563       0.0000
     20      18.0968      18.3016      18.3035      18.3374       0.8591       0.0000
     21      18.3483      18.5657      18.5677      18.6040       0.8580       0.0000
     22      19.0308      19.2631      19.2654      19.3045       0.8574       0.0000
     23      20.7485      21.0300      21.0306      21.0800       0.8508       0.0000
     24      20.9729      21.1527      21.1532      21.1806       0.8679       0.0000
     25      21.5627      21.7875      21.7882      21.8233       0.8655       0.0000
     26      22.0995      22.3349      22.3344      22.3721       0.8616       0.0000
     27      23.2054      23.4746      23.4756      23.5211       0.8557       0.0000
     28      24.0176      24.2607      24.2605      24.3000       0.8600       0.0000
     29      24.3209      24.5534      24.5560      24.5941       0.8606       0.0000
     30      25.6542      25.8355      25.8350      25.8624       0.8685       0.0000
     31      26.2355      26.4087      26.4083      26.4338       0.8715       0.0000
     32      26.4390      26.7000      26.6987      26.7432       0.8537       0.0000
 

 k-point 112 :       0.5000    0.5000    0.5000
  band No. DFT-energies  QP-energies  QP-e(diag)   sigma(DFT)    Z            occupation

      1     -48.4035     -48.5945     -48.5939     -48.6324       0.8317       2.0000
      2     -48.4033     -48.5944     -48.5939     -48.6323       0.8320       2.0000
      3     -48.3808     -48.5907     -48.5885     -48.6294       0.8357       2.0000
      4     -48.3759     -48.5906     -48.5901     -48.6310       0.8397       2.0000
      5     -48.3757     -48.5891     -48.5901     -48.6310       0.8397       2.0000
      6     -20.3023     -20.4360     -20.4246     -20.4489       0.8343       2.0000
      7      -7.0707      -7.1544      -7.1557      -7.1688       0.8660       2.0000
      8      -5.2726      -5.3250      -5.3230      -5.3303       0.8737       2.0000
      9      -5.2699      -5.3226      -5.3215      -5.3289       0.8737       2.0000
     10       5.1520       5.2720       5.2676       5.2811       0.8951       0.0000
     11       8.4972       8.6288       8.6292       8.6458       0.8886       0.0000
     12       8.4987       8.6301       8.6306       8.6472       0.8886       0.0000
     13       8.6752       8.8037       8.8060       8.8234       0.8824       0.0000
     14      10.7627      10.9127      10.9159      10.9379       0.8743       0.0000
     15      13.6482      13.8447      13.8471      13.8802       0.8571       0.0000
     16      13.7532      13.9454      13.9472      13.9786       0.8605       0.0000
     17      13.9108      14.0932      14.0934      14.1197       0.8742       0.0000
     18      14.0022      14.1758      14.1769      14.2014       0.8770       0.0000
     19      14.4524      14.6278      14.6212      14.6462       0.8708       0.0000
     20      18.7320      18.9572      18.9618      19.0007       0.8552       0.0000
     21      19.5034      19.7524      19.7563      19.7993       0.8548       0.0000
     22      19.6228      19.8868      19.8875      19.9331       0.8529       0.0000
     23      20.8843      21.0621      21.0604      21.0865       0.8709       0.0000
     24      21.9724      22.2891      22.2895      22.3479       0.8446       0.0000
     25      22.1667      22.3396      22.3391      22.3646       0.8711       0.0000
     26      22.1745      22.3463      22.3455      22.3705       0.8723       0.0000
     27      23.1268      23.3575      23.3586      23.3959       0.8613       0.0000
     28      24.3813      24.6489      24.6490      24.6939       0.8562       0.0000
     29      24.4678      24.7473      24.7461      24.7936       0.8543       0.0000
     30      24.7476      24.8675      24.8671      24.8831       0.8818       0.0000
     31      27.5531      27.8652      27.8641      27.9224       0.8422       0.0000
     32      28.1451      28.4034      28.4021      28.4465       0.8527       0.0000
 


--------------------------------------------------------------------------------------------------------



IMPORTANT INFORMATION: All symmetrisations will be switched off!
NOSYMM: (Re-)initialisation of all symmetry stuff for point group C_1.

   GW_DIAG:  cpu time    0.9373: real time    0.9412
    GWLOOP:  cpu time 4299.8213: real time 4299.9292
 writing wavefunctions
    --------------------------------------------
   GWTOTAL:  cpu time 4300.9009: real time 4301.0147
    4ORBIT:  cpu time    0.0000: real time    0.0000

 total amount of memory used by VASP MPI-rank0    90033. kBytes
=======================================================================

   base      :      30000. kBytes
   nonl-proj :      26269. kBytes
   fftplans  :       6564. kBytes
   grid      :       2458. kBytes
   one-center:         65. kBytes
   HF        :        547. kBytes
   nonlr-proj:        275. kBytes
   wavefun   :      23855. kBytes
   2eintegral:          0. kBytes
   fockhandle:          0. kBytes
   response  :          0. kBytes
   cacher    :          0. kBytes
 
  
  
 General timing and accounting informations for this job:
 ========================================================
  
                  Total CPU time used (sec):     4305.873
                            User time (sec):     4301.577
                          System time (sec):        4.296
                         Elapsed time (sec):     4306.540
  
                   Maximum memory used (kb):      711792.
                   Average memory used (kb):           0.
  
                          Minor page faults:       425895
                          Major page faults:            0
                 Voluntary context switches:         4093
