   1   1   0   0
  0.5667377E+02  0.4311540E-09  0.4311540E-09  0.4311540E-09  0.1000000E-15
  1.000000000000000E-004
  CAR 
 Og_FCC                                  
     18.10426966    -32.88584852  301      3.83102434      1.00000000
    -32.886  0.0000E+00  0.0000E+00
    -32.716  0.0000E+00  0.0000E+00
    -32.546  0.0000E+00  0.0000E+00
    -32.376  0.0000E+00  0.0000E+00
    -32.206  0.0000E+00  0.0000E+00
    -32.036  0.0000E+00  0.0000E+00
    -31.866  0.0000E+00  0.0000E+00
    -31.696  0.0000E+00  0.0000E+00
    -31.526 -0.5704E-38 -0.9695E-39
    -31.356 -0.3912E-25 -0.6649E-26
    -31.186 -0.7932E-15 -0.1348E-15
    -31.016 -0.4390E-07 -0.7461E-08
    -30.846 -0.6271E-02 -0.1066E-02
    -30.676 -0.7674E+00 -0.1315E+00
    -30.506  0.2236E+02  0.3669E+01
    -30.336  0.2012E+01  0.4011E+01
    -30.166 -0.6519E-01  0.4000E+01
    -29.996 -0.2963E-05  0.4000E+01
    -29.826 -0.3098E-12  0.4000E+01
    -29.656  0.0000E+00  0.4000E+01
    -29.487  0.0000E+00  0.4000E+01
    -29.317  0.0000E+00  0.4000E+01
    -29.147  0.0000E+00  0.4000E+01
    -28.977  0.0000E+00  0.4000E+01
    -28.807  0.0000E+00  0.4000E+01
    -28.637  0.0000E+00  0.4000E+01
    -28.467  0.0000E+00  0.4000E+01
    -28.297  0.0000E+00  0.4000E+01
    -28.127  0.0000E+00  0.4000E+01
    -27.957  0.0000E+00  0.4000E+01
    -27.787  0.0000E+00  0.4000E+01
    -27.617  0.0000E+00  0.4000E+01
    -27.447  0.0000E+00  0.4000E+01
    -27.277  0.0000E+00  0.4000E+01
    -27.107  0.0000E+00  0.4000E+01
    -26.937  0.0000E+00  0.4000E+01
    -26.767  0.0000E+00  0.4000E+01
    -26.597  0.0000E+00  0.4000E+01
    -26.427  0.0000E+00  0.4000E+01
    -26.257  0.0000E+00  0.4000E+01
    -26.087  0.0000E+00  0.4000E+01
    -25.917  0.0000E+00  0.4000E+01
    -25.747  0.0000E+00  0.4000E+01
    -25.577  0.0000E+00  0.4000E+01
    -25.407  0.0000E+00  0.4000E+01
    -25.237  0.0000E+00  0.4000E+01
    -25.067  0.0000E+00  0.4000E+01
    -24.897  0.0000E+00  0.4000E+01
    -24.727 -0.2064E-29  0.4000E+01
    -24.557 -0.3500E-18  0.4000E+01
    -24.387 -0.1686E-09  0.4000E+01
    -24.218 -0.2259E-03  0.4000E+01
    -24.048 -0.5847E+00  0.3901E+01
    -23.878  0.1681E+02  0.6758E+01
    -23.708  0.1981E+02  0.1012E+02
    -23.538 -0.7310E+00  0.1000E+02
    -23.368 -0.4192E-03  0.1000E+02
    -23.198 -0.4405E-09  0.1000E+02
    -23.028  0.0000E+00  0.1000E+02
    -22.858  0.0000E+00  0.1000E+02
    -22.688  0.0000E+00  0.1000E+02
    -22.518  0.0000E+00  0.1000E+02
    -22.348  0.0000E+00  0.1000E+02
    -22.178  0.0000E+00  0.1000E+02
    -22.008  0.0000E+00  0.1000E+02
    -21.838  0.0000E+00  0.1000E+02
    -21.668  0.0000E+00  0.1000E+02
    -21.498  0.0000E+00  0.1000E+02
    -21.328  0.0000E+00  0.1000E+02
    -21.158 -0.3005E-34  0.1000E+02
    -20.988 -0.1563E-22  0.1000E+02
    -20.818 -0.2592E-13  0.1000E+02
    -20.648 -0.1444E-06  0.1000E+02
    -20.478 -0.2727E-02  0.1000E+02
    -20.308 -0.1374E+00  0.9976E+01
    -20.138  0.6487E+01  0.1108E+02
    -19.968  0.5636E+01  0.1204E+02
    -19.798 -0.2152E+00  0.1200E+02
    -19.628 -0.2289E-03  0.1200E+02
    -19.458 -0.4875E-09  0.1200E+02
    -19.288  0.0000E+00  0.1200E+02
    -19.119  0.0000E+00  0.1200E+02
    -18.949  0.0000E+00  0.1200E+02
    -18.779  0.0000E+00  0.1200E+02
    -18.609  0.0000E+00  0.1200E+02
    -18.439  0.0000E+00  0.1200E+02
    -18.269  0.0000E+00  0.1200E+02
    -18.099  0.0000E+00  0.1200E+02
    -17.929  0.0000E+00  0.1200E+02
    -17.759  0.0000E+00  0.1200E+02
    -17.589  0.0000E+00  0.1200E+02
    -17.419  0.0000E+00  0.1200E+02
    -17.249  0.0000E+00  0.1200E+02
    -17.079  0.0000E+00  0.1200E+02
    -16.909  0.0000E+00  0.1200E+02
    -16.739  0.0000E+00  0.1200E+02
    -16.569  0.0000E+00  0.1200E+02
    -16.399  0.0000E+00  0.1200E+02
    -16.229  0.0000E+00  0.1200E+02
    -16.059  0.0000E+00  0.1200E+02
    -15.889  0.0000E+00  0.1200E+02
    -15.719  0.0000E+00  0.1200E+02
    -15.549  0.0000E+00  0.1200E+02
    -15.379  0.0000E+00  0.1200E+02
    -15.209  0.0000E+00  0.1200E+02
    -15.039  0.0000E+00  0.1200E+02
    -14.869  0.0000E+00  0.1200E+02
    -14.699  0.0000E+00  0.1200E+02
    -14.529  0.0000E+00  0.1200E+02
    -14.359  0.0000E+00  0.1200E+02
    -14.189  0.0000E+00  0.1200E+02
    -14.020  0.0000E+00  0.1200E+02
    -13.850  0.0000E+00  0.1200E+02
    -13.680  0.0000E+00  0.1200E+02
    -13.510  0.0000E+00  0.1200E+02
    -13.340  0.0000E+00  0.1200E+02
    -13.170  0.0000E+00  0.1200E+02
    -13.000  0.0000E+00  0.1200E+02
    -12.830  0.0000E+00  0.1200E+02
    -12.660  0.0000E+00  0.1200E+02
    -12.490  0.0000E+00  0.1200E+02
    -12.320  0.0000E+00  0.1200E+02
    -12.150  0.0000E+00  0.1200E+02
    -11.980  0.0000E+00  0.1200E+02
    -11.810  0.0000E+00  0.1200E+02
    -11.640  0.0000E+00  0.1200E+02
    -11.470  0.0000E+00  0.1200E+02
    -11.300  0.0000E+00  0.1200E+02
    -11.130  0.0000E+00  0.1200E+02
    -10.960  0.0000E+00  0.1200E+02
    -10.790  0.0000E+00  0.1200E+02
    -10.620  0.0000E+00  0.1200E+02
    -10.450  0.0000E+00  0.1200E+02
    -10.280  0.0000E+00  0.1200E+02
    -10.110  0.0000E+00  0.1200E+02
     -9.940  0.0000E+00  0.1200E+02
     -9.770  0.0000E+00  0.1200E+02
     -9.600  0.0000E+00  0.1200E+02
     -9.430  0.0000E+00  0.1200E+02
     -9.260  0.0000E+00  0.1200E+02
     -9.090  0.0000E+00  0.1200E+02
     -8.920  0.0000E+00  0.1200E+02
     -8.751  0.0000E+00  0.1200E+02
     -8.581  0.0000E+00  0.1200E+02
     -8.411  0.0000E+00  0.1200E+02
     -8.241  0.0000E+00  0.1200E+02
     -8.071  0.0000E+00  0.1200E+02
     -7.901 -0.3833E-35  0.1200E+02
     -7.731 -0.4687E-23  0.1200E+02
     -7.561 -0.1720E-13  0.1200E+02
     -7.391 -0.1933E-06  0.1200E+02
     -7.221 -0.6013E-02  0.1200E+02
     -7.051 -0.2467E-01  0.1199E+02
     -6.881  0.6922E+01  0.1317E+02
     -6.711  0.3544E+01  0.1377E+02
     -6.541  0.1107E+01  0.1396E+02
     -6.371  0.2340E+00  0.1400E+02
     -6.201 -0.8945E-02  0.1400E+02
     -6.031 -0.4396E-04  0.1400E+02
     -5.861 -0.7231E-09  0.1400E+02
     -5.691 -0.4301E-16  0.1400E+02
     -5.521  0.0000E+00  0.1400E+02
     -5.351  0.0000E+00  0.1400E+02
     -5.181  0.0000E+00  0.1400E+02
     -5.011  0.0000E+00  0.1400E+02
     -4.841  0.0000E+00  0.1400E+02
     -4.671  0.0000E+00  0.1400E+02
     -4.501  0.0000E+00  0.1400E+02
     -4.331  0.0000E+00  0.1400E+02
     -4.161  0.0000E+00  0.1400E+02
     -3.991  0.0000E+00  0.1400E+02
     -3.821  0.0000E+00  0.1400E+02
     -3.652  0.0000E+00  0.1400E+02
     -3.482  0.0000E+00  0.1400E+02
     -3.312  0.0000E+00  0.1400E+02
     -3.142  0.0000E+00  0.1400E+02
     -2.972  0.0000E+00  0.1400E+02
     -2.802  0.0000E+00  0.1400E+02
     -2.632  0.0000E+00  0.1400E+02
     -2.462  0.0000E+00  0.1400E+02
     -2.292  0.0000E+00  0.1400E+02
     -2.122  0.0000E+00  0.1400E+02
     -1.952  0.0000E+00  0.1400E+02
     -1.782  0.0000E+00  0.1400E+02
     -1.612  0.0000E+00  0.1400E+02
     -1.442  0.0000E+00  0.1400E+02
     -1.272  0.0000E+00  0.1400E+02
     -1.102  0.0000E+00  0.1400E+02
     -0.932  0.0000E+00  0.1400E+02
     -0.762  0.0000E+00  0.1400E+02
     -0.592  0.0000E+00  0.1400E+02
     -0.422 -0.2170E-37  0.1400E+02
     -0.252 -0.5662E-25  0.1400E+02
     -0.082 -0.4256E-15  0.1400E+02
      0.088 -0.1027E-07  0.1400E+02
      0.258 -0.7513E-03  0.1400E+02
      0.428 -0.1178E+00  0.1398E+02
      0.598  0.3640E+01  0.1460E+02
      0.768  0.4317E+01  0.1533E+02
      0.938  0.1309E+01  0.1555E+02
      1.108  0.6920E+00  0.1567E+02
      1.278  0.6350E+00  0.1578E+02
      1.447  0.2896E+00  0.1583E+02
      1.617  0.6993E+00  0.1595E+02
      1.787  0.9119E+00  0.1610E+02
      1.957  0.2311E+01  0.1650E+02
      2.127  0.9326E+00  0.1665E+02
      2.297  0.1332E+01  0.1688E+02
      2.467  0.1373E+01  0.1711E+02
      2.637  0.1140E+01  0.1731E+02
      2.807  0.5697E+00  0.1741E+02
      2.977  0.1336E+01  0.1763E+02
      3.147  0.6602E+00  0.1774E+02
      3.317  0.6585E+00  0.1786E+02
      3.487  0.3999E+00  0.1792E+02
      3.657  0.2993E+00  0.1798E+02
      3.827  0.1430E+00  0.1800E+02
      3.997  0.1886E-01  0.1800E+02
      4.167 -0.8672E-03  0.1800E+02
      4.337 -0.8491E-06  0.1800E+02
      4.507 -0.1868E-11  0.1800E+02
      4.677 -0.2739E-08  0.1800E+02
      4.847 -0.1381E-03  0.1800E+02
      5.017  0.8466E-03  0.1800E+02
      5.187  0.1291E+00  0.1802E+02
      5.357  0.1096E-01  0.1803E+02
      5.527  0.8861E-01  0.1804E+02
      5.697 -0.4059E-02  0.1804E+02
      5.867  0.2078E-01  0.1804E+02
      6.037  0.2229E+00  0.1808E+02
      6.207  0.7890E-01  0.1810E+02
      6.377  0.4703E+00  0.1818E+02
      6.547  0.2289E+00  0.1821E+02
      6.716  0.3178E+00  0.1827E+02
      6.886  0.8157E+00  0.1841E+02
      7.056  0.2062E+01  0.1876E+02
      7.226  0.6121E+00  0.1886E+02
      7.396  0.6357E+00  0.1897E+02
      7.566  0.1544E+01  0.1923E+02
      7.736  0.2535E+01  0.1966E+02
      7.906  0.7623E+00  0.1979E+02
      8.076  0.9726E+00  0.1996E+02
      8.246  0.4654E+00  0.2004E+02
      8.416  0.4358E+00  0.2011E+02
      8.586  0.4818E+00  0.2019E+02
      8.756  0.3487E-01  0.2020E+02
      8.926  0.8055E+00  0.2034E+02
      9.096  0.3199E+01  0.2088E+02
      9.266  0.1812E+01  0.2119E+02
      9.436  0.1115E+01  0.2138E+02
      9.606  0.7004E+00  0.2150E+02
      9.776  0.1058E+01  0.2168E+02
      9.946  0.1345E+01  0.2190E+02
     10.116  0.1965E+01  0.2224E+02
     10.286  0.2377E+01  0.2264E+02
     10.456  0.5946E+00  0.2274E+02
     10.626  0.5455E+00  0.2284E+02
     10.796  0.9559E+00  0.2300E+02
     10.966  0.2051E+01  0.2335E+02
     11.136  0.2633E+01  0.2380E+02
     11.306  0.1359E+01  0.2403E+02
     11.476  0.6011E+00  0.2413E+02
     11.646  0.1347E+01  0.2436E+02
     11.815  0.1225E+01  0.2457E+02
     11.985  0.2837E+01  0.2505E+02
     12.155  0.1836E+01  0.2536E+02
     12.325  0.1019E+01  0.2553E+02
     12.495  0.1623E+01  0.2581E+02
     12.665  0.1146E+01  0.2600E+02
     12.835  0.1165E+01  0.2620E+02
     13.005  0.1125E+01  0.2639E+02
     13.175  0.9021E+00  0.2655E+02
     13.345  0.1605E+01  0.2682E+02
     13.515  0.1563E+01  0.2708E+02
     13.685  0.1070E+01  0.2727E+02
     13.855  0.5466E-01  0.2728E+02
     14.025  0.1552E+01  0.2754E+02
     14.195  0.1211E+01  0.2775E+02
     14.365  0.3367E+00  0.2780E+02
     14.535 -0.4504E-02  0.2780E+02
     14.705  0.1458E+00  0.2783E+02
     14.875  0.3265E+00  0.2788E+02
     15.045  0.2295E+00  0.2792E+02
     15.215  0.2177E+00  0.2796E+02
     15.385  0.8384E-01  0.2797E+02
     15.555  0.1442E+00  0.2800E+02
     15.725  0.4423E-02  0.2800E+02
     15.895  0.1525E-01  0.2800E+02
     16.065 -0.5061E-03  0.2800E+02
     16.235 -0.4858E-05  0.2800E+02
     16.405 -0.3697E-10  0.2800E+02
     16.575  0.0000E+00  0.2800E+02
     16.745  0.0000E+00  0.2800E+02
     16.915  0.0000E+00  0.2800E+02
     17.084  0.0000E+00  0.2800E+02
     17.254  0.0000E+00  0.2800E+02
     17.424  0.0000E+00  0.2800E+02
     17.594  0.0000E+00  0.2800E+02
     17.764  0.0000E+00  0.2800E+02
     17.934  0.0000E+00  0.2800E+02
     18.104  0.0000E+00  0.2800E+02
