    1    1    1    1
  0.5667377E+02  0.4311540E-09  0.4311540E-09  0.4311540E-09  0.1000000E-15
  1.000000000000000E-004
  CAR 
 Og_FCC                                  
     18    365     28
 
  0.0000000E+00  0.0000000E+00  0.0000000E+00  0.1371742E-02
    1      -30.568116   1.000000
    2      -30.568101   1.000000
    3      -30.568086   1.000000
    4      -30.568073   1.000000
    5      -23.881456   1.000000
    6      -23.881441   1.000000
    7      -23.876700   1.000000
    8      -23.876699   1.000000
    9      -23.876679   1.000000
   10      -23.876677   1.000000
   11      -20.281842   1.000000
   12      -20.281720   1.000000
   13       -6.444793   1.000000
   14       -6.444767   1.000000
   15        3.802810   0.728560
   16        3.802841   0.728327
   17        3.802871   0.728111
   18        3.802905   0.727857
   19        3.855724   0.297878
   20        3.855814   0.297189
   21       11.121241   0.000000
   22       11.121258   0.000000
   23       11.121279   0.000000
   24       11.121296   0.000000
   25       11.562486   0.000000
   26       11.562499   0.000000
   27       11.578571   0.000000
   28       11.578586   0.000000
 
  0.1111111E+00  0.1031040E-17  0.6938894E-17  0.2743484E-02
    1      -30.567903   1.000000
    2      -30.567891   1.000000
    3      -30.567562   1.000000
    4      -30.567535   1.000000
    5      -23.880468   1.000000
    6      -23.880455   1.000000
    7      -23.876793   1.000000
    8      -23.876785   1.000000
    9      -23.875534   1.000000
   10      -23.875525   1.000000
   11      -20.266330   1.000000
   12      -20.266208   1.000000
   13       -6.497203   1.000000
   14       -6.497176   1.000000
   15        2.606611   1.000000
   16        2.606627   1.000000
   17        3.724705   1.030504
   18        3.724756   1.030469
   19        5.098594  -0.000000
   20        5.098621  -0.000000
   21       10.346141   0.000000
   22       10.346172   0.000000
   23       11.249513   0.000000
   24       11.249517   0.000000
   25       11.576916   0.000000
   26       11.576924   0.000000
   27       12.732221   0.000000
   28       12.780939   0.000000
 
  0.2222222E+00 -0.1181571E-16  0.1387779E-16  0.2743484E-02
    1      -30.567661   1.000000
    2      -30.567648   1.000000
    3      -30.566539   1.000000
    4      -30.566512   1.000000
    5      -23.879055   1.000000
    6      -23.879044   1.000000
    7      -23.876209   1.000000
    8      -23.876190   1.000000
    9      -23.872750   1.000000
   10      -23.872741   1.000000
   11      -20.226681   1.000000
   12      -20.226558   1.000000
   13       -6.631116   1.000000
   14       -6.631090   1.000000
   15        1.602538   1.000000
   16        1.602557   1.000000
   17        3.539317   1.000147
   18        3.539367   1.000148
   19        6.056884  -0.000000
   20        6.056937  -0.000000
   21       10.137790   0.000000
   22       10.137801   0.000000
   23       11.226867   0.000000
   24       11.226872   0.000000
   25       11.642068   0.000000
   26       11.642074   0.000000
   27       12.181305   0.000000
   28       12.182468   0.000000
 
  0.3333333E+00 -0.2466246E-16  0.1387779E-16  0.2743484E-02
    1      -30.567425   1.000000
    2      -30.567413   1.000000
    3      -30.565230   1.000000
    4      -30.565203   1.000000
    5      -23.879418   1.000000
    6      -23.879408   1.000000
    7      -23.873557   1.000000
    8      -23.873535   1.000000
    9      -23.869558   1.000000
   10      -23.869549   1.000000
   11      -20.180807   1.000000
   12      -20.180683   1.000000
   13       -6.784532   1.000000
   14       -6.784508   1.000000
   15        0.901323   1.000000
   16        0.901346   1.000000
   17        3.346533   1.000000
   18        3.346580   1.000000
   19        6.391675  -0.000000
   20        6.391756  -0.000000
   21       10.759876   0.000000
   22       10.759913   0.000000
   23       10.844237   0.000000
   24       10.844243   0.000000
   25       11.318079   0.000000
   26       11.318085   0.000000
   27       11.683666   0.000000
   28       11.683674   0.000000
 
  0.4444444E+00 -0.2363142E-16  0.2775558E-16  0.2743484E-02
    1      -30.567229   1.000000
    2      -30.567217   1.000000
    3      -30.564352   1.000000
    4      -30.564325   1.000000
    5      -23.879914   1.000000
    6      -23.879905   1.000000
    7      -23.871566   1.000000
    8      -23.871546   1.000000
    9      -23.867452   1.000000
   10      -23.867443   1.000000
   11      -20.150403   1.000000
   12      -20.150278   1.000000
   13       -6.885324   1.000000
   14       -6.885300   1.000000
   15        0.543388   1.000000
   16        0.543413   1.000000
   17        3.229219   1.000000
   18        3.229265   1.000000
   19        6.403245  -0.000000
   20        6.403336  -0.000000
   21       10.577108   0.000000
   22       10.577113   0.000000
   23       10.891397   0.000000
   24       10.891423   0.000000
   25       11.020099   0.000000
   26       11.020108   0.000000
   27       12.405620   0.000000
   28       12.405658   0.000000
 
  0.1925930E-33  0.1111111E+00  0.0000000E+00  0.2743484E-02
    1      -30.567899   1.000000
    2      -30.567896   1.000000
    3      -30.567562   1.000000
    4      -30.567535   1.000000
    5      -23.880467   1.000000
    6      -23.880456   1.000000
    7      -23.876794   1.000000
    8      -23.876784   1.000000
    9      -23.875532   1.000000
   10      -23.875527   1.000000
   11      -20.266330   1.000000
   12      -20.266208   1.000000
   13       -6.497203   1.000000
   14       -6.497176   1.000000
   15        2.606611   1.000000
   16        2.606626   1.000000
   17        3.724715   1.030496
   18        3.724745   1.030476
   19        5.098594  -0.000000
   20        5.098621  -0.000000
   21       10.346141   0.000000
   22       10.346172   0.000000
   23       11.249507   0.000000
   24       11.249522   0.000000
   25       11.576915   0.000000
   26       11.576926   0.000000
   27       12.731207   0.000000
   28       13.100345   0.000000
 
  0.1111111E+00  0.1111111E+00  0.1387779E-16  0.2743484E-02
    1      -30.567787   1.000000
    2      -30.567775   1.000000
    3      -30.567578   1.000000
    4      -30.567551   1.000000
    5      -23.880314   1.000000
    6      -23.880296   1.000000
    7      -23.876181   1.000000
    8      -23.876160   1.000000
    9      -23.875723   1.000000
   10      -23.875703   1.000000
   11      -20.261195   1.000000
   12      -20.261073   1.000000
   13       -6.514018   1.000000
   14       -6.513991   1.000000
   15        2.494938   1.000000
   16        2.494955   1.000000
   17        3.539703   1.000150
   18        3.539721   1.000151
   19        5.408723  -0.000000
   20        5.408737  -0.000000
   21       10.030140   0.000000
   22       10.030184   0.000000
   23       11.287424   0.000000
   24       11.287435   0.000000
   25       11.897823   0.000000
   26       11.897842   0.000000
   27       11.999061   0.000000
   28       11.999078   0.000000
 
  0.2222222E+00  0.1111111E+00  0.1387779E-16  0.2743484E-02
    1      -30.567547   1.000000
    2      -30.567534   1.000000
    3      -30.566754   1.000000
    4      -30.566729   1.000000
    5      -23.879029   1.000000
    6      -23.879015   1.000000
    7      -23.876132   1.000000
    8      -23.876115   1.000000
    9      -23.873193   1.000000
   10      -23.873182   1.000000
   11      -20.229618   1.000000
   12      -20.229495   1.000000
   13       -6.618631   1.000000
   14       -6.618605   1.000000
   15        1.746176   1.000000
   16        1.746189   1.000000
   17        3.311740   1.000000
   18        3.311772   1.000000
   19        6.292955  -0.000000
   20        6.292981  -0.000000
   21        9.650172   0.000000
   22        9.650207   0.000000
   23       10.781847   0.000000
   24       10.781867   0.000000
   25       11.756628   0.000000
   26       11.756653   0.000000
   27       12.446988   0.000000
   28       12.447009   0.000000
 
  0.3333333E+00  0.1111111E+00  0.0000000E+00  0.2743484E-02
    1      -30.567266   1.000000
    2      -30.567253   1.000000
    3      -30.565552   1.000000
    4      -30.565526   1.000000
    5      -23.878565   1.000000
    6      -23.878554   1.000000
    7      -23.874465   1.000000
    8      -23.874435   1.000000
    9      -23.870062   1.000000
   10      -23.870051   1.000000
   11      -20.185787   1.000000
   12      -20.185663   1.000000
   13       -6.762396   1.000000
   14       -6.762371   1.000000
   15        1.052334   1.000000
   16        1.052350   1.000000
   17        3.065045   1.000000
   18        3.065081   1.000000
   19        6.829268   0.000000
   20        6.829325   0.000000
   21        9.956291   0.000000
   22        9.956295   0.000000
   23       10.215236   0.000000
   24       10.215256   0.000000
   25       11.621497   0.000000
   26       11.621530   0.000000
   27       13.009001   0.000000
   28       13.042379   0.000000
 
  0.4444444E+00  0.1111111E+00  0.2775558E-16  0.2743484E-02
    1      -30.567001   1.000000
    2      -30.566988   1.000000
    3      -30.564615   1.000000
    4      -30.564587   1.000000
    5      -23.878917   1.000000
    6      -23.878907   1.000000
    7      -23.871987   1.000000
    8      -23.871959   1.000000
    9      -23.867972   1.000000
   10      -23.867961   1.000000
   11      -20.150150   1.000000
   12      -20.150025   1.000000
   13       -6.877940   1.000000
   14       -6.877915   1.000000
   15        0.621451   1.000000
   16        0.621471   1.000000
   17        2.875895   1.000000
   18        2.875933   1.000000
   19        6.932859   0.000000
   20        6.932934   0.000000
   21        9.637470   0.000000
   22        9.637490   0.000000
   23       11.033688   0.000000
   24       11.033718   0.000000
   25       11.537432   0.000000
   26       11.537468   0.000000
   27       12.720313   0.000000
   28       12.720326   0.000000
 
 -0.4444444E+00  0.1111111E+00 -0.4163336E-16  0.2743484E-02
    1      -30.566933   1.000000
    2      -30.566921   1.000000
    3      -30.564313   1.000000
    4      -30.564284   1.000000
    5      -23.879019   1.000000
    6      -23.879010   1.000000
    7      -23.871063   1.000000
    8      -23.871042   1.000000
    9      -23.867581   1.000000
   10      -23.867572   1.000000
   11      -20.139954   1.000000
   12      -20.139828   1.000000
   13       -6.910789   1.000000
   14       -6.910765   1.000000
   15        0.509268   1.000000
   16        0.509290   1.000000
   17        2.822360   1.000000
   18        2.822400   1.000000
   19        6.950407   0.000000
   20        6.950485   0.000000
   21        9.566544   0.000000
   22        9.566565   0.000000
   23       10.980847   0.000000
   24       10.980888   0.000000
   25       11.986841   0.000000
   26       11.986886   0.000000
   27       12.912338   0.000000
   28       12.912342   0.000000
 
 -0.3333333E+00  0.1111111E+00 -0.1387779E-16  0.2743484E-02
    1      -30.567068   1.000000
    2      -30.567055   1.000000
    3      -30.564852   1.000000
    4      -30.564822   1.000000
    5      -23.878655   1.000000
    6      -23.878646   1.000000
    7      -23.872678   1.000000
    8      -23.872667   1.000000
    9      -23.868702   1.000000
   10      -23.868689   1.000000
   11      -20.160247   1.000000
   12      -20.160122   1.000000
   13       -6.845623   1.000000
   14       -6.845598   1.000000
   15        0.726335   1.000000
   16        0.726358   1.000000
   17        2.929199   1.000000
   18        2.929243   1.000000
   19        6.959583   0.000000
   20        6.959656   0.000000
   21        9.812702   0.000000
   22        9.812725   0.000000
   23       10.949401   0.000000
   24       10.949437   0.000000
   25       11.268512   0.000000
   26       11.268549   0.000000
   27       12.971261   0.000000
   28       12.978499   0.000000
 
 -0.2222222E+00  0.1111111E+00 -0.2081668E-16  0.2743484E-02
    1      -30.567371   1.000000
    2      -30.567358   1.000000
    3      -30.565943   1.000000
    4      -30.565912   1.000000
    5      -23.878124   1.000000
    6      -23.878114   1.000000
    7      -23.875649   1.000000
    8      -23.875641   1.000000
    9      -23.871123   1.000000
   10      -23.871108   1.000000
   11      -20.201033   1.000000
   12      -20.200909   1.000000
   13       -6.713367   1.000000
   14       -6.713342   1.000000
   15        1.246727   1.000000
   16        1.246748   1.000000
   17        3.171583   1.000000
   18        3.171629   1.000000
   19        6.719497   0.000000
   20        6.719552   0.000000
   21        9.953366   0.000000
   22        9.953379   0.000000
   23       10.576128   0.000000
   24       10.576144   0.000000
   25       11.441777   0.000000
   26       11.441821   0.000000
   27       12.429678   0.000000
   28       12.429774   0.000000
 
 -0.1111111E+00  0.1111111E+00 -0.7305249E-17  0.2743484E-02
    1      -30.567702   1.000000
    2      -30.567691   1.000000
    3      -30.567032   1.000000
    4      -30.566999   1.000000
    5      -23.879165   1.000000
    6      -23.879158   1.000000
    7      -23.876834   1.000000
    8      -23.876826   1.000000
    9      -23.873952   1.000000
   10      -23.873941   1.000000
   11      -20.242796   1.000000
   12      -20.242674   1.000000
   13       -6.575948   1.000000
   14       -6.575922   1.000000
   15        1.974144   1.000000
   16        1.974161   1.000000
   17        3.485048   1.000006
   18        3.485093   1.000006
   19        5.920164  -0.000000
   20        5.920199  -0.000000
   21        9.934245   0.000000
   22        9.934274   0.000000
   23       11.166080   0.000000
   24       11.166097   0.000000
   25       11.680113   0.000000
   26       11.680157   0.000000
   27       12.244556   0.000000
   28       12.244876   0.000000
 
  0.0000000E+00  0.2222222E+00 -0.1387779E-16  0.2743484E-02
    1      -30.567656   1.000000
    2      -30.567653   1.000000
    3      -30.566540   1.000000
    4      -30.566512   1.000000
    5      -23.879051   1.000000
    6      -23.879048   1.000000
    7      -23.876211   1.000000
    8      -23.876188   1.000000
    9      -23.872748   1.000000
   10      -23.872743   1.000000
   11      -20.226681   1.000000
   12      -20.226558   1.000000
   13       -6.631116   1.000000
   14       -6.631090   1.000000
   15        1.602538   1.000000
   16        1.602556   1.000000
   17        3.539327   1.000147
   18        3.539357   1.000148
   19        6.056883  -0.000000
   20        6.056937  -0.000000
   21       10.137788   0.000000
   22       10.137803   0.000000
   23       11.226863   0.000000
   24       11.226876   0.000000
   25       11.642067   0.000000
   26       11.642073   0.000000
   27       12.181299   0.000000
   28       12.181869   0.000000
 
  0.1111111E+00  0.2222222E+00 -0.4163336E-16  0.2743484E-02
    1      -30.567543   1.000000
    2      -30.567538   1.000000
    3      -30.566754   1.000000
    4      -30.566728   1.000000
    5      -23.879027   1.000000
    6      -23.879017   1.000000
    7      -23.876134   1.000000
    8      -23.876113   1.000000
    9      -23.873194   1.000000
   10      -23.873181   1.000000
   11      -20.229618   1.000000
   12      -20.229495   1.000000
   13       -6.618631   1.000000
   14       -6.618605   1.000000
   15        1.746171   1.000000
   16        1.746194   1.000000
   17        3.311747   1.000000
   18        3.311766   1.000000
   19        6.292954  -0.000000
   20        6.292982  -0.000000
   21        9.650174   0.000000
   22        9.650205   0.000000
   23       10.781842   0.000000
   24       10.781871   0.000000
   25       11.756629   0.000000
   26       11.756652   0.000000
   27       12.446993   0.000000
   28       12.447003   0.000000
 
  0.2222222E+00  0.2222222E+00  0.0000000E+00  0.2743484E-02
    1      -30.567174   1.000000
    2      -30.567162   1.000000
    3      -30.566371   1.000000
    4      -30.566344   1.000000
    5      -23.879053   1.000000
    6      -23.879037   1.000000
    7      -23.874953   1.000000
    8      -23.874932   1.000000
    9      -23.871749   1.000000
   10      -23.871733   1.000000
   11      -20.208493   1.000000
   12      -20.208369   1.000000
   13       -6.683684   1.000000
   14       -6.683658   1.000000
   15        1.498445   1.000000
   16        1.498464   1.000000
   17        2.970319   1.000000
   18        2.970335   1.000000
   19        6.849934   0.000000
   20        6.849950   0.000000
   21        9.011793   0.000000
   22        9.011844   0.000000
   23       10.233390   0.000000
   24       10.233411   0.000000
   25       12.058554   0.000000
   26       12.058569   0.000000
   27       13.012888   0.000000
   28       13.012900   0.000000
 
  0.3333333E+00  0.2222222E+00  0.0000000E+00  0.2743484E-02
    1      -30.566801   1.000000
    2      -30.566788   1.000000
    3      -30.565500   1.000000
    4      -30.565472   1.000000
    5      -23.878318   1.000000
    6      -23.878305   1.000000
    7      -23.874292   1.000000
    8      -23.874268   1.000000
    9      -23.868822   1.000000
   10      -23.868809   1.000000
   11      -20.172817   1.000000
   12      -20.172692   1.000000
   13       -6.794817   1.000000
   14       -6.794791   1.000000
   15        1.053589   1.000000
   16        1.053601   1.000000
   17        2.657207   1.000000
   18        2.657226   1.000000
   19        7.254320   0.000000
   20        7.254357   0.000000
   21        8.896116   0.000000
   22        8.896156   0.000000
   23        9.895323   0.000000
   24        9.895337   0.000000
   25       12.386845   0.000000
   26       12.386860   0.000000
   27       13.597013   0.000000
   28       13.597028   0.000000
 
  0.4444444E+00  0.2222222E+00  0.2775558E-16  0.2743484E-02
    1      -30.566464   1.000000
    2      -30.566451   1.000000
    3      -30.564725   1.000000
    4      -30.564694   1.000000
    5      -23.877595   1.000000
    6      -23.877583   1.000000
    7      -23.872755   1.000000
    8      -23.872725   1.000000
    9      -23.867097   1.000000
   10      -23.867085   1.000000
   11      -20.139139   1.000000
   12      -20.139014   1.000000
   13       -6.898021   1.000000
   14       -6.897996   1.000000
   15        0.697760   1.000000
   16        0.697768   1.000000
   17        2.341320   1.000000
   18        2.341348   1.000000
   19        7.445814   0.000000
   20        7.445877   0.000000
   21        9.098002   0.000000
   22        9.098007   0.000000
   23       10.182792   0.000000
   24       10.182807   0.000000
   25       12.169803   0.000000
   26       12.169823   0.000000
   27       13.978414   0.000000
   28       13.978455   0.000000
 
 -0.4444444E+00  0.2222222E+00 -0.5551115E-16  0.2743484E-02
    1      -30.566274   1.000000
    2      -30.566260   1.000000
    3      -30.564314   1.000000
    4      -30.564281   1.000000
    5      -23.877222   1.000000
    6      -23.877211   1.000000
    7      -23.870771   1.000000
    8      -23.870741   1.000000
    9      -23.867578   1.000000
   10      -23.867565   1.000000
   11      -20.123509   1.000000
   12      -20.123383   1.000000
   13       -6.945083   1.000000
   14       -6.945059   1.000000
   15        0.538017   1.000000
   16        0.538030   1.000000
   17        2.177880   1.000000
   18        2.177921   1.000000
   19        7.629776   0.000000
   20        7.629854   0.000000
   21        9.025634   0.000000
   22        9.025642   0.000000
   23       11.260689   0.000000
   24       11.260703   0.000000
   25       11.956816   0.000000
   26       11.956839   0.000000
   27       13.335353   0.000000
   28       13.335378   0.000000
 
 -0.3333333E+00  0.2222222E+00 -0.4857226E-16  0.2743484E-02
    1      -30.566432   1.000000
    2      -30.566418   1.000000
    3      -30.564602   1.000000
    4      -30.564566   1.000000
    5      -23.876898   1.000000
    6      -23.876888   1.000000
    7      -23.871126   1.000000
    8      -23.871118   1.000000
    9      -23.868794   1.000000
   10      -23.868781   1.000000
   11      -20.133548   1.000000
   12      -20.133423   1.000000
   13       -6.916170   1.000000
   14       -6.916146   1.000000
   15        0.601806   1.000000
   16        0.601824   1.000000
   17        2.272672   1.000000
   18        2.272722   1.000000
   19        7.855855   0.000000
   20        7.855938   0.000000
   21        9.028901   0.000000
   22        9.028911   0.000000
   23       11.033827   0.000000
   24       11.033850   0.000000
   25       11.942285   0.000000
   26       11.942316   0.000000
   27       13.444957   0.000000
   28       13.644642   0.000000
 
 -0.2222222E+00  0.2222222E+00 -0.5303779E-16  0.2743484E-02
    1      -30.566861   1.000000
    2      -30.566849   1.000000
    3      -30.565225   1.000000
    4      -30.565190   1.000000
    5      -23.876756   1.000000
    6      -23.876747   1.000000
    7      -23.874299   1.000000
    8      -23.874293   1.000000
    9      -23.869433   1.000000
   10      -23.869415   1.000000
   11      -20.164300   1.000000
   12      -20.164176   1.000000
   13       -6.825375   1.000000
   14       -6.825350   1.000000
   15        0.866790   1.000000
   16        0.866808   1.000000
   17        2.633883   1.000000
   18        2.633931   1.000000
   19        7.628307   0.000000
   20        7.628370   0.000000
   21        9.379972   0.000000
   22        9.379987   0.000000
   23       10.336664   0.000000
   24       10.336678   0.000000
   25       11.689021   0.000000
   26       11.689050   0.000000
   27       12.496079   0.000000
   28       12.496131   0.000000
 
 -0.1111111E+00  0.2222222E+00 -0.4163336E-16  0.2743484E-02
    1      -30.567368   1.000000
    2      -30.567361   1.000000
    3      -30.565943   1.000000
    4      -30.565912   1.000000
    5      -23.878120   1.000000
    6      -23.878118   1.000000
    7      -23.875650   1.000000
    8      -23.875640   1.000000
    9      -23.871122   1.000000
   10      -23.871109   1.000000
   11      -20.201033   1.000000
   12      -20.200909   1.000000
   13       -6.713367   1.000000
   14       -6.713342   1.000000
   15        1.246730   1.000000
   16        1.246746   1.000000
   17        3.171588   1.000000
   18        3.171624   1.000000
   19        6.719497   0.000000
   20        6.719552   0.000000
   21        9.953362   0.000000
   22        9.953383   0.000000
   23       10.576128   0.000000
   24       10.576145   0.000000
   25       11.441777   0.000000
   26       11.441822   0.000000
   27       12.429690   0.000000
   28       12.429828   0.000000
 
 -0.3851860E-33  0.3333333E+00 -0.2775558E-16  0.2743484E-02
    1      -30.567420   1.000000
    2      -30.567418   1.000000
    3      -30.565231   1.000000
    4      -30.565203   1.000000
    5      -23.879415   1.000000
    6      -23.879412   1.000000
    7      -23.873558   1.000000
    8      -23.873535   1.000000
    9      -23.869556   1.000000
   10      -23.869551   1.000000
   11      -20.180807   1.000000
   12      -20.180683   1.000000
   13       -6.784533   1.000000
   14       -6.784507   1.000000
   15        0.901324   1.000000
   16        0.901344   1.000000
   17        3.346541   1.000000
   18        3.346572   1.000000
   19        6.391675  -0.000000
   20        6.391757  -0.000000
   21       10.759875   0.000000
   22       10.759913   0.000000
   23       10.844235   0.000000
   24       10.844246   0.000000
   25       11.318078   0.000000
   26       11.318085   0.000000
   27       11.683665   0.000000
   28       11.683674   0.000000
 
  0.1111111E+00  0.3333333E+00  0.0000000E+00  0.2743484E-02
    1      -30.567261   1.000000
    2      -30.567257   1.000000
    3      -30.565552   1.000000
    4      -30.565525   1.000000
    5      -23.878560   1.000000
    6      -23.878558   1.000000
    7      -23.874465   1.000000
    8      -23.874434   1.000000
    9      -23.870063   1.000000
   10      -23.870050   1.000000
   11      -20.185787   1.000000
   12      -20.185663   1.000000
   13       -6.762397   1.000000
   14       -6.762371   1.000000
   15        1.052331   1.000000
   16        1.052353   1.000000
   17        3.065052   1.000000
   18        3.065073   1.000000
   19        6.829267   0.000000
   20        6.829325   0.000000
   21        9.956286   0.000000
   22        9.956301   0.000000
   23       10.215235   0.000000
   24       10.215257   0.000000
   25       11.621498   0.000000
   26       11.621529   0.000000
   27       13.001772   0.000000
   28       13.101893   0.000000
 
  0.2222222E+00  0.3333333E+00 -0.2775558E-16  0.2743484E-02
    1      -30.566798   1.000000
    2      -30.566790   1.000000
    3      -30.565500   1.000000
    4      -30.565472   1.000000
    5      -23.878316   1.000000
    6      -23.878306   1.000000
    7      -23.874292   1.000000
    8      -23.874267   1.000000
    9      -23.868823   1.000000
   10      -23.868808   1.000000
   11      -20.172817   1.000000
   12      -20.172692   1.000000
   13       -6.794817   1.000000
   14       -6.794791   1.000000
   15        1.053583   1.000000
   16        1.053606   1.000000
   17        2.657210   1.000000
   18        2.657224   1.000000
   19        7.254320   0.000000
   20        7.254357   0.000000
   21        8.896118   0.000000
   22        8.896154   0.000000
   23        9.895321   0.000000
   24        9.895339   0.000000
   25       12.386850   0.000000
   26       12.386856   0.000000
   27       13.597011   0.000000
   28       13.597030   0.000000
 
  0.3333333E+00  0.3333333E+00 -0.2775558E-16  0.2743484E-02
    1      -30.566361   1.000000
    2      -30.566349   1.000000
    3      -30.564934   1.000000
    4      -30.564906   1.000000
    5      -23.878585   1.000000
    6      -23.878572   1.000000
    7      -23.873580   1.000000
    8      -23.873559   1.000000
    9      -23.866147   1.000000
   10      -23.866134   1.000000
   11      -20.147767   1.000000
   12      -20.147642   1.000000
   13       -6.867163   1.000000
   14       -6.867137   1.000000
   15        0.854455   1.000000
   16        0.854476   1.000000
   17        2.434079   1.000000
   18        2.434093   1.000000
   19        7.016460   0.000000
   20        7.016501   0.000000
   21        8.328380   0.000000
   22        8.328437   0.000000
   23       10.356470   0.000000
   24       10.356474   0.000000
   25       13.197923   0.000000
   26       13.197933   0.000000
   27       14.307232   0.000000
   28       14.307232   0.000000
 
  0.4444444E+00  0.3333333E+00  0.0000000E+00  0.2743484E-02
    1      -30.566166   1.000000
    2      -30.566153   1.000000
    3      -30.564494   1.000000
    4      -30.564464   1.000000
    5      -23.877975   1.000000
    6      -23.877962   1.000000
    7      -23.872978   1.000000
    8      -23.872955   1.000000
    9      -23.864467   1.000000
   10      -23.864455   1.000000
   11      -20.122357   1.000000
   12      -20.122231   1.000000
   13       -6.940998   1.000000
   14       -6.940972   1.000000
   15        0.655665   1.000000
   16        0.655678   1.000000
   17        2.141126   1.000000
   18        2.141139   1.000000
   19        6.975588   0.000000
   20        6.975640   0.000000
   21        8.390009   0.000000
   22        8.390054   0.000000
   23       10.647384   0.000000
   24       10.647392   0.000000
   25       13.426981   0.000000
   26       13.426991   0.000000
   27       14.720063   0.000000
   28       14.720075   0.000000
 
 -0.4444444E+00  0.3333333E+00 -0.8326673E-16  0.2743484E-02
    1      -30.565828   1.000000
    2      -30.565813   1.000000
    3      -30.564259   1.000000
    4      -30.564224   1.000000
    5      -23.876766   1.000000
    6      -23.876756   1.000000
    7      -23.871879   1.000000
    8      -23.871851   1.000000
    9      -23.865090   1.000000
   10      -23.865077   1.000000
   11      -20.108595   1.000000
   12      -20.108469   1.000000
   13       -6.979173   1.000000
   14       -6.979148   1.000000
   15        0.574018   1.000000
   16        0.574028   1.000000
   17        1.839435   1.000000
   18        1.839468   1.000000
   19        7.236228   0.000000
   20        7.236292   0.000000
   21        8.977952   0.000000
   22        8.977960   0.000000
   23       10.888834   0.000000
   24       10.888846   0.000000
   25       12.838793   0.000000
   26       12.838797   0.000000
   27       13.956132   0.000000
   28       13.956165   0.000000
 
 -0.3333333E+00  0.3333333E+00 -0.2873252E-16  0.2743484E-02
    1      -30.565910   1.000000
    2      -30.565893   1.000000
    3      -30.564448   1.000000
    4      -30.564408   1.000000
    5      -23.876198   1.000000
    6      -23.876190   1.000000
    7      -23.870333   1.000000
    8      -23.870301   1.000000
    9      -23.867831   1.000000
   10      -23.867814   1.000000
   11      -20.113087   1.000000
   12      -20.112961   1.000000
   13       -6.967986   1.000000
   14       -6.967962   1.000000
   15        0.562546   1.000000
   16        0.562564   1.000000
   17        1.848657   1.000000
   18        1.848707   1.000000
   19        7.665980   0.000000
   20        7.666057   0.000000
   21        9.238090   0.000000
   22        9.238109   0.000000
   23       11.745188   0.000000
   24       11.745209   0.000000
   25       11.887591   0.000000
   26       11.887615   0.000000
   27       12.911012   0.000000
   28       12.911041   0.000000
 
 -0.2222222E+00  0.3333333E+00 -0.4163336E-16  0.2743484E-02
    1      -30.566431   1.000000
    2      -30.566419   1.000000
    3      -30.564602   1.000000
    4      -30.564566   1.000000