    1    1    1    1
  0.5469731E+02  0.4260825E-09  0.4260825E-09  0.4260825E-09  0.1000000E-15
  1.000000000000000E-004
  CAR 
 Og_FCC                                  
     18    504     28
 
  0.0000000E+00  0.0000000E+00  0.0000000E+00  0.1000000E-02
    1      -30.036536   1.000000
    2      -30.036536   1.000000
    3      -30.036536   1.000000
    4      -30.036536   1.000000
    5      -23.351275   1.000000
    6      -23.351274   1.000000
    7      -23.346095   1.000000
    8      -23.346095   1.000000
    9      -23.346095   1.000000
   10      -23.346095   1.000000
   11      -19.806142   1.000000
   12      -19.806142   1.000000
   13       -6.405852   1.000000
   14       -6.405852   1.000000
   15        4.153931   1.000000
   16        4.153933   1.000000
   17        4.605934   0.564705
   18        4.605935   0.564703
   19        4.605935   0.564701
   20        4.605935   0.564700
   21       11.470062   0.000000
   22       11.470064   0.000000
   23       11.470065   0.000000
   24       11.470067   0.000000
   25       11.544858   0.000000
   26       11.544861   0.000000
   27       11.920805   0.000000
   28       11.920808   0.000000
 
  0.1000000E+00  0.9389810E-18  0.0000000E+00  0.2000000E-02
    1      -30.036444   1.000000
    2      -30.036444   1.000000
    3      -30.036162   1.000000
    4      -30.036162   1.000000
    5      -23.350446   1.000000
    6      -23.350446   1.000000
    7      -23.346232   1.000000
    8      -23.346232   1.000000
    9      -23.345145   1.000000
   10      -23.345145   1.000000
   11      -19.793238   1.000000
   12      -19.793238   1.000000
   13       -6.447093   1.000000
   14       -6.447093   1.000000
   15        3.263766   1.000000
   16        3.263768   1.000000
   17        4.536859   0.981249
   18        4.536859   0.981248
   19        5.516196  -0.000000
   20        5.516197  -0.000000
   21       10.616567   0.000000
   22       10.616568   0.000000
   23       11.581269   0.000000
   24       11.581270   0.000000
   25       11.870807   0.000000
   26       11.870861   0.000000
   27       12.810976   0.000000
   28       13.361476   0.000000
 
  0.2000000E+00 -0.2587761E-16  0.0000000E+00  0.2000000E-02
    1      -30.036223   1.000000
    2      -30.036223   1.000000
    3      -30.035171   1.000000
    4      -30.035171   1.000000
    5      -23.348885   1.000000
    6      -23.348885   1.000000
    7      -23.346002   1.000000
    8      -23.346002   1.000000
    9      -23.342660   1.000000
   10      -23.342660   1.000000
   11      -19.759103   1.000000
   12      -19.759103   1.000000
   13       -6.555499   1.000000
   14       -6.555498   1.000000
   15        2.337926   1.000000
   16        2.337928   1.000000
   17        4.366668   1.001326
   18        4.366668   1.001326
   19        6.366607  -0.000000
   20        6.366610  -0.000000
   21       10.347618   0.000000
   22       10.347618   0.000000
   23       11.618182   0.000000
   24       11.618186   0.000000
   25       11.970931   0.000000
   26       11.971034   0.000000
   27       12.438524   0.000000
   28       12.478456   0.000000
 
  0.3000000E+00 -0.2493863E-16  0.0000000E+00  0.2000000E-02
    1      -30.035943   1.000000
    2      -30.035943   1.000000
    3      -30.033979   1.000000
    4      -30.033979   1.000000
    5      -23.348850   1.000000
    6      -23.348850   1.000000
    7      -23.343855   1.000000
    8      -23.343855   1.000000
    9      -23.339585   1.000000
   10      -23.339585   1.000000
   11      -19.716248   1.000000
   12      -19.716247   1.000000
   13       -6.690417   1.000000
   14       -6.690417   1.000000
   15        1.634633   1.000000
   16        1.634634   1.000000
   17        4.174055   1.000000
   18        4.174056   1.000000
   19        6.702959  -0.000000
   20        6.702962  -0.000000
   21       10.873488   0.000000
   22       10.873489   0.000000
   23       11.293063   0.000000
   24       11.293064   0.000000
   25       11.742614   0.000000
   26       11.742615   0.000000
   27       11.797618   0.000000
   28       11.797619   0.000000
 
  0.4000000E+00 -0.5175523E-16  0.0000000E+00  0.2000000E-02
    1      -30.035718   1.000000
    2      -30.035717   1.000000
    3      -30.032997   1.000000
    4      -30.032996   1.000000
    5      -23.349386   1.000000
    6      -23.349386   1.000000
    7      -23.341570   1.000000
    8      -23.341570   1.000000
    9      -23.337096   1.000000
   10      -23.337096   1.000000
   11      -19.681004   1.000000
   12      -19.681003   1.000000
   13       -6.800281   1.000000
   14       -6.800280   1.000000
   15        1.199459   1.000000
   16        1.199460   1.000000
   17        4.029892   1.000000
   18        4.029892   1.000000
   19        6.712173  -0.000000
   20        6.712176  -0.000000
   21       10.984211   0.000000
   22       10.984211   0.000000
   23       11.125456   0.000000
   24       11.125456   0.000000
   25       11.408062   0.000000
   26       11.408062   0.000000
   27       12.251423   0.000000
   28       12.251423   0.000000
 
  0.5000000E+00 -0.5081625E-16  0.0000000E+00  0.1000000E-02
    1      -30.035652   1.000000
    2      -30.035651   1.000000
    3      -30.032642   1.000000
    4      -30.032642   1.000000
    5      -23.349627   1.000000
    6      -23.349627   1.000000
    7      -23.340673   1.000000
    8      -23.340672   1.000000
    9      -23.336148   1.000000
   10      -23.336148   1.000000
   11      -19.667473   1.000000
   12      -19.667473   1.000000
   13       -6.842479   1.000000
   14       -6.842479   1.000000
   15        1.052523   1.000000
   16        1.052524   1.000000
   17        3.977191   1.000000
   18        3.977191   1.000000
   19        6.686430  -0.000000
   20        6.686433  -0.000000
   21       10.870841   0.000000
   22       10.870842   0.000000
   23       11.032900   0.000000
   24       11.032901   0.000000
   25       11.298245   0.000000
   26       11.298246   0.000000
   27       12.819046   0.000000
   28       12.819046   0.000000
 
 -0.5777790E-33  0.1000000E+00 -0.6938894E-17  0.2000000E-02
    1      -30.036444   1.000000
    2      -30.036444   1.000000
    3      -30.036162   1.000000
    4      -30.036162   1.000000
    5      -23.350446   1.000000
    6      -23.350446   1.000000
    7      -23.346232   1.000000
    8      -23.346232   1.000000
    9      -23.345145   1.000000
   10      -23.345144   1.000000
   11      -19.793238   1.000000
   12      -19.793238   1.000000
   13       -6.447093   1.000000
   14       -6.447093   1.000000
   15        3.263766   1.000000
   16        3.263768   1.000000
   17        4.536858   0.981249
   18        4.536859   0.981248
   19        5.516196  -0.000000
   20        5.516197  -0.000000
   21       10.616567   0.000000
   22       10.616568   0.000000
   23       11.581268   0.000000
   24       11.581270   0.000000
   25       11.870800   0.000000
   26       11.870804   0.000000
   27       12.811487   0.000000
   28       12.930431   0.000000
 
  0.1000000E+00  0.1000000E+00 -0.1387779E-16  0.2000000E-02
    1      -30.036319   1.000000
    2      -30.036319   1.000000
    3      -30.036135   1.000000
    4      -30.036135   1.000000
    5      -23.350274   1.000000
    6      -23.350274   1.000000
    7      -23.345675   1.000000
    8      -23.345675   1.000000
    9      -23.345329   1.000000
   10      -23.345329   1.000000
   11      -19.788941   1.000000
   12      -19.788940   1.000000
   13       -6.460366   1.000000
   14       -6.460366   1.000000
   15        3.153441   1.000000
   16        3.153442   1.000000
   17        4.367668   1.001386
   18        4.367668   1.001386
   19        5.799077  -0.000000
   20        5.799079  -0.000000
   21       10.346883   0.000000
   22       10.346884   0.000000
   23       11.608648   0.000000
   24       11.608656   0.000000
   25       12.163840   0.000000
   26       12.164084   0.000000
   27       12.389919   0.000000
   28       12.406723   0.000000
 
  0.2000000E+00  0.1000000E+00  0.0000000E+00  0.2000000E-02
    1      -30.036105   1.000000
    2      -30.036105   1.000000
    3      -30.035367   1.000000
    4      -30.035367   1.000000
    5      -23.349011   1.000000
    6      -23.349011   1.000000
    7      -23.345734   1.000000
    8      -23.345734   1.000000
    9      -23.343134   1.000000
   10      -23.343134   1.000000
   11      -19.761877   1.000000
   12      -19.761876   1.000000
   13       -6.545025   1.000000
   14       -6.545025   1.000000
   15        2.466203   1.000000
   16        2.466204   1.000000
   17        4.157596   1.000000
   18        4.157596   1.000000
   19        6.574538  -0.000000
   20        6.574540  -0.000000
   21        9.962252   0.000000
   22        9.962253   0.000000
   23       11.257348   0.000000
   24       11.257350   0.000000
   25       12.032517   0.000000
   26       12.032519   0.000000
   27       12.620494   0.000000
   28       12.620868   0.000000
 
  0.3000000E+00  0.1000000E+00  0.0000000E+00  0.2000000E-02
    1      -30.035816   1.000000
    2      -30.035816   1.000000
    3      -30.034264   1.000000
    4      -30.034263   1.000000
    5      -23.348212   1.000000
    6      -23.348211   1.000000
    7      -23.344600   1.000000
    8      -23.344600   1.000000
    9      -23.340135   1.000000
   10      -23.340135   1.000000
   11      -19.721910   1.000000
   12      -19.721910   1.000000
   13       -6.669096   1.000000
   14       -6.669096   1.000000
   15        1.786981   1.000000
   16        1.786982   1.000000
   17        3.922999   1.000000
   18        3.922999   1.000000
   19        7.078855  -0.000000
   20        7.078858  -0.000000
   21       10.228658   0.000000
   22       10.228658   0.000000
   23       10.595917   0.000000
   24       10.595920   0.000000
   25       11.971074   0.000000
   26       11.971093   0.000000
   27       13.173888   0.000000
   28       13.237062   0.000000
 
  0.4000000E+00  0.1000000E+00  0.0000000E+00  0.2000000E-02
    1      -30.035563   1.000000
    2      -30.035563   1.000000
    3      -30.033256   1.000000
    4      -30.033256   1.000000
    5      -23.348519   1.000000
    6      -23.348519   1.000000
    7      -23.342201   1.000000
    8      -23.342201   1.000000
    9      -23.337656   1.000000
   10      -23.337656   1.000000
   11      -19.684116   1.000000
   12      -19.684116   1.000000
   13       -6.785246   1.000000
   14       -6.785246   1.000000
   15        1.304490   1.000000
   16        1.304491   1.000000
   17        3.716865   1.000000
   18        3.716866   1.000000
   19        7.182849  -0.000000
   20        7.182852  -0.000000
   21       10.094704   0.000000
   22       10.094706   0.000000
   23       11.152266   0.000000
   24       11.152267   0.000000
   25       11.752320   0.000000
   26       11.752323   0.000000
   27       12.784927   0.000000
   28       12.784995   0.000000
 
  0.5000000E+00  0.1000000E+00  0.0000000E+00  0.2000000E-02
    1      -30.035416   1.000000
    2      -30.035415   1.000000
    3      -30.032691   1.000000
    4      -30.032690   1.000000
    5      -23.348796   1.000000
    6      -23.348796   1.000000
    7      -23.340581   1.000000
    8      -23.340580   1.000000
    9      -23.336507   1.000000
   10      -23.336507   1.000000
   11      -19.663232   1.000000
   12      -19.663232   1.000000
   13       -6.848742   1.000000
   14       -6.848742   1.000000
   15        1.076004   1.000000
   16        1.076005   1.000000
   17        3.607687   1.000000
   18        3.607687   1.000000
   19        7.175123  -0.000000
   20        7.175126  -0.000000
   21        9.904267   0.000000
   22        9.904269   0.000000
   23       11.296876   0.000000
   24       11.296880   0.000000
   25       12.228722   0.000000
   26       12.228723   0.000000
   27       12.845309   0.000000
   28       12.845310   0.000000
 
 -0.4000000E+00  0.1000000E+00  0.0000000E+00  0.2000000E-02
    1      -30.035443   1.000000
    2      -30.035443   1.000000
    3      -30.032803   1.000000
    4      -30.032802   1.000000
    5      -23.348684   1.000000
    6      -23.348684   1.000000
    7      -23.340893   1.000000
    8      -23.340893   1.000000
    9      -23.336842   1.000000
   10      -23.336842   1.000000
   11      -19.667738   1.000000
   12      -19.667738   1.000000
   13       -6.835102   1.000000
   14       -6.835101   1.000000
   15        1.120395   1.000000
   16        1.120397   1.000000
   17        3.629344   1.000000
   18        3.629344   1.000000
   19        7.196597  -0.000000
   20        7.196600  -0.000000
   21        9.981071   0.000000
   22        9.981073   0.000000
   23       11.252935   0.000000
   24       11.252939   0.000000
   25       12.083999   0.000000
   26       12.084000   0.000000
   27       12.914387   0.000000
   28       12.914394   0.000000
 
 -0.3000000E+00  0.1000000E+00  0.1387779E-16  0.2000000E-02
    1      -30.035655   1.000000
    2      -30.035655   1.000000
    3      -30.033569   1.000000
    4      -30.033569   1.000000
    5      -23.348222   1.000000
    6      -23.348221   1.000000
    7      -23.343059   1.000000
    8      -23.343059   1.000000
    9      -23.338511   1.000000
   10      -23.338510   1.000000
   11      -19.695840   1.000000
   12      -19.695840   1.000000
   13       -6.749768   1.000000
   14       -6.749767   1.000000
   15        1.433694   1.000000
   16        1.433695   1.000000
   17        3.780759   1.000000
   18        3.780759   1.000000
   19        7.204887  -0.000000
   20        7.204890  -0.000000
   21       10.284832   0.000000
   22       10.284834   0.000000
   23       11.086508   0.000000
   24       11.086508   0.000000
   25       11.487928   0.000000
   26       11.487932   0.000000
   27       13.057226   0.000000
   28       13.309171   0.000000
 
 -0.2000000E+00  0.1000000E+00  0.0000000E+00  0.2000000E-02
    1      -30.035954   1.000000
    2      -30.035954   1.000000
    3      -30.034631   1.000000
    4      -30.034631   1.000000
    5      -23.347906   1.000000
    6      -23.347906   1.000000
    7      -23.345670   1.000000
    8      -23.345670   1.000000
    9      -23.341128   1.000000
   10      -23.341128   1.000000
   11      -19.736184   1.000000
   12      -19.736184   1.000000
   13       -6.625617   1.000000
   14       -6.625617   1.000000
   15        1.984193   1.000000
   16        1.984194   1.000000
   17        4.030131   1.000000
   18        4.030131   1.000000
   19        6.953805  -0.000000
   20        6.953808  -0.000000
   21       10.185491   0.000000
   22       10.185491   0.000000
   23       11.027620   0.000000
   24       11.027622   0.000000
   25       11.811204   0.000000
   26       11.811220   0.000000
   27       12.599325   0.000000
   28       12.607258   0.000000
 
 -0.1000000E+00  0.1000000E+00 -0.1033522E-16  0.2000000E-02
    1      -30.036269   1.000000
    2      -30.036268   1.000000
    3      -30.035629   1.000000
    4      -30.035629   1.000000
    5      -23.349282   1.000000
    6      -23.349282   1.000000
    7      -23.346272   1.000000
    8      -23.346272   1.000000
    9      -23.343757   1.000000
   10      -23.343757   1.000000
   11      -19.773257   1.000000
   12      -19.773257   1.000000
   13       -6.510153   1.000000
   14       -6.510152   1.000000
   15        2.682545   1.000000
   16        2.682547   1.000000
   17        4.320944   1.000140
   18        4.320945   1.000140
   19        6.233990  -0.000000
   20        6.233992  -0.000000
   21       10.220167   0.000000
   22       10.220168   0.000000
   23       11.547853   0.000000
   24       11.547859   0.000000
   25       11.975608   0.000000
   26       11.975686   0.000000
   27       12.627165   0.000000
   28       12.739494   0.000000
 
 -0.7703720E-33  0.2000000E+00 -0.2775558E-16  0.2000000E-02
    1      -30.036223   1.000000
    2      -30.036223   1.000000
    3      -30.035171   1.000000
    4      -30.035171   1.000000
    5      -23.348885   1.000000
    6      -23.348885   1.000000
    7      -23.346002   1.000000
    8      -23.346002   1.000000
    9      -23.342660   1.000000
   10      -23.342660   1.000000
   11      -19.759103   1.000000
   12      -19.759103   1.000000
   13       -6.555499   1.000000
   14       -6.555498   1.000000
   15        2.337926   1.000000
   16        2.337928   1.000000
   17        4.366668   1.001326
   18        4.366668   1.001326
   19        6.366607  -0.000000
   20        6.366609  -0.000000
   21       10.347618   0.000000
   22       10.347618   0.000000
   23       11.618181   0.000000
   24       11.618199   0.000000
   25       11.970928   0.000000
   26       11.971231   0.000000
   27       12.438421   0.000000
   28       12.573442   0.000000
 
  0.1000000E+00  0.2000000E+00 -0.2775558E-16  0.2000000E-02
    1      -30.036105   1.000000
    2      -30.036105   1.000000
    3      -30.035367   1.000000
    4      -30.035367   1.000000
    5      -23.349011   1.000000
    6      -23.349011   1.000000
    7      -23.345734   1.000000
    8      -23.345734   1.000000
    9      -23.343134   1.000000
   10      -23.343134   1.000000
   11      -19.761877   1.000000
   12      -19.761876   1.000000
   13       -6.545025   1.000000
   14       -6.545025   1.000000
   15        2.466203   1.000000
   16        2.466204   1.000000
   17        4.157596   1.000000
   18        4.157597   1.000000
   19        6.574538  -0.000000
   20        6.574540  -0.000000
   21        9.962252   0.000000
   22        9.962253   0.000000
   23       11.257348   0.000000
   24       11.257350   0.000000
   25       12.032517   0.000000
   26       12.032525   0.000000
   27       12.620494   0.000000
   28       12.620731   0.000000
 
  0.2000000E+00  0.2000000E+00 -0.5551115E-16  0.2000000E-02
    1      -30.035768   1.000000
    2      -30.035768   1.000000
    3      -30.035063   1.000000
    4      -30.035063   1.000000
    5      -23.348909   1.000000
    6      -23.348909   1.000000
    7      -23.344601   1.000000
    8      -23.344601   1.000000
    9      -23.342066   1.000000
   10      -23.342066   1.000000
   11      -19.743533   1.000000
   12      -19.743533   1.000000
   13       -6.599242   1.000000
   14       -6.599242   1.000000
   15        2.224510   1.000000
   16        2.224511   1.000000
   17        3.831779   1.000000
   18        3.831779   1.000000
   19        7.115389  -0.000000
   20        7.115390  -0.000000
   21        9.399147   0.000000
   22        9.399148   0.000000
   23       10.689148   0.000000
   24       10.689150   0.000000
   25       12.215106   0.000000
   26       12.215108   0.000000
   27       13.130755   0.000000
   28       13.130758   0.000000
 
  0.3000000E+00  0.2000000E+00 -0.2775558E-16  0.2000000E-02
    1      -30.035444   1.000000
    2      -30.035444   1.000000
    3      -30.034241   1.000000
    4      -30.034241   1.000000
    5      -23.348159   1.000000
    6      -23.348159   1.000000
    7      -23.344097   1.000000
    8      -23.344097   1.000000
    9      -23.339266   1.000000
   10      -23.339266   1.000000
   11      -19.710728   1.000000
   12      -19.710728   1.000000
   13       -6.696994   1.000000
   14       -6.696994   1.000000
   15        1.779892   1.000000
   16        1.779893   1.000000
   17        3.534630   1.000000
   18        3.534630   1.000000
   19        7.546447   0.000000
   20        7.546449   0.000000
   21        9.257570   0.000000
   22        9.257571   0.000000
   23       10.224886   0.000000
   24       10.224888   0.000000
   25       12.521452   0.000000
   26       12.521454   0.000000
   27       13.637958   0.000000
   28       13.638138   0.000000
 
  0.4000000E+00  0.2000000E+00  0.0000000E+00  0.2000000E-02
    1      -30.035134   1.000000
    2      -30.035134   1.000000
    3      -30.033377   1.000000
    4      -30.033377   1.000000
    5      -23.347467   1.000000
    6      -23.347467   1.000000
    7      -23.342810   1.000000
    8      -23.342809   1.000000
    9      -23.337006   1.000000
   10      -23.337006   1.000000
   11      -19.675779   1.000000
   12      -19.675778   1.000000
   13       -6.799895   1.000000
   14       -6.799895   1.000000
   15        1.381544   1.000000
   16        1.381546   1.000000
   17        3.225049   1.000000
   18        3.225049   1.000000
   19        7.722125   0.000000
   20        7.722127   0.000000
   21        9.447518   0.000000
   22        9.447519   0.000000
   23       10.278948   0.000000
   24       10.278950   0.000000
   25       12.411745   0.000000
   26       12.411748   0.000000
   27       14.054282   0.000000
   28       14.063469   0.000000
 
  0.5000000E+00  0.2000000E+00 -0.2775558E-16  0.2000000E-02
    1      -30.034893   1.000000
    2      -30.034893   1.000000
    3      -30.032805   1.000000
    4      -30.032804   1.000000
    5      -23.347203   1.000000
    6      -23.347203   1.000000
    7      -23.340829   1.000000
    8      -23.340829   1.000000
    9      -23.336416   1.000000
   10      -23.336415   1.000000
   11      -19.652136   1.000000
   12      -19.652135   1.000000
   13       -6.868260   1.000000
   14       -6.868260   1.000000
   15        1.140796   1.000000
   16        1.140797   1.000000
   17        3.006356   1.000000
   18        3.006356   1.000000
   19        7.814771   0.000000
   20        7.814774   0.000000
   21        9.342192   0.000000
   22        9.342194   0.000000
   23       11.227665   0.000000
   24       11.227666   0.000000
   25       12.155777   0.000000
   26       12.155780   0.000000
   27       13.941120   0.000000
   28       13.942081   0.000000
 
 -0.4000000E+00  0.2000000E+00 -0.2775558E-16  0.2000000E-02
    1      -30.034858   1.000000
    2      -30.034858   1.000000
    3      -30.032752   1.000000
    4      -30.032752   1.000000
    5      -23.346964   1.000000
    6      -23.346963   1.000000
    7      -23.339839   1.000000
    8      -23.339839   1.000000
    9      -23.337313   1.000000
   10      -23.337313   1.000000
   11      -19.649268   1.000000
   12      -19.649268   1.000000
   13       -6.876841   1.000000
   14       -6.876841   1.000000
   15        1.097936   1.000000
   16        1.097938   1.000000
   17        2.970661   1.000000
   18        2.970662   1.000000
   19        7.967038   0.000000
   20        7.967041   0.000000
   21        9.292156   0.000000
   22        9.292157   0.000000
   23       11.591517   0.000000
   24       11.591519   0.000000
   25       12.416492   0.000000
   26       12.416494   0.000000
   27       13.539887   0.000000
   28       13.541454   0.000000
 
 -0.3000000E+00  0.2000000E+00 -0.2081668E-16  0.2000000E-02
    1      -30.035073   1.000000
    2      -30.035073   1.000000
    3      -30.033178   1.000000
    4      -30.033178   1.000000
    5      -23.346595   1.000000
    6      -23.346595   1.000000
    7      -23.341850   1.000000
    8      -23.341849   1.000000
    9      -23.337960   1.000000
   10      -23.337960   1.000000
   11      -19.668270   1.000000
   12      -19.668270   1.000000
   13       -6.823205   1.000000
   14       -6.823204   1.000000
   15        1.256838   1.000000
   16        1.256839   1.000000
   17        3.149573   1.000000
   18        3.149573   1.000000
   19        8.076305   0.000000
   20        8.076309   0.000000
   21        9.451732   0.000000
   22        9.451733   0.000000
   23       11.055313   0.000000
   24       11.055313   0.000000
   25       11.997742   0.000000
   26       11.997746   0.000000
   27       13.325937   0.000000
   28       13.326091   0.000000
 
 -0.2000000E+00  0.2000000E+00 -0.7760447E-17  0.2000000E-02
    1      -30.035507   1.000000
    2      -30.035507   1.000000
    3      -30.033918   1.000000
    4      -30.033918   1.000000
    5      -23.346373   1.000000
    6      -23.346373   1.000000
    7      -23.344884   1.000000
    8      -23.344883   1.000000
    9      -23.339195   1.000000
   10      -23.339195   1.000000
   11      -19.701612   1.000000
   12      -19.701612   1.000000
   13       -6.727729   1.000000
   14       -6.727729   1.000000
   15        1.580787   1.000000
   16        1.580788   1.000000
   17        3.528279   1.000000
   18        3.528279   1.000000
   19        7.757029   0.000000
   20        7.757031   0.000000
   21        9.844648   0.000000
   22        9.844650   0.000000
   23       10.558130   0.000000
   24       10.558130   0.000000
   25       11.942362   0.000000
   26       11.942366   0.000000
   27       12.566699   0.000000
   28       12.566703   0.000000
 
 -0.1000000E+00  0.2000000E+00 -0.2081668E-16  0.2000000E-02
    1      -30.035954   1.000000
    2      -30.035954   1.000000
    3      -30.034631   1.000000
    4      -30.034631   1.000000
    5      -23.347906   1.000000
    6      -23.347906   1.000000
    7      -23.345670   1.000000
    8      -23.345670   1.000000
    9      -23.341128   1.000000
   10      -23.341128   1.000000
   11      -19.736184   1.000000
   12      -19.736184   1.000000
   13       -6.625617   1.000000
   14       -6.625617   1.000000
   15        1.984193   1.000000
   16        1.984194   1.000000
   17        4.030131   1.000000
   18        4.030131   1.000000
   19        6.953805  -0.000000
   20        6.953808  -0.000000
   21       10.185491   0.000000
   22       10.185491   0.000000
   23       11.027620   0.000000
   24       11.027622   0.000000
   25       11.811203   0.000000
   26       11.811213   0.000000
   27       12.599072   0.000000
   28       12.602036   0.000000
 
 -0.1155558E-32  0.3000000E+00 -0.2775558E-16  0.2000000E-02
    1      -30.035943   1.000000
    2      -30.035943   1.000000
    3      -30.033979   1.000000
    4      -30.033979   1.000000
    5      -23.348850   1.000000
    6      -23.348850   1.000000
    7      -23.343855   1.000000
    8      -23.343855   1.000000
    9      -23.339585   1.000000
   10      -23.339585   1.000000
   11      -19.716248   1.000000
   12      -19.716247   1.000000
   13       -6.690417   1.000000
   14       -6.690417   1.000000
   15        1.634633   1.000000
   16        1.634634   1.000000
   17        4.174055   1.000000
   18        4.174056   1.000000
   19        6.702959  -0.000000
   20        6.702962  -0.000000
   21       10.873488   0.000000
   22       10.873489   0.000000
   23       11.293063   0.000000
   24       11.293064   0.000000
   25       11.742614   0.000000
   26       11.742615   0.000000
   27       11.797618   0.000000
   28       11.797620   0.000000
 
  0.1000000E+00  0.3000000E+00 -0.2775558E-16  0.2000000E-02
    1      -30.035816   1.000000
    2      -30.035816   1.000000
    3      -30.034264   1.000000
    4      -30.034263   1.000000
    5      -23.348212   1.000000
    6      -23.348212   1.000000
    7      -23.344600   1.000000
    8      -23.344600   1.000000
    9      -23.340135   1.000000
   10      -23.340135   1.000000
   11      -19.721910   1.000000
   12      -19.721910   1.000000
   13       -6.669096   1.000000
   14       -6.669096   1.000000
   15        1.786981   1.000000
   16        1.786982   1.000000
   17        3.922999   1.000000
   18        3.922999   1.000000
   19        7.078855  -0.000000
   20        7.078858  -0.000000
   21       10.228658   0.000000
   22       10.228658   0.000000
   23       10.595917   0.000000
   24       10.595920   0.000000
   25       11.971075   0.000000
   26       11.971113   0.000000
   27       13.174682   0.000000
   28       13.260817   0.000000
 
  0.2000000E+00  0.3000000E+00 -0.5551115E-16  0.2000000E-02
    1      -30.035444   1.000000
    2      -30.035444   1.000000
    3      -30.034241   1.000000
    4      -30.034241   1.000000
    5      -23.348159   1.000000
    6      -23.348159   1.000000
    7      -23.344097   1.000000
    8      -23.344097   1.000000
    9      -23.339266   1.000000
   10      -23.339266   1.000000
   11      -19.710728   1.000000
   12      -19.710728   1.000000
   13       -6.696994   1.000000
   14       -6.696994   1.000000
   15        1.779892   1.000000
   16        1.779893   1.000000
   17        3.534630   1.000000
   18        3.534630   1.000000
   19        7.546447   0.000000
   20        7.546449   0.000000
   21        9.257570   0.000000
   22        9.257571   0.000000
   23       10.224886   0.000000
   24       10.224888   0.000000
   25       12.521452   0.000000
   26       12.521453   0.000000
   27       13.637963   0.000000
   28       13.638018   0.000000
 
  0.3000000E+00  0.3000000E+00 -0.5551115E-16  0.2000000E-02
    1      -30.035096   1.000000
    2      -30.035096   1.000000
    3      -30.033775   1.000000
    4      -30.033774   1.000000
    5      -23.348370   1.000000
    6      -23.348370   1.000000
    7      -23.343322   1.000000
    8      -23.343321   1.000000
    9      -23.336873   1.000000
   10      -23.336873   1.000000
   11      -19.686774   1.000000
   12      -19.686774   1.000000
   13       -6.763868   1.000000
   14       -6.763867   1.000000
   15        1.576486   1.000000
   16        1.576487   1.000000
   17        3.284931   1.000000
   18        3.284931   1.000000
   19        7.487325   0.000000
   20        7.487327   0.000000
   21        8.719485   0.000000
   22        8.719486   0.000000
   23       10.409569   0.000000
   24       10.409571   0.000000
   25       13.134048   0.000000
   26       13.134049   0.000000
   27       14.252008   0.000000
   28       14.252179   0.000000
 
  0.4000000E+00  0.3000000E+00 -0.2775558E-16  0.2000000E-02
    1      -30.034751   1.000000
    2      -30.034751   1.000000
    3      -30.033133   1.000000
    4      -30.033133   1.000000