Og_FCC                                  
           1
     4.311540    0.000000    0.000000
     2.155770    3.733903   -0.000000
     2.155770    1.244634    3.520357
   Og
   1
Direct configuration=     1
   0.00000000  0.00000000  0.00000000
