Og_FCC                                  
           1
     4.260825    0.000000    0.000000
     2.130412    3.689982   -0.000000
     2.130412    1.229994    3.478949
   Og
   1
Direct configuration=     1
   0.00000000  0.00000000  0.00000000
