Cn_FCC                                  
           1
     4.115343    0.000000    0.000000
     2.057672    3.563992   -0.000000
     2.057672    1.187997    3.360163
   Kr
   1
Direct configuration=     1
   0.00000000  0.00000000  0.00000000
Cn_FCC                                  
           1
     4.132103    0.000000    0.000000
     2.066051    3.578506   -0.000000
     2.066051    1.192835    3.373848
   Kr
   1
Direct configuration=     2
   0.00000000  0.00000000  0.00000000
Cn_FCC                                  
           1
     4.351584    0.000000    0.000000
     2.175792    3.768582   -0.000000
     2.175792    1.256194    3.553054
   Kr
   1
Direct configuration=     3
   0.00000000  0.00000000  0.00000000
Cn_FCC                                  
           1
     4.406707    0.000000    0.000000
     2.203353    3.816320   -0.000000
     2.203353    1.272107    3.598061
   Kr
   1
Direct configuration=     4
   0.00000000  0.00000000  0.00000000
Cn_FCC                                  
           1
     4.432200    0.000000    0.000000
     2.216100    3.838398   -0.000000
     2.216100    1.279466    3.618876
   Kr
   1
Direct configuration=     5
   0.00000000  0.00000000  0.00000000
