   1   1   0   0
  0.4928368E+02  0.4115343E-09  0.4115343E-09  0.4115343E-09  0.1000000E-15
  1.000000000000000E-004
  CAR 
 Og_FCC                                  
     55.82756533    -25.84986165  301     -7.20018249      1.00000000
    -25.850  0.0000E+00  0.0000E+00
    -25.578  0.0000E+00  0.0000E+00
    -25.305  0.0000E+00  0.0000E+00
    -25.033  0.0000E+00  0.0000E+00
    -24.761  0.0000E+00  0.0000E+00
    -24.489  0.0000E+00  0.0000E+00
    -24.216  0.0000E+00  0.0000E+00
    -23.944  0.0000E+00  0.0000E+00
    -23.672  0.0000E+00  0.0000E+00
    -23.400  0.0000E+00  0.0000E+00
    -23.127  0.0000E+00  0.0000E+00
    -22.855  0.0000E+00  0.0000E+00
    -22.583  0.0000E+00  0.0000E+00
    -22.311  0.0000E+00  0.0000E+00
    -22.038  0.5097E-15  0.2813E+00
    -21.766  0.0000E+00  0.2000E+01
    -21.494  0.0000E+00  0.2000E+01
    -21.221  0.0000E+00  0.2000E+01
    -20.949  0.0000E+00  0.2000E+01
    -20.677  0.0000E+00  0.2000E+01
    -20.405  0.0000E+00  0.2000E+01
    -20.132  0.0000E+00  0.2000E+01
    -19.860  0.0000E+00  0.2000E+01
    -19.588  0.0000E+00  0.2000E+01
    -19.316  0.0000E+00  0.2000E+01
    -19.043  0.0000E+00  0.2000E+01
    -18.771  0.0000E+00  0.2000E+01
    -18.499  0.0000E+00  0.2000E+01
    -18.227  0.0000E+00  0.2000E+01
    -17.954  0.0000E+00  0.2000E+01
    -17.682  0.0000E+00  0.2000E+01
    -17.410  0.0000E+00  0.2000E+01
    -17.138  0.0000E+00  0.2000E+01
    -16.865  0.0000E+00  0.2000E+01
    -16.593  0.0000E+00  0.2000E+01
    -16.321  0.0000E+00  0.2000E+01
    -16.049  0.0000E+00  0.2000E+01
    -15.776  0.0000E+00  0.2000E+01
    -15.504  0.0000E+00  0.2000E+01
    -15.232  0.0000E+00  0.2000E+01
    -14.960  0.0000E+00  0.2000E+01
    -14.687  0.0000E+00  0.2000E+01
    -14.415  0.0000E+00  0.2000E+01
    -14.143  0.0000E+00  0.2000E+01
    -13.871  0.0000E+00  0.2000E+01
    -13.598  0.0000E+00  0.2000E+01
    -13.326  0.0000E+00  0.2000E+01
    -13.054  0.0000E+00  0.2000E+01
    -12.781  0.0000E+00  0.2000E+01
    -12.509  0.0000E+00  0.2000E+01
    -12.237  0.0000E+00  0.2000E+01
    -11.965  0.0000E+00  0.2000E+01
    -11.692  0.0000E+00  0.2000E+01
    -11.420  0.0000E+00  0.2000E+01
    -11.148  0.0000E+00  0.2000E+01
    -10.876  0.0000E+00  0.2000E+01
    -10.603  0.0000E+00  0.2000E+01
    -10.331  0.0000E+00  0.2000E+01
    -10.059  0.0000E+00  0.2000E+01
     -9.787  0.0000E+00  0.2000E+01
     -9.514  0.0000E+00  0.2000E+01
     -9.242  0.0000E+00  0.2000E+01
     -8.970  0.0000E+00  0.2219E+01
     -8.698  0.0000E+00  0.3531E+01
     -8.425  0.0000E+00  0.3969E+01
     -8.153  0.2755E+01  0.5000E+01
     -7.881  0.0000E+00  0.5594E+01
     -7.609  0.1647E-03  0.7000E+01
     -7.336  0.0000E+00  0.7938E+01
     -7.064  0.0000E+00  0.8000E+01
     -6.792  0.0000E+00  0.8000E+01
     -6.520  0.0000E+00  0.8000E+01
     -6.247  0.0000E+00  0.8000E+01
     -5.975  0.0000E+00  0.8000E+01
     -5.703  0.0000E+00  0.8000E+01
     -5.431  0.0000E+00  0.8000E+01
     -5.158  0.0000E+00  0.8000E+01
     -4.886  0.0000E+00  0.8000E+01
     -4.614  0.0000E+00  0.8000E+01
     -4.341  0.0000E+00  0.8000E+01
     -4.069  0.0000E+00  0.8000E+01
     -3.797  0.0000E+00  0.8000E+01
     -3.525  0.0000E+00  0.8000E+01
     -3.252  0.0000E+00  0.8000E+01
     -2.980  0.0000E+00  0.8000E+01
     -2.708  0.0000E+00  0.8000E+01
     -2.436  0.0000E+00  0.8000E+01
     -2.163  0.0000E+00  0.8000E+01
     -1.891  0.0000E+00  0.8000E+01
     -1.619  0.0000E+00  0.8000E+01
     -1.347  0.0000E+00  0.8000E+01
     -1.074  0.0000E+00  0.8000E+01
     -0.802  0.0000E+00  0.8000E+01
     -0.530  0.0000E+00  0.8000E+01
     -0.258  0.0000E+00  0.8000E+01
      0.015  0.0000E+00  0.8000E+01
      0.287  0.0000E+00  0.8000E+01
      0.559  0.0000E+00  0.8000E+01
      0.831  0.0000E+00  0.8000E+01
      1.104  0.0000E+00  0.8000E+01
      1.376  0.0000E+00  0.8000E+01
      1.648  0.0000E+00  0.8000E+01
      1.920  0.0000E+00  0.8000E+01
      2.193  0.0000E+00  0.8000E+01
      2.465  0.0000E+00  0.8000E+01
      2.737  0.0000E+00  0.8000E+01
      3.009  0.0000E+00  0.8000E+01
      3.282  0.0000E+00  0.8000E+01
      3.554  0.0000E+00  0.8000E+01
      3.826  0.0000E+00  0.8000E+01
      4.099  0.0000E+00  0.8000E+01
      4.371  0.0000E+00  0.8031E+01
      4.643  0.0000E+00  0.8031E+01
      4.915  0.0000E+00  0.8031E+01
      5.188  0.0000E+00  0.8031E+01
      5.460  0.0000E+00  0.8031E+01
      5.732  0.0000E+00  0.8031E+01
      6.004  0.0000E+00  0.8281E+01
      6.277  0.0000E+00  0.8469E+01
      6.549  0.0000E+00  0.8469E+01
      6.821  0.0000E+00  0.8562E+01
      7.093  0.0000E+00  0.8688E+01
      7.366  0.0000E+00  0.8688E+01
      7.638  0.0000E+00  0.9812E+01
      7.910  0.0000E+00  0.1000E+02
      8.182  0.0000E+00  0.1000E+02
      8.455  0.0000E+00  0.1009E+02
      8.727  0.0000E+00  0.1009E+02
      8.999  0.0000E+00  0.1084E+02
      9.271  0.0000E+00  0.1084E+02
      9.544  0.0000E+00  0.1153E+02
      9.816  0.0000E+00  0.1228E+02
     10.088  0.0000E+00  0.1328E+02
     10.360  0.0000E+00  0.1328E+02
     10.633  0.0000E+00  0.1347E+02
     10.905  0.0000E+00  0.1366E+02
     11.177  0.1185E+01  0.1432E+02
     11.449  0.0000E+00  0.1506E+02
     11.722  0.0000E+00  0.1572E+02
     11.994  0.0000E+00  0.1609E+02
     12.266  0.0000E+00  0.1684E+02
     12.539  0.0000E+00  0.1778E+02
     12.811  0.0000E+00  0.1809E+02
     13.083  0.0000E+00  0.1847E+02
     13.355  0.0000E+00  0.1847E+02
     13.628  0.0000E+00  0.1881E+02
     13.900  0.0000E+00  0.2031E+02
     14.172  0.0000E+00  0.2031E+02
     14.444  0.0000E+00  0.2088E+02
     14.717  0.0000E+00  0.2209E+02
     14.989  0.0000E+00  0.2222E+02
     15.261  0.1911E-16  0.2231E+02
     15.533  0.0000E+00  0.2241E+02
     15.806  0.0000E+00  0.2278E+02
     16.078  0.0000E+00  0.2441E+02
     16.350  0.0000E+00  0.2472E+02
     16.622  0.0000E+00  0.2534E+02
     16.895  0.0000E+00  0.2591E+02
     17.167  0.0000E+00  0.2591E+02
     17.439  0.0000E+00  0.2594E+02
     17.711  0.0000E+00  0.2612E+02
     17.984  0.0000E+00  0.2612E+02
     18.256  0.2039E-15  0.2650E+02
     18.528  0.0000E+00  0.2775E+02
     18.800  0.0000E+00  0.2800E+02
     19.073  0.0000E+00  0.2800E+02
     19.345  0.2974E-03  0.2809E+02
     19.617  0.0000E+00  0.2828E+02
     19.889  0.0000E+00  0.2894E+02
     20.162  0.0000E+00  0.2931E+02
     20.434  0.0000E+00  0.3019E+02
     20.706  0.0000E+00  0.3169E+02
     20.979  0.0000E+00  0.3169E+02
     21.251  0.0000E+00  0.3169E+02
     21.523  0.0000E+00  0.3169E+02
     21.795  0.0000E+00  0.3169E+02
     22.068  0.0000E+00  0.3231E+02
     22.340  0.0000E+00  0.3353E+02
     22.612  0.5973E+00  0.3419E+02
     22.884  0.0000E+00  0.3431E+02
     23.157  0.0000E+00  0.3612E+02
     23.429  0.0000E+00  0.3631E+02
     23.701  0.0000E+00  0.3731E+02
     23.973  0.0000E+00  0.3781E+02
     24.246  0.0000E+00  0.3812E+02
     24.518  0.0000E+00  0.3897E+02
     24.790  0.0000E+00  0.3900E+02
     25.062  0.0000E+00  0.3906E+02
     25.335  0.0000E+00  0.3906E+02
     25.607  0.0000E+00  0.3906E+02
     25.879  0.0000E+00  0.3906E+02
     26.151  0.0000E+00  0.3916E+02
     26.424  0.6182E-01  0.3980E+02
     26.696  0.0000E+00  0.4022E+02
     26.968  0.0000E+00  0.4022E+02
     27.240  0.0000E+00  0.4059E+02
     27.513  0.0000E+00  0.4097E+02
     27.785  0.0000E+00  0.4191E+02
     28.057  0.0000E+00  0.4303E+02
     28.329  0.4591E+00  0.4434E+02
     28.602  0.0000E+00  0.4459E+02
     28.874  0.0000E+00  0.4647E+02
     29.146  0.0000E+00  0.4781E+02
     29.419  0.4591E+00  0.4844E+02
     29.691  0.0000E+00  0.4862E+02
     29.963  0.0000E+00  0.4938E+02
     30.235  0.0000E+00  0.4947E+02
     30.508  0.0000E+00  0.5022E+02
     30.780  0.0000E+00  0.5047E+02
     31.052  0.0000E+00  0.5122E+02
     31.324  0.0000E+00  0.5172E+02
     31.597  0.0000E+00  0.5234E+02
     31.869  0.0000E+00  0.5234E+02
     32.141  0.0000E+00  0.5234E+02
     32.413  0.0000E+00  0.5366E+02
     32.686  0.0000E+00  0.5366E+02
     32.958  0.0000E+00  0.5441E+02
     33.230  0.0000E+00  0.5441E+02
     33.502  0.0000E+00  0.5441E+02
     33.775  0.0000E+00  0.5478E+02
     34.047  0.0000E+00  0.5609E+02
     34.319  0.0000E+00  0.5609E+02
     34.591  0.0000E+00  0.5609E+02
     34.864  0.0000E+00  0.5628E+02
     35.136  0.0000E+00  0.5703E+02
     35.408  0.0000E+00  0.5728E+02
     35.680  0.0000E+00  0.5784E+02
     35.953  0.0000E+00  0.5841E+02
     36.225  0.0000E+00  0.5916E+02
     36.497  0.3443E+00  0.6009E+02
     36.769  0.0000E+00  0.6159E+02
     37.042  0.0000E+00  0.6188E+02
     37.314  0.0000E+00  0.6338E+02
     37.586  0.0000E+00  0.6350E+02
     37.859  0.0000E+00  0.6509E+02
     38.131  0.0000E+00  0.6606E+02
     38.403  0.0000E+00  0.6669E+02
     38.675  0.0000E+00  0.6750E+02
     38.948  0.0000E+00  0.6788E+02
     39.220  0.0000E+00  0.6825E+02
     39.492  0.0000E+00  0.6894E+02
     39.764  0.0000E+00  0.7022E+02
     40.037  0.0000E+00  0.7153E+02
     40.309  0.0000E+00  0.7153E+02
     40.581  0.0000E+00  0.7266E+02
     40.853  0.0000E+00  0.7294E+02
     41.126  0.3442E+00  0.7303E+02
     41.398  0.0000E+00  0.7331E+02
     41.670  0.0000E+00  0.7331E+02
     41.942  0.0000E+00  0.7359E+02
     42.215  0.0000E+00  0.7362E+02
     42.487  0.0000E+00  0.7394E+02
     42.759  0.0000E+00  0.7444E+02
     43.031  0.0000E+00  0.7556E+02
     43.304  0.1892E-14  0.7556E+02
     43.576  0.0000E+00  0.7659E+02
     43.848  0.0000E+00  0.7678E+02
     44.120  0.0000E+00  0.7678E+02
     44.393  0.0000E+00  0.7728E+02
     44.665  0.0000E+00  0.7878E+02
     44.937  0.0000E+00  0.7925E+02
     45.209  0.1895E-10  0.7953E+02
     45.482  0.0000E+00  0.8028E+02
     45.754  0.3443E+00  0.8247E+02
     46.026  0.0000E+00  0.8275E+02
     46.299  0.1368E+01  0.8375E+02
     46.571  0.1580E-14  0.8406E+02
     46.843  0.0000E+00  0.8469E+02
     47.115  0.0000E+00  0.8556E+02
     47.388  0.5424E+00  0.8587E+02
     47.660  0.0000E+00  0.8691E+02
     47.932  0.0000E+00  0.8831E+02
     48.204  0.0000E+00  0.8988E+02
     48.477  0.0000E+00  0.9025E+02
     48.749  0.0000E+00  0.9175E+02
     49.021  0.0000E+00  0.9175E+02
     49.293  0.0000E+00  0.9212E+02
     49.566  0.0000E+00  0.9212E+02
     49.838  0.0000E+00  0.9397E+02
     50.110  0.0000E+00  0.9397E+02
     50.382  0.2940E+00  0.9442E+02
     50.655  0.0000E+00  0.9559E+02
     50.927  0.0000E+00  0.9591E+02
     51.199  0.0000E+00  0.9591E+02
     51.471  0.0000E+00  0.9591E+02
     51.744  0.0000E+00  0.9591E+02
     52.016  0.0000E+00  0.9591E+02
     52.288  0.0000E+00  0.9600E+02
     52.560  0.0000E+00  0.9600E+02
     52.833  0.0000E+00  0.9600E+02
     53.105  0.0000E+00  0.9600E+02
     53.377  0.0000E+00  0.9600E+02
     53.650  0.0000E+00  0.9600E+02
     53.922  0.0000E+00  0.9600E+02
     54.194  0.0000E+00  0.9600E+02
     54.466  0.0000E+00  0.9600E+02
     54.739  0.0000E+00  0.9600E+02
     55.011  0.0000E+00  0.9600E+02
     55.283  0.0000E+00  0.9600E+02
     55.555  0.0000E+00  0.9600E+02
     55.828  0.0000E+00  0.9600E+02
