 vasp.5.4.4.18Apr17-6-g9f103f2a35 (build Nov 03 2018 10:20:46) complex          
  
 executed on             LinuxIFC date 2018.11.14  11:59:21
 running on   16 total cores
 distrk:  each k-point on    2 cores,    8 groups
 distr:  one band on NCORES_PER_BAND=   1 cores,    2 groups


--------------------------------------------------------------------------------------------------------


 INCAR:
 POTCAR:    PAW_PBE Kr_GW 21Aug2013               

 ----------------------------------------------------------------------------- 
|                                                                             |
|           W    W    AA    RRRRR   N    N  II  N    N   GGGG   !!!           |
|           W    W   A  A   R    R  NN   N  II  NN   N  G    G  !!!           |
|           W    W  A    A  R    R  N N  N  II  N N  N  G       !!!           |
|           W WW W  AAAAAA  RRRRR   N  N N  II  N  N N  G  GGG   !            |
|           WW  WW  A    A  R   R   N   NN  II  N   NN  G    G                |
|           W    W  A    A  R    R  N    N  II  N    N   GGGG   !!!           |
|                                                                             |
|      For optimal performance we recommend to set                            |
|        NCORE= 4 - approx SQRT( number of cores)                             |
|      NCORE specifies how many cores store one orbital (NPAR=cpu/NCORE).     |
|      This setting can  greatly improve the performance of VASP for DFT.     |
|      The default,   NCORE=1            might be grossly inefficient         |
|      on modern multi-core architectures or massively parallel machines.     |
|      Do your own testing !!!!                                               |
|      Unfortunately you need to use the default for GW and RPA calculations. |
|      (for HF NCORE is supported but not extensively tested yet)             |
|                                                                             |
 ----------------------------------------------------------------------------- 


 ----------------------------------------------------------------------------- 
|                                                                             |
|           W    W    AA    RRRRR   N    N  II  N    N   GGGG   !!!           |
|           W    W   A  A   R    R  NN   N  II  NN   N  G    G  !!!           |
|           W    W  A    A  R    R  N N  N  II  N N  N  G       !!!           |
|           W WW W  AAAAAA  RRRRR   N  N N  II  N  N N  G  GGG   !            |
|           WW  WW  A    A  R   R   N   NN  II  N   NN  G    G                |
|           W    W  A    A  R    R  N    N  II  N    N   GGGG   !!!           |
|                                                                             |
|      You have enabled k-point parallelism (KPAR>1).                         |
|      This developmental code was originally  written by Paul Kent at ORNL,  |
|      and carefully double checked in Vienna.                                |
|      GW as well as linear response parallelism added by Martijn Marsman     |
|      and Georg Kresse.                                                      |
|      Carefully verify results versus KPAR=1.                                |
|      Report problems to Paul Kent and Vienna.                               |
|                                                                             |
 ----------------------------------------------------------------------------- 

 POTCAR:    PAW_PBE Kr_GW 21Aug2013               
  local pseudopotential read in
  partial core-charges read in
  partial kinetic energy density read in
  kinetic energy density of atom read in
  atomic valenz-charges read in
  non local Contribution for L=           0  read in
    real space projection operators read in
  non local Contribution for L=           0  read in
    real space projection operators read in
  non local Contribution for L=           1  read in
    real space projection operators read in
  non local Contribution for L=           1  read in
    real space projection operators read in
  non local Contribution for L=           2  read in
    real space projection operators read in
  non local Contribution for L=           2  read in
    real space projection operators read in
    PAW grid and wavefunctions read in
 
   number of l-projection  operators is LMAX  =           6
   number of lm-projection operators is LMMAX =          18
 
  PAW_PBE Kr_GW 21Aug2013               :
 energy of atom  1       EATOM= -506.7358
 kinetic energy error for atom=    0.0279 (will be added to EATOM!!)
 
 
 POSCAR: Kr_FCC                                  
  positions in direct lattice
  velocities in cartesian coordinates
 exchange correlation table for  LEXCH =        8
   RHO(1)=    0.500       N(1)  =     2000
   RHO(2)=  100.500       N(2)  =     4000
 


--------------------------------------------------------------------------------------------------------


 ion  position               nearest neighbor table
   1  0.000  0.000  0.000-
 

IMPORTANT INFORMATION: All symmetrisations will be switched off!
NOSYMM: (Re-)initialisation of all symmetry stuff for point group C_1.

 
 
 KPOINTS: k-points                                

Automatic generation of k-mesh.
Space group operators:
 irot       det(A)        alpha          n_x          n_y          n_z        tau_x        tau_y        tau_z
    1     1.000000     0.000001     1.000000     0.000000     0.000000     0.000000     0.000000     0.000000
 
 Subroutine IBZKPT returns following result:
 ===========================================
 
 Found     64 irreducible k-points:
 
 Following reciprocal coordinates:
            Coordinates               Weight
  0.000000  0.000000  0.000000      1.000000
  0.250000  0.000000 -0.000000      1.000000
  0.500000  0.000000 -0.000000      1.000000
 -0.250000 -0.000000  0.000000      1.000000
 -0.000000  0.250000  0.000000      1.000000
  0.250000  0.250000  0.000000      1.000000
  0.500000  0.250000 -0.000000      1.000000
 -0.250000  0.250000  0.000000      1.000000
 -0.000000  0.500000  0.000000      1.000000
  0.250000  0.500000  0.000000      1.000000
  0.500000  0.500000  0.000000      1.000000
 -0.250000  0.500000  0.000000      1.000000
  0.000000 -0.250000 -0.000000      1.000000
  0.250000 -0.250000 -0.000000      1.000000
  0.500000 -0.250000 -0.000000      1.000000
 -0.250000 -0.250000  0.000000      1.000000
  0.000000  0.000000  0.250000      1.000000
  0.250000 -0.000000  0.250000      1.000000
  0.500000 -0.000000  0.250000      1.000000
 -0.250000 -0.000000  0.250000      1.000000
  0.000000  0.250000  0.250000      1.000000
  0.250000  0.250000  0.250000      1.000000
  0.500000  0.250000  0.250000      1.000000
 -0.250000  0.250000  0.250000      1.000000
  0.000000  0.500000  0.250000      1.000000
  0.250000  0.500000  0.250000      1.000000
  0.500000  0.500000  0.250000      1.000000
 -0.250000  0.500000  0.250000      1.000000
  0.000000 -0.250000  0.250000      1.000000
  0.250000 -0.250000  0.250000      1.000000
  0.500000 -0.250000  0.250000      1.000000
 -0.250000 -0.250000  0.250000      1.000000
  0.000000  0.000000  0.500000      1.000000
  0.250000 -0.000000  0.500000      1.000000
  0.500000 -0.000000  0.500000      1.000000
 -0.250000 -0.000000  0.500000      1.000000
  0.000000  0.250000  0.500000      1.000000
  0.250000  0.250000  0.500000      1.000000
  0.500000  0.250000  0.500000      1.000000
 -0.250000  0.250000  0.500000      1.000000
  0.000000  0.500000  0.500000      1.000000
  0.250000  0.500000  0.500000      1.000000
  0.500000  0.500000  0.500000      1.000000
 -0.250000  0.500000  0.500000      1.000000
  0.000000 -0.250000  0.500000      1.000000
  0.250000 -0.250000  0.500000      1.000000
  0.500000 -0.250000  0.500000      1.000000
 -0.250000 -0.250000  0.500000      1.000000
 -0.000000 -0.000000 -0.250000      1.000000
  0.250000  0.000000 -0.250000      1.000000
  0.500000  0.000000 -0.250000      1.000000
 -0.250000  0.000000 -0.250000      1.000000
 -0.000000  0.250000 -0.250000      1.000000
  0.250000  0.250000 -0.250000      1.000000
  0.500000  0.250000 -0.250000      1.000000
 -0.250000  0.250000 -0.250000      1.000000
 -0.000000  0.500000 -0.250000      1.000000
  0.250000  0.500000 -0.250000      1.000000
  0.500000  0.500000 -0.250000      1.000000
 -0.250000  0.500000 -0.250000      1.000000
 -0.000000 -0.250000 -0.250000      1.000000
  0.250000 -0.250000 -0.250000      1.000000
  0.500000 -0.250000 -0.250000      1.000000
 -0.250000 -0.250000 -0.250000      1.000000
 
 Following cartesian coordinates:
            Coordinates               Weight
  0.000000  0.000000  0.000000      1.000000
  0.060748 -0.035073 -0.024800      1.000000
  0.121497 -0.070146 -0.049601      1.000000
 -0.060748  0.035073  0.024800      1.000000
  0.000000  0.070146 -0.024800      1.000000
  0.060748  0.035073 -0.049601      1.000000
  0.121497 -0.000000 -0.074401      1.000000
 -0.060748  0.105219  0.000000      1.000000
  0.000000  0.140292 -0.049601      1.000000
  0.060748  0.105219 -0.074401      1.000000
  0.121497  0.070146 -0.099202      1.000000
 -0.060748  0.175365 -0.024800      1.000000
 -0.000000 -0.070146  0.024800      1.000000
  0.060748 -0.105219 -0.000000      1.000000
  0.121497 -0.140292 -0.024800      1.000000
 -0.060748 -0.035073  0.049601      1.000000
 -0.000000  0.000000  0.074401      1.000000
  0.060748 -0.035073  0.049601      1.000000
  0.121497 -0.070146  0.024800      1.000000
 -0.060748  0.035073  0.099202      1.000000
 -0.000000  0.070146  0.049601      1.000000
  0.060748  0.035073  0.024800      1.000000
  0.121497  0.000000 -0.000000      1.000000
 -0.060748  0.105219  0.074401      1.000000
 -0.000000  0.140292  0.024800      1.000000
  0.060748  0.105219  0.000000      1.000000
  0.121497  0.070146 -0.024800      1.000000
 -0.060748  0.175365  0.049601      1.000000
 -0.000000 -0.070146  0.099202      1.000000
  0.060748 -0.105219  0.074401      1.000000
  0.121497 -0.140292  0.049601      1.000000
 -0.060748 -0.035073  0.124002      1.000000
 -0.000000  0.000000  0.148802      1.000000
  0.060748 -0.035073  0.124002      1.000000
  0.121497 -0.070146  0.099202      1.000000
 -0.060748  0.035073  0.173603      1.000000
 -0.000000  0.070146  0.124002      1.000000
  0.060748  0.035073  0.099202      1.000000
  0.121497  0.000000  0.074401      1.000000
 -0.060748  0.105219  0.148802      1.000000
 -0.000000  0.140292  0.099202      1.000000
  0.060748  0.105219  0.074401      1.000000
  0.121497  0.070146  0.049601      1.000000
 -0.060748  0.175365  0.124002      1.000000
 -0.000000 -0.070146  0.173603      1.000000
  0.060748 -0.105219  0.148802      1.000000
  0.121497 -0.140292  0.124002      1.000000
 -0.060748 -0.035073  0.198403      1.000000
  0.000000 -0.000000 -0.074401      1.000000
  0.060748 -0.035073 -0.099202      1.000000
  0.121497 -0.070146 -0.124002      1.000000
 -0.060748  0.035073 -0.049601      1.000000
  0.000000  0.070146 -0.099202      1.000000
  0.060748  0.035073 -0.124002      1.000000
  0.121497  0.000000 -0.148802      1.000000
 -0.060748  0.105219 -0.074401      1.000000
  0.000000  0.140292 -0.124002      1.000000
  0.060748  0.105219 -0.148802      1.000000
  0.121497  0.070146 -0.173603      1.000000
 -0.060748  0.175365 -0.099202      1.000000
  0.000000 -0.070146 -0.049601      1.000000
  0.060748 -0.105219 -0.074401      1.000000
  0.121497 -0.140292 -0.099202      1.000000
 -0.060748 -0.035073 -0.024800      1.000000
 
 
 Subroutine IBZKPT_HF returns following result:
 ==============================================
 
 Found     64 k-points in 1st BZ
 the following     64 k-points will be used (e.g. in the exchange kernel)
 Following reciprocal coordinates:   # in IRBZ
  0.000000  0.000000  0.000000    0.01562500   1 t-inv F
  0.250000  0.000000 -0.000000    0.01562500   2 t-inv F
  0.500000  0.000000 -0.000000    0.01562500   3 t-inv F
 -0.250000 -0.000000  0.000000    0.01562500   4 t-inv F
 -0.000000  0.250000  0.000000    0.01562500   5 t-inv F
  0.250000  0.250000  0.000000    0.01562500   6 t-inv F
  0.500000  0.250000 -0.000000    0.01562500   7 t-inv F
 -0.250000  0.250000  0.000000    0.01562500   8 t-inv F
 -0.000000  0.500000  0.000000    0.01562500   9 t-inv F
  0.250000  0.500000  0.000000    0.01562500  10 t-inv F
  0.500000  0.500000  0.000000    0.01562500  11 t-inv F
 -0.250000  0.500000  0.000000    0.01562500  12 t-inv F
  0.000000 -0.250000 -0.000000    0.01562500  13 t-inv F
  0.250000 -0.250000 -0.000000    0.01562500  14 t-inv F
  0.500000 -0.250000 -0.000000    0.01562500  15 t-inv F
 -0.250000 -0.250000  0.000000    0.01562500  16 t-inv F
  0.000000  0.000000  0.250000    0.01562500  17 t-inv F
  0.250000 -0.000000  0.250000    0.01562500  18 t-inv F
  0.500000 -0.000000  0.250000    0.01562500  19 t-inv F
 -0.250000 -0.000000  0.250000    0.01562500  20 t-inv F
  0.000000  0.250000  0.250000    0.01562500  21 t-inv F
  0.250000  0.250000  0.250000    0.01562500  22 t-inv F
  0.500000  0.250000  0.250000    0.01562500  23 t-inv F
 -0.250000  0.250000  0.250000    0.01562500  24 t-inv F
  0.000000  0.500000  0.250000    0.01562500  25 t-inv F
  0.250000  0.500000  0.250000    0.01562500  26 t-inv F
  0.500000  0.500000  0.250000    0.01562500  27 t-inv F
 -0.250000  0.500000  0.250000    0.01562500  28 t-inv F
  0.000000 -0.250000  0.250000    0.01562500  29 t-inv F
  0.250000 -0.250000  0.250000    0.01562500  30 t-inv F
  0.500000 -0.250000  0.250000    0.01562500  31 t-inv F
 -0.250000 -0.250000  0.250000    0.01562500  32 t-inv F
  0.000000  0.000000  0.500000    0.01562500  33 t-inv F
  0.250000 -0.000000  0.500000    0.01562500  34 t-inv F
  0.500000 -0.000000  0.500000    0.01562500  35 t-inv F
 -0.250000 -0.000000  0.500000    0.01562500  36 t-inv F
  0.000000  0.250000  0.500000    0.01562500  37 t-inv F
  0.250000  0.250000  0.500000    0.01562500  38 t-inv F
  0.500000  0.250000  0.500000    0.01562500  39 t-inv F
 -0.250000  0.250000  0.500000    0.01562500  40 t-inv F
  0.000000  0.500000  0.500000    0.01562500  41 t-inv F
  0.250000  0.500000  0.500000    0.01562500  42 t-inv F
  0.500000  0.500000  0.500000    0.01562500  43 t-inv F
 -0.250000  0.500000  0.500000    0.01562500  44 t-inv F
  0.000000 -0.250000  0.500000    0.01562500  45 t-inv F
  0.250000 -0.250000  0.500000    0.01562500  46 t-inv F
  0.500000 -0.250000  0.500000    0.01562500  47 t-inv F
 -0.250000 -0.250000  0.500000    0.01562500  48 t-inv F
 -0.000000 -0.000000 -0.250000    0.01562500  49 t-inv F
  0.250000  0.000000 -0.250000    0.01562500  50 t-inv F
  0.500000  0.000000 -0.250000    0.01562500  51 t-inv F
 -0.250000  0.000000 -0.250000    0.01562500  52 t-inv F
 -0.000000  0.250000 -0.250000    0.01562500  53 t-inv F
  0.250000  0.250000 -0.250000    0.01562500  54 t-inv F
  0.500000  0.250000 -0.250000    0.01562500  55 t-inv F
 -0.250000  0.250000 -0.250000    0.01562500  56 t-inv F
 -0.000000  0.500000 -0.250000    0.01562500  57 t-inv F
  0.250000  0.500000 -0.250000    0.01562500  58 t-inv F
  0.500000  0.500000 -0.250000    0.01562500  59 t-inv F
 -0.250000  0.500000 -0.250000    0.01562500  60 t-inv F
 -0.000000 -0.250000 -0.250000    0.01562500  61 t-inv F
  0.250000 -0.250000 -0.250000    0.01562500  62 t-inv F
  0.500000 -0.250000 -0.250000    0.01562500  63 t-inv F
 -0.250000 -0.250000 -0.250000    0.01562500  64 t-inv F


--------------------------------------------------------------------------------------------------------




 Dimension of arrays:
   k-points           NKPTS =     64   k-points in BZ     NKDIM =     64   number of bands    NBANDS=     96
   number of dos      NEDOS =    301   number of ions     NIONS =      1
   non local maximal  LDIM  =      6   non local SUM 2l+1 LMDIM =     18
   total plane-waves  NPLWV =  13824
   max r-space proj   IRMAX =      1   max aug-charges    IRDMAX=  70933
   dimension x,y,z NGX =    24 NGY =   24 NGZ =   24
   dimension x,y,z NGXF=    48 NGYF=   48 NGZF=   48
   support grid    NGXF=    96 NGYF=   96 NGZF=   96
   ions per type =               1
   NGX,Y,Z   is equivalent  to a cutoff of   9.70,  9.70,  9.70 a.u.
   NGXF,Y,Z  is equivalent  to a cutoff of  19.39, 19.39, 19.39 a.u.

 SYSTEM =  Og_FCC                                  
 POSCAR =  Kr_FCC                                  

 Startparameter for this run:
   NWRITE =      1    write-flag & timer
   PREC   = accura    normal or accurate (medium, high low for compatibility)
   ISTART =      1    job   : 0-new  1-cont  2-samecut
   ICHARG =      0    charge: 1-file 2-atom 10-const
   ISPIN  =      1    spin polarized calculation?
   LNONCOLLINEAR =      T non collinear calculations
   LSORBIT =      T    spin-orbit coupling
   INIWAV =      1    electr: 0-lowe 1-rand  2-diag
   LASPH  =      F    aspherical Exc in radial PAW
   METAGGA=      F    non-selfconsistent MetaGGA calc.

 Electronic Relaxation 1
   ENCUT  =  300.0 eV  22.05 Ry    4.70 a.u.   5.81  5.81  5.81*2*pi/ulx,y,z
   ENINI  =  300.0     initial cutoff
   ENAUG  =  554.8 eV  augmentation charge cutoff
   NELM   =      1;   NELMIN=  2; NELMDL=  0     # of ELM steps 
   EDIFF  = 0.1E-07   stopping-criterion for ELM
   LREAL  =      F    real-space projection
   NLSPLINE    = F    spline interpolate recip. space projectors
   LCOMPAT=      F    compatible to vasp.4.4
   GGA_COMPAT  = F    GGA compatible to vasp.4.4-vasp.4.6
   LMAXPAW     = -100 max onsite density
   LMAXMIX     =    2 max onsite mixed and CHGCAR
   VOSKOWN=      0    Vosko Wilk Nusair interpolation
   ROPT   =    0.00000
 Ionic relaxation
   EDIFFG = 0.1E-04   stopping-criterion for IOM
   NSW    =      1    number of steps for IOM
   NBLOCK =      1;   KBLOCK =      1    inner block; outer block 
   IBRION =     -1    ionic relax: 0-MD 1-quasi-New 2-CG
   NFREE  =      5    steps in history (QN), initial steepest desc. (CG)
   ISIF   =      3    stress and relaxation
   IWAVPR =     10    prediction:  0-non 1-charg 2-wave 3-comb
   ISYM   =      0    0-nonsym 1-usesym 2-fastsym
   LCORR  =      T    Harris-Foulkes like correction to forces

   POTIM  = 0.1000    time-step for ionic-motion
   TEIN   =    0.0    initial temperature
   TEBEG  =    0.0;   TEEND  =   0.0 temperature during run
   SMASS  =  -3.00    Nose mass-parameter (am)
   estimated Nose-frequenzy (Omega)   =  0.10E-29 period in steps =****** mass=  -0.387E-27a.u.
   SCALEE = 1.0000    scale energy and forces
   NPACO  =    256;   APACO  = 16.0  distance and # of slots for P.C.
   PSTRESS=    0.0 pullay stress

  Mass of Ions in am
   POMASS =  83.80
  Ionic Valenz
   ZVAL   =   8.00
  Atomic Wigner-Seitz radii
   RWIGS  =  -1.00
  virtual crystal weights 
   VCA    =   1.00
   NELECT =       8.0000    total number of electrons
   NUPDOWN=      -1.0000    fix difference up-down

 DOS related values:
   EMIN   =  10.00;   EMAX   =-10.00  energy-range for DOS
   EFERMI =   0.00
   ISMEAR =     0;   SIGMA  =   0.00  broadening in eV -4-tet -1-fermi 0-gaus

 Electronic relaxation 2 (details)
   IALGO  =     38    algorithm
   LDIAG  =      T    sub-space diagonalisation (order eigenvalues)
   LSUBROT=      F    optimize rotation matrix (better conditioning)
   TURBO    =      0    0=normal 1=particle mesh
   IRESTART =      0    0=no restart 2=restart with 2 vectors
   NREBOOT  =      0    no. of reboots
   NMIN     =      0    reboot dimension
   EREF     =   0.00    reference energy to select bands
   IMIX   =      1    mixing-type and parameters
     AMIX     =   0.40;   BMIX     =  1.00
     AMIX_MAG =   1.60;   BMIX_MAG =  1.00
     AMIN     =   0.10
     WC   =   100.;   INIMIX=   1;  MIXPRE=   1;  MAXMIX=  50

 Intra band minimization:
   WEIMIN = 0.0000     energy-eigenvalue tresh-hold
   EBREAK =  0.26E-10  absolut break condition
   DEPER  =   0.30     relativ break condition  

   TIME   =   0.40     timestep for ELM

  volume/ion in A,a.u.               =      49.28       332.58
  Fermi-wavevector in a.u.,A,eV,Ry     =   0.893039  1.687599 10.850901  0.797519
  Thomas-Fermi vector in A             =   2.015065
 
 Write flags
   LWAVE        =      T    write WAVECAR
   LDOWNSAMPLE  =      F    k-point downsampling of WAVECAR
   LCHARG       =      F    write CHGCAR
   LVTOT        =      F    write LOCPOT, total local potential
   LVHAR        =      F    write LOCPOT, Hartree potential only
   LELF         =      F    write electronic localiz. function (ELF)
   LORBIT       =      0    0 simple, 1 ext, 2 COOP (PROOUT), +10 PAW based schemes


 Dipole corrections
   LMONO  =      F    monopole corrections only (constant potential shift)
   LDIPOL =      F    correct potential (dipole corrections)
   IDIPOL =      0    1-x, 2-y, 3-z, 4-all directions 
   EPSILON=  1.0000000 bulk dielectric constant

 Exchange correlation treatment:
   GGA     =    PE    GGA type
   LEXCH   =     8    internal setting for exchange type
   VOSKOWN=      0    Vosko Wilk Nusair interpolation
   EXXOEP  =     0    0=HF, 1=EXX-LHF (local Hartree Fock) 2=EXX OEP
   LHFCALC =     T    Hartree Fock is set to
   LSYMGRAD=     F    symmetrize gradient (conserves proper symmetry)
   PRECFOCK=normal    Normal, Fast or Accurate (Low or Medium for compatibility)
   LRHFCALC=     F    long range Hartree Fock
   LRSCOR  =     F    long range correlation only (use DFT for short range part)
   LTHOMAS =     F    Thomas Fermi screening in HF
   LMODELHF=     F    short range full HF, long range fraction AEXX
   ENCUT4O =  -1.0   cutoff for four orbital integrals eV
   LMAXFOCK=     4    L truncation for augmentation on plane wave grid
   LMAXFOCKAE=   4    L truncation for all-electron charge restoration on plane wave grid
   NMAXFOCKAE=   1    number of basis functions for all-electron charge restoration
   LFOCKAEDFT=     F  apply the AE augmentation even for DFT
   NKREDX  =     1    reduce k-point grid by
   NKREDY  =     1    reduce k-point grid by
   NKREDZ  =     1    reduce k-point grid by
   SHIFTRED=     F    shift reduced grid of Gamma
   HFKIDENT=     F    idential grid for each k-point
   ODDONLY =     F    use only odd q-grid points
   EVENONLY=     F    use only even q-grid points
   HFALPHA =   -1.0000 decay constant for conv. correction
   MCALPHA =    0.0000 extent of test-charge in conv. correction in multipole expansion
   AEXX    =    1.0000 exact exchange contribution
   HFSCREEN=    0.0000 screening length (either q_TF or 0.3 A-1)
   HFSCREENC=   0.0000 screening length for correlation (either q_TF or 0.3 A-1)
   HFRCUT  =    0.0000 spherical cutoff for potential kernel
   ALDAX   =    0.0000 LDA exchange part
   AGGAX   =    0.0000 GGA exchange part
   ALDAC   =    0.0000 LDA correlation
   AGGAC   =    0.0000 GGA correlation
   ENCUTFOCK=  -1.0 apply spherical cutoff to Coloumb kernel
   NBANDSGWLOW=     1    first orbital included in HF term
   NBLOCK_FOCK=    64    blocking factor in FOCK_ACC
 Linear response parameters
   LEPSILON=     F    determine dielectric tensor
   LRPA    =     F    only Hartree local field effects (RPA)
   LNABLA  =     F    use nabla operator in PAW spheres
   LVEL    =     F    velocity operator in full k-point grid
   LINTERFAST=   F  fast interpolation
   KINTER  =     0    interpolate to denser k-point grid
   CSHIFT  =0.1000    complex shift for real part using Kramers Kronig
   OMEGAMAX=  -1.0    maximum frequency
   DEG_THRESHOLD= 0.2000000E-02 threshold for treating states as degnerate
   RTIME   =   -0.100 relaxation time in fs
  (WPLASMAI=    0.000 imaginary part of plasma frequency in eV, 0.658/RTIME)
   DFIELD  = 0.0000000 0.0000000 0.0000000 field for delta impulse in time
 
 Orbital magnetization related:
   ORBITALMAG=     F  switch on orbital magnetization
   LCHIMAG   =     F  perturbation theory with respect to B field
   DQ        =  0.001000  dq finite difference perturbation B field
   LLRAUG    =     F  two centre corrections for induced B field

 Response functions by sum over occupied states:
   ALGO    =QPGW       execute GW part
   LFXC    =     F    include DFT xc kernel in TD-HF and W
   LADDER  =     F    particle hole ladder diagrams for BSE/TD-HF and W (Nano-quanta)
   LRPAFORCE=     F   calculate RPA forces
   LHARTREE=     T    include Hartree terms (bubbles-RPA) in BSE/TD-HF
   IBSE    =     0    BSE modus: 0 exact, 1 time-evolution (store matrix), 10 time-evolution (implicit)
   KPOINT  =    -1   0   0   0    k-point index at which BSE equation is solved (and G at which response is eval.)
   LTRIPLET=     F    triplet instead of singlet excitation (BSE only)
   LRSRPA  =     F    range separated RPA (total - short) in ACFDT
   LTCTE   =     F    use test-charge test-electron dielectric function
   LTETE   =     F    use test-electron test-electron dielectric function
   LFXCEPS =     F    determine f_xc=epsilon-1/Xi Sharma and Gross kernel
   LFXHEG  =     F    model exchange using f_x(G,k_F) from free electron gas
   NATURALO=     2    0 natural orbitals, 1 only virtual, 2 only occupied-virtual rotation
   L2ORDER =     F    2nd order terms only
   LMP2LT   =     F    use LT MP2
   LUSEW   =     F    use screened W from WXXXX.tmp files instead of (screened) HF kernel
   ENCUTGW = 200.0    cutoff for response function in eV
   ENCUTGWSOFT = 200.0 soft cutoff for Coulomb kernel in GW response function in eV
   ENCUTLF =  -1.0    cutoff for local field effects
   LMAXMP2 =    -1    maximum L for one center terms
   SCISSOR =   0.0    scissor correction
   NOMEGA  =    50    number of frequencies
   NOMEGAR =    50    number of frequencies along real axis
   NBANDSGW=    -1    number of bands for which selfenergy shift is calculated
   NBANDSGWLOW=     1 lowest band included in GW (to exclude core correlation)
   NBANDSO =    -1    number of bands for electron-hole treatment (occupied)
   NBANDSV =    -1    number of bands for electron-hole treatment (virtual)
   NELM    =     1    number of iterations in solving QP/BSE equation
   NELMHF  =     1    number of iterations in the inner HF iteration
   DIM     =     3    dimensionality of system (0=0D molecules, 3=3D)
   ANTIRES =     0    antiresonant part (0) no TDA (1) w=0 exact (2) accurate
   OMEGAMAX= -30.0    maximum frequency
   OMEGAMIN= -30.000    minimum frequency
   OMEGATL =-200.0    maximum frequency of tail
   OMEGAGRID=     0    grid type (0 default)
   CSHIFT  =-0.100    complex shift used in evaluation of response functions
   SELFENERGY=   F    calculate selfenergy instead of QP shifts
   LSPECTRAL =   T    use spectral functions                   
   LSPECTRALGW=   F   use spectral functions to calculate int dz G(w-z) W(z) (more accurate)
   LSINGLES  =   F   calculate the singles contribution to the correlation energy
   LFERMIGW  =   F   update Fermi-energy in the Greens function

   ODDONLYGW =   F    avoid all even points for polarizability 
   EVENONLYGW=   F    avoid all odd  points for polarizability 
   NKREDLFX  =   1   NKREDLFY  =   1   NKREDLFZ  =   1

   TELESCOPE =   0   use telescope k-point sampling
   TAUPAR    =   1   number of TAU groups used in imaginary time calculation
   OMEGAPAR  =  -1   number of OMEGA groups used in imaginary frequency calculation



--------------------------------------------------------------------------------------------------------


 Static calculation
 charge density and potential will be updated during run
 non collinear spin polarized calculation
 Variant of blocked Davidson
 Davidson routine will perform the subspace rotation
 perform sub-space diagonalisation
    after iterative eigenvector-optimisation
 Kerker-like  mixing scheme
 using additional bands           92
 reciprocal scheme for non local part
 use partial core corrections
 calculate Harris-corrections to forces 
   (improved forces if not selfconsistent)
 use gradient corrections 
 use of overlap-Matrix (Vanderbilt PP)
 Gauss-broadening in eV      SIGMA  =   0.00


--------------------------------------------------------------------------------------------------------


  energy-cutoff  :      300.00
  volume of cell :       49.28
      direct lattice vectors                 reciprocal lattice vectors
     4.115343013  0.000000000  0.000000000     0.242993111 -0.140292138 -0.099201522
     2.057671506  3.563991594 -0.000000000     0.000000000  0.280584276 -0.099201522
     2.057671506  1.187997198  3.360163499    -0.000000000  0.000000000  0.297604566

  length of vectors
     4.115343013  4.115343013  4.115343013     0.297604566  0.297604566  0.297604566


 
 old parameters found on file WAVECAR:
  energy-cutoff  :      300.00
  volume of cell :       49.28
      direct lattice vectors                 reciprocal lattice vectors
     4.115343013  0.000000000  0.000000000     0.242993111 -0.140292138 -0.099201522
     2.057671506  3.563991594 -0.000000000     0.000000000  0.280584276 -0.099201522
     2.057671506  1.187997198  3.360163499    -0.000000000  0.000000000  0.297604566

  length of vectors

 
 k-points in units of 2pi/SCALE and weight: k-points                                
   0.00000000  0.00000000  0.00000000       0.016
   0.06074828 -0.03507303 -0.02480038       0.016
   0.12149656 -0.07014607 -0.04960076       0.016
  -0.06074828  0.03507303  0.02480038       0.016
   0.00000000  0.07014607 -0.02480038       0.016
   0.06074828  0.03507303 -0.04960076       0.016
   0.12149656 -0.00000000 -0.07440114       0.016
  -0.06074828  0.10521910  0.00000000       0.016
   0.00000000  0.14029214 -0.04960076       0.016
   0.06074828  0.10521910 -0.07440114       0.016
   0.12149656  0.07014607 -0.09920152       0.016
  -0.06074828  0.17536517 -0.02480038       0.016
  -0.00000000 -0.07014607  0.02480038       0.016
   0.06074828 -0.10521910 -0.00000000       0.016
   0.12149656 -0.14029214 -0.02480038       0.016
  -0.06074828 -0.03507303  0.04960076       0.016
  -0.00000000  0.00000000  0.07440114       0.016
   0.06074828 -0.03507303  0.04960076       0.016
   0.12149656 -0.07014607  0.02480038       0.016
  -0.06074828  0.03507303  0.09920152       0.016
  -0.00000000  0.07014607  0.04960076       0.016
   0.06074828  0.03507303  0.02480038       0.016
   0.12149656  0.00000000 -0.00000000       0.016
  -0.06074828  0.10521910  0.07440114       0.016
  -0.00000000  0.14029214  0.02480038       0.016
   0.06074828  0.10521910  0.00000000       0.016
   0.12149656  0.07014607 -0.02480038       0.016
  -0.06074828  0.17536517  0.04960076       0.016
  -0.00000000 -0.07014607  0.09920152       0.016
   0.06074828 -0.10521910  0.07440114       0.016
   0.12149656 -0.14029214  0.04960076       0.016
  -0.06074828 -0.03507303  0.12400190       0.016
  -0.00000000  0.00000000  0.14880228       0.016
   0.06074828 -0.03507303  0.12400190       0.016
   0.12149656 -0.07014607  0.09920152       0.016
  -0.06074828  0.03507303  0.17360266       0.016
  -0.00000000  0.07014607  0.12400190       0.016
   0.06074828  0.03507303  0.09920152       0.016
   0.12149656  0.00000000  0.07440114       0.016
  -0.06074828  0.10521910  0.14880228       0.016
  -0.00000000  0.14029214  0.09920152       0.016
   0.06074828  0.10521910  0.07440114       0.016
   0.12149656  0.07014607  0.04960076       0.016
  -0.06074828  0.17536517  0.12400190       0.016
  -0.00000000 -0.07014607  0.17360266       0.016
   0.06074828 -0.10521910  0.14880228       0.016
   0.12149656 -0.14029214  0.12400190       0.016
  -0.06074828 -0.03507303  0.19840304       0.016
   0.00000000 -0.00000000 -0.07440114       0.016
   0.06074828 -0.03507303 -0.09920152       0.016
   0.12149656 -0.07014607 -0.12400190       0.016
  -0.06074828  0.03507303 -0.04960076       0.016
   0.00000000  0.07014607 -0.09920152       0.016
   0.06074828  0.03507303 -0.12400190       0.016
   0.12149656  0.00000000 -0.14880228       0.016
  -0.06074828  0.10521910 -0.07440114       0.016
   0.00000000  0.14029214 -0.12400190       0.016
   0.06074828  0.10521910 -0.14880228       0.016
   0.12149656  0.07014607 -0.17360266       0.016
  -0.06074828  0.17536517 -0.09920152       0.016
   0.00000000 -0.07014607 -0.04960076       0.016
   0.06074828 -0.10521910 -0.07440114       0.016
   0.12149656 -0.14029214 -0.09920152       0.016
  -0.06074828 -0.03507303 -0.02480038       0.016
 
 k-points in reciprocal lattice and weights: k-points                                
   0.00000000  0.00000000  0.00000000       0.016
   0.25000000  0.00000000 -0.00000000       0.016
   0.50000000  0.00000000 -0.00000000       0.016
  -0.25000000 -0.00000000  0.00000000       0.016
  -0.00000000  0.25000000  0.00000000       0.016
   0.25000000  0.25000000  0.00000000       0.016
   0.50000000  0.25000000 -0.00000000       0.016
  -0.25000000  0.25000000  0.00000000       0.016
  -0.00000000  0.50000000  0.00000000       0.016
   0.25000000  0.50000000  0.00000000       0.016
   0.50000000  0.50000000  0.00000000       0.016
  -0.25000000  0.50000000  0.00000000       0.016
   0.00000000 -0.25000000 -0.00000000       0.016
   0.25000000 -0.25000000 -0.00000000       0.016
   0.50000000 -0.25000000 -0.00000000       0.016
  -0.25000000 -0.25000000  0.00000000       0.016
   0.00000000  0.00000000  0.25000000       0.016
   0.25000000 -0.00000000  0.25000000       0.016
   0.50000000 -0.00000000  0.25000000       0.016
  -0.25000000 -0.00000000  0.25000000       0.016
   0.00000000  0.25000000  0.25000000       0.016
   0.25000000  0.25000000  0.25000000       0.016
   0.50000000  0.25000000  0.25000000       0.016
  -0.25000000  0.25000000  0.25000000       0.016
   0.00000000  0.50000000  0.25000000       0.016
   0.25000000  0.50000000  0.25000000       0.016
   0.50000000  0.50000000  0.25000000       0.016
  -0.25000000  0.50000000  0.25000000       0.016
   0.00000000 -0.25000000  0.25000000       0.016
   0.25000000 -0.25000000  0.25000000       0.016
   0.50000000 -0.25000000  0.25000000       0.016
  -0.25000000 -0.25000000  0.25000000       0.016
   0.00000000  0.00000000  0.50000000       0.016
   0.25000000 -0.00000000  0.50000000       0.016
   0.50000000 -0.00000000  0.50000000       0.016
  -0.25000000 -0.00000000  0.50000000       0.016
   0.00000000  0.25000000  0.50000000       0.016
   0.25000000  0.25000000  0.50000000       0.016
   0.50000000  0.25000000  0.50000000       0.016
  -0.25000000  0.25000000  0.50000000       0.016
   0.00000000  0.50000000  0.50000000       0.016
   0.25000000  0.50000000  0.50000000       0.016
   0.50000000  0.50000000  0.50000000       0.016
  -0.25000000  0.50000000  0.50000000       0.016
   0.00000000 -0.25000000  0.50000000       0.016
   0.25000000 -0.25000000  0.50000000       0.016
   0.50000000 -0.25000000  0.50000000       0.016
  -0.25000000 -0.25000000  0.50000000       0.016
  -0.00000000 -0.00000000 -0.25000000       0.016
   0.25000000  0.00000000 -0.25000000       0.016
   0.50000000  0.00000000 -0.25000000       0.016
  -0.25000000  0.00000000 -0.25000000       0.016
  -0.00000000  0.25000000 -0.25000000       0.016
   0.25000000  0.25000000 -0.25000000       0.016
   0.50000000  0.25000000 -0.25000000       0.016
  -0.25000000  0.25000000 -0.25000000       0.016
  -0.00000000  0.50000000 -0.25000000       0.016
   0.25000000  0.50000000 -0.25000000       0.016
   0.50000000  0.50000000 -0.25000000       0.016
  -0.25000000  0.50000000 -0.25000000       0.016
  -0.00000000 -0.25000000 -0.25000000       0.016
   0.25000000 -0.25000000 -0.25000000       0.016
   0.50000000 -0.25000000 -0.25000000       0.016
  -0.25000000 -0.25000000 -0.25000000       0.016
 
 position of ions in fractional coordinates (direct lattice) 
   0.00000000  0.00000000  0.00000000
 
 position of ions in cartesian coordinates  (Angst):
   0.00000000  0.00000000  0.00000000
 
 Euler angles ALPHA=     0.0000000  BETA=     0.0000000

 transformation matrix from SAXIS to cartesian coordinates
 ---------------------------------------------------------
     1.0000000 m_x     0.0000000 m_y     0.0000000 m_z
     0.0000000 m_x     1.0000000 m_y     0.0000000 m_z
     0.0000000 m_x     0.0000000 m_y     1.0000000 m_z

 transformation matrix from cartesian coordinates to SAXIS
 ---------------------------------------------------------
     1.0000000 m_x     0.0000000 m_y     0.0000000 m_z
     0.0000000 m_x     1.0000000 m_y     0.0000000 m_z
     0.0000000 m_x     0.0000000 m_y     1.0000000 m_z




--------------------------------------------------------------------------------------------------------


 k-point  1 :   0.0000 0.0000 0.0000  plane waves:    1122
 k-point  2 :   0.2500 0.0000-0.0000  plane waves:    1152
 k-point  3 :   0.5000 0.0000-0.0000  plane waves:    1160
 k-point  4 :  -0.2500-0.0000 0.0000  plane waves:    1152
 k-point  5 :  -0.0000 0.2500 0.0000  plane waves:    1152
 k-point  6 :   0.2500 0.2500 0.0000  plane waves:    1152
 k-point  7 :   0.5000 0.2500-0.0000  plane waves:    1158
 k-point  8 :  -0.2500 0.2500 0.0000  plane waves:    1180
 k-point  9 :  -0.0000 0.5000 0.0000  plane waves:    1160
 k-point 10 :   0.2500 0.5000 0.0000  plane waves:    1158
 k-point 11 :   0.5000 0.5000 0.0000  plane waves:    1176
 k-point 12 :  -0.2500 0.5000 0.0000  plane waves:    1158
 k-point 13 :   0.0000-0.2500-0.0000  plane waves:    1152
 k-point 14 :   0.2500-0.2500-0.0000  plane waves:    1180
 k-point 15 :   0.5000-0.2500-0.0000  plane waves:    1158
 k-point 16 :  -0.2500-0.2500 0.0000  plane waves:    1152
 k-point 17 :   0.0000 0.0000 0.2500  plane waves:    1152
 k-point 18 :   0.2500-0.0000 0.2500  plane waves:    1152
 k-point 19 :   0.5000-0.0000 0.2500  plane waves:    1158
 k-point 20 :  -0.2500-0.0000 0.2500  plane waves:    1180
 k-point 21 :   0.0000 0.2500 0.2500  plane waves:    1152
 k-point 22 :   0.2500 0.2500 0.2500  plane waves:    1152
 k-point 23 :   0.5000 0.2500 0.2500  plane waves:    1180
 k-point 24 :  -0.2500 0.2500 0.2500  plane waves:    1158
 k-point 25 :   0.0000 0.5000 0.2500  plane waves:    1158
 k-point 26 :   0.2500 0.5000 0.2500  plane waves:    1180
 k-point 27 :   0.5000 0.5000 0.2500  plane waves:    1158
 k-point 28 :  -0.2500 0.5000 0.2500  plane waves:    1208
 k-point 29 :   0.0000-0.2500 0.2500  plane waves:    1180
 k-point 30 :   0.2500-0.2500 0.2500  plane waves:    1158
 k-point 31 :   0.5000-0.2500 0.2500  plane waves:    1208
 k-point 32 :  -0.2500-0.2500 0.2500  plane waves:    1158
 k-point 33 :   0.0000 0.0000 0.5000  plane waves:    1160
 k-point 34 :   0.2500-0.0000 0.5000  plane waves:    1158
 k-point 35 :   0.5000-0.0000 0.5000  plane waves:    1176
 k-point 36 :  -0.2500-0.0000 0.5000  plane waves:    1158
 k-point 37 :   0.0000 0.2500 0.5000  plane waves:    1158
 k-point 38 :   0.2500 0.2500 0.5000  plane waves:    1180
 k-point 39 :   0.5000 0.2500 0.5000  plane waves:    1158
 k-point 40 :  -0.2500 0.2500 0.5000  plane waves:    1208
 k-point 41 :   0.0000 0.5000 0.5000  plane waves:    1176
 k-point 42 :   0.2500 0.5000 0.5000  plane waves:    1158
 k-point 43 :   0.5000 0.5000 0.5000  plane waves:    1160
 k-point 44 :  -0.2500 0.5000 0.5000  plane waves:    1158
 k-point 45 :   0.0000-0.2500 0.5000  plane waves:    1158
 k-point 46 :   0.2500-0.2500 0.5000  plane waves:    1208
 k-point 47 :   0.5000-0.2500 0.5000  plane waves:    1158
 k-point 48 :  -0.2500-0.2500 0.5000  plane waves:    1180
 k-point 49 :  -0.0000-0.0000-0.2500  plane waves:    1152
 k-point 50 :   0.2500 0.0000-0.2500  plane waves:    1180
 k-point 51 :   0.5000 0.0000-0.2500  plane waves:    1158
 k-point 52 :  -0.2500 0.0000-0.2500  plane waves:    1152
 k-point 53 :  -0.0000 0.2500-0.2500  plane waves:    1180
 k-point 54 :   0.2500 0.2500-0.2500  plane waves:    1158
 k-point 55 :   0.5000 0.2500-0.2500  plane waves:    1208
 k-point 56 :  -0.2500 0.2500-0.2500  plane waves:    1158
 k-point 57 :  -0.0000 0.5000-0.2500  plane waves:    1158
 k-point 58 :   0.2500 0.5000-0.2500  plane waves:    1208
 k-point 59 :   0.5000 0.5000-0.2500  plane waves:    1158
 k-point 60 :  -0.2500 0.5000-0.2500  plane waves:    1180
 k-point 61 :  -0.0000-0.2500-0.2500  plane waves:    1152
 k-point 62 :   0.2500-0.2500-0.2500  plane waves:    1158
 k-point 63 :   0.5000-0.2500-0.2500  plane waves:    1180
 k-point 64 :  -0.2500-0.2500-0.2500  plane waves:    1152

 maximum and minimum number of plane-waves per node :      1208     1122

 maximum number of plane-waves:      1208
 maximum index in each direction: 
   IXMAX=    6   IYMAX=    6   IZMAX=    6
   IXMIN=   -6   IYMIN=   -6   IZMIN=   -6


 serial   3D FFT for wavefunctions
 parallel 3D FFT for charge:
    minimum data exchange during FFTs selected (reduces bandwidth)


 FFT grid for exact exchange (Hartree Fock) 
  NGX = 18; NGY = 18; NGZ = 18

 
 Radii for the augmentation spheres in the non-local exchange
 for species   1 augmentation radius   0.970 (default was   0.970)
 error exchange integrals (PW-AE in eV) (mean, max) 0.276 1.563 density error[0,qmax] 0.0135
 Maximum index for augmentation-charges in exchange          459
  SETUP_FOCK is finished

 total amount of memory used by VASP MPI-rank0   127475. kBytes
=======================================================================

   base      :      30000. kBytes
   nonl-proj :       5576. kBytes
   fftplans  :      16199. kBytes
   grid      :      14155. kBytes
   one-center:         62. kBytes
   HF        :        129. kBytes
   nonlr-proj:        209. kBytes
   wavefun   :      61145. kBytes
 
     INWAV:  cpu time    0.4920: real time    0.4919
 charge density for first step will be calculated from the start-wavefunctions


--------------------------------------------------------------------------------------------------------


 Maximum index for augmentation-charges        34335 (set IRDMAX)


--------------------------------------------------------------------------------------------------------


 initial charge from wavefunction
    FEWALD:  cpu time    0.0059: real time    0.0059

 The Fermi energy was updated, please check that it is located mid-gap
 values below the HOMO (VB) or above the LUMO (CB) will cause erroneous energies
 E-fermi :  -0.4840

 Response functions by sum over occupied states:
 ===============================================
   NOMEGA  =    50    number of frequencies
   NOMEGAR =    50    number of frequencies along real axis
   OMEGAMAX=  16.21   maximum frequency
   OMEGAMIN=   3.50   minimum frequency
   OMEGATL = 210.78   maximum frequency of tail
   CSHIFT  =  0.422   complex shift used in evaluation of response functions


 Energies iw= 
 ============
   0.000   0.000   0.709   0.000   1.415   0.000   2.117   0.000   2.810   0.000
   3.495   0.000   4.169   0.000   4.832   0.000   5.483   0.000   6.122   0.000
   6.750   0.000   7.368   0.000   7.977   0.000   8.578   0.000   9.173   0.000
   9.764   0.000  10.353   0.000  10.941   0.000  11.531   0.000  12.125   0.000
  12.727   0.000  13.338   0.000  13.962   0.000  14.602   0.000  15.262   0.000
  15.947   0.000  16.660   0.000  17.409   0.000  18.198   0.000  19.036   0.000
  19.932   0.000  20.895   0.000  21.940   0.000  23.083   0.000  24.343   0.000
  25.744   0.000  27.319   0.000  29.108   0.000  31.166   0.000  33.565   0.000
  36.404   0.000  39.825   0.000  44.032   0.000  49.338   0.000  56.237   0.000
  65.571   0.000  78.885   0.000  99.367   0.000 134.823   0.000 210.784   0.000
 

IMPORTANT INFORMATION: All symmetrisations will be switched off!
NOSYMM: (Re-)initialisation of all symmetry stuff for point group C_1.

 
 KPOINTS: k-points                                

Automatic generation of k-mesh.
Space group operators:
 irot       det(A)        alpha          n_x          n_y          n_z        tau_x        tau_y        tau_z
    1     1.000000     0.000001     1.000000     0.000000     0.000000     0.000000     0.000000     0.000000
 
 Subroutine IBZKPT returns following result:
 ===========================================
 
 Found     64 irreducible k-points:
 
 Following reciprocal coordinates:
            Coordinates               Weight
  0.000000  0.000000  0.000000      1.000000
  0.250000  0.000000 -0.000000      1.000000
  0.500000  0.000000 -0.000000      1.000000
 -0.250000 -0.000000  0.000000      1.000000
 -0.000000  0.250000  0.000000      1.000000
  0.250000  0.250000  0.000000      1.000000
  0.500000  0.250000 -0.000000      1.000000
 -0.250000  0.250000  0.000000      1.000000
 -0.000000  0.500000  0.000000      1.000000
  0.250000  0.500000  0.000000      1.000000
  0.500000  0.500000  0.000000      1.000000
 -0.250000  0.500000  0.000000      1.000000
  0.000000 -0.250000 -0.000000      1.000000
  0.250000 -0.250000 -0.000000      1.000000
  0.500000 -0.250000 -0.000000      1.000000
 -0.250000 -0.250000  0.000000      1.000000
  0.000000  0.000000  0.250000      1.000000
  0.250000 -0.000000  0.250000      1.000000
  0.500000 -0.000000  0.250000      1.000000
 -0.250000 -0.000000  0.250000      1.000000
  0.000000  0.250000  0.250000      1.000000
  0.250000  0.250000  0.250000      1.000000
  0.500000  0.250000  0.250000      1.000000
 -0.250000  0.250000  0.250000      1.000000
  0.000000  0.500000  0.250000      1.000000
  0.250000  0.500000  0.250000      1.000000
  0.500000  0.500000  0.250000      1.000000
 -0.250000  0.500000  0.250000      1.000000
  0.000000 -0.250000  0.250000      1.000000
  0.250000 -0.250000  0.250000      1.000000
  0.500000 -0.250000  0.250000      1.000000
 -0.250000 -0.250000  0.250000      1.000000
  0.000000  0.000000  0.500000      1.000000
  0.250000 -0.000000  0.500000      1.000000
  0.500000 -0.000000  0.500000      1.000000
 -0.250000 -0.000000  0.500000      1.000000
  0.000000  0.250000  0.500000      1.000000
  0.250000  0.250000  0.500000      1.000000
  0.500000  0.250000  0.500000      1.000000
 -0.250000  0.250000  0.500000      1.000000
  0.000000  0.500000  0.500000      1.000000
  0.250000  0.500000  0.500000      1.000000
  0.500000  0.500000  0.500000      1.000000
 -0.250000  0.500000  0.500000      1.000000
  0.000000 -0.250000  0.500000      1.000000
  0.250000 -0.250000  0.500000      1.000000
  0.500000 -0.250000  0.500000      1.000000
 -0.250000 -0.250000  0.500000      1.000000
 -0.000000 -0.000000 -0.250000      1.000000
  0.250000  0.000000 -0.250000      1.000000
  0.500000  0.000000 -0.250000      1.000000
 -0.250000  0.000000 -0.250000      1.000000
 -0.000000  0.250000 -0.250000      1.000000
  0.250000  0.250000 -0.250000      1.000000
  0.500000  0.250000 -0.250000      1.000000
 -0.250000  0.250000 -0.250000      1.000000
 -0.000000  0.500000 -0.250000      1.000000
  0.250000  0.500000 -0.250000      1.000000
  0.500000  0.500000 -0.250000      1.000000
 -0.250000  0.500000 -0.250000      1.000000
 -0.000000 -0.250000 -0.250000      1.000000
  0.250000 -0.250000 -0.250000      1.000000
  0.500000 -0.250000 -0.250000      1.000000
 -0.250000 -0.250000 -0.250000      1.000000
 
 Following cartesian coordinates:
            Coordinates               Weight
  0.000000  0.000000  0.000000      1.000000
  0.060748 -0.035073 -0.024800      1.000000
  0.121497 -0.070146 -0.049601      1.000000
 -0.060748  0.035073  0.024800      1.000000
  0.000000  0.070146 -0.024800      1.000000
  0.060748  0.035073 -0.049601      1.000000
  0.121497 -0.000000 -0.074401      1.000000
 -0.060748  0.105219  0.000000      1.000000
  0.000000  0.140292 -0.049601      1.000000
  0.060748  0.105219 -0.074401      1.000000
  0.121497  0.070146 -0.099202      1.000000
 -0.060748  0.175365 -0.024800      1.000000
 -0.000000 -0.070146  0.024800      1.000000
  0.060748 -0.105219 -0.000000      1.000000
  0.121497 -0.140292 -0.024800      1.000000
 -0.060748 -0.035073  0.049601      1.000000
 -0.000000  0.000000  0.074401      1.000000
  0.060748 -0.035073  0.049601      1.000000
  0.121497 -0.070146  0.024800      1.000000
 -0.060748  0.035073  0.099202      1.000000
 -0.000000  0.070146  0.049601      1.000000
  0.060748  0.035073  0.024800      1.000000
  0.121497  0.000000 -0.000000      1.000000
 -0.060748  0.105219  0.074401      1.000000
 -0.000000  0.140292  0.024800      1.000000
  0.060748  0.105219  0.000000      1.000000
  0.121497  0.070146 -0.024800      1.000000
 -0.060748  0.175365  0.049601      1.000000
 -0.000000 -0.070146  0.099202      1.000000
  0.060748 -0.105219  0.074401      1.000000
  0.121497 -0.140292  0.049601      1.000000
 -0.060748 -0.035073  0.124002      1.000000
 -0.000000  0.000000  0.148802      1.000000
  0.060748 -0.035073  0.124002      1.000000
  0.121497 -0.070146  0.099202      1.000000
 -0.060748  0.035073  0.173603      1.000000
 -0.000000  0.070146  0.124002      1.000000
  0.060748  0.035073  0.099202      1.000000
  0.121497  0.000000  0.074401      1.000000
 -0.060748  0.105219  0.148802      1.000000
 -0.000000  0.140292  0.099202      1.000000
  0.060748  0.105219  0.074401      1.000000
  0.121497  0.070146  0.049601      1.000000
 -0.060748  0.175365  0.124002      1.000000
 -0.000000 -0.070146  0.173603      1.000000
  0.060748 -0.105219  0.148802      1.000000
  0.121497 -0.140292  0.124002      1.000000
 -0.060748 -0.035073  0.198403      1.000000
  0.000000 -0.000000 -0.074401      1.000000
  0.060748 -0.035073 -0.099202      1.000000
  0.121497 -0.070146 -0.124002      1.000000
 -0.060748  0.035073 -0.049601      1.000000
  0.000000  0.070146 -0.099202      1.000000
  0.060748  0.035073 -0.124002      1.000000
  0.121497  0.000000 -0.148802      1.000000
 -0.060748  0.105219 -0.074401      1.000000
  0.000000  0.140292 -0.124002      1.000000
  0.060748  0.105219 -0.148802      1.000000
  0.121497  0.070146 -0.173603      1.000000
 -0.060748  0.175365 -0.099202      1.000000
  0.000000 -0.070146 -0.049601      1.000000
  0.060748 -0.105219 -0.074401      1.000000
  0.121497 -0.140292 -0.099202      1.000000
 -0.060748 -0.035073 -0.024800      1.000000
 
 files read and symmetry switched off, memory is now:
 total amount of memory used by VASP MPI-rank0   127475. kBytes
=======================================================================

   base      :      30000. kBytes
   nonl-proj :       5576. kBytes
   fftplans  :      16199. kBytes
   grid      :      14155. kBytes
   one-center:         62. kBytes
   HF        :        129. kBytes
   nonlr-proj:        209. kBytes
   wavefun   :      61145. kBytes
 
 Basis sets for responsefunctions:
 =================================
 k-point  1 :   0.0000 0.0000 0.0000  plane waves:     662
 k-point  2 :   0.2500 0.0000-0.0000  plane waves:     622
 k-point  3 :   0.5000 0.0000-0.0000  plane waves:     664
 k-point  4 :  -0.2500-0.0000 0.0000  plane waves:     622
 k-point  5 :  -0.0000 0.2500 0.0000  plane waves:     622
 k-point  6 :   0.2500 0.2500 0.0000  plane waves:     622
 k-point  7 :   0.5000 0.2500-0.0000  plane waves:     630
 k-point  8 :  -0.2500 0.2500 0.0000  plane waves:     630
 k-point  9 :  -0.0000 0.5000 0.0000  plane waves:     664
 k-point 10 :   0.2500 0.5000 0.0000  plane waves:     630
 k-point 11 :   0.5000 0.5000 0.0000  plane waves:     652
 k-point 12 :  -0.2500 0.5000 0.0000  plane waves:     630
 k-point 13 :   0.0000-0.2500-0.0000  plane waves:     622
 k-point 14 :   0.2500-0.2500-0.0000  plane waves:     630
 k-point 15 :   0.5000-0.2500-0.0000  plane waves:     630
 k-point 16 :  -0.2500-0.2500 0.0000  plane waves:     622
 k-point 17 :   0.0000 0.0000 0.2500  plane waves:     622
 k-point 18 :   0.2500-0.0000 0.2500  plane waves:     622
 k-point 19 :   0.5000-0.0000 0.2500  plane waves:     630
 k-point 20 :  -0.2500-0.0000 0.2500  plane waves:     630
 k-point 21 :   0.0000 0.2500 0.2500  plane waves:     622
 k-point 22 :   0.2500 0.2500 0.2500  plane waves:     622
 k-point 23 :   0.5000 0.2500 0.2500  plane waves:     630
 k-point 24 :  -0.2500 0.2500 0.2500  plane waves:     630
 k-point 25 :   0.0000 0.5000 0.2500  plane waves:     630
 k-point 26 :   0.2500 0.5000 0.2500  plane waves:     630
 k-point 27 :   0.5000 0.5000 0.2500  plane waves:     630
 k-point 28 :  -0.2500 0.5000 0.2500  plane waves:     616
 k-point 29 :   0.0000-0.2500 0.2500  plane waves:     630
 k-point 30 :   0.2500-0.2500 0.2500  plane waves:     630
 k-point 31 :   0.5000-0.2500 0.2500  plane waves:     616
 k-point 32 :  -0.2500-0.2500 0.2500  plane waves:     630
 k-point 33 :   0.0000 0.0000 0.5000  plane waves:     664
 k-point 34 :   0.2500-0.0000 0.5000  plane waves:     630
 k-point 35 :   0.5000-0.0000 0.5000  plane waves:     652
 k-point 36 :  -0.2500-0.0000 0.5000  plane waves:     630
 k-point 37 :   0.0000 0.2500 0.5000  plane waves:     630
 k-point 38 :   0.2500 0.2500 0.5000  plane waves:     630
 k-point 39 :   0.5000 0.2500 0.5000  plane waves:     630
 k-point 40 :  -0.2500 0.2500 0.5000  plane waves:     616
 k-point 41 :   0.0000 0.5000 0.5000  plane waves:     652
 k-point 42 :   0.2500 0.5000 0.5000  plane waves:     630
 k-point 43 :   0.5000 0.5000 0.5000  plane waves:     664
 k-point 44 :  -0.2500 0.5000 0.5000  plane waves:     630
 k-point 45 :   0.0000-0.2500 0.5000  plane waves:     630
 k-point 46 :   0.2500-0.2500 0.5000  plane waves:     616
 k-point 47 :   0.5000-0.2500 0.5000  plane waves:     630
 k-point 48 :  -0.2500-0.2500 0.5000  plane waves:     630
 k-point 49 :  -0.0000-0.0000-0.2500  plane waves:     622
 k-point 50 :   0.2500 0.0000-0.2500  plane waves:     630
 k-point 51 :   0.5000 0.0000-0.2500  plane waves:     630
 k-point 52 :  -0.2500 0.0000-0.2500  plane waves:     622
 k-point 53 :  -0.0000 0.2500-0.2500  plane waves:     630
 k-point 54 :   0.2500 0.2500-0.2500  plane waves:     630
 k-point 55 :   0.5000 0.2500-0.2500  plane waves:     616
 k-point 56 :  -0.2500 0.2500-0.2500  plane waves:     630
 k-point 57 :  -0.0000 0.5000-0.2500  plane waves:     630
 k-point 58 :   0.2500 0.5000-0.2500  plane waves:     616
 k-point 59 :   0.5000 0.5000-0.2500  plane waves:     630
 k-point 60 :  -0.2500 0.5000-0.2500  plane waves:     630
 k-point 61 :  -0.0000-0.2500-0.2500  plane waves:     622
 k-point 62 :   0.2500-0.2500-0.2500  plane waves:     630
 k-point 63 :   0.5000-0.2500-0.2500  plane waves:     630
 k-point 64 :  -0.2500-0.2500-0.2500  plane waves:     622

 maximum and minimum number of plane-waves per node :       664      616

 maximum number of plane-waves:       664
 maximum index in each direction: 
   IXMAX=    4   IYMAX=    4   IZMAX=    4
   IXMIN=   -5   IYMIN=   -5   IZMIN=   -5

 exchange correlation table for  LEXCH =        8
   RHO(1)=    0.500       N(1)  =     2000
   RHO(2)=  100.500       N(2)  =     4000
 shmem allocating  50 responsefunctions rank=   332
 response function shared by NCSHMEM nodes    1
 all allocation done, memory is now:
 total amount of memory used by VASP MPI-rank0   404708. kBytes
=======================================================================

   base      :      30000. kBytes
   nonl-proj :       5576. kBytes
   fftplans  :      16199. kBytes
   grid      :      14155. kBytes
   one-center:         62. kBytes
   HF        :        129. kBytes
   nonlr-proj:        209. kBytes
   wavefun   :     183435. kBytes
   2eintegral:      50331. kBytes
   fockhandle:       3005. kBytes
   response  :     101607. kBytes
 


--------------------------------------------------------------------------------------------------------


NQ=   1    0.0000    0.0000    0.0000, 
       CHI:  cpu time    1.0061: real time    1.0058
   KRAMKRO:  cpu time    0.1948: real time    0.1948
    LFIELD:  cpu time    0.0000: real time    0.0000

 HEAD OF MICROSCOPIC DIELECTRIC TENSOR (INDEPENDENT PARTICLE)
 -------------------------------------
 w=     0.000     0.000
         2.0785   -0.0000      0.0000    0.0000      0.0000   -0.0000
         0.0000   -0.0000      2.0785    0.0000      0.0000    0.0000
         0.0000    0.0000      0.0000   -0.0000      2.0785   -0.0000

        0.000         2.079     0.000 dielectric  constant
 
 w=     0.709     0.000
         2.0823    0.0045      0.0000    0.0000      0.0000   -0.0000
         0.0000   -0.0000      2.0823    0.0045      0.0000    0.0000
         0.0000    0.0000      0.0000   -0.0000      2.0823    0.0045

        0.709         2.082     0.004 dielectric  constant
 
 w=     1.415     0.000
         2.0936    0.0092      0.0000    0.0000      0.0000   -0.0000
         0.0000   -0.0000      2.0936    0.0092      0.0000    0.0000
         0.0000    0.0000      0.0000   -0.0000      2.0936    0.0092

        1.415         2.094     0.009 dielectric  constant
 
 w=     2.117     0.000
         2.1129    0.0143      0.0000    0.0000      0.0000   -0.0000
         0.0000    0.0000      2.1129    0.0143      0.0000    0.0000
         0.0000    0.0000      0.0000   -0.0000      2.1129    0.0143

        2.117         2.113     0.014 dielectric  constant
 
 w=     2.810     0.000
         2.1411    0.0203      0.0000    0.0000      0.0000   -0.0000
         0.0000    0.0000      2.1411    0.0203      0.0000    0.0000
         0.0000    0.0000      0.0000    0.0000      2.1411    0.0203

        2.810         2.141     0.020 dielectric  constant
 
 w=     3.495     0.000
         2.1794    0.0276      0.0000    0.0000      0.0000   -0.0000
         0.0000    0.0000      2.1794    0.0276      0.0000    0.0000
         0.0000    0.0000      0.0000    0.0000      2.1794    0.0276

        3.495         2.179     0.028 dielectric  constant
 
 w=     4.169     0.000
         2.2302    0.0371      0.0000    0.0000      0.0000    0.0000
         0.0000    0.0000      2.2302    0.0371      0.0000    0.0000
         0.0000    0.0000      0.0000    0.0000      2.2302    0.0371

        4.169         2.230     0.037 dielectric  constant
 
 w=     4.832     0.000
         2.2970    0.0503      0.0000    0.0000      0.0000    0.0000
         0.0000    0.0000      2.2970    0.0503      0.0000   -0.0000
         0.0000    0.0000      0.0000    0.0000      2.2970    0.0503

        4.832         2.297     0.050 dielectric  constant
 
 w=     5.483     0.000
         2.3864    0.0714      0.0000    0.0000      0.0000    0.0000
         0.0000    0.0000      2.3864    0.0714      0.0000   -0.0000
         0.0000    0.0000      0.0000    0.0000      2.3864    0.0714

        5.483         2.386     0.071 dielectric  constant
 
 w=     6.122     0.000
         2.5071    0.1167      0.0000    0.0000      0.0000    0.0000
         0.0000    0.0000      2.5071    0.1167      0.0000   -0.0000
         0.0000    0.0000      0.0000    0.0000      2.5071    0.1167

        6.122         2.507     0.117 dielectric  constant
 
 w=     6.750     0.000
         2.6346    0.2051      0.0000    0.0000      0.0000   -0.0000
         0.0000    0.0000      2.6346    0.2051      0.0000    0.0000
         0.0000    0.0000     -0.0000   -0.0000      2.6346    0.2051

        6.750         2.635     0.205 dielectric  constant
 
 w=     7.368     0.000
         2.7892    0.3121      0.0000    0.0000      0.0000    0.0000
         0.0000    0.0000      2.7892    0.3121      0.0000    0.0000
         0.0000    0.0000      0.0000    0.0000      2.7892    0.3121

        7.368         2.789     0.312 dielectric  constant
 
 w=     7.977     0.000
         2.9892    0.5372      0.0000    0.0000     -0.0000   -0.0000
         0.0000    0.0000      2.9892    0.5372      0.0000    0.0000
         0.0000    0.0000     -0.0000   -0.0000      2.9892    0.5372

        7.977         2.989     0.537 dielectric  constant
 
 w=     8.578     0.000
         3.0207    0.8998      0.0000    0.0000      0.0000   -0.0000
         0.0000   -0.0000      3.0207    0.8998     -0.0000    0.0000
        -0.0000    0.0000      0.0000   -0.0000      3.0207    0.8998

        8.578         3.021     0.900 dielectric  constant
 
 w=     9.173     0.000
         2.9974    1.1124     -0.0000    0.0000      0.0000    0.0000
         0.0000    0.0000      2.9974    1.1124     -0.0000    0.0000
        -0.0000    0.0000      0.0000    0.0000      2.9974    1.1124

        9.173         2.997     1.112 dielectric  constant
 
 w=     9.764     0.000
         3.0830    1.4924     -0.0000    0.0000      0.0000    0.0000
         0.0000    0.0000      3.0830    1.4924     -0.0000    0.0000
        -0.0000    0.0000      0.0000    0.0000      3.0830    1.4924

        9.764         3.083     1.492 dielectric  constant
 
 w=    10.353     0.000
         2.7429    2.0387     -0.0000    0.0000     -0.0000    0.0000
        -0.0000    0.0000      2.7429    2.0387     -0.0000   -0.0000
        -0.0000    0.0000     -0.0000    0.0000      2.7429    2.0387

       10.353         2.743     2.039 dielectric  constant
 
 w=    10.941     0.000
         2.3678    2.0584     -0.0000   -0.0000     -0.0000    0.0000
        -0.0000    0.0000      2.3678    2.0584     -0.0000   -0.0000
        -0.0000   -0.0000     -0.0000    0.0000      2.3678    2.0584

       10.941         2.368     2.058 dielectric  constant
 
 w=    11.531     0.000
         2.2233    2.2800     -0.0000   -0.0000     -0.0000    0.0000
        -0.0000    0.0000      2.2233    2.2800      0.0000   -0.0000
         0.0000   -0.0000     -0.0000    0.0000      2.2233    2.2800

       11.531         2.223     2.280 dielectric  constant
 
 w=    12.125     0.000
         1.8337    2.5280      0.0000    0.0000     -0.0000   -0.0000
        -0.0000   -0.0000      1.8337    2.5280      0.0000    0.0000
         0.0000    0.0000     -0.0000   -0.0000      1.8337    2.5280

       12.125         1.834     2.528 dielectric  constant
 
 w=    12.727     0.000
         1.3214    2.5919     -0.0000    0.0000     -0.0000   -0.0000
        -0.0000   -0.0000      1.3214    2.5919     -0.0000    0.0000
        -0.0000    0.0000     -0.0000   -0.0000      1.3214    2.5919

       12.727         1.321     2.592 dielectric  constant
 
 w=    13.338     0.000
         0.8229    2.4259     -0.0000    0.0000     -0.0000   -0.0000
        -0.0000   -0.0000      0.8229    2.4259     -0.0000    0.0000
        -0.0000    0.0000     -0.0000   -0.0000      0.8229    2.4259

       13.338         0.823     2.426 dielectric  constant
 
 w=    13.962     0.000
         0.5235    2.1010     -0.0000   -0.0000     -0.0000   -0.0000
        -0.0000   -0.0000      0.5235    2.1010     -0.0000   -0.0000
        -0.0000   -0.0000     -0.0000   -0.0000      0.5235    2.1010

       13.962         0.523     2.101 dielectric  constant
 
 w=    14.602     0.000
         0.3420    1.8601     -0.0000   -0.0000     -0.0000   -0.0000
        -0.0000   -0.0000      0.3420    1.8601     -0.0000   -0.0000
        -0.0000   -0.0000     -0.0000   -0.0000      0.3420    1.8601

       14.602         0.342     1.860 dielectric  constant
 
 w=    15.262     0.000
         0.1683    1.5566     -0.0000   -0.0000     -0.0000   -0.0000
        -0.0000   -0.0000      0.1683    1.5566     -0.0000   -0.0000
        -0.0000   -0.0000     -0.0000   -0.0000      0.1683    1.5566

       15.262         0.168     1.557 dielectric  constant
 
 w=    15.947     0.000
         0.1472    1.2104     -0.0000   -0.0000     -0.0000   -0.0000
        -0.0000   -0.0000      0.1472    1.2104     -0.0000   -0.0000
        -0.0000   -0.0000     -0.0000   -0.0000      0.1472    1.2104

       15.947         0.147     1.210 dielectric  constant
 
 w=    16.660     0.000
         0.2340    0.9468      0.0000   -0.0000      0.0000   -0.0000
        -0.0000   -0.0000      0.2340    0.9468     -0.0000   -0.0000
        -0.0000   -0.0000      0.0000   -0.0000      0.2340    0.9468

       16.660         0.234     0.947 dielectric  constant
 
 w=    17.409     0.000
         0.4802    0.7544      0.0000   -0.0000      0.0000   -0.0000
         0.0000   -0.0000      0.4802    0.7544      0.0000   -0.0000
         0.0000   -0.0000      0.0000   -0.0000      0.4802    0.7544

       17.409         0.480     0.754 dielectric  constant
 
 w=    18.198     0.000
         0.6716    0.9570      0.0000   -0.0000      0.0000   -0.0000
         0.0000   -0.0000      0.6716    0.9570      0.0000   -0.0000
         0.0000   -0.0000      0.0000   -0.0000      0.6716    0.9570

       18.198         0.672     0.957 dielectric  constant
 
 w=    19.036     0.000
         0.4195    1.1619      0.0000   -0.0000      0.0000   -0.0000
         0.0000   -0.0000      0.4195    1.1619      0.0000   -0.0000
         0.0000   -0.0000      0.0000   -0.0000      0.4195    1.1619

       19.036         0.420     1.162 dielectric  constant
 
 w=    19.932     0.000
         0.0660    0.9279      0.0000   -0.0000      0.0000    0.0000
         0.0000    0.0000      0.0660    0.9279      0.0000   -0.0000
         0.0000   -0.0000      0.0000    0.0000      0.0660    0.9279

       19.932         0.066     0.928 dielectric  constant
 
 w=    20.895     0.000
         0.0535    0.5010      0.0000    0.0000     -0.0000   -0.0000
        -0.0000   -0.0000      0.0535    0.5010      0.0000    0.0000
         0.0000    0.0000     -0.0000   -0.0000      0.0535    0.5010

       20.895         0.053     0.501 dielectric  constant
 
 w=    21.940     0.000
         0.2734    0.2901     -0.0000    0.0000      0.0000   -0.0000
         0.0000   -0.0000      0.2734    0.2901     -0.0000    0.0000
        -0.0000    0.0000      0.0000   -0.0000      0.2734    0.2901

       21.940         0.273     0.290 dielectric  constant
 
 w=    23.083     0.000
         0.4218    0.2675      0.0000   -0.0000      0.0000    0.0000
         0.0000    0.0000      0.4218    0.2675      0.0000   -0.0000
        -0.0000   -0.0000      0.0000    0.0000      0.4218    0.2675

       23.083         0.422     0.267 dielectric  constant
 
 w=    24.343     0.000
         0.4770    0.2303      0.0000    0.0000     -0.0000    0.0000
        -0.0000    0.0000      0.4770    0.2303      0.0000    0.0000
         0.0000    0.0000     -0.0000    0.0000      0.4770    0.2303

       24.343         0.477     0.230 dielectric  constant
 
 w=    25.744     0.000
         0.5374    0.1769      0.0000    0.0000      0.0000   -0.0000
         0.0000   -0.0000      0.5374    0.1769      0.0000    0.0000
        -0.0000    0.0000      0.0000   -0.0000      0.5374    0.1769

       25.744         0.537     0.177 dielectric  constant
 
 w=    27.319     0.000
         0.5866    0.1471      0.0000    0.0000      0.0000    0.0000
         0.0000    0.0000      0.5866    0.1471      0.0000    0.0000
         0.0000   -0.0000      0.0000    0.0000      0.5866    0.1471

       27.319         0.587     0.147 dielectric  constant
 
 w=    29.108     0.000
         0.6379    0.0872      0.0000    0.0000      0.0000    0.0000
         0.0000    0.0000      0.6379    0.0872      0.0000    0.0000
         0.0000    0.0000     -0.0000    0.0000      0.6379    0.0872

       29.108         0.638     0.087 dielectric  constant
 
 w=    31.166     0.000
         0.7097    0.0652     -0.0000    0.0000      0.0000    0.0000
         0.0000    0.0000      0.7097    0.0652     -0.0000    0.0000
        -0.0000    0.0000      0.0000    0.0000      0.7097    0.0652

       31.166         0.710     0.065 dielectric  constant
 
 w=    33.565     0.000
         0.7502    0.0634     -0.0000    0.0000     -0.0000    0.0000
        -0.0000    0.0000      0.7502    0.0634     -0.0000   -0.0000
        -0.0000    0.0000     -0.0000    0.0000      0.7502    0.0634

       33.565         0.750     0.063 dielectric  constant
 
 w=    36.404     0.000
         0.7841    0.0322     -0.0000   -0.0000     -0.0000    0.0000
        -0.0000    0.0000      0.7841    0.0322     -0.0000   -0.0000
        -0.0000   -0.0000     -0.0000   -0.0000      0.7841    0.0322

       36.404         0.784     0.032 dielectric  constant
 
 w=    39.825     0.000
         0.8311    0.0196      0.0000   -0.0000     -0.0000    0.0000
         0.0000    0.0000      0.8311    0.0196      0.0000   -0.0000
        -0.0000   -0.0000      0.0000   -0.0000      0.8311    0.0196

       39.825         0.831     0.020 dielectric  constant
 
 w=    44.032     0.000
         0.8661    0.0161     -0.0000    0.0000     -0.0000    0.0000
        -0.0000    0.0000      0.8661    0.0161      0.0000   -0.0000
        -0.0000   -0.0000      0.0000   -0.0000      0.8661    0.0161

       44.032         0.866     0.016 dielectric  constant
 
 w=    49.338     0.000
         0.8945    0.0081     -0.0000   -0.0000     -0.0000    0.0000
        -0.0000    0.0000      0.8945    0.0081      0.0000   -0.0000
        -0.0000   -0.0000      0.0000    0.0000      0.8945    0.0081

       49.338         0.894     0.008 dielectric  constant
 
 w=    56.237     0.000
         0.9216    0.0038     -0.0000   -0.0000     -0.0000    0.0000
         0.0000    0.0000      0.9216    0.0038     -0.0000   -0.0000
        -0.0000   -0.0000      0.0000    0.0000      0.9216    0.0038

       56.237         0.922     0.004 dielectric  constant
 
 w=    65.571     0.000
         0.9442    0.0018     -0.0000   -0.0000     -0.0000    0.0000
        -0.0000    0.0000      0.9442    0.0018     -0.0000   -0.0000
        -0.0000   -0.0000     -0.0000    0.0000      0.9442    0.0018

       65.571         0.944     0.002 dielectric  constant
 
 w=    78.885     0.000
         0.9626    0.0005     -0.0000   -0.0000     -0.0000    0.0000
        -0.0000    0.0000      0.9626    0.0005      0.0000   -0.0000
        -0.0000   -0.0000      0.0000    0.0000      0.9626    0.0005

       78.885         0.963     0.001 dielectric  constant
 
 w=    99.367     0.000
         0.9771    0.0002     -0.0000   -0.0000     -0.0000    0.0000
        -0.0000    0.0000      0.9771    0.0002      0.0000   -0.0000
        -0.0000   -0.0000      0.0000    0.0000      0.9771    0.0002

       99.367         0.977     0.000 dielectric  constant
 
 w=   134.823     0.000
         0.9878    0.0001     -0.0000   -0.0000     -0.0000    0.0000
        -0.0000    0.0000      0.9878    0.0001      0.0000   -0.0000
        -0.0000   -0.0000      0.0000    0.0000      0.9878    0.0001

      134.823         0.988     0.000 dielectric  constant
 
 w=   210.784     0.000
         0.9951    0.0000     -0.0000   -0.0000     -0.0000    0.0000
        -0.0000    0.0000      0.9951    0.0000      0.0000   -0.0000
        -0.0000   -0.0000      0.0000    0.0000      0.9951    0.0000

      210.784         0.995     0.000 dielectric  constant
 
  XI_LOCAL:  cpu time    0.4167: real time    0.4165

 1 + v P,  with REDUCIBLE POLARIZABILTY P=P_0 (1 -(v+f) P_0)^-1
 -------------------------------------
 w=     0.000     0.000
         1.7652    0.0000     -0.0000   -0.0000     -0.0000    0.0000
        -0.0000    0.0000      1.7652    0.0000     -0.0000   -0.0000
        -0.0000   -0.0000     -0.0000    0.0000      1.7652   -0.0000

        0.000         1.765     0.000 dielectric  constant
 
 w=     0.709     0.000
         1.7676    0.0029     -0.0000   -0.0000     -0.0000    0.0000
        -0.0000    0.0000      1.7676    0.0029     -0.0000   -0.0000
        -0.0000   -0.0000     -0.0000    0.0000      1.7676    0.0029

        0.709         1.768     0.003 dielectric  constant
 
 w=     1.415     0.000
         1.7750    0.0060     -0.0000   -0.0000     -0.0000    0.0000
        -0.0000    0.0000      1.7750    0.0060     -0.0000   -0.0000
        -0.0000   -0.0000     -0.0000    0.0000      1.7750    0.0060

        1.415         1.775     0.006 dielectric  constant
 
 w=     2.117     0.000
         1.7876    0.0094     -0.0000   -0.0000     -0.0000    0.0000
        -0.0000   -0.0000      1.7876    0.0094     -0.0000   -0.0000
        -0.0000   -0.0000     -0.0000    0.0000      1.7876    0.0094

        2.117         1.788     0.009 dielectric  constant
 
 w=     2.810     0.000
         1.8059    0.0133     -0.0000   -0.0000     -0.0000    0.0000
        -0.0000   -0.0000      1.8059    0.0133     -0.0000   -0.0000
        -0.0000   -0.0000     -0.0000   -0.0000      1.8059    0.0133

        2.810         1.806     0.013 dielectric  constant
 
 w=     3.495     0.000
         1.8311    0.0182     -0.0000   -0.0000     -0.0000    0.0000
        -0.0000   -0.0000      1.8311    0.0182     -0.0000   -0.0000
        -0.0000   -0.0000     -0.0000   -0.0000      1.8311    0.0182

        3.495         1.831     0.018 dielectric  constant
 
 w=     4.169     0.000
         1.8645    0.0246     -0.0000   -0.0000     -0.0000   -0.0000
        -0.0000   -0.0000      1.8645    0.0246     -0.0000   -0.0000
        -0.0000   -0.0000     -0.0000   -0.0000      1.8645    0.0246

        4.169         1.865     0.025 dielectric  constant
 
 w=     4.832     0.000
         1.9090    0.0338     -0.0000   -0.0000     -0.0000   -0.0000
        -0.0000   -0.0000      1.9090    0.0338     -0.0000    0.0000
        -0.0000   -0.0000     -0.0000   -0.0000      1.9090    0.0338

        4.832         1.909     0.034 dielectric  constant
 
 w=     5.483     0.000
         1.9694    0.0493     -0.0000   -0.0000     -0.0000   -0.0000
        -0.0000   -0.0000      1.9694    0.0493     -0.0000    0.0000
        -0.0000   -0.0000     -0.0000   -0.0000      1.9694    0.0493

        5.483         1.969     0.049 dielectric  constant
 
 w=     6.122     0.000
         2.0520    0.0851     -0.0000   -0.0000     -0.0000   -0.0000
        -0.0000   -0.0000      2.0520    0.0851     -0.0000    0.0000
        -0.0000   -0.0000     -0.0000   -0.0000      2.0520    0.0851

        6.122         2.052     0.085 dielectric  constant
 
 w=     6.750     0.000
         2.1316    0.1567     -0.0000   -0.0000     -0.0000    0.0000
        -0.0000   -0.0000      2.1316    0.1567     -0.0000   -0.0000
        -0.0000   -0.0000      0.0000    0.0000      2.1316    0.1567

        6.750         2.132     0.157 dielectric  constant
 
 w=     7.368     0.000
         2.2222    0.2357     -0.0000   -0.0000     -0.0000   -0.0000
        -0.0000   -0.0000      2.2222    0.2357     -0.0000   -0.0000
        -0.0000   -0.0000     -0.0000   -0.0000      2.2222    0.2357

        7.368         2.222     0.236 dielectric  constant
 
 w=     7.977     0.000
         2.3441    0.3974     -0.0000   -0.0000      0.0000    0.0000
        -0.0000   -0.0000      2.3441    0.3974     -0.0000   -0.0000
        -0.0000   -0.0000      0.0000    0.0000      2.3441    0.3974

        7.977         2.344     0.397 dielectric  constant
 
 w=     8.578     0.000
         2.3297    0.6670     -0.0000   -0.0000     -0.0000    0.0000
        -0.0000    0.0000      2.3297    0.6670      0.0000   -0.0000
         0.0000   -0.0000     -0.0000    0.0000      2.3297    0.6670

        8.578         2.330     0.667 dielectric  constant
 
 w=     9.173     0.000
         2.2326    0.7997      0.0000   -0.0000     -0.0000   -0.0000
        -0.0000   -0.0000      2.2326    0.7997      0.0000   -0.0000
         0.0000   -0.0000     -0.0000   -0.0000      2.2326    0.7997

        9.173         2.233     0.800 dielectric  constant
 
 w=     9.764     0.000
         2.2241    0.9767      0.0000   -0.0000     -0.0000   -0.0000
        -0.0000   -0.0000      2.2241    0.9767      0.0000   -0.0000
         0.0000   -0.0000     -0.0000   -0.0000      2.2241    0.9767

        9.764         2.224     0.977 dielectric  constant
 
 w=    10.353     0.000
         1.9942    1.2784      0.0000   -0.0000      0.0000   -0.0000
         0.0000   -0.0000      1.9942    1.2784      0.0000    0.0000
         0.0000   -0.0000      0.0000   -0.0000      1.9942    1.2784

       10.353         1.994     1.278 dielectric  constant
 
 w=    10.941     0.000
         1.6533    1.1905      0.0000    0.0000      0.0000   -0.0000
         0.0000   -0.0000      1.6533    1.1905      0.0000    0.0000
         0.0000    0.0000      0.0000   -0.0000      1.6533    1.1905

       10.941         1.653     1.191 dielectric  constant
 
 w=    11.531     0.000
         1.6150    1.0983      0.0000    0.0000      0.0000   -0.0000
         0.0000   -0.0000      1.6150    1.0983     -0.0000    0.0000
        -0.0000    0.0000      0.0000   -0.0000      1.6150    1.0983

       11.531         1.615     1.098 dielectric  constant
 
 w=    12.125     0.000
         1.5885    1.1269     -0.0000   -0.0000      0.0000    0.0000
         0.0000    0.0000      1.5885    1.1269     -0.0000   -0.0000
        -0.0000   -0.0000      0.0000    0.0000      1.5885    1.1269

       12.125         1.588     1.127 dielectric  constant
 
 w=    12.727     0.000
         1.5110    1.2142      0.0000   -0.0000      0.0000    0.0000
         0.0000    0.0000      1.5110    1.2142      0.0000   -0.0000
         0.0000   -0.0000      0.0000    0.0000      1.5110    1.2142

       12.727         1.511     1.214 dielectric  constant
 
 w=    13.338     0.000
         1.3267    1.2935      0.0000   -0.0000      0.0000    0.0000
         0.0000    0.0000      1.3267    1.2935      0.0000   -0.0000
         0.0000   -0.0000      0.0000    0.0000      1.3267    1.2935

       13.338         1.327     1.293 dielectric  constant
 
 w=    13.962     0.000
         1.0994    1.2109      0.0000    0.0000      0.0000    0.0000
         0.0000    0.0000      1.0994    1.2109      0.0000    0.0000
         0.0000    0.0000      0.0000    0.0000      1.0994    1.2109

       13.962         1.099     1.211 dielectric  constant
 
 w=    14.602     0.000
         1.0348    1.0955      0.0000    0.0000      0.0000    0.0000
         0.0000    0.0000      1.0348    1.0955      0.0000    0.0000
         0.0000    0.0000      0.0000    0.0000      1.0348    1.0955

       14.602         1.035     1.096 dielectric  constant
 
 w=    15.262     0.000
         0.9532    1.0759      0.0000    0.0000      0.0000    0.0000
         0.0000    0.0000      0.9532    1.0759      0.0000    0.0000
         0.0000    0.0000      0.0000    0.0000      0.9532    1.0759

       15.262         0.953     1.076 dielectric  constant
 
 w=    15.947     0.000
         0.7942    0.9896      0.0000    0.0000      0.0000    0.0000
         0.0000    0.0000      0.7942    0.9896      0.0000    0.0000
         0.0000    0.0000      0.0000    0.0000      0.7942    0.9896

       15.947         0.794     0.990 dielectric  constant
 
 w=    16.660     0.000
         0.6959    0.8150     -0.0000    0.0000     -0.0000    0.0000
         0.0000    0.0000      0.6959    0.8150      0.0000    0.0000
         0.0000    0.0000     -0.0000    0.0000      0.6959    0.8150

       16.660         0.696     0.815 dielectric  constant
 
 w=    17.409     0.000
         0.7186    0.5487     -0.0000    0.0000     -0.0000    0.0000
        -0.0000    0.0000      0.7186    0.5487     -0.0000    0.0000
        -0.0000    0.0000     -0.0000    0.0000      0.7186    0.5487

       17.409         0.719     0.549 dielectric  constant
 
 w=    18.198     0.000
         0.9365    0.4635     -0.0000    0.0000     -0.0000    0.0000
        -0.0000    0.0000      0.9365    0.4635     -0.0000    0.0000
        -0.0000    0.0000     -0.0000    0.0000      0.9365    0.4635

       18.198         0.936     0.464 dielectric  constant
 
 w=    19.036     0.000
         1.0867    0.5373     -0.0000    0.0000     -0.0000    0.0000
        -0.0000    0.0000      1.0867    0.5373     -0.0000    0.0000
        -0.0000    0.0000     -0.0000    0.0000      1.0867    0.5373

       19.036         1.087     0.537 dielectric  constant
 
 w=    19.932     0.000
         1.1597    0.7369     -0.0000    0.0000     -0.0000   -0.0000
        -0.0000   -0.0000      1.1597    0.7369     -0.0000    0.0000
        -0.0000    0.0000     -0.0000   -0.0000      1.1597    0.7369

       19.932         1.160     0.737 dielectric  constant
 
 w=    20.895     0.000
         0.8513    1.0375     -0.0000   -0.0000      0.0000    0.0000
[...]
     14       7.8126       9.3443       9.3430       9.5410       0.8854       0.0000
     15       9.8656      11.6852      11.6851      11.9326       0.8803       0.0000
     16       9.8656      11.6853      11.6850      11.9326       0.8802       0.0000
 

 k-point  54 :       0.2500    0.2500   -0.2500
  band No. DFT-energies  QP-energies  QP-e(diag)   sigma(DFT)    Z            occupation

      1     -18.4841     -20.3054     -20.2958     -20.8966       0.7510       1.0000
      2     -18.4841     -20.3039     -20.2973     -20.8966       0.7516       1.0000
      3      -5.3773      -8.1158      -8.1014      -8.6648       0.8286       1.0000
      4      -5.3773      -8.1152      -8.1019      -8.6648       0.8288       1.0000
      5      -4.6975      -7.3933      -7.3951      -7.9088       0.8400       1.0000
      6      -4.6975      -7.3922      -7.3962      -7.9088       0.8404       1.0000
      7      -4.3578      -7.0146      -7.0119      -7.5035       0.8437       1.0000
      8      -4.3578      -7.0133      -7.0132      -7.5035       0.8441       1.0000
      9       6.0433       7.2993       7.3050       7.4592       0.8911       0.0000
     10       6.0433       7.2993       7.3050       7.4592       0.8911       0.0000
     11       7.1098       8.5180       8.5129       8.6911       0.8873       0.0000
     12       7.1098       8.5180       8.5129       8.6911       0.8873       0.0000
     13       8.2171       9.7638       9.7618       9.9678       0.8823       0.0000
     14       8.2171       9.7638       9.7617       9.9678       0.8823       0.0000
     15      10.2385      12.0895      12.0892      12.3497       0.8766       0.0000
     16      10.2385      12.0895      12.0892      12.3497       0.8766       0.0000
 

 k-point  55 :       0.5000    0.2500   -0.2500
  band No. DFT-energies  QP-energies  QP-e(diag)   sigma(DFT)    Z            occupation

      1     -18.4614     -20.2878     -20.2756     -20.8672       0.7541       1.0000
      2     -18.4614     -20.2878     -20.2756     -20.8672       0.7541       1.0000
      3      -5.3311      -8.0246      -8.0176      -8.5749       0.8282       1.0000
      4      -5.3311      -8.0243      -8.0178      -8.5749       0.8283       1.0000
      5      -4.8055      -7.5526      -7.5480      -8.0855       0.8361       1.0000
      6      -4.8055      -7.5523      -7.5483      -8.0855       0.8362       1.0000
      7      -4.5459      -7.2433      -7.2425      -7.7427       0.8435       1.0000
      8      -4.5459      -7.2432      -7.2426      -7.7427       0.8436       1.0000
      9       6.3680       7.5772       7.5770       7.7229       0.8924       0.0000
     10       6.3680       7.5772       7.5770       7.7229       0.8924       0.0000
     11       7.7628       9.2883       9.2879       9.4888       0.8836       0.0000
     12       7.7628       9.2884       9.2878       9.4888       0.8835       0.0000
     13       7.8523       9.3937       9.3935       9.5968       0.8835       0.0000
     14       7.8523       9.3938       9.3934       9.5968       0.8834       0.0000
     15       9.3445      10.9422      10.9399      11.1596       0.8790       0.0000
     16       9.3445      10.9422      10.9399      11.1596       0.8790       0.0000
 

 k-point  56 :      -0.2500    0.2500   -0.2500
  band No. DFT-energies  QP-energies  QP-e(diag)   sigma(DFT)    Z            occupation

      1     -18.4841     -20.3057     -20.2976     -20.8966       0.7517       1.0000
      2     -18.4841     -20.3051     -20.2971     -20.8966       0.7515       1.0000
      3      -5.3773      -8.1158      -8.1012      -8.6648       0.8286       1.0000
      4      -5.3773      -8.1151      -8.1021      -8.6648       0.8288       1.0000
      5      -4.6975      -7.3932      -7.3953      -7.9088       0.8401       1.0000
      6      -4.6975      -7.3925      -7.3961      -7.9088       0.8403       1.0000
      7      -4.3578      -7.0146      -7.0120      -7.5035       0.8438       1.0000
      8      -4.3578      -7.0134      -7.0133      -7.5035       0.8442       1.0000
      9       6.0433       7.2993       7.3050       7.4592       0.8911       0.0000
     10       6.0433       7.2993       7.3050       7.4592       0.8911       0.0000
     11       7.1098       8.5180       8.5129       8.6911       0.8873       0.0000
     12       7.1098       8.5180       8.5129       8.6911       0.8873       0.0000
     13       8.2171       9.7638       9.7617       9.9678       0.8823       0.0000
     14       8.2171       9.7638       9.7617       9.9678       0.8823       0.0000
     15      10.2385      12.0896      12.0892      12.3497       0.8766       0.0000
     16      10.2385      12.0896      12.0893      12.3497       0.8767       0.0000
 

 k-point  57 :      -0.0000    0.5000   -0.2500
  band No. DFT-energies  QP-energies  QP-e(diag)   sigma(DFT)    Z            occupation

      1     -18.4841     -20.3077     -20.2996     -20.8966       0.7526       1.0000
      2     -18.4841     -20.3077     -20.2996     -20.8966       0.7526       1.0000
      3      -5.3773      -8.1142      -8.0991      -8.6648       0.8279       1.0000
      4      -5.3773      -8.1130      -8.1004      -8.6648       0.8283       1.0000
      5      -4.6975      -7.3927      -7.3947      -7.9088       0.8399       1.0000
      6      -4.6975      -7.3919      -7.3956      -7.9088       0.8402       1.0000
      7      -4.3578      -7.0152      -7.0123      -7.5035       0.8438       1.0000
      8      -4.3578      -7.0137      -7.0138      -7.5035       0.8443       1.0000
      9       6.0433       7.2994       7.3051       7.4592       0.8912       0.0000
     10       6.0433       7.2995       7.3051       7.4592       0.8912       0.0000
     11       7.1098       8.5176       8.5125       8.6911       0.8871       0.0000
     12       7.1098       8.5177       8.5125       8.6911       0.8871       0.0000
     13       8.2171       9.7635       9.7616       9.9678       0.8822       0.0000
     14       8.2171       9.7637       9.7615       9.9678       0.8822       0.0000
     15      10.2385      12.0892      12.0890      12.3497       0.8765       0.0000
     16      10.2385      12.0893      12.0889      12.3497       0.8765       0.0000
 

 k-point  58 :       0.2500    0.5000   -0.2500
  band No. DFT-energies  QP-energies  QP-e(diag)   sigma(DFT)    Z            occupation

      1     -18.4614     -20.2886     -20.2764     -20.8672       0.7544       1.0000
      2     -18.4614     -20.2880     -20.2758     -20.8672       0.7542       1.0000
      3      -5.3311      -8.0248      -8.0178      -8.5749       0.8283       1.0000
      4      -5.3311      -8.0245      -8.0180      -8.5749       0.8283       1.0000
      5      -4.8055      -7.5526      -7.5483      -8.0855       0.8362       1.0000
      6      -4.8055      -7.5525      -7.5482      -8.0855       0.8362       1.0000
      7      -4.5459      -7.2432      -7.2423      -7.7427       0.8435       1.0000
      8      -4.5459      -7.2430      -7.2425      -7.7427       0.8435       1.0000
      9       6.3680       7.5773       7.5771       7.7229       0.8924       0.0000
     10       6.3680       7.5773       7.5772       7.7229       0.8925       0.0000
     11       7.7628       9.2883       9.2879       9.4888       0.8836       0.0000
     12       7.7628       9.2883       9.2878       9.4888       0.8836       0.0000
     13       7.8523       9.3938       9.3935       9.5968       0.8835       0.0000
     14       7.8523       9.3938       9.3934       9.5968       0.8834       0.0000
     15       9.3445      10.9422      10.9399      11.1596       0.8790       0.0000
     16       9.3445      10.9422      10.9399      11.1596       0.8790       0.0000
 

 k-point  59 :       0.5000    0.5000   -0.2500
  band No. DFT-energies  QP-energies  QP-e(diag)   sigma(DFT)    Z            occupation

      1     -18.4841     -20.3088     -20.3007     -20.8966       0.7530       1.0000
      2     -18.4841     -20.3080     -20.3000     -20.8966       0.7527       1.0000
      3      -5.3773      -8.1149      -8.0983      -8.6648       0.8277       1.0000
      4      -5.3773      -8.1122      -8.1011      -8.6648       0.8286       1.0000
      5      -4.6975      -7.3929      -7.3943      -7.9088       0.8398       1.0000
      6      -4.6975      -7.3916      -7.3959      -7.9088       0.8403       1.0000
      7      -4.3578      -7.0135      -7.0121      -7.5035       0.8438       1.0000
      8      -4.3578      -7.0129      -7.0115      -7.5035       0.8436       1.0000
      9       6.0433       7.2992       7.3049       7.4592       0.8910       0.0000
     10       6.0433       7.2992       7.3049       7.4592       0.8910       0.0000
     11       7.1098       8.5177       8.5126       8.6911       0.8871       0.0000
     12       7.1098       8.5177       8.5126       8.6911       0.8871       0.0000
     13       8.2171       9.7633       9.7613       9.9678       0.8821       0.0000
     14       8.2171       9.7634       9.7612       9.9678       0.8820       0.0000
     15      10.2385      12.0891      12.0889      12.3497       0.8765       0.0000
     16      10.2385      12.0892      12.0888      12.3497       0.8764       0.0000
 

 k-point  60 :      -0.2500    0.5000   -0.2500
  band No. DFT-energies  QP-energies  QP-e(diag)   sigma(DFT)    Z            occupation

      1     -18.5067     -20.3341     -20.3236     -20.9258       0.7511       1.0000
      2     -18.5067     -20.3341     -20.3236     -20.9258       0.7511       1.0000
      3      -5.2903      -7.9976      -7.9856      -8.5431       0.8286       1.0000
      4      -5.2903      -7.9964      -7.9868      -8.5431       0.8290       1.0000
      5      -4.6780      -7.3854      -7.3862      -7.8957       0.8417       1.0000
      6      -4.6780      -7.3853      -7.3860      -7.8957       0.8416       1.0000
      7      -4.2498      -6.8796      -6.8805      -7.3550       0.8472       1.0000
      8      -4.2498      -6.8795      -6.8804      -7.3550       0.8472       1.0000
      9       5.9615       7.2709       7.2745       7.4404       0.8878       0.0000
     10       5.9615       7.2709       7.2745       7.4404       0.8878       0.0000
     11       7.6558       9.0361       9.0323       9.2044       0.8889       0.0000
     12       7.6558       9.0361       9.0323       9.2044       0.8889       0.0000
     13       7.8126       9.3442       9.3430       9.5411       0.8854       0.0000
     14       7.8126       9.3442       9.3430       9.5411       0.8854       0.0000
     15       9.8656      11.6853      11.6852      11.9326       0.8803       0.0000
     16       9.8656      11.6854      11.6852      11.9326       0.8803       0.0000
 

 k-point  61 :      -0.0000   -0.2500   -0.2500
  band No. DFT-energies  QP-energies  QP-e(diag)   sigma(DFT)    Z            occupation

      1     -18.5528     -20.4043     -20.3807     -20.9853       0.7515       1.0000
      2     -18.5528     -20.4038     -20.3803     -20.9853       0.7513       1.0000
      3      -5.0724      -7.7148      -7.7072      -8.2465       0.8301       1.0000
      4      -5.0724      -7.7142      -7.7077      -8.2465       0.8303       1.0000
      5      -4.4412      -7.0933      -7.0943      -7.5878       0.8431       1.0000
      6      -4.4412      -7.0930      -7.0941      -7.5878       0.8431       1.0000
      7      -4.2103      -6.8420      -6.8417      -7.3162       0.8472       1.0000
      8      -4.2103      -6.8417      -6.8420      -7.3162       0.8473       1.0000
      9       4.7322       5.9257       5.9229       6.0736       0.8877       0.0000
     10       4.7322       5.9257       5.9229       6.0736       0.8877       0.0000
     11       7.5392       9.0651       9.0651       9.2565       0.8885       0.0000
     12       7.5392       9.0651       9.0651       9.2565       0.8885       0.0000
     13       8.8201      10.3789      10.3778      10.5830       0.8836       0.0000
     14       8.8201      10.3789      10.3778      10.5830       0.8836       0.0000
     15      10.3987      12.2931      12.2927      12.5626       0.8753       0.0000
     16      10.3987      12.2932      12.2927      12.5626       0.8753       0.0000
 

 k-point  62 :       0.2500   -0.2500   -0.2500
  band No. DFT-energies  QP-energies  QP-e(diag)   sigma(DFT)    Z            occupation

      1     -18.4841     -20.3068     -20.2987     -20.8966       0.7522       1.0000
      2     -18.4841     -20.3067     -20.2986     -20.8966       0.7521       1.0000
      3      -5.3773      -8.1160      -8.1009      -8.6648       0.8285       1.0000
      4      -5.3773      -8.1148      -8.1023      -8.6648       0.8289       1.0000
      5      -4.6975      -7.3930      -7.3953      -7.9088       0.8401       1.0000
      6      -4.6975      -7.3925      -7.3960      -7.9088       0.8403       1.0000
      7      -4.3578      -7.0146      -7.0118      -7.5035       0.8437       1.0000
      8      -4.3578      -7.0132      -7.0132      -7.5035       0.8441       1.0000
      9       6.0433       7.2993       7.3050       7.4592       0.8911       0.0000
     10       6.0433       7.2993       7.3050       7.4592       0.8911       0.0000
     11       7.1098       8.5180       8.5129       8.6911       0.8873       0.0000
     12       7.1098       8.5180       8.5129       8.6911       0.8873       0.0000
     13       8.2171       9.7638       9.7618       9.9678       0.8823       0.0000
     14       8.2171       9.7639       9.7618       9.9678       0.8823       0.0000
     15      10.2385      12.0895      12.0893      12.3497       0.8766       0.0000
     16      10.2385      12.0896      12.0892      12.3497       0.8766       0.0000
 

 k-point  63 :       0.5000   -0.2500   -0.2500
  band No. DFT-energies  QP-energies  QP-e(diag)   sigma(DFT)    Z            occupation

      1     -18.5067     -20.3337     -20.3232     -20.9258       0.7509       1.0000
      2     -18.5067     -20.3335     -20.3230     -20.9258       0.7508       1.0000
      3      -5.2903      -7.9975      -7.9857      -8.5431       0.8286       1.0000
      4      -5.2903      -7.9965      -7.9867      -8.5431       0.8289       1.0000
      5      -4.6780      -7.3855      -7.3862      -7.8957       0.8417       1.0000
      6      -4.6780      -7.3854      -7.3861      -7.8957       0.8416       1.0000
      7      -4.2498      -6.8795      -6.8804      -7.3550       0.8472       1.0000
      8      -4.2498      -6.8794      -6.8803      -7.3550       0.8471       1.0000
      9       5.9615       7.2710       7.2746       7.4404       0.8879       0.0000
     10       5.9615       7.2711       7.2746       7.4404       0.8879       0.0000
     11       7.6558       9.0361       9.0324       9.2044       0.8889       0.0000
     12       7.6558       9.0361       9.0324       9.2044       0.8889       0.0000
     13       7.8126       9.3442       9.3432       9.5411       0.8855       0.0000
     14       7.8126       9.3443       9.3431       9.5411       0.8855       0.0000
     15       9.8656      11.6851      11.6850      11.9326       0.8802       0.0000
     16       9.8656      11.6852      11.6850      11.9326       0.8802       0.0000
 

 k-point  64 :      -0.2500   -0.2500   -0.2500
  band No. DFT-energies  QP-energies  QP-e(diag)   sigma(DFT)    Z            occupation

      1     -18.5749     -20.4274     -20.4073     -21.0137       0.7514       1.0000
      2     -18.5749     -20.4274     -20.4073     -21.0137       0.7514       1.0000
      3      -5.0580      -7.7166      -7.7062      -8.2424       0.8316       1.0000
      4      -5.0580      -7.7156      -7.7072      -8.2424       0.8319       1.0000
      5      -4.3520      -6.9677      -6.9728      -7.4580       0.8438       1.0000
      6      -4.3520      -6.9674      -6.9727      -7.4580       0.8437       1.0000
      7      -4.0648      -6.6557      -6.6553      -7.1255       0.8464       1.0000
      8      -4.0648      -6.6554      -6.6551      -7.1255       0.8463       1.0000
      9       4.3444       5.5277       5.5250       5.6692       0.8911       0.0000
     10       4.3444       5.5277       5.5250       5.6692       0.8911       0.0000
     11       8.0673       9.5945       9.5937       9.7876       0.8873       0.0000
     12       8.0673       9.5945       9.5937       9.7876       0.8873       0.0000
     13       9.5004      11.3788      11.3788      11.6310       0.8816       0.0000
     14       9.5004      11.3788      11.3788      11.6310       0.8816       0.0000
     15       9.5183      11.3791      11.3791      11.6284       0.8819       0.0000
     16       9.5183      11.3791      11.3791      11.6284       0.8819       0.0000
 


--------------------------------------------------------------------------------------------------------



IMPORTANT INFORMATION: All symmetrisations will be switched off!
NOSYMM: (Re-)initialisation of all symmetry stuff for point group C_1.

   GW_DIAG:  cpu time    0.4419: real time    0.4441
    GWLOOP:  cpu time  519.7510: real time  521.4489
 writing wavefunctions
    --------------------------------------------
   GWTOTAL:  cpu time  520.1935: real time  521.9823
    4ORBIT:  cpu time    0.0000: real time    0.0000

 Spin-Orbit-Coupling matrix elements

 Ion:    1  E_soc:     -0.0797617
 l=   1
     0.0000000    -0.0132933    -0.0132933
    -0.0132933     0.0000000    -0.0132933
    -0.0132933    -0.0132933     0.0000000
 l=   2
     0.0000000    -0.0000001     0.0000000    -0.0000001    -0.0000002
    -0.0000001     0.0000000    -0.0000002    -0.0000000    -0.0000001
     0.0000000    -0.0000002     0.0000000    -0.0000002     0.0000000
    -0.0000001    -0.0000000    -0.0000002     0.0000000    -0.0000001
    -0.0000002    -0.0000001     0.0000000    -0.0000001     0.0000000
 l=   3
     0.0000000     0.0000000     0.0000000     0.0000000     0.0000000     0.0000000     0.0000000
     0.0000000     0.0000000     0.0000000     0.0000000     0.0000000     0.0000000     0.0000000
     0.0000000     0.0000000     0.0000000     0.0000000     0.0000000     0.0000000     0.0000000
     0.0000000     0.0000000     0.0000000     0.0000000     0.0000000     0.0000000     0.0000000
     0.0000000     0.0000000     0.0000000     0.0000000     0.0000000     0.0000000     0.0000000
     0.0000000     0.0000000     0.0000000     0.0000000     0.0000000     0.0000000     0.0000000
     0.0000000     0.0000000     0.0000000     0.0000000     0.0000000     0.0000000     0.0000000

 total amount of memory used by VASP MPI-rank0   127475. kBytes
=======================================================================

   base      :      30000. kBytes
   nonl-proj :       5576. kBytes
   fftplans  :      16199. kBytes
   grid      :      14155. kBytes
   one-center:         62. kBytes
   HF        :        129. kBytes
   nonlr-proj:        209. kBytes
   wavefun   :      61145. kBytes
   2eintegral:          0. kBytes
   fockhandle:          0. kBytes
   response  :          0. kBytes
   cacher    :          0. kBytes
 
  
  
 General timing and accounting informations for this job:
 ========================================================
  
                  Total CPU time used (sec):      522.647
                            User time (sec):      520.431
                          System time (sec):        2.216
                         Elapsed time (sec):      524.410
  
                   Maximum memory used (kb):      526636.
                   Average memory used (kb):           0.
  
                          Minor page faults:       103449
                          Major page faults:            0
                 Voluntary context switches:         2569
