 vasp.5.4.4.18Apr17-6-g9f103f2a35 (build Nov 03 2018 10:20:46) complex          
  
 executed on             LinuxIFC date 2018.11.14  12:34:10
 running on   16 total cores
 distrk:  each k-point on    2 cores,    8 groups
 distr:  one band on NCORES_PER_BAND=   1 cores,    2 groups


--------------------------------------------------------------------------------------------------------


 INCAR:
 POTCAR:    PAW_PBE Kr_GW 21Aug2013               

 ----------------------------------------------------------------------------- 
|                                                                             |
|           W    W    AA    RRRRR   N    N  II  N    N   GGGG   !!!           |
|           W    W   A  A   R    R  NN   N  II  NN   N  G    G  !!!           |
|           W    W  A    A  R    R  N N  N  II  N N  N  G       !!!           |
|           W WW W  AAAAAA  RRRRR   N  N N  II  N  N N  G  GGG   !            |
|           WW  WW  A    A  R   R   N   NN  II  N   NN  G    G                |
|           W    W  A    A  R    R  N    N  II  N    N   GGGG   !!!           |
|                                                                             |
|      For optimal performance we recommend to set                            |
|        NCORE= 4 - approx SQRT( number of cores)                             |
|      NCORE specifies how many cores store one orbital (NPAR=cpu/NCORE).     |
|      This setting can  greatly improve the performance of VASP for DFT.     |
|      The default,   NCORE=1            might be grossly inefficient         |
|      on modern multi-core architectures or massively parallel machines.     |
|      Do your own testing !!!!                                               |
|      Unfortunately you need to use the default for GW and RPA calculations. |
|      (for HF NCORE is supported but not extensively tested yet)             |
|                                                                             |
 ----------------------------------------------------------------------------- 


 ----------------------------------------------------------------------------- 
|                                                                             |
|           W    W    AA    RRRRR   N    N  II  N    N   GGGG   !!!           |
|           W    W   A  A   R    R  NN   N  II  NN   N  G    G  !!!           |
|           W    W  A    A  R    R  N N  N  II  N N  N  G       !!!           |
|           W WW W  AAAAAA  RRRRR   N  N N  II  N  N N  G  GGG   !            |
|           WW  WW  A    A  R   R   N   NN  II  N   NN  G    G                |
|           W    W  A    A  R    R  N    N  II  N    N   GGGG   !!!           |
|                                                                             |
|      You have enabled k-point parallelism (KPAR>1).                         |
|      This developmental code was originally  written by Paul Kent at ORNL,  |
|      and carefully double checked in Vienna.                                |
|      GW as well as linear response parallelism added by Martijn Marsman     |
|      and Georg Kresse.                                                      |
|      Carefully verify results versus KPAR=1.                                |
|      Report problems to Paul Kent and Vienna.                               |
|                                                                             |
 ----------------------------------------------------------------------------- 

 POTCAR:    PAW_PBE Kr_GW 21Aug2013               
  local pseudopotential read in
  partial core-charges read in
  partial kinetic energy density read in
  kinetic energy density of atom read in
  atomic valenz-charges read in
  non local Contribution for L=           0  read in
    real space projection operators read in
  non local Contribution for L=           0  read in
    real space projection operators read in
  non local Contribution for L=           1  read in
    real space projection operators read in
  non local Contribution for L=           1  read in
    real space projection operators read in
  non local Contribution for L=           2  read in
    real space projection operators read in
  non local Contribution for L=           2  read in
    real space projection operators read in
    PAW grid and wavefunctions read in
 
   number of l-projection  operators is LMAX  =           6
   number of lm-projection operators is LMMAX =          18
 
  PAW_PBE Kr_GW 21Aug2013               :
 energy of atom  1       EATOM= -506.7358
 kinetic energy error for atom=    0.0279 (will be added to EATOM!!)
 
 
 POSCAR: Kr_FCC                                  
  positions in direct lattice
  velocities in cartesian coordinates
 exchange correlation table for  LEXCH =        8
   RHO(1)=    0.500       N(1)  =     2000
   RHO(2)=  100.500       N(2)  =     4000
 


--------------------------------------------------------------------------------------------------------


 ion  position               nearest neighbor table
   1  0.000  0.000  0.000-
 

IMPORTANT INFORMATION: All symmetrisations will be switched off!
NOSYMM: (Re-)initialisation of all symmetry stuff for point group C_1.

 
 
 KPOINTS: k-points                                

Automatic generation of k-mesh.
Space group operators:
 irot       det(A)        alpha          n_x          n_y          n_z        tau_x        tau_y        tau_z
    1     1.000000     0.000001     1.000000     0.000000     0.000000     0.000000     0.000000     0.000000
 
 Subroutine IBZKPT returns following result:
 ===========================================
 
 Found     64 irreducible k-points:
 
 Following reciprocal coordinates:
            Coordinates               Weight
  0.000000  0.000000  0.000000      1.000000
  0.250000  0.000000 -0.000000      1.000000
  0.500000  0.000000 -0.000000      1.000000
 -0.250000 -0.000000  0.000000      1.000000
 -0.000000  0.250000  0.000000      1.000000
  0.250000  0.250000  0.000000      1.000000
  0.500000  0.250000 -0.000000      1.000000
 -0.250000  0.250000  0.000000      1.000000
 -0.000000  0.500000  0.000000      1.000000
  0.250000  0.500000  0.000000      1.000000
  0.500000  0.500000  0.000000      1.000000
 -0.250000  0.500000  0.000000      1.000000
  0.000000 -0.250000 -0.000000      1.000000
  0.250000 -0.250000 -0.000000      1.000000
  0.500000 -0.250000 -0.000000      1.000000
 -0.250000 -0.250000  0.000000      1.000000
  0.000000  0.000000  0.250000      1.000000
  0.250000 -0.000000  0.250000      1.000000
  0.500000 -0.000000  0.250000      1.000000
 -0.250000 -0.000000  0.250000      1.000000
  0.000000  0.250000  0.250000      1.000000
  0.250000  0.250000  0.250000      1.000000
  0.500000  0.250000  0.250000      1.000000
 -0.250000  0.250000  0.250000      1.000000
  0.000000  0.500000  0.250000      1.000000
  0.250000  0.500000  0.250000      1.000000
  0.500000  0.500000  0.250000      1.000000
 -0.250000  0.500000  0.250000      1.000000
  0.000000 -0.250000  0.250000      1.000000
  0.250000 -0.250000  0.250000      1.000000
  0.500000 -0.250000  0.250000      1.000000
 -0.250000 -0.250000  0.250000      1.000000
  0.000000  0.000000  0.500000      1.000000
  0.250000 -0.000000  0.500000      1.000000
  0.500000 -0.000000  0.500000      1.000000
 -0.250000 -0.000000  0.500000      1.000000
  0.000000  0.250000  0.500000      1.000000
  0.250000  0.250000  0.500000      1.000000
  0.500000  0.250000  0.500000      1.000000
 -0.250000  0.250000  0.500000      1.000000
  0.000000  0.500000  0.500000      1.000000
  0.250000  0.500000  0.500000      1.000000
  0.500000  0.500000  0.500000      1.000000
 -0.250000  0.500000  0.500000      1.000000
  0.000000 -0.250000  0.500000      1.000000
  0.250000 -0.250000  0.500000      1.000000
  0.500000 -0.250000  0.500000      1.000000
 -0.250000 -0.250000  0.500000      1.000000
 -0.000000 -0.000000 -0.250000      1.000000
  0.250000  0.000000 -0.250000      1.000000
  0.500000  0.000000 -0.250000      1.000000
 -0.250000  0.000000 -0.250000      1.000000
 -0.000000  0.250000 -0.250000      1.000000
  0.250000  0.250000 -0.250000      1.000000
  0.500000  0.250000 -0.250000      1.000000
 -0.250000  0.250000 -0.250000      1.000000
 -0.000000  0.500000 -0.250000      1.000000
  0.250000  0.500000 -0.250000      1.000000
  0.500000  0.500000 -0.250000      1.000000
 -0.250000  0.500000 -0.250000      1.000000
 -0.000000 -0.250000 -0.250000      1.000000
  0.250000 -0.250000 -0.250000      1.000000
  0.500000 -0.250000 -0.250000      1.000000
 -0.250000 -0.250000 -0.250000      1.000000
 
 Following cartesian coordinates:
            Coordinates               Weight
  0.000000  0.000000  0.000000      1.000000
  0.060748 -0.035073 -0.024800      1.000000
  0.121497 -0.070146 -0.049601      1.000000
 -0.060748  0.035073  0.024800      1.000000
  0.000000  0.070146 -0.024800      1.000000
  0.060748  0.035073 -0.049601      1.000000
  0.121497 -0.000000 -0.074401      1.000000
 -0.060748  0.105219  0.000000      1.000000
  0.000000  0.140292 -0.049601      1.000000
  0.060748  0.105219 -0.074401      1.000000
  0.121497  0.070146 -0.099202      1.000000
 -0.060748  0.175365 -0.024800      1.000000
 -0.000000 -0.070146  0.024800      1.000000
  0.060748 -0.105219 -0.000000      1.000000
  0.121497 -0.140292 -0.024800      1.000000
 -0.060748 -0.035073  0.049601      1.000000
 -0.000000  0.000000  0.074401      1.000000
  0.060748 -0.035073  0.049601      1.000000
  0.121497 -0.070146  0.024800      1.000000
 -0.060748  0.035073  0.099202      1.000000
 -0.000000  0.070146  0.049601      1.000000
  0.060748  0.035073  0.024800      1.000000
  0.121497  0.000000 -0.000000      1.000000
 -0.060748  0.105219  0.074401      1.000000
 -0.000000  0.140292  0.024800      1.000000
  0.060748  0.105219  0.000000      1.000000
  0.121497  0.070146 -0.024800      1.000000
 -0.060748  0.175365  0.049601      1.000000
 -0.000000 -0.070146  0.099202      1.000000
  0.060748 -0.105219  0.074401      1.000000
  0.121497 -0.140292  0.049601      1.000000
 -0.060748 -0.035073  0.124002      1.000000
 -0.000000  0.000000  0.148802      1.000000
  0.060748 -0.035073  0.124002      1.000000
  0.121497 -0.070146  0.099202      1.000000
 -0.060748  0.035073  0.173603      1.000000
 -0.000000  0.070146  0.124002      1.000000
  0.060748  0.035073  0.099202      1.000000
  0.121497  0.000000  0.074401      1.000000
 -0.060748  0.105219  0.148802      1.000000
 -0.000000  0.140292  0.099202      1.000000
  0.060748  0.105219  0.074401      1.000000
  0.121497  0.070146  0.049601      1.000000
 -0.060748  0.175365  0.124002      1.000000
 -0.000000 -0.070146  0.173603      1.000000
  0.060748 -0.105219  0.148802      1.000000
  0.121497 -0.140292  0.124002      1.000000
 -0.060748 -0.035073  0.198403      1.000000
  0.000000 -0.000000 -0.074401      1.000000
  0.060748 -0.035073 -0.099202      1.000000
  0.121497 -0.070146 -0.124002      1.000000
 -0.060748  0.035073 -0.049601      1.000000
  0.000000  0.070146 -0.099202      1.000000
  0.060748  0.035073 -0.124002      1.000000
  0.121497  0.000000 -0.148802      1.000000
 -0.060748  0.105219 -0.074401      1.000000
  0.000000  0.140292 -0.124002      1.000000
  0.060748  0.105219 -0.148802      1.000000
  0.121497  0.070146 -0.173603      1.000000
 -0.060748  0.175365 -0.099202      1.000000
  0.000000 -0.070146 -0.049601      1.000000
  0.060748 -0.105219 -0.074401      1.000000
  0.121497 -0.140292 -0.099202      1.000000
 -0.060748 -0.035073 -0.024800      1.000000
 
 
 Subroutine IBZKPT_HF returns following result:
 ==============================================
 
 Found     64 k-points in 1st BZ
 the following     64 k-points will be used (e.g. in the exchange kernel)
 Following reciprocal coordinates:   # in IRBZ
  0.000000  0.000000  0.000000    0.01562500   1 t-inv F
  0.250000  0.000000 -0.000000    0.01562500   2 t-inv F
  0.500000  0.000000 -0.000000    0.01562500   3 t-inv F
 -0.250000 -0.000000  0.000000    0.01562500   4 t-inv F
 -0.000000  0.250000  0.000000    0.01562500   5 t-inv F
  0.250000  0.250000  0.000000    0.01562500   6 t-inv F
  0.500000  0.250000 -0.000000    0.01562500   7 t-inv F
 -0.250000  0.250000  0.000000    0.01562500   8 t-inv F
 -0.000000  0.500000  0.000000    0.01562500   9 t-inv F
  0.250000  0.500000  0.000000    0.01562500  10 t-inv F
  0.500000  0.500000  0.000000    0.01562500  11 t-inv F
 -0.250000  0.500000  0.000000    0.01562500  12 t-inv F
  0.000000 -0.250000 -0.000000    0.01562500  13 t-inv F
  0.250000 -0.250000 -0.000000    0.01562500  14 t-inv F
  0.500000 -0.250000 -0.000000    0.01562500  15 t-inv F
 -0.250000 -0.250000  0.000000    0.01562500  16 t-inv F
  0.000000  0.000000  0.250000    0.01562500  17 t-inv F
  0.250000 -0.000000  0.250000    0.01562500  18 t-inv F
  0.500000 -0.000000  0.250000    0.01562500  19 t-inv F
 -0.250000 -0.000000  0.250000    0.01562500  20 t-inv F
  0.000000  0.250000  0.250000    0.01562500  21 t-inv F
  0.250000  0.250000  0.250000    0.01562500  22 t-inv F
  0.500000  0.250000  0.250000    0.01562500  23 t-inv F
 -0.250000  0.250000  0.250000    0.01562500  24 t-inv F
  0.000000  0.500000  0.250000    0.01562500  25 t-inv F
  0.250000  0.500000  0.250000    0.01562500  26 t-inv F
  0.500000  0.500000  0.250000    0.01562500  27 t-inv F
 -0.250000  0.500000  0.250000    0.01562500  28 t-inv F
  0.000000 -0.250000  0.250000    0.01562500  29 t-inv F
  0.250000 -0.250000  0.250000    0.01562500  30 t-inv F
  0.500000 -0.250000  0.250000    0.01562500  31 t-inv F
 -0.250000 -0.250000  0.250000    0.01562500  32 t-inv F
  0.000000  0.000000  0.500000    0.01562500  33 t-inv F
  0.250000 -0.000000  0.500000    0.01562500  34 t-inv F
  0.500000 -0.000000  0.500000    0.01562500  35 t-inv F
 -0.250000 -0.000000  0.500000    0.01562500  36 t-inv F
  0.000000  0.250000  0.500000    0.01562500  37 t-inv F
  0.250000  0.250000  0.500000    0.01562500  38 t-inv F
  0.500000  0.250000  0.500000    0.01562500  39 t-inv F
 -0.250000  0.250000  0.500000    0.01562500  40 t-inv F
  0.000000  0.500000  0.500000    0.01562500  41 t-inv F
  0.250000  0.500000  0.500000    0.01562500  42 t-inv F
  0.500000  0.500000  0.500000    0.01562500  43 t-inv F
 -0.250000  0.500000  0.500000    0.01562500  44 t-inv F
  0.000000 -0.250000  0.500000    0.01562500  45 t-inv F
  0.250000 -0.250000  0.500000    0.01562500  46 t-inv F
  0.500000 -0.250000  0.500000    0.01562500  47 t-inv F
 -0.250000 -0.250000  0.500000    0.01562500  48 t-inv F
 -0.000000 -0.000000 -0.250000    0.01562500  49 t-inv F
  0.250000  0.000000 -0.250000    0.01562500  50 t-inv F
  0.500000  0.000000 -0.250000    0.01562500  51 t-inv F
 -0.250000  0.000000 -0.250000    0.01562500  52 t-inv F
 -0.000000  0.250000 -0.250000    0.01562500  53 t-inv F
  0.250000  0.250000 -0.250000    0.01562500  54 t-inv F
  0.500000  0.250000 -0.250000    0.01562500  55 t-inv F
 -0.250000  0.250000 -0.250000    0.01562500  56 t-inv F
 -0.000000  0.500000 -0.250000    0.01562500  57 t-inv F
  0.250000  0.500000 -0.250000    0.01562500  58 t-inv F
  0.500000  0.500000 -0.250000    0.01562500  59 t-inv F
 -0.250000  0.500000 -0.250000    0.01562500  60 t-inv F
 -0.000000 -0.250000 -0.250000    0.01562500  61 t-inv F
  0.250000 -0.250000 -0.250000    0.01562500  62 t-inv F
  0.500000 -0.250000 -0.250000    0.01562500  63 t-inv F
 -0.250000 -0.250000 -0.250000    0.01562500  64 t-inv F


--------------------------------------------------------------------------------------------------------




 Dimension of arrays:
   k-points           NKPTS =     64   k-points in BZ     NKDIM =     64   number of bands    NBANDS=     96
   number of dos      NEDOS =    301   number of ions     NIONS =      1
   non local maximal  LDIM  =      6   non local SUM 2l+1 LMDIM =     18
   total plane-waves  NPLWV =  13824
   max r-space proj   IRMAX =      1   max aug-charges    IRDMAX=  70933
   dimension x,y,z NGX =    24 NGY =   24 NGZ =   24
   dimension x,y,z NGXF=    48 NGYF=   48 NGZF=   48
   support grid    NGXF=    96 NGYF=   96 NGZF=   96
   ions per type =               1
   NGX,Y,Z   is equivalent  to a cutoff of   9.70,  9.70,  9.70 a.u.
   NGXF,Y,Z  is equivalent  to a cutoff of  19.39, 19.39, 19.39 a.u.

 SYSTEM =  Og_FCC                                  
 POSCAR =  Kr_FCC                                  

 Startparameter for this run:
   NWRITE =      1    write-flag & timer
   PREC   = accura    normal or accurate (medium, high low for compatibility)
   ISTART =      1    job   : 0-new  1-cont  2-samecut
   ICHARG =      0    charge: 1-file 2-atom 10-const
   ISPIN  =      1    spin polarized calculation?
   LNONCOLLINEAR =      T non collinear calculations
   LSORBIT =      T    spin-orbit coupling
   INIWAV =      1    electr: 0-lowe 1-rand  2-diag
   LASPH  =      F    aspherical Exc in radial PAW
   METAGGA=      F    non-selfconsistent MetaGGA calc.

 Electronic Relaxation 1
   ENCUT  =  300.0 eV  22.05 Ry    4.70 a.u.   5.81  5.81  5.81*2*pi/ulx,y,z
   ENINI  =  300.0     initial cutoff
   ENAUG  =  554.8 eV  augmentation charge cutoff
   NELM   =      1;   NELMIN=  2; NELMDL=  0     # of ELM steps 
   EDIFF  = 0.1E-07   stopping-criterion for ELM
   LREAL  =      F    real-space projection
   NLSPLINE    = F    spline interpolate recip. space projectors
   LCOMPAT=      F    compatible to vasp.4.4
   GGA_COMPAT  = F    GGA compatible to vasp.4.4-vasp.4.6
   LMAXPAW     = -100 max onsite density
   LMAXMIX     =    2 max onsite mixed and CHGCAR
   VOSKOWN=      0    Vosko Wilk Nusair interpolation
   ROPT   =    0.00000
 Ionic relaxation
   EDIFFG = 0.1E-04   stopping-criterion for IOM
   NSW    =      1    number of steps for IOM
   NBLOCK =      1;   KBLOCK =      1    inner block; outer block 
   IBRION =     -1    ionic relax: 0-MD 1-quasi-New 2-CG
   NFREE  =      5    steps in history (QN), initial steepest desc. (CG)
   ISIF   =      3    stress and relaxation
   IWAVPR =     10    prediction:  0-non 1-charg 2-wave 3-comb
   ISYM   =      0    0-nonsym 1-usesym 2-fastsym
   LCORR  =      T    Harris-Foulkes like correction to forces

   POTIM  = 0.1000    time-step for ionic-motion
   TEIN   =    0.0    initial temperature
   TEBEG  =    0.0;   TEEND  =   0.0 temperature during run
   SMASS  =  -3.00    Nose mass-parameter (am)
   estimated Nose-frequenzy (Omega)   =  0.10E-29 period in steps =****** mass=  -0.387E-27a.u.
   SCALEE = 1.0000    scale energy and forces
   NPACO  =    256;   APACO  = 16.0  distance and # of slots for P.C.
   PSTRESS=    0.0 pullay stress

  Mass of Ions in am
   POMASS =  83.80
  Ionic Valenz
   ZVAL   =   8.00
  Atomic Wigner-Seitz radii
   RWIGS  =  -1.00
  virtual crystal weights 
   VCA    =   1.00
   NELECT =       8.0000    total number of electrons
   NUPDOWN=      -1.0000    fix difference up-down

 DOS related values:
   EMIN   =  10.00;   EMAX   =-10.00  energy-range for DOS
   EFERMI =   0.00
   ISMEAR =     0;   SIGMA  =   0.00  broadening in eV -4-tet -1-fermi 0-gaus

 Electronic relaxation 2 (details)
   IALGO  =     38    algorithm
   LDIAG  =      T    sub-space diagonalisation (order eigenvalues)
   LSUBROT=      F    optimize rotation matrix (better conditioning)
   TURBO    =      0    0=normal 1=particle mesh
   IRESTART =      0    0=no restart 2=restart with 2 vectors
   NREBOOT  =      0    no. of reboots
   NMIN     =      0    reboot dimension
   EREF     =   0.00    reference energy to select bands
   IMIX   =      1    mixing-type and parameters
     AMIX     =   0.40;   BMIX     =  1.00
     AMIX_MAG =   1.60;   BMIX_MAG =  1.00
     AMIN     =   0.10
     WC   =   100.;   INIMIX=   1;  MIXPRE=   1;  MAXMIX=  50

 Intra band minimization:
   WEIMIN = 0.0000     energy-eigenvalue tresh-hold
   EBREAK =  0.26E-10  absolut break condition
   DEPER  =   0.30     relativ break condition  

   TIME   =   0.40     timestep for ELM

  volume/ion in A,a.u.               =      49.28       332.58
  Fermi-wavevector in a.u.,A,eV,Ry     =   0.893039  1.687599 10.850901  0.797519
  Thomas-Fermi vector in A             =   2.015065
 
 Write flags
   LWAVE        =      T    write WAVECAR
   LDOWNSAMPLE  =      F    k-point downsampling of WAVECAR
   LCHARG       =      F    write CHGCAR
   LVTOT        =      F    write LOCPOT, total local potential
   LVHAR        =      F    write LOCPOT, Hartree potential only
   LELF         =      F    write electronic localiz. function (ELF)
   LORBIT       =      0    0 simple, 1 ext, 2 COOP (PROOUT), +10 PAW based schemes


 Dipole corrections
   LMONO  =      F    monopole corrections only (constant potential shift)
   LDIPOL =      F    correct potential (dipole corrections)
   IDIPOL =      0    1-x, 2-y, 3-z, 4-all directions 
   EPSILON=  1.0000000 bulk dielectric constant

 Exchange correlation treatment:
   GGA     =    PE    GGA type
   LEXCH   =     8    internal setting for exchange type
   VOSKOWN=      0    Vosko Wilk Nusair interpolation
   EXXOEP  =     0    0=HF, 1=EXX-LHF (local Hartree Fock) 2=EXX OEP
   LHFCALC =     T    Hartree Fock is set to
   LSYMGRAD=     F    symmetrize gradient (conserves proper symmetry)
   PRECFOCK=normal    Normal, Fast or Accurate (Low or Medium for compatibility)
   LRHFCALC=     F    long range Hartree Fock
   LRSCOR  =     F    long range correlation only (use DFT for short range part)
   LTHOMAS =     F    Thomas Fermi screening in HF
   LMODELHF=     F    short range full HF, long range fraction AEXX
   ENCUT4O =  -1.0   cutoff for four orbital integrals eV
   LMAXFOCK=     4    L truncation for augmentation on plane wave grid
   LMAXFOCKAE=   4    L truncation for all-electron charge restoration on plane wave grid
   NMAXFOCKAE=   1    number of basis functions for all-electron charge restoration
   LFOCKAEDFT=     F  apply the AE augmentation even for DFT
   NKREDX  =     1    reduce k-point grid by
   NKREDY  =     1    reduce k-point grid by
   NKREDZ  =     1    reduce k-point grid by
   SHIFTRED=     F    shift reduced grid of Gamma
   HFKIDENT=     F    idential grid for each k-point
   ODDONLY =     F    use only odd q-grid points
   EVENONLY=     F    use only even q-grid points
   HFALPHA =   -1.0000 decay constant for conv. correction
   MCALPHA =    0.0000 extent of test-charge in conv. correction in multipole expansion
   AEXX    =    1.0000 exact exchange contribution
   HFSCREEN=    0.0000 screening length (either q_TF or 0.3 A-1)
   HFSCREENC=   0.0000 screening length for correlation (either q_TF or 0.3 A-1)
   HFRCUT  =    0.0000 spherical cutoff for potential kernel
   ALDAX   =    0.0000 LDA exchange part
   AGGAX   =    0.0000 GGA exchange part
   ALDAC   =    0.0000 LDA correlation
   AGGAC   =    0.0000 GGA correlation
   ENCUTFOCK=  -1.0 apply spherical cutoff to Coloumb kernel
   NBANDSGWLOW=     1    first orbital included in HF term
   NBLOCK_FOCK=    64    blocking factor in FOCK_ACC
 Linear response parameters
   LEPSILON=     F    determine dielectric tensor
   LRPA    =     F    only Hartree local field effects (RPA)
   LNABLA  =     F    use nabla operator in PAW spheres
   LVEL    =     F    velocity operator in full k-point grid
   LINTERFAST=   F  fast interpolation
   KINTER  =     0    interpolate to denser k-point grid
   CSHIFT  =0.1000    complex shift for real part using Kramers Kronig
   OMEGAMAX=  -1.0    maximum frequency
   DEG_THRESHOLD= 0.2000000E-02 threshold for treating states as degnerate
   RTIME   =   -0.100 relaxation time in fs
  (WPLASMAI=    0.000 imaginary part of plasma frequency in eV, 0.658/RTIME)
   DFIELD  = 0.0000000 0.0000000 0.0000000 field for delta impulse in time
 
 Orbital magnetization related:
   ORBITALMAG=     F  switch on orbital magnetization
   LCHIMAG   =     F  perturbation theory with respect to B field
   DQ        =  0.001000  dq finite difference perturbation B field
   LLRAUG    =     F  two centre corrections for induced B field

 Response functions by sum over occupied states:
   ALGO    =QPGW       execute GW part
   LFXC    =     F    include DFT xc kernel in TD-HF and W
   LADDER  =     F    particle hole ladder diagrams for BSE/TD-HF and W (Nano-quanta)
   LRPAFORCE=     F   calculate RPA forces
   LHARTREE=     T    include Hartree terms (bubbles-RPA) in BSE/TD-HF
   IBSE    =     0    BSE modus: 0 exact, 1 time-evolution (store matrix), 10 time-evolution (implicit)
   KPOINT  =    -1   0   0   0    k-point index at which BSE equation is solved (and G at which response is eval.)
   LTRIPLET=     F    triplet instead of singlet excitation (BSE only)
   LRSRPA  =     F    range separated RPA (total - short) in ACFDT
   LTCTE   =     F    use test-charge test-electron dielectric function
   LTETE   =     F    use test-electron test-electron dielectric function
   LFXCEPS =     F    determine f_xc=epsilon-1/Xi Sharma and Gross kernel
   LFXHEG  =     F    model exchange using f_x(G,k_F) from free electron gas
   NATURALO=     2    0 natural orbitals, 1 only virtual, 2 only occupied-virtual rotation
   L2ORDER =     F    2nd order terms only
   LMP2LT   =     F    use LT MP2
   LUSEW   =     F    use screened W from WXXXX.tmp files instead of (screened) HF kernel
   ENCUTGW = 200.0    cutoff for response function in eV
   ENCUTGWSOFT = 200.0 soft cutoff for Coulomb kernel in GW response function in eV
   ENCUTLF =  -1.0    cutoff for local field effects
   LMAXMP2 =    -1    maximum L for one center terms
   SCISSOR =   0.0    scissor correction
   NOMEGA  =    50    number of frequencies
   NOMEGAR =    50    number of frequencies along real axis
   NBANDSGW=    -1    number of bands for which selfenergy shift is calculated
   NBANDSGWLOW=     1 lowest band included in GW (to exclude core correlation)
   NBANDSO =    -1    number of bands for electron-hole treatment (occupied)
   NBANDSV =    -1    number of bands for electron-hole treatment (virtual)
   NELM    =     1    number of iterations in solving QP/BSE equation
   NELMHF  =     1    number of iterations in the inner HF iteration
   DIM     =     3    dimensionality of system (0=0D molecules, 3=3D)
   ANTIRES =     0    antiresonant part (0) no TDA (1) w=0 exact (2) accurate
   OMEGAMAX= -30.0    maximum frequency
   OMEGAMIN= -30.000    minimum frequency
   OMEGATL =-200.0    maximum frequency of tail
   OMEGAGRID=     0    grid type (0 default)
   CSHIFT  =-0.100    complex shift used in evaluation of response functions
   SELFENERGY=   F    calculate selfenergy instead of QP shifts
   LSPECTRAL =   T    use spectral functions                   
   LSPECTRALGW=   F   use spectral functions to calculate int dz G(w-z) W(z) (more accurate)
   LSINGLES  =   F   calculate the singles contribution to the correlation energy
   LFERMIGW  =   F   update Fermi-energy in the Greens function

   ODDONLYGW =   F    avoid all even points for polarizability 
   EVENONLYGW=   F    avoid all odd  points for polarizability 
   NKREDLFX  =   1   NKREDLFY  =   1   NKREDLFZ  =   1

   TELESCOPE =   0   use telescope k-point sampling
   TAUPAR    =   1   number of TAU groups used in imaginary time calculation
   OMEGAPAR  =  -1   number of OMEGA groups used in imaginary frequency calculation



--------------------------------------------------------------------------------------------------------


 Static calculation
 charge density and potential will be updated during run
 non collinear spin polarized calculation
 Variant of blocked Davidson
 Davidson routine will perform the subspace rotation
 perform sub-space diagonalisation
    after iterative eigenvector-optimisation
 Kerker-like  mixing scheme
 using additional bands           92
 reciprocal scheme for non local part
 use partial core corrections
 calculate Harris-corrections to forces 
   (improved forces if not selfconsistent)
 use gradient corrections 
 use of overlap-Matrix (Vanderbilt PP)
 Gauss-broadening in eV      SIGMA  =   0.00


--------------------------------------------------------------------------------------------------------


  energy-cutoff  :      300.00
  volume of cell :       49.28
      direct lattice vectors                 reciprocal lattice vectors
     4.115343013  0.000000000  0.000000000     0.242993111 -0.140292138 -0.099201522
     2.057671506  3.563991594 -0.000000000     0.000000000  0.280584276 -0.099201522
     2.057671506  1.187997198  3.360163499    -0.000000000  0.000000000  0.297604566

  length of vectors
     4.115343013  4.115343013  4.115343013     0.297604566  0.297604566  0.297604566


 
 old parameters found on file WAVECAR:
  energy-cutoff  :      300.00
  volume of cell :       49.28
      direct lattice vectors                 reciprocal lattice vectors
     4.115343013  0.000000000  0.000000000     0.242993111 -0.140292138 -0.099201522
     2.057671506  3.563991594 -0.000000000     0.000000000  0.280584276 -0.099201522
     2.057671506  1.187997198  3.360163499    -0.000000000  0.000000000  0.297604566

  length of vectors

 
 k-points in units of 2pi/SCALE and weight: k-points                                
   0.00000000  0.00000000  0.00000000       0.016
   0.06074828 -0.03507303 -0.02480038       0.016
   0.12149656 -0.07014607 -0.04960076       0.016
  -0.06074828  0.03507303  0.02480038       0.016
   0.00000000  0.07014607 -0.02480038       0.016
   0.06074828  0.03507303 -0.04960076       0.016
   0.12149656 -0.00000000 -0.07440114       0.016
  -0.06074828  0.10521910  0.00000000       0.016
   0.00000000  0.14029214 -0.04960076       0.016
   0.06074828  0.10521910 -0.07440114       0.016
   0.12149656  0.07014607 -0.09920152       0.016
  -0.06074828  0.17536517 -0.02480038       0.016
  -0.00000000 -0.07014607  0.02480038       0.016
   0.06074828 -0.10521910 -0.00000000       0.016
   0.12149656 -0.14029214 -0.02480038       0.016
  -0.06074828 -0.03507303  0.04960076       0.016
  -0.00000000  0.00000000  0.07440114       0.016
   0.06074828 -0.03507303  0.04960076       0.016
   0.12149656 -0.07014607  0.02480038       0.016
  -0.06074828  0.03507303  0.09920152       0.016
  -0.00000000  0.07014607  0.04960076       0.016
   0.06074828  0.03507303  0.02480038       0.016
   0.12149656  0.00000000 -0.00000000       0.016
  -0.06074828  0.10521910  0.07440114       0.016
  -0.00000000  0.14029214  0.02480038       0.016
   0.06074828  0.10521910  0.00000000       0.016
   0.12149656  0.07014607 -0.02480038       0.016
  -0.06074828  0.17536517  0.04960076       0.016
  -0.00000000 -0.07014607  0.09920152       0.016
   0.06074828 -0.10521910  0.07440114       0.016
   0.12149656 -0.14029214  0.04960076       0.016
  -0.06074828 -0.03507303  0.12400190       0.016
  -0.00000000  0.00000000  0.14880228       0.016
   0.06074828 -0.03507303  0.12400190       0.016
   0.12149656 -0.07014607  0.09920152       0.016
  -0.06074828  0.03507303  0.17360266       0.016
  -0.00000000  0.07014607  0.12400190       0.016
   0.06074828  0.03507303  0.09920152       0.016
   0.12149656  0.00000000  0.07440114       0.016
  -0.06074828  0.10521910  0.14880228       0.016
  -0.00000000  0.14029214  0.09920152       0.016
   0.06074828  0.10521910  0.07440114       0.016
   0.12149656  0.07014607  0.04960076       0.016
  -0.06074828  0.17536517  0.12400190       0.016
  -0.00000000 -0.07014607  0.17360266       0.016
   0.06074828 -0.10521910  0.14880228       0.016
   0.12149656 -0.14029214  0.12400190       0.016
  -0.06074828 -0.03507303  0.19840304       0.016
   0.00000000 -0.00000000 -0.07440114       0.016
   0.06074828 -0.03507303 -0.09920152       0.016
   0.12149656 -0.07014607 -0.12400190       0.016
  -0.06074828  0.03507303 -0.04960076       0.016
   0.00000000  0.07014607 -0.09920152       0.016
   0.06074828  0.03507303 -0.12400190       0.016
   0.12149656  0.00000000 -0.14880228       0.016
  -0.06074828  0.10521910 -0.07440114       0.016
   0.00000000  0.14029214 -0.12400190       0.016
   0.06074828  0.10521910 -0.14880228       0.016
   0.12149656  0.07014607 -0.17360266       0.016
  -0.06074828  0.17536517 -0.09920152       0.016
   0.00000000 -0.07014607 -0.04960076       0.016
   0.06074828 -0.10521910 -0.07440114       0.016
   0.12149656 -0.14029214 -0.09920152       0.016
  -0.06074828 -0.03507303 -0.02480038       0.016
 
 k-points in reciprocal lattice and weights: k-points                                
   0.00000000  0.00000000  0.00000000       0.016
   0.25000000  0.00000000 -0.00000000       0.016
   0.50000000  0.00000000 -0.00000000       0.016
  -0.25000000 -0.00000000  0.00000000       0.016
  -0.00000000  0.25000000  0.00000000       0.016
   0.25000000  0.25000000  0.00000000       0.016
   0.50000000  0.25000000 -0.00000000       0.016
  -0.25000000  0.25000000  0.00000000       0.016
  -0.00000000  0.50000000  0.00000000       0.016
   0.25000000  0.50000000  0.00000000       0.016
   0.50000000  0.50000000  0.00000000       0.016
  -0.25000000  0.50000000  0.00000000       0.016
   0.00000000 -0.25000000 -0.00000000       0.016
   0.25000000 -0.25000000 -0.00000000       0.016
   0.50000000 -0.25000000 -0.00000000       0.016
  -0.25000000 -0.25000000  0.00000000       0.016
   0.00000000  0.00000000  0.25000000       0.016
   0.25000000 -0.00000000  0.25000000       0.016
   0.50000000 -0.00000000  0.25000000       0.016
  -0.25000000 -0.00000000  0.25000000       0.016
   0.00000000  0.25000000  0.25000000       0.016
   0.25000000  0.25000000  0.25000000       0.016
   0.50000000  0.25000000  0.25000000       0.016
  -0.25000000  0.25000000  0.25000000       0.016
   0.00000000  0.50000000  0.25000000       0.016
   0.25000000  0.50000000  0.25000000       0.016
   0.50000000  0.50000000  0.25000000       0.016
  -0.25000000  0.50000000  0.25000000       0.016
   0.00000000 -0.25000000  0.25000000       0.016
   0.25000000 -0.25000000  0.25000000       0.016
   0.50000000 -0.25000000  0.25000000       0.016
  -0.25000000 -0.25000000  0.25000000       0.016
   0.00000000  0.00000000  0.50000000       0.016
   0.25000000 -0.00000000  0.50000000       0.016
   0.50000000 -0.00000000  0.50000000       0.016
  -0.25000000 -0.00000000  0.50000000       0.016
   0.00000000  0.25000000  0.50000000       0.016
   0.25000000  0.25000000  0.50000000       0.016
   0.50000000  0.25000000  0.50000000       0.016
  -0.25000000  0.25000000  0.50000000       0.016
   0.00000000  0.50000000  0.50000000       0.016
   0.25000000  0.50000000  0.50000000       0.016
   0.50000000  0.50000000  0.50000000       0.016
  -0.25000000  0.50000000  0.50000000       0.016
   0.00000000 -0.25000000  0.50000000       0.016
   0.25000000 -0.25000000  0.50000000       0.016
   0.50000000 -0.25000000  0.50000000       0.016
  -0.25000000 -0.25000000  0.50000000       0.016
  -0.00000000 -0.00000000 -0.25000000       0.016
   0.25000000  0.00000000 -0.25000000       0.016
   0.50000000  0.00000000 -0.25000000       0.016
  -0.25000000  0.00000000 -0.25000000       0.016
  -0.00000000  0.25000000 -0.25000000       0.016
   0.25000000  0.25000000 -0.25000000       0.016
   0.50000000  0.25000000 -0.25000000       0.016
  -0.25000000  0.25000000 -0.25000000       0.016
  -0.00000000  0.50000000 -0.25000000       0.016
   0.25000000  0.50000000 -0.25000000       0.016
   0.50000000  0.50000000 -0.25000000       0.016
  -0.25000000  0.50000000 -0.25000000       0.016
  -0.00000000 -0.25000000 -0.25000000       0.016
   0.25000000 -0.25000000 -0.25000000       0.016
   0.50000000 -0.25000000 -0.25000000       0.016
  -0.25000000 -0.25000000 -0.25000000       0.016
 
 position of ions in fractional coordinates (direct lattice) 
   0.00000000  0.00000000  0.00000000
 
 position of ions in cartesian coordinates  (Angst):
   0.00000000  0.00000000  0.00000000
 
 Euler angles ALPHA=     0.0000000  BETA=     0.0000000

 transformation matrix from SAXIS to cartesian coordinates
 ---------------------------------------------------------
     1.0000000 m_x     0.0000000 m_y     0.0000000 m_z
     0.0000000 m_x     1.0000000 m_y     0.0000000 m_z
     0.0000000 m_x     0.0000000 m_y     1.0000000 m_z

 transformation matrix from cartesian coordinates to SAXIS
 ---------------------------------------------------------
     1.0000000 m_x     0.0000000 m_y     0.0000000 m_z
     0.0000000 m_x     1.0000000 m_y     0.0000000 m_z
     0.0000000 m_x     0.0000000 m_y     1.0000000 m_z




--------------------------------------------------------------------------------------------------------


 k-point  1 :   0.0000 0.0000 0.0000  plane waves:    1122
 k-point  2 :   0.2500 0.0000-0.0000  plane waves:    1152
 k-point  3 :   0.5000 0.0000-0.0000  plane waves:    1160
 k-point  4 :  -0.2500-0.0000 0.0000  plane waves:    1152
 k-point  5 :  -0.0000 0.2500 0.0000  plane waves:    1152
 k-point  6 :   0.2500 0.2500 0.0000  plane waves:    1152
 k-point  7 :   0.5000 0.2500-0.0000  plane waves:    1158
 k-point  8 :  -0.2500 0.2500 0.0000  plane waves:    1180
 k-point  9 :  -0.0000 0.5000 0.0000  plane waves:    1160
 k-point 10 :   0.2500 0.5000 0.0000  plane waves:    1158
 k-point 11 :   0.5000 0.5000 0.0000  plane waves:    1176
 k-point 12 :  -0.2500 0.5000 0.0000  plane waves:    1158
 k-point 13 :   0.0000-0.2500-0.0000  plane waves:    1152
 k-point 14 :   0.2500-0.2500-0.0000  plane waves:    1180
 k-point 15 :   0.5000-0.2500-0.0000  plane waves:    1158
 k-point 16 :  -0.2500-0.2500 0.0000  plane waves:    1152
 k-point 17 :   0.0000 0.0000 0.2500  plane waves:    1152
 k-point 18 :   0.2500-0.0000 0.2500  plane waves:    1152
 k-point 19 :   0.5000-0.0000 0.2500  plane waves:    1158
 k-point 20 :  -0.2500-0.0000 0.2500  plane waves:    1180
 k-point 21 :   0.0000 0.2500 0.2500  plane waves:    1152
 k-point 22 :   0.2500 0.2500 0.2500  plane waves:    1152
 k-point 23 :   0.5000 0.2500 0.2500  plane waves:    1180
 k-point 24 :  -0.2500 0.2500 0.2500  plane waves:    1158
 k-point 25 :   0.0000 0.5000 0.2500  plane waves:    1158
 k-point 26 :   0.2500 0.5000 0.2500  plane waves:    1180
 k-point 27 :   0.5000 0.5000 0.2500  plane waves:    1158
 k-point 28 :  -0.2500 0.5000 0.2500  plane waves:    1208
 k-point 29 :   0.0000-0.2500 0.2500  plane waves:    1180
 k-point 30 :   0.2500-0.2500 0.2500  plane waves:    1158
 k-point 31 :   0.5000-0.2500 0.2500  plane waves:    1208
 k-point 32 :  -0.2500-0.2500 0.2500  plane waves:    1158
 k-point 33 :   0.0000 0.0000 0.5000  plane waves:    1160
 k-point 34 :   0.2500-0.0000 0.5000  plane waves:    1158
 k-point 35 :   0.5000-0.0000 0.5000  plane waves:    1176
 k-point 36 :  -0.2500-0.0000 0.5000  plane waves:    1158
 k-point 37 :   0.0000 0.2500 0.5000  plane waves:    1158
 k-point 38 :   0.2500 0.2500 0.5000  plane waves:    1180
 k-point 39 :   0.5000 0.2500 0.5000  plane waves:    1158
 k-point 40 :  -0.2500 0.2500 0.5000  plane waves:    1208
 k-point 41 :   0.0000 0.5000 0.5000  plane waves:    1176
 k-point 42 :   0.2500 0.5000 0.5000  plane waves:    1158
 k-point 43 :   0.5000 0.5000 0.5000  plane waves:    1160
 k-point 44 :  -0.2500 0.5000 0.5000  plane waves:    1158
 k-point 45 :   0.0000-0.2500 0.5000  plane waves:    1158
 k-point 46 :   0.2500-0.2500 0.5000  plane waves:    1208
 k-point 47 :   0.5000-0.2500 0.5000  plane waves:    1158
 k-point 48 :  -0.2500-0.2500 0.5000  plane waves:    1180
 k-point 49 :  -0.0000-0.0000-0.2500  plane waves:    1152
 k-point 50 :   0.2500 0.0000-0.2500  plane waves:    1180
 k-point 51 :   0.5000 0.0000-0.2500  plane waves:    1158
 k-point 52 :  -0.2500 0.0000-0.2500  plane waves:    1152
 k-point 53 :  -0.0000 0.2500-0.2500  plane waves:    1180
 k-point 54 :   0.2500 0.2500-0.2500  plane waves:    1158
 k-point 55 :   0.5000 0.2500-0.2500  plane waves:    1208
 k-point 56 :  -0.2500 0.2500-0.2500  plane waves:    1158
 k-point 57 :  -0.0000 0.5000-0.2500  plane waves:    1158
 k-point 58 :   0.2500 0.5000-0.2500  plane waves:    1208
 k-point 59 :   0.5000 0.5000-0.2500  plane waves:    1158
 k-point 60 :  -0.2500 0.5000-0.2500  plane waves:    1180
 k-point 61 :  -0.0000-0.2500-0.2500  plane waves:    1152
 k-point 62 :   0.2500-0.2500-0.2500  plane waves:    1158
 k-point 63 :   0.5000-0.2500-0.2500  plane waves:    1180
 k-point 64 :  -0.2500-0.2500-0.2500  plane waves:    1152

 maximum and minimum number of plane-waves per node :      1208     1122

 maximum number of plane-waves:      1208
 maximum index in each direction: 
   IXMAX=    6   IYMAX=    6   IZMAX=    6
   IXMIN=   -6   IYMIN=   -6   IZMIN=   -6


 serial   3D FFT for wavefunctions
 parallel 3D FFT for charge:
    minimum data exchange during FFTs selected (reduces bandwidth)


 FFT grid for exact exchange (Hartree Fock) 
  NGX = 18; NGY = 18; NGZ = 18

 
 Radii for the augmentation spheres in the non-local exchange
 for species   1 augmentation radius   0.970 (default was   0.970)
 error exchange integrals (PW-AE in eV) (mean, max) 0.276 1.563 density error[0,qmax] 0.0135
 Maximum index for augmentation-charges in exchange          459
  SETUP_FOCK is finished

 total amount of memory used by VASP MPI-rank0   127475. kBytes
=======================================================================

   base      :      30000. kBytes
   nonl-proj :       5576. kBytes
   fftplans  :      16199. kBytes
   grid      :      14155. kBytes
   one-center:         62. kBytes
   HF        :        129. kBytes
   nonlr-proj:        209. kBytes
   wavefun   :      61145. kBytes
 
     INWAV:  cpu time    0.4897: real time    0.4899
 charge density for first step will be calculated from the start-wavefunctions


--------------------------------------------------------------------------------------------------------


 Maximum index for augmentation-charges        34335 (set IRDMAX)


--------------------------------------------------------------------------------------------------------


 initial charge from wavefunction
    FEWALD:  cpu time    0.0095: real time    0.0095

 The Fermi energy was updated, please check that it is located mid-gap
 values below the HOMO (VB) or above the LUMO (CB) will cause erroneous energies
 E-fermi :  -1.4733

 Response functions by sum over occupied states:
 ===============================================
   NOMEGA  =    50    number of frequencies
   NOMEGAR =    50    number of frequencies along real axis
   OMEGAMAX=  16.21   maximum frequency
   OMEGAMIN=   5.79   minimum frequency
   OMEGATL = 210.78   maximum frequency of tail
   CSHIFT  =  0.422   complex shift used in evaluation of response functions


 Energies iw= 
 ============
   0.000   0.000   0.709   0.000   1.415   0.000   2.117   0.000   2.810   0.000
   3.495   0.000   4.169   0.000   4.832   0.000   5.483   0.000   6.122   0.000
   6.750   0.000   7.368   0.000   7.977   0.000   8.578   0.000   9.173   0.000
   9.764   0.000  10.353   0.000  10.941   0.000  11.531   0.000  12.125   0.000
  12.727   0.000  13.338   0.000  13.962   0.000  14.602   0.000  15.262   0.000
  15.947   0.000  16.660   0.000  17.409   0.000  18.198   0.000  19.036   0.000
  19.932   0.000  20.895   0.000  21.940   0.000  23.083   0.000  24.343   0.000
  25.744   0.000  27.319   0.000  29.108   0.000  31.166   0.000  33.565   0.000
  36.404   0.000  39.825   0.000  44.032   0.000  49.338   0.000  56.237   0.000
  65.571   0.000  78.885   0.000  99.367   0.000 134.823   0.000 210.784   0.000
 

IMPORTANT INFORMATION: All symmetrisations will be switched off!
NOSYMM: (Re-)initialisation of all symmetry stuff for point group C_1.

 
 KPOINTS: k-points                                

Automatic generation of k-mesh.
Space group operators:
 irot       det(A)        alpha          n_x          n_y          n_z        tau_x        tau_y        tau_z
    1     1.000000     0.000001     1.000000     0.000000     0.000000     0.000000     0.000000     0.000000
 
 Subroutine IBZKPT returns following result:
 ===========================================
 
 Found     64 irreducible k-points:
 
 Following reciprocal coordinates:
            Coordinates               Weight
  0.000000  0.000000  0.000000      1.000000
  0.250000  0.000000 -0.000000      1.000000
  0.500000  0.000000 -0.000000      1.000000
 -0.250000 -0.000000  0.000000      1.000000
 -0.000000  0.250000  0.000000      1.000000
  0.250000  0.250000  0.000000      1.000000
  0.500000  0.250000 -0.000000      1.000000
 -0.250000  0.250000  0.000000      1.000000
 -0.000000  0.500000  0.000000      1.000000
  0.250000  0.500000  0.000000      1.000000
  0.500000  0.500000  0.000000      1.000000
 -0.250000  0.500000  0.000000      1.000000
  0.000000 -0.250000 -0.000000      1.000000
  0.250000 -0.250000 -0.000000      1.000000
  0.500000 -0.250000 -0.000000      1.000000
 -0.250000 -0.250000  0.000000      1.000000
  0.000000  0.000000  0.250000      1.000000
  0.250000 -0.000000  0.250000      1.000000
  0.500000 -0.000000  0.250000      1.000000
 -0.250000 -0.000000  0.250000      1.000000
  0.000000  0.250000  0.250000      1.000000
  0.250000  0.250000  0.250000      1.000000
  0.500000  0.250000  0.250000      1.000000
 -0.250000  0.250000  0.250000      1.000000
  0.000000  0.500000  0.250000      1.000000
  0.250000  0.500000  0.250000      1.000000
  0.500000  0.500000  0.250000      1.000000
 -0.250000  0.500000  0.250000      1.000000
  0.000000 -0.250000  0.250000      1.000000
  0.250000 -0.250000  0.250000      1.000000
  0.500000 -0.250000  0.250000      1.000000
 -0.250000 -0.250000  0.250000      1.000000
  0.000000  0.000000  0.500000      1.000000
  0.250000 -0.000000  0.500000      1.000000
  0.500000 -0.000000  0.500000      1.000000
 -0.250000 -0.000000  0.500000      1.000000
  0.000000  0.250000  0.500000      1.000000
  0.250000  0.250000  0.500000      1.000000
  0.500000  0.250000  0.500000      1.000000
 -0.250000  0.250000  0.500000      1.000000
  0.000000  0.500000  0.500000      1.000000
  0.250000  0.500000  0.500000      1.000000
  0.500000  0.500000  0.500000      1.000000
 -0.250000  0.500000  0.500000      1.000000
  0.000000 -0.250000  0.500000      1.000000
  0.250000 -0.250000  0.500000      1.000000
  0.500000 -0.250000  0.500000      1.000000
 -0.250000 -0.250000  0.500000      1.000000
 -0.000000 -0.000000 -0.250000      1.000000
  0.250000  0.000000 -0.250000      1.000000
  0.500000  0.000000 -0.250000      1.000000
 -0.250000  0.000000 -0.250000      1.000000
 -0.000000  0.250000 -0.250000      1.000000
  0.250000  0.250000 -0.250000      1.000000
  0.500000  0.250000 -0.250000      1.000000
 -0.250000  0.250000 -0.250000      1.000000
 -0.000000  0.500000 -0.250000      1.000000
  0.250000  0.500000 -0.250000      1.000000
  0.500000  0.500000 -0.250000      1.000000
 -0.250000  0.500000 -0.250000      1.000000
 -0.000000 -0.250000 -0.250000      1.000000
  0.250000 -0.250000 -0.250000      1.000000
  0.500000 -0.250000 -0.250000      1.000000
 -0.250000 -0.250000 -0.250000      1.000000
 
 Following cartesian coordinates:
            Coordinates               Weight
  0.000000  0.000000  0.000000      1.000000
  0.060748 -0.035073 -0.024800      1.000000
  0.121497 -0.070146 -0.049601      1.000000
 -0.060748  0.035073  0.024800      1.000000
  0.000000  0.070146 -0.024800      1.000000
  0.060748  0.035073 -0.049601      1.000000
  0.121497 -0.000000 -0.074401      1.000000
 -0.060748  0.105219  0.000000      1.000000
  0.000000  0.140292 -0.049601      1.000000
  0.060748  0.105219 -0.074401      1.000000
  0.121497  0.070146 -0.099202      1.000000
 -0.060748  0.175365 -0.024800      1.000000
 -0.000000 -0.070146  0.024800      1.000000
  0.060748 -0.105219 -0.000000      1.000000
  0.121497 -0.140292 -0.024800      1.000000
 -0.060748 -0.035073  0.049601      1.000000
 -0.000000  0.000000  0.074401      1.000000
  0.060748 -0.035073  0.049601      1.000000
  0.121497 -0.070146  0.024800      1.000000
 -0.060748  0.035073  0.099202      1.000000
 -0.000000  0.070146  0.049601      1.000000
  0.060748  0.035073  0.024800      1.000000
  0.121497  0.000000 -0.000000      1.000000
 -0.060748  0.105219  0.074401      1.000000
 -0.000000  0.140292  0.024800      1.000000
  0.060748  0.105219  0.000000      1.000000
  0.121497  0.070146 -0.024800      1.000000
 -0.060748  0.175365  0.049601      1.000000
 -0.000000 -0.070146  0.099202      1.000000
  0.060748 -0.105219  0.074401      1.000000
  0.121497 -0.140292  0.049601      1.000000
 -0.060748 -0.035073  0.124002      1.000000
 -0.000000  0.000000  0.148802      1.000000
  0.060748 -0.035073  0.124002      1.000000
  0.121497 -0.070146  0.099202      1.000000
 -0.060748  0.035073  0.173603      1.000000
 -0.000000  0.070146  0.124002      1.000000
  0.060748  0.035073  0.099202      1.000000
  0.121497  0.000000  0.074401      1.000000
 -0.060748  0.105219  0.148802      1.000000
 -0.000000  0.140292  0.099202      1.000000
  0.060748  0.105219  0.074401      1.000000
  0.121497  0.070146  0.049601      1.000000
 -0.060748  0.175365  0.124002      1.000000
 -0.000000 -0.070146  0.173603      1.000000
  0.060748 -0.105219  0.148802      1.000000
  0.121497 -0.140292  0.124002      1.000000
 -0.060748 -0.035073  0.198403      1.000000
  0.000000 -0.000000 -0.074401      1.000000
  0.060748 -0.035073 -0.099202      1.000000
  0.121497 -0.070146 -0.124002      1.000000
 -0.060748  0.035073 -0.049601      1.000000
  0.000000  0.070146 -0.099202      1.000000
  0.060748  0.035073 -0.124002      1.000000
  0.121497  0.000000 -0.148802      1.000000
 -0.060748  0.105219 -0.074401      1.000000
  0.000000  0.140292 -0.124002      1.000000
  0.060748  0.105219 -0.148802      1.000000
  0.121497  0.070146 -0.173603      1.000000
 -0.060748  0.175365 -0.099202      1.000000
  0.000000 -0.070146 -0.049601      1.000000
  0.060748 -0.105219 -0.074401      1.000000
  0.121497 -0.140292 -0.099202      1.000000
 -0.060748 -0.035073 -0.024800      1.000000
 
 files read and symmetry switched off, memory is now:
 total amount of memory used by VASP MPI-rank0   127475. kBytes
=======================================================================

   base      :      30000. kBytes
   nonl-proj :       5576. kBytes
   fftplans  :      16199. kBytes
   grid      :      14155. kBytes
   one-center:         62. kBytes
   HF        :        129. kBytes
   nonlr-proj:        209. kBytes
   wavefun   :      61145. kBytes
 
 Basis sets for responsefunctions:
 =================================
 k-point  1 :   0.0000 0.0000 0.0000  plane waves:     662
 k-point  2 :   0.2500 0.0000-0.0000  plane waves:     622
 k-point  3 :   0.5000 0.0000-0.0000  plane waves:     664
 k-point  4 :  -0.2500-0.0000 0.0000  plane waves:     622
 k-point  5 :  -0.0000 0.2500 0.0000  plane waves:     622
 k-point  6 :   0.2500 0.2500 0.0000  plane waves:     622
 k-point  7 :   0.5000 0.2500-0.0000  plane waves:     630
 k-point  8 :  -0.2500 0.2500 0.0000  plane waves:     630
 k-point  9 :  -0.0000 0.5000 0.0000  plane waves:     664
 k-point 10 :   0.2500 0.5000 0.0000  plane waves:     630
 k-point 11 :   0.5000 0.5000 0.0000  plane waves:     652
 k-point 12 :  -0.2500 0.5000 0.0000  plane waves:     630
 k-point 13 :   0.0000-0.2500-0.0000  plane waves:     622
 k-point 14 :   0.2500-0.2500-0.0000  plane waves:     630
 k-point 15 :   0.5000-0.2500-0.0000  plane waves:     630
 k-point 16 :  -0.2500-0.2500 0.0000  plane waves:     622
 k-point 17 :   0.0000 0.0000 0.2500  plane waves:     622
 k-point 18 :   0.2500-0.0000 0.2500  plane waves:     622
 k-point 19 :   0.5000-0.0000 0.2500  plane waves:     630
 k-point 20 :  -0.2500-0.0000 0.2500  plane waves:     630
 k-point 21 :   0.0000 0.2500 0.2500  plane waves:     622
 k-point 22 :   0.2500 0.2500 0.2500  plane waves:     622
 k-point 23 :   0.5000 0.2500 0.2500  plane waves:     630
 k-point 24 :  -0.2500 0.2500 0.2500  plane waves:     630
 k-point 25 :   0.0000 0.5000 0.2500  plane waves:     630
 k-point 26 :   0.2500 0.5000 0.2500  plane waves:     630
 k-point 27 :   0.5000 0.5000 0.2500  plane waves:     630
 k-point 28 :  -0.2500 0.5000 0.2500  plane waves:     616
 k-point 29 :   0.0000-0.2500 0.2500  plane waves:     630
 k-point 30 :   0.2500-0.2500 0.2500  plane waves:     630
 k-point 31 :   0.5000-0.2500 0.2500  plane waves:     616
 k-point 32 :  -0.2500-0.2500 0.2500  plane waves:     630
 k-point 33 :   0.0000 0.0000 0.5000  plane waves:     664
 k-point 34 :   0.2500-0.0000 0.5000  plane waves:     630
 k-point 35 :   0.5000-0.0000 0.5000  plane waves:     652
 k-point 36 :  -0.2500-0.0000 0.5000  plane waves:     630
 k-point 37 :   0.0000 0.2500 0.5000  plane waves:     630
 k-point 38 :   0.2500 0.2500 0.5000  plane waves:     630
 k-point 39 :   0.5000 0.2500 0.5000  plane waves:     630
 k-point 40 :  -0.2500 0.2500 0.5000  plane waves:     616
 k-point 41 :   0.0000 0.5000 0.5000  plane waves:     652
 k-point 42 :   0.2500 0.5000 0.5000  plane waves:     630
 k-point 43 :   0.5000 0.5000 0.5000  plane waves:     664
 k-point 44 :  -0.2500 0.5000 0.5000  plane waves:     630
 k-point 45 :   0.0000-0.2500 0.5000  plane waves:     630
 k-point 46 :   0.2500-0.2500 0.5000  plane waves:     616
 k-point 47 :   0.5000-0.2500 0.5000  plane waves:     630
 k-point 48 :  -0.2500-0.2500 0.5000  plane waves:     630
 k-point 49 :  -0.0000-0.0000-0.2500  plane waves:     622
 k-point 50 :   0.2500 0.0000-0.2500  plane waves:     630
 k-point 51 :   0.5000 0.0000-0.2500  plane waves:     630
 k-point 52 :  -0.2500 0.0000-0.2500  plane waves:     622
 k-point 53 :  -0.0000 0.2500-0.2500  plane waves:     630
 k-point 54 :   0.2500 0.2500-0.2500  plane waves:     630
 k-point 55 :   0.5000 0.2500-0.2500  plane waves:     616
 k-point 56 :  -0.2500 0.2500-0.2500  plane waves:     630
 k-point 57 :  -0.0000 0.5000-0.2500  plane waves:     630
 k-point 58 :   0.2500 0.5000-0.2500  plane waves:     616
 k-point 59 :   0.5000 0.5000-0.2500  plane waves:     630
 k-point 60 :  -0.2500 0.5000-0.2500  plane waves:     630
 k-point 61 :  -0.0000-0.2500-0.2500  plane waves:     622
 k-point 62 :   0.2500-0.2500-0.2500  plane waves:     630
 k-point 63 :   0.5000-0.2500-0.2500  plane waves:     630
 k-point 64 :  -0.2500-0.2500-0.2500  plane waves:     622

 maximum and minimum number of plane-waves per node :       664      616

 maximum number of plane-waves:       664
 maximum index in each direction: 
   IXMAX=    4   IYMAX=    4   IZMAX=    4
   IXMIN=   -5   IYMIN=   -5   IZMIN=   -5

 exchange correlation table for  LEXCH =        8
   RHO(1)=    0.500       N(1)  =     2000
   RHO(2)=  100.500       N(2)  =     4000
 shmem allocating  50 responsefunctions rank=   332
 response function shared by NCSHMEM nodes    1
 all allocation done, memory is now:
 total amount of memory used by VASP MPI-rank0   404708. kBytes
=======================================================================

   base      :      30000. kBytes
   nonl-proj :       5576. kBytes
   fftplans  :      16199. kBytes
   grid      :      14155. kBytes
   one-center:         62. kBytes
   HF        :        129. kBytes
   nonlr-proj:        209. kBytes
   wavefun   :     183435. kBytes
   2eintegral:      50331. kBytes
   fockhandle:       3005. kBytes
   response  :     101607. kBytes
 


--------------------------------------------------------------------------------------------------------


NQ=   1    0.0000    0.0000    0.0000, 
       CHI:  cpu time    1.0097: real time    1.0092
   KRAMKRO:  cpu time    0.1982: real time    0.1981
    LFIELD:  cpu time    0.0000: real time    0.0000

 HEAD OF MICROSCOPIC DIELECTRIC TENSOR (INDEPENDENT PARTICLE)
 -------------------------------------
 w=     0.000     0.000
         1.7827   -0.0000      0.0000   -0.0000     -0.0000    0.0000
         0.0000    0.0000      1.7827   -0.0000     -0.0000    0.0000
        -0.0000   -0.0000     -0.0000   -0.0000      1.7827   -0.0000

        0.000         1.783    -0.000 dielectric  constant
 
 w=     0.709     0.000
         1.7840    0.0015      0.0000   -0.0000     -0.0000    0.0000
         0.0000    0.0000      1.7840    0.0015     -0.0000    0.0000
        -0.0000   -0.0000     -0.0000   -0.0000      1.7840    0.0015

        0.709         1.784     0.002 dielectric  constant
 
 w=     1.415     0.000
         1.7878    0.0031      0.0000   -0.0000     -0.0000    0.0000
         0.0000    0.0000      1.7878    0.0031     -0.0000    0.0000
        -0.0000   -0.0000     -0.0000   -0.0000      1.7878    0.0031

        1.415         1.788     0.003 dielectric  constant
 
 w=     2.117     0.000
         1.7943    0.0047      0.0000   -0.0000     -0.0000    0.0000
         0.0000    0.0000      1.7943    0.0047     -0.0000    0.0000
        -0.0000   -0.0000     -0.0000   -0.0000      1.7943    0.0047

        2.117         1.794     0.005 dielectric  constant
 
 w=     2.810     0.000
         1.8034    0.0064      0.0000   -0.0000     -0.0000    0.0000
         0.0000    0.0000      1.8034    0.0064     -0.0000    0.0000
        -0.0000   -0.0000     -0.0000   -0.0000      1.8034    0.0064

        2.810         1.803     0.006 dielectric  constant
 
 w=     3.495     0.000
         1.8152    0.0082      0.0000   -0.0000      0.0000    0.0000
         0.0000    0.0000      1.8152    0.0082     -0.0000    0.0000
        -0.0000   -0.0000     -0.0000   -0.0000      1.8152    0.0082

        3.495         1.815     0.008 dielectric  constant
 
 w=     4.169     0.000
         1.8299    0.0102      0.0000   -0.0000      0.0000    0.0000
         0.0000    0.0000      1.8299    0.0102     -0.0000    0.0000
        -0.0000   -0.0000     -0.0000   -0.0000      1.8299    0.0102

        4.169         1.830     0.010 dielectric  constant
 
 w=     4.832     0.000
         1.8476    0.0125      0.0000   -0.0000      0.0000    0.0000
         0.0000    0.0000      1.8476    0.0125     -0.0000    0.0000
        -0.0000   -0.0000     -0.0000   -0.0000      1.8476    0.0125

        4.832         1.848     0.012 dielectric  constant
 
 w=     5.483     0.000
         1.8687    0.0150      0.0000   -0.0000      0.0000    0.0000
         0.0000    0.0000      1.8687    0.0150     -0.0000    0.0000
        -0.0000   -0.0000     -0.0000   -0.0000      1.8687    0.0150

        5.483         1.869     0.015 dielectric  constant
 
 w=     6.122     0.000
         1.8934    0.0179      0.0000   -0.0000      0.0000    0.0000
         0.0000    0.0000      1.8934    0.0179     -0.0000    0.0000
        -0.0000   -0.0000     -0.0000   -0.0000      1.8934    0.0179

        6.122         1.893     0.018 dielectric  constant
 
 w=     6.750     0.000
         1.9223    0.0213      0.0000   -0.0000      0.0000    0.0000
         0.0000    0.0000      1.9223    0.0213     -0.0000    0.0000
        -0.0000   -0.0000     -0.0000   -0.0000      1.9223    0.0213

        6.750         1.922     0.021 dielectric  constant
 
 w=     7.368     0.000
         1.9562    0.0254      0.0000   -0.0000      0.0000    0.0000
         0.0000    0.0000      1.9562    0.0254     -0.0000    0.0000
        -0.0000   -0.0000     -0.0000   -0.0000      1.9562    0.0254

        7.368         1.956     0.025 dielectric  constant
 
 w=     7.977     0.000
         1.9960    0.0304      0.0000   -0.0000      0.0000    0.0000
         0.0000    0.0000      1.9960    0.0304      0.0000    0.0000
        -0.0000   -0.0000     -0.0000    0.0000      1.9960    0.0304

        7.977         1.996     0.030 dielectric  constant
 
 w=     8.578     0.000
         2.0434    0.0369      0.0000    0.0000      0.0000    0.0000
         0.0000   -0.0000      2.0434    0.0369      0.0000    0.0000
         0.0000    0.0000      0.0000    0.0000      2.0434    0.0369

        8.578         2.043     0.037 dielectric  constant
 
 w=     9.173     0.000
         2.1005    0.0456      0.0000    0.0000      0.0000   -0.0000
         0.0000   -0.0000      2.1005    0.0456      0.0000   -0.0000
         0.0000    0.0000      0.0000    0.0000      2.1005    0.0456

        9.173         2.101     0.046 dielectric  constant
 
 w=     9.764     0.000
         2.1712    0.0582      0.0000    0.0000      0.0000   -0.0000
         0.0000   -0.0000      2.1712    0.0582      0.0000   -0.0000
         0.0000    0.0000      0.0000    0.0000      2.1712    0.0582

        9.764         2.171     0.058 dielectric  constant
 
 w=    10.353     0.000
         2.2621    0.0799      0.0000    0.0000      0.0000   -0.0000
         0.0000   -0.0000      2.2621    0.0799      0.0000   -0.0000
         0.0000    0.0000      0.0000    0.0000      2.2621    0.0799

       10.353         2.262     0.080 dielectric  constant
 
 w=    10.941     0.000
         2.3795    0.1306      0.0000    0.0000      0.0000   -0.0000
         0.0000   -0.0000      2.3795    0.1306      0.0000   -0.0000
        -0.0000    0.0000      0.0000    0.0000      2.3795    0.1306

       10.941         2.379     0.131 dielectric  constant
 
 w=    11.531     0.000
         2.4798    0.2213     -0.0000    0.0000      0.0000   -0.0000
         0.0000   -0.0000      2.4798    0.2213      0.0000    0.0000
        -0.0000    0.0000      0.0000    0.0000      2.4798    0.2213

       11.531         2.480     0.221 dielectric  constant
 
 w=    12.125     0.000
         2.6137    0.2931     -0.0000    0.0000      0.0000   -0.0000
         0.0000   -0.0000      2.6137    0.2931     -0.0000   -0.0000
        -0.0000    0.0000      0.0000    0.0000      2.6137    0.2931

       12.125         2.614     0.293 dielectric  constant
 
 w=    12.727     0.000
         2.8122    0.4921     -0.0000    0.0000      0.0000    0.0000
         0.0000    0.0000      2.8122    0.4921     -0.0000   -0.0000
        -0.0000    0.0000      0.0000    0.0000      2.8122    0.4921

       12.727         2.812     0.492 dielectric  constant
 
 w=    13.338     0.000
         2.8438    0.8255     -0.0000    0.0000     -0.0000   -0.0000
        -0.0000   -0.0000      2.8438    0.8255      0.0000   -0.0000
         0.0000    0.0000     -0.0000    0.0000      2.8438    0.8255

       13.338         2.844     0.825 dielectric  constant
 
 w=    13.962     0.000
         2.8216    1.0067     -0.0000    0.0000      0.0000    0.0000
         0.0000   -0.0000      2.8216    1.0067      0.0000   -0.0000
         0.0000    0.0000      0.0000    0.0000      2.8216    1.0067

       13.962         2.822     1.007 dielectric  constant
 
 w=    14.602     0.000
         2.9260    1.3423     -0.0000    0.0000     -0.0000    0.0000
        -0.0000   -0.0000      2.9260    1.3423      0.0000   -0.0000
         0.0000    0.0000     -0.0000    0.0000      2.9260    1.3423

       14.602         2.926     1.342 dielectric  constant
 
 w=    15.262     0.000
         2.6186    1.8728     -0.0000    0.0000     -0.0000   -0.0000
        -0.0000   -0.0000      2.6186    1.8728      0.0000   -0.0000
        -0.0000    0.0000     -0.0000    0.0000      2.6186    1.8728

       15.262         2.619     1.873 dielectric  constant
 
 w=    15.947     0.000
         2.2966    1.8556     -0.0000    0.0000     -0.0000   -0.0000
        -0.0000   -0.0000      2.2966    1.8556      0.0000   -0.0000
        -0.0000    0.0000     -0.0000    0.0000      2.2966    1.8556

       15.947         2.297     1.856 dielectric  constant
 
 w=    16.660     0.000
         2.1900    2.1213     -0.0000    0.0000      0.0000   -0.0000
         0.0000   -0.0000      2.1900    2.1213      0.0000   -0.0000
         0.0000    0.0000     -0.0000   -0.0000      2.1900    2.1213

       16.660         2.190     2.121 dielectric  constant
 
 w=    17.409     0.000
         1.8731    2.3490     -0.0000    0.0000      0.0000   -0.0000
         0.0000   -0.0000      1.8731    2.3490      0.0000   -0.0000
        -0.0000    0.0000     -0.0000    0.0000      1.8731    2.3490

       17.409         1.873     2.349 dielectric  constant
 
 w=    18.198     0.000
         1.4543    2.6094     -0.0000   -0.0000      0.0000   -0.0000
         0.0000    0.0000      1.4543    2.6094      0.0000    0.0000
        -0.0000    0.0000     -0.0000   -0.0000      1.4543    2.6094

       18.198         1.454     2.609 dielectric  constant
 
 w=    19.036     0.000
         0.6956    2.6891     -0.0000   -0.0000      0.0000    0.0000
         0.0000    0.0000      0.6956    2.6891     -0.0000    0.0000
        -0.0000   -0.0000      0.0000    0.0000      0.6956    2.6891

       19.036         0.696     2.689 dielectric  constant
 
 w=    19.932     0.000
         0.0399    2.1365      0.0000   -0.0000     -0.0000    0.0000
        -0.0000    0.0000      0.0399    2.1365     -0.0000   -0.0000
         0.0000   -0.0000     -0.0000   -0.0000      0.0399    2.1365

       19.932         0.040     2.136 dielectric  constant
 
 w=    20.895     0.000
        -0.0648    1.5179      0.0000    0.0000     -0.0000   -0.0000
        -0.0000   -0.0000     -0.0649    1.5179      0.0000   -0.0000
         0.0000    0.0000      0.0000   -0.0000     -0.0649    1.5179

       20.895        -0.065     1.518 dielectric  constant
 
 w=    21.940     0.000
         0.0343    1.2187      0.0000    0.0000     -0.0000   -0.0000
        -0.0000   -0.0000      0.0343    1.2187      0.0000   -0.0000
         0.0000    0.0000      0.0000    0.0000      0.0343    1.2187

       21.940         0.034     1.219 dielectric  constant
 
 w=    23.083     0.000
        -0.0804    1.0727      0.0000    0.0000     -0.0000   -0.0000
        -0.0000   -0.0000     -0.0804    1.0727      0.0000   -0.0000
         0.0000    0.0000      0.0000    0.0000     -0.0804    1.0727

       23.083        -0.080     1.073 dielectric  constant
 
 w=    24.343     0.000
        -0.1193    0.5795      0.0000    0.0000     -0.0000   -0.0000
        -0.0000   -0.0000     -0.1193    0.5795      0.0000   -0.0000
         0.0000    0.0000      0.0000    0.0000     -0.1193    0.5795

       24.343        -0.119     0.580 dielectric  constant
 
 w=    25.744     0.000
         0.1525    0.3071      0.0000    0.0000     -0.0000   -0.0000
        -0.0000   -0.0000      0.1525    0.3071      0.0000   -0.0000
         0.0000    0.0000      0.0000    0.0000      0.1525    0.3071

       25.744         0.152     0.307 dielectric  constant
 
 w=    27.319     0.000
         0.3443    0.2535      0.0000    0.0000      0.0000   -0.0000
        -0.0000   -0.0000      0.3443    0.2535      0.0000   -0.0000
         0.0000    0.0000      0.0000    0.0000      0.3443    0.2535

       27.319         0.344     0.254 dielectric  constant
 
 w=    29.108     0.000
         0.4437    0.1876      0.0000    0.0000      0.0000   -0.0000
        -0.0000   -0.0000      0.4437    0.1876      0.0000   -0.0000
         0.0000    0.0000      0.0000    0.0000      0.4437    0.1876

       29.108         0.444     0.188 dielectric  constant
 
 w=    31.166     0.000
         0.5283    0.1392      0.0000    0.0000      0.0000   -0.0000
        -0.0000   -0.0000      0.5283    0.1392      0.0000   -0.0000
         0.0000    0.0000      0.0000    0.0000      0.5283    0.1392

       31.166         0.528     0.139 dielectric  constant
 
 w=    33.565     0.000
         0.6159    0.0727      0.0000    0.0000      0.0000   -0.0000
        -0.0000   -0.0000      0.6159    0.0727      0.0000   -0.0000
         0.0000    0.0000      0.0000    0.0000      0.6159    0.0727

       33.565         0.616     0.073 dielectric  constant
 
 w=    36.404     0.000
         0.6966    0.0659      0.0000    0.0000      0.0000   -0.0000
        -0.0000   -0.0000      0.6966    0.0659      0.0000   -0.0000
         0.0000    0.0000      0.0000    0.0000      0.6966    0.0659

       36.404         0.697     0.066 dielectric  constant
 
 w=    39.825     0.000
         0.7502    0.0332      0.0000    0.0000      0.0000   -0.0000
        -0.0000   -0.0000      0.7502    0.0332      0.0000   -0.0000
         0.0000    0.0000      0.0000    0.0000      0.7502    0.0332

       39.825         0.750     0.033 dielectric  constant
 
 w=    44.032     0.000
         0.8101    0.0200      0.0000    0.0000      0.0000   -0.0000
        -0.0000   -0.0000      0.8101    0.0200      0.0000   -0.0000
         0.0000    0.0000      0.0000    0.0000      0.8101    0.0200

       44.032         0.810     0.020 dielectric  constant
 
 w=    49.338     0.000
         0.8551    0.0134      0.0000    0.0000      0.0000   -0.0000
        -0.0000   -0.0000      0.8551    0.0134      0.0000   -0.0000
         0.0000    0.0000      0.0000    0.0000      0.8551    0.0134

       49.338         0.855     0.013 dielectric  constant
 
 w=    56.237     0.000
         0.8923    0.0056      0.0000    0.0000      0.0000   -0.0000
        -0.0000   -0.0000      0.8923    0.0056      0.0000   -0.0000
         0.0000    0.0000      0.0000    0.0000      0.8923    0.0056

       56.237         0.892     0.006 dielectric  constant
 
 w=    65.571     0.000
         0.9246    0.0024      0.0000    0.0000      0.0000   -0.0000
        -0.0000   -0.0000      0.9246    0.0024      0.0000   -0.0000
         0.0000    0.0000      0.0000    0.0000      0.9246    0.0024

       65.571         0.925     0.002 dielectric  constant
 
 w=    78.885     0.000
         0.9500    0.0008      0.0000    0.0000      0.0000   -0.0000
        -0.0000   -0.0000      0.9500    0.0008      0.0000   -0.0000
         0.0000    0.0000      0.0000    0.0000      0.9500    0.0008

       78.885         0.950     0.001 dielectric  constant
 
 w=    99.367     0.000
         0.9696    0.0003      0.0000    0.0000      0.0000   -0.0000
        -0.0000   -0.0000      0.9696    0.0003      0.0000   -0.0000
         0.0000    0.0000      0.0000    0.0000      0.9696    0.0003

       99.367         0.970     0.000 dielectric  constant
 
 w=   134.823     0.000
         0.9839    0.0001      0.0000    0.0000      0.0000   -0.0000
        -0.0000   -0.0000      0.9839    0.0001      0.0000   -0.0000
         0.0000    0.0000      0.0000    0.0000      0.9839    0.0001

      134.823         0.984     0.000 dielectric  constant
 
 w=   210.784     0.000
         0.9935    0.0000      0.0000    0.0000      0.0000   -0.0000
        -0.0000   -0.0000      0.9935    0.0000      0.0000   -0.0000
         0.0000    0.0000      0.0000    0.0000      0.9935    0.0000

      210.784         0.994     0.000 dielectric  constant
 
  XI_LOCAL:  cpu time    0.4270: real time    0.4268

 1 + v P,  with REDUCIBLE POLARIZABILTY P=P_0 (1 -(v+f) P_0)^-1
 -------------------------------------
 w=     0.000     0.000
         1.7825   -0.0000     -0.0000    0.0000      0.0000   -0.0000
        -0.0000   -0.0000      1.7825   -0.0000      0.0000   -0.0000
         0.0000    0.0000      0.0000    0.0000      1.7825   -0.0000

        0.000         1.782    -0.000 dielectric  constant
 
 w=     0.709     0.000
         1.7837    0.0015     -0.0000    0.0000      0.0000   -0.0000
        -0.0000   -0.0000      1.7838    0.0015      0.0000   -0.0000
         0.0000    0.0000      0.0000    0.0000      1.7838    0.0015

        0.709         1.784     0.002 dielectric  constant
 
 w=     1.415     0.000
         1.7876    0.0031     -0.0000    0.0000      0.0000   -0.0000
        -0.0000   -0.0000      1.7876    0.0031      0.0000   -0.0000
         0.0000    0.0000      0.0000    0.0000      1.7876    0.0031

        1.415         1.788     0.003 dielectric  constant
 
 w=     2.117     0.000
         1.7940    0.0047     -0.0000    0.0000      0.0000   -0.0000
        -0.0000   -0.0000      1.7940    0.0047      0.0000   -0.0000
         0.0000    0.0000      0.0000    0.0000      1.7940    0.0047

        2.117         1.794     0.005 dielectric  constant
 
 w=     2.810     0.000
         1.8031    0.0064     -0.0000    0.0000      0.0000   -0.0000
        -0.0000   -0.0000      1.8031    0.0064      0.0000   -0.0000
         0.0000    0.0000      0.0000    0.0000      1.8031    0.0064

        2.810         1.803     0.006 dielectric  constant
 
 w=     3.495     0.000
         1.8149    0.0082     -0.0000    0.0000     -0.0000   -0.0000
        -0.0000   -0.0000      1.8149    0.0082      0.0000   -0.0000
         0.0000    0.0000      0.0000    0.0000      1.8149    0.0082

        3.495         1.815     0.008 dielectric  constant
 
 w=     4.169     0.000
         1.8296    0.0102     -0.0000    0.0000     -0.0000   -0.0000
        -0.0000   -0.0000      1.8296    0.0102      0.0000   -0.0000
         0.0000    0.0000      0.0000    0.0000      1.8296    0.0102

        4.169         1.830     0.010 dielectric  constant
 
 w=     4.832     0.000
         1.8473    0.0125     -0.0000    0.0000     -0.0000   -0.0000
        -0.0000   -0.0000      1.8473    0.0125      0.0000   -0.0000
         0.0000    0.0000      0.0000    0.0000      1.8473    0.0125

        4.832         1.847     0.012 dielectric  constant
 
 w=     5.483     0.000
         1.8684    0.0150     -0.0000    0.0000     -0.0000   -0.0000
        -0.0000   -0.0000      1.8684    0.0150      0.0000   -0.0000
         0.0000    0.0000      0.0000    0.0000      1.8684    0.0150

        5.483         1.868     0.015 dielectric  constant
 
 w=     6.122     0.000
         1.8931    0.0179     -0.0000    0.0000     -0.0000   -0.0000
        -0.0000   -0.0000      1.8931    0.0179      0.0000   -0.0000
         0.0000    0.0000      0.0000    0.0000      1.8931    0.0179

        6.122         1.893     0.018 dielectric  constant
 
 w=     6.750     0.000
         1.9220    0.0213     -0.0000    0.0000     -0.0000   -0.0000
        -0.0000   -0.0000      1.9220    0.0213      0.0000   -0.0000
         0.0000    0.0000      0.0000    0.0000      1.9220    0.0213

        6.750         1.922     0.021 dielectric  constant
 
 w=     7.368     0.000
         1.9559    0.0253     -0.0000    0.0000     -0.0000   -0.0000
        -0.0000   -0.0000      1.9559    0.0253      0.0000   -0.0000
         0.0000    0.0000      0.0000    0.0000      1.9559    0.0253

        7.368         1.956     0.025 dielectric  constant
 
 w=     7.977     0.000
         1.9957    0.0304     -0.0000    0.0000     -0.0000   -0.0000
        -0.0000   -0.0000      1.9957    0.0304     -0.0000   -0.0000
         0.0000    0.0000      0.0000   -0.0000      1.9957    0.0304

        7.977         1.996     0.030 dielectric  constant
 
 w=     8.578     0.000
         2.0430    0.0368     -0.0000   -0.0000     -0.0000   -0.0000
        -0.0000    0.0000      2.0430    0.0368     -0.0000   -0.0000
        -0.0000   -0.0000     -0.0000   -0.0000      2.0430    0.0368

        8.578         2.043     0.037 dielectric  constant
 
 w=     9.173     0.000
         2.1001    0.0455     -0.0000   -0.0000     -0.0000    0.0000
        -0.0000    0.0000      2.1001    0.0455     -0.0000    0.0000
        -0.0000   -0.0000     -0.0000   -0.0000      2.1001    0.0455

        9.173         2.100     0.046 dielectric  constant
 
 w=     9.764     0.000
         2.1707    0.0582     -0.0000   -0.0000     -0.0000    0.0000
        -0.0000    0.0000      2.1708    0.0582     -0.0000    0.0000
        -0.0000   -0.0000     -0.0000   -0.0000      2.1707    0.0582

        9.764         2.171     0.058 dielectric  constant
 
 w=    10.353     0.000
         2.2616    0.0798     -0.0000   -0.0000     -0.0000    0.0000
        -0.0000    0.0000      2.2617    0.0798     -0.0000    0.0000
        -0.0000   -0.0000     -0.0000   -0.0000      2.2616    0.0798

       10.353         2.262     0.080 dielectric  constant
 
 w=    10.941     0.000
         2.3788    0.1304     -0.0000   -0.0000     -0.0000    0.0000
        -0.0000    0.0000      2.3789    0.1305     -0.0000    0.0000
         0.0000   -0.0000     -0.0000   -0.0000      2.3788    0.1304

       10.941         2.379     0.130 dielectric  constant
 
 w=    11.531     0.000
         2.4793    0.2210      0.0000   -0.0000     -0.0000    0.0000
        -0.0000    0.0000      2.4793    0.2211     -0.0000   -0.0000
         0.0000   -0.0000     -0.0000   -0.0000      2.4793    0.2210

       11.531         2.479     0.221 dielectric  constant
 
 w=    12.125     0.000
         2.6129    0.2928      0.0000   -0.0000     -0.0000    0.0000
        -0.0000    0.0000      2.6130    0.2928      0.0000    0.0000
         0.0000   -0.0000     -0.0000   -0.0000      2.6130    0.2929

       12.125         2.613     0.293 dielectric  constant
 
 w=    12.727     0.000
         2.8114    0.4913      0.0000   -0.0000     -0.0000   -0.0000
        -0.0000   -0.0000      2.8117    0.4914      0.0000    0.0000
         0.0000   -0.0000     -0.0000   -0.0000      2.8111    0.4916

       12.727         2.811     0.491 dielectric  constant
 
 w=    13.338     0.000
         2.8438    0.8250      0.0000   -0.0000      0.0000    0.0000
         0.0000    0.0000      2.8439    0.8254     -0.0000    0.0000
        -0.0000   -0.0000      0.0000   -0.0000      2.8430    0.8244

       13.338         2.844     0.825 dielectric  constant
 
 w=    13.962     0.000
         2.8208    1.0072      0.0000   -0.0000     -0.0000   -0.0000
        -0.0000    0.0000      2.8213    1.0068     -0.0000    0.0000
        -0.0000   -0.0000     -0.0000   -0.0000      2.8210    1.0060

       13.962         2.821     1.007 dielectric  constant
 
 w=    14.602     0.000
         2.9232    1.3416      0.0000   -0.0000      0.0000   -0.0000
         0.0000    0.0000      2.9247    1.3429     -0.0000    0.0000
        -0.0000   -0.0000      0.0000   -0.0000      2.9246    1.3401

       14.602         2.924     1.342 dielectric  constant
 
 w=    15.262     0.000
         2.6175    1.8700      0.0000   -0.0000      0.0000    0.0000
         0.0000    0.0000      2.6168    1.8720     -0.0000    0.0000
         0.0000   -0.0000      0.0000   -0.0000      2.6202    1.8709

       15.262         2.618     1.871 dielectric  constant
 
 w=    15.947     0.000
         2.2959    1.8525      0.0000   -0.0000      0.0000    0.0000
         0.0000    0.0000      2.2954    1.8541     -0.0000    0.0000
         0.0000   -0.0000      0.0000   -0.0000      2.2967    1.8547

       15.947         2.296     1.854 dielectric  constant
 
 w=    16.660     0.000
         2.1914    2.1187      0.0000   -0.0000     -0.0000    0.0000
        -0.0000    0.0000      2.1888    2.1200     -0.0000    0.0000
        -0.0000   -0.0000      0.0000    0.0000      2.1905    2.1206

       16.660         2.190     2.120 dielectric  constant
 
 w=    17.409     0.000
         1.8736    2.3464      0.0000   -0.0000     -0.0000    0.0000
        -0.0000    0.0000      1.8724    2.3456     -0.0000    0.0000
         0.0000   -0.0000      0.0000   -0.0000      1.8733    2.3475

       17.409         1.873     2.346 dielectric  constant
 
 w=    18.198     0.000
         1.4581    2.6060      0.0000    0.0000     -0.0000    0.0000
        -0.0000   -0.0000      1.4564    2.6064     -0.0000   -0.0000
         0.0000   -0.0000      0.0000    0.0000      1.4541    2.6075

       18.198         1.456     2.607 dielectric  constant
 
 w=    19.036     0.000
         0.7010    2.6906      0.0000    0.0000     -0.0000   -0.0000
        -0.0000   -0.0000      0.6979    2.6885      0.0000   -0.0000
         0.0000    0.0000     -0.0000   -0.0000      0.6993    2.6857

       19.036         0.699     2.688 dielectric  constant
 
 w=    19.932     0.000
         0.0410    2.1390     -0.0000    0.0000      0.0000   -0.0000
         0.0000   -0.0000      0.0410    2.1363      0.0000    0.0000
        -0.0000    0.0000      0.0000    0.0000      0.0443    2.1377

       19.932         0.042     2.138 dielectric  constant
 
 w=    20.895     0.000
        -0.0656    1.5194     -0.0000   -0.0000      0.0000    0.0000
[...]
     14       9.6254       9.6300       9.6288       9.6291       0.9073       0.0000
     15      11.9767      11.9819      11.9819      11.9824       0.9107       0.0000
     16      11.9767      11.9819      11.9819      11.9824       0.9107       0.0000
 

 k-point  54 :       0.2500    0.2500   -0.2500
  band No. DFT-energies  QP-energies  QP-e(diag)   sigma(DFT)    Z            occupation

      1     -21.9342     -21.9486     -21.9484     -21.9535       0.7354       1.0000
      2     -21.9342     -21.9486     -21.9484     -21.9535       0.7358       1.0000
      3      -8.9249      -8.9294      -8.9275      -8.9279       0.8671       1.0000
      4      -8.9249      -8.9294      -8.9275      -8.9279       0.8674       1.0000
      5      -8.1521      -8.1566      -8.1561      -8.1566       0.8830       1.0000
      6      -8.1521      -8.1566      -8.1561      -8.1566       0.8832       1.0000
      7      -7.7497      -7.7542      -7.7541      -7.7547       0.8922       1.0000
      8      -7.7497      -7.7542      -7.7541      -7.7547       0.8925       1.0000
      9       7.5638       7.5683       7.5679       7.5682       0.9160       0.0000
     10       7.5639       7.5683       7.5679       7.5682       0.9158       0.0000
     11       8.7900       8.7948       8.7944       8.7948       0.9125       0.0000
     12       8.7900       8.7948       8.7944       8.7948       0.9125       0.0000
     13      10.0580      10.0627      10.0605      10.0608       0.9043       0.0000
     14      10.0581      10.0627      10.0605      10.0608       0.9042       0.0000
     15      12.3963      12.4018      12.4018      12.4023       0.9097       0.0000
     16      12.3963      12.4018      12.4018      12.4023       0.9097       0.0000
 

 k-point  55 :       0.5000    0.2500   -0.2500
  band No. DFT-energies  QP-energies  QP-e(diag)   sigma(DFT)    Z            occupation

      1     -21.9078     -21.9220     -21.9213     -21.9260       0.7402       1.0000
      2     -21.9078     -21.9220     -21.9213     -21.9260       0.7402       1.0000
      3      -8.8374      -8.8419      -8.8400      -8.8405       0.8647       1.0000
      4      -8.8374      -8.8419      -8.8400      -8.8405       0.8648       1.0000
      5      -8.3288      -8.3332      -8.3316      -8.3319       0.8777       1.0000
      6      -8.3288      -8.3332      -8.3316      -8.3319       0.8777       1.0000
      7      -7.9865      -7.9909      -7.9906      -7.9911       0.8888       1.0000
      8      -7.9865      -7.9909      -7.9906      -7.9911       0.8888       1.0000
      9       7.8322       7.8366       7.8363       7.8367       0.9176       0.0000
     10       7.8322       7.8366       7.8363       7.8367       0.9176       0.0000
     11       9.5775       9.5820       9.5798       9.5801       0.9057       0.0000
     12       9.5775       9.5820       9.5798       9.5801       0.9057       0.0000
     13       9.6806       9.6850       9.6833       9.6835       0.9053       0.0000
     14       9.6806       9.6850       9.6833       9.6835       0.9052       0.0000
     15      11.2556      11.2605      11.2596      11.2600       0.9099       0.0000
     16      11.2556      11.2605      11.2596      11.2600       0.9099       0.0000
 

 k-point  56 :      -0.2500    0.2500   -0.2500
  band No. DFT-energies  QP-energies  QP-e(diag)   sigma(DFT)    Z            occupation

      1     -21.9343     -21.9487     -21.9484     -21.9535       0.7353       1.0000
      2     -21.9342     -21.9486     -21.9484     -21.9535       0.7358       1.0000
      3      -8.9249      -8.9294      -8.9275      -8.9279       0.8672       1.0000
      4      -8.9249      -8.9294      -8.9275      -8.9279       0.8674       1.0000
      5      -8.1521      -8.1566      -8.1561      -8.1566       0.8830       1.0000
      6      -8.1521      -8.1566      -8.1561      -8.1566       0.8832       1.0000
      7      -7.7497      -7.7542      -7.7541      -7.7547       0.8923       1.0000
      8      -7.7497      -7.7542      -7.7541      -7.7547       0.8926       1.0000
      9       7.5638       7.5683       7.5679       7.5682       0.9160       0.0000
     10       7.5639       7.5683       7.5679       7.5682       0.9159       0.0000
     11       8.7900       8.7948       8.7944       8.7948       0.9125       0.0000
     12       8.7900       8.7948       8.7944       8.7948       0.9125       0.0000
     13      10.0580      10.0627      10.0605      10.0608       0.9043       0.0000
     14      10.0581      10.0627      10.0605      10.0608       0.9042       0.0000
     15      12.3963      12.4018      12.4018      12.4023       0.9097       0.0000
     16      12.3963      12.4018      12.4018      12.4023       0.9097       0.0000
 

 k-point  57 :      -0.0000    0.5000   -0.2500
  band No. DFT-energies  QP-energies  QP-e(diag)   sigma(DFT)    Z            occupation

      1     -21.9342     -21.9487     -21.9484     -21.9535       0.7361       1.0000
      2     -21.9342     -21.9487     -21.9484     -21.9535       0.7361       1.0000
      3      -8.9249      -8.9294      -8.9275      -8.9279       0.8673       1.0000
      4      -8.9249      -8.9294      -8.9275      -8.9279       0.8676       1.0000
      5      -8.1521      -8.1566      -8.1561      -8.1566       0.8830       1.0000
      6      -8.1521      -8.1566      -8.1561      -8.1566       0.8832       1.0000
      7      -7.7497      -7.7542      -7.7541      -7.7547       0.8923       1.0000
      8      -7.7497      -7.7542      -7.7541      -7.7547       0.8925       1.0000
      9       7.5638       7.5683       7.5679       7.5682       0.9160       0.0000
     10       7.5639       7.5683       7.5679       7.5682       0.9159       0.0000
     11       8.7900       8.7948       8.7944       8.7948       0.9126       0.0000
     12       8.7900       8.7948       8.7944       8.7948       0.9125       0.0000
     13      10.0580      10.0627      10.0605      10.0608       0.9043       0.0000
     14      10.0581      10.0627      10.0605      10.0608       0.9042       0.0000
     15      12.3963      12.4018      12.4018      12.4023       0.9098       0.0000
     16      12.3963      12.4018      12.4018      12.4023       0.9097       0.0000
 

 k-point  58 :       0.2500    0.5000   -0.2500
  band No. DFT-energies  QP-energies  QP-e(diag)   sigma(DFT)    Z            occupation

      1     -21.9078     -21.9220     -21.9213     -21.9260       0.7403       1.0000
      2     -21.9078     -21.9220     -21.9213     -21.9260       0.7404       1.0000
      3      -8.8374      -8.8419      -8.8400      -8.8405       0.8647       1.0000
      4      -8.8374      -8.8419      -8.8400      -8.8405       0.8646       1.0000
      5      -8.3288      -8.3332      -8.3316      -8.3319       0.8777       1.0000
      6      -8.3288      -8.3332      -8.3316      -8.3319       0.8777       1.0000
      7      -7.9865      -7.9909      -7.9906      -7.9911       0.8887       1.0000
      8      -7.9865      -7.9909      -7.9906      -7.9911       0.8887       1.0000
      9       7.8322       7.8366       7.8363       7.8367       0.9176       0.0000
     10       7.8322       7.8366       7.8363       7.8367       0.9177       0.0000
     11       9.5775       9.5820       9.5798       9.5801       0.9057       0.0000
     12       9.5775       9.5820       9.5798       9.5801       0.9057       0.0000
     13       9.6806       9.6850       9.6833       9.6835       0.9053       0.0000
     14       9.6806       9.6850       9.6833       9.6835       0.9052       0.0000
     15      11.2556      11.2605      11.2596      11.2600       0.9099       0.0000
     16      11.2556      11.2605      11.2596      11.2600       0.9099       0.0000
 

 k-point  59 :       0.5000    0.5000   -0.2500
  band No. DFT-energies  QP-energies  QP-e(diag)   sigma(DFT)    Z            occupation

      1     -21.9342     -21.9487     -21.9484     -21.9535       0.7361       1.0000
      2     -21.9342     -21.9487     -21.9484     -21.9535       0.7362       1.0000
      3      -8.9249      -8.9294      -8.9275      -8.9279       0.8672       1.0000
      4      -8.9249      -8.9294      -8.9275      -8.9279       0.8675       1.0000
      5      -8.1521      -8.1566      -8.1561      -8.1566       0.8830       1.0000
      6      -8.1521      -8.1566      -8.1561      -8.1566       0.8832       1.0000
      7      -7.7497      -7.7542      -7.7541      -7.7547       0.8922       1.0000
      8      -7.7497      -7.7542      -7.7541      -7.7547       0.8926       1.0000
      9       7.5638       7.5683       7.5679       7.5682       0.9160       0.0000
     10       7.5639       7.5683       7.5679       7.5682       0.9158       0.0000
     11       8.7900       8.7948       8.7944       8.7948       0.9124       0.0000
     12       8.7900       8.7948       8.7944       8.7948       0.9124       0.0000
     13      10.0580      10.0627      10.0605      10.0608       0.9043       0.0000
     14      10.0581      10.0627      10.0605      10.0607       0.9042       0.0000
     15      12.3963      12.4018      12.4017      12.4023       0.9098       0.0000
     16      12.3963      12.4018      12.4018      12.4023       0.9097       0.0000
 

 k-point  60 :      -0.2500    0.5000   -0.2500
  band No. DFT-energies  QP-energies  QP-e(diag)   sigma(DFT)    Z            occupation

      1     -21.9620     -21.9765     -21.9762     -21.9813       0.7350       1.0000
      2     -21.9620     -21.9765     -21.9762     -21.9813       0.7350       1.0000
      3      -8.8023      -8.8069      -8.8058      -8.8064       0.8655       1.0000
      4      -8.8023      -8.8069      -8.8058      -8.8064       0.8656       1.0000
      5      -8.1394      -8.1438      -8.1429      -8.1434       0.8839       1.0000
      6      -8.1394      -8.1438      -8.1429      -8.1434       0.8840       1.0000
      7      -7.6014      -7.6060      -7.6059      -7.6064       0.8999       1.0000
      8      -7.6014      -7.6060      -7.6059      -7.6064       0.9000       1.0000
      9       7.5554       7.5600       7.5591       7.5595       0.9128       0.0000
     10       7.5554       7.5600       7.5591       7.5595       0.9128       0.0000
     11       9.3062       9.3110       9.3105       9.3109       0.9126       0.0000
     12       9.3062       9.3110       9.3105       9.3109       0.9126       0.0000
     13       9.6254       9.6300       9.6288       9.6291       0.9073       0.0000
     14       9.6254       9.6300       9.6288       9.6291       0.9073       0.0000
     15      11.9767      11.9819      11.9819      11.9824       0.9107       0.0000
     16      11.9767      11.9819      11.9819      11.9824       0.9107       0.0000
 

 k-point  61 :      -0.0000   -0.2500   -0.2500
  band No. DFT-energies  QP-energies  QP-e(diag)   sigma(DFT)    Z            occupation

      1     -22.0179     -22.0326     -22.0324     -22.0377       0.7334       1.0000
      2     -22.0179     -22.0326     -22.0324     -22.0377       0.7335       1.0000
      3      -8.5094      -8.5137      -8.5132      -8.5138       0.8703       1.0000
      4      -8.5094      -8.5137      -8.5132      -8.5138       0.8704       1.0000
      5      -7.8326      -7.8370      -7.8369      -7.8374       0.8913       1.0000
      6      -7.8326      -7.8370      -7.8369      -7.8374       0.8914       1.0000
      7      -7.5629      -7.5674      -7.5674      -7.5679       0.8986       1.0000
      8      -7.5629      -7.5674      -7.5674      -7.5679       0.8986       1.0000
      9       6.1928       6.1976       6.1970       6.1974       0.9175       0.0000
     10       6.1928       6.1976       6.1970       6.1974       0.9175       0.0000
     11       9.3239       9.3286       9.3286       9.3290       0.9103       0.0000
     12       9.3239       9.3286       9.3286       9.3290       0.9103       0.0000
     13      10.6648      10.6696      10.6692      10.6696       0.9103       0.0000
     14      10.6648      10.6696      10.6692      10.6696       0.9103       0.0000
     15      12.6047      12.6106      12.6105      12.6111       0.9102       0.0000
     16      12.6047      12.6106      12.6105      12.6111       0.9102       0.0000
 

 k-point  62 :       0.2500   -0.2500   -0.2500
  band No. DFT-energies  QP-energies  QP-e(diag)   sigma(DFT)    Z            occupation

      1     -21.9342     -21.9486     -21.9484     -21.9535       0.7356       1.0000
      2     -21.9342     -21.9486     -21.9484     -21.9535       0.7357       1.0000
      3      -8.9249      -8.9294      -8.9275      -8.9279       0.8672       1.0000
      4      -8.9249      -8.9294      -8.9275      -8.9279       0.8675       1.0000
      5      -8.1521      -8.1566      -8.1561      -8.1566       0.8830       1.0000
      6      -8.1521      -8.1566      -8.1561      -8.1566       0.8831       1.0000
      7      -7.7497      -7.7542      -7.7541      -7.7547       0.8922       1.0000
      8      -7.7497      -7.7542      -7.7541      -7.7547       0.8925       1.0000
      9       7.5638       7.5683       7.5679       7.5682       0.9160       0.0000
     10       7.5639       7.5683       7.5679       7.5682       0.9159       0.0000
     11       8.7900       8.7948       8.7944       8.7948       0.9125       0.0000
     12       8.7900       8.7948       8.7944       8.7948       0.9125       0.0000
     13      10.0580      10.0627      10.0605      10.0608       0.9043       0.0000
     14      10.0581      10.0627      10.0605      10.0608       0.9042       0.0000
     15      12.3963      12.4018      12.4018      12.4023       0.9097       0.0000
     16      12.3963      12.4018      12.4018      12.4023       0.9097       0.0000
 

 k-point  63 :       0.5000   -0.2500   -0.2500
  band No. DFT-energies  QP-energies  QP-e(diag)   sigma(DFT)    Z            occupation

      1     -21.9620     -21.9765     -21.9762     -21.9813       0.7349       1.0000
      2     -21.9620     -21.9765     -21.9762     -21.9813       0.7349       1.0000
      3      -8.8023      -8.8069      -8.8058      -8.8064       0.8657       1.0000
      4      -8.8023      -8.8069      -8.8058      -8.8064       0.8658       1.0000
      5      -8.1394      -8.1438      -8.1429      -8.1434       0.8840       1.0000
      6      -8.1394      -8.1438      -8.1429      -8.1434       0.8840       1.0000
      7      -7.6014      -7.6060      -7.6059      -7.6064       0.8999       1.0000
      8      -7.6014      -7.6060      -7.6059      -7.6064       0.9000       1.0000
      9       7.5554       7.5600       7.5591       7.5595       0.9128       0.0000
     10       7.5554       7.5600       7.5591       7.5595       0.9128       0.0000
     11       9.3062       9.3110       9.3105       9.3109       0.9126       0.0000
     12       9.3062       9.3110       9.3105       9.3109       0.9126       0.0000
     13       9.6254       9.6300       9.6288       9.6291       0.9073       0.0000
     14       9.6254       9.6300       9.6288       9.6291       0.9073       0.0000
     15      11.9767      11.9819      11.9819      11.9824       0.9107       0.0000
     16      11.9767      11.9819      11.9819      11.9824       0.9107       0.0000
 

 k-point  64 :      -0.2500   -0.2500   -0.2500
  band No. DFT-energies  QP-energies  QP-e(diag)   sigma(DFT)    Z            occupation

      1     -22.0435     -22.0583     -22.0582     -22.0635       0.7331       1.0000
      2     -22.0435     -22.0583     -22.0582     -22.0635       0.7331       1.0000
      3      -8.5052      -8.5096      -8.5086      -8.5091       0.8715       1.0000
      4      -8.5052      -8.5096      -8.5086      -8.5091       0.8716       1.0000
      5      -7.7033      -7.7078      -7.7077      -7.7083       0.8938       1.0000
      6      -7.7033      -7.7078      -7.7077      -7.7083       0.8939       1.0000
      7      -7.3723      -7.3770      -7.3770      -7.3775       0.9056       1.0000
      8      -7.3723      -7.3770      -7.3770      -7.3774       0.9056       1.0000
      9       5.7908       5.7957       5.7953       5.7957       0.9201       0.0000
     10       5.7908       5.7957       5.7953       5.7957       0.9201       0.0000
     11       9.8706       9.8752       9.8742       9.8745       0.9075       0.0000
     12       9.8706       9.8752       9.8742       9.8745       0.9075       0.0000
     13      11.6472      11.6524      11.6524      11.6529       0.9114       0.0000
     14      11.6472      11.6524      11.6524      11.6529       0.9114       0.0000
     15      11.6515      11.6567      11.6567      11.6572       0.9107       0.0000
     16      11.6515      11.6567      11.6567      11.6572       0.9106       0.0000
 


--------------------------------------------------------------------------------------------------------



IMPORTANT INFORMATION: All symmetrisations will be switched off!
NOSYMM: (Re-)initialisation of all symmetry stuff for point group C_1.

   GW_DIAG:  cpu time    0.4455: real time    0.4477
    GWLOOP:  cpu time  515.7336: real time  516.9069
 writing wavefunctions
    --------------------------------------------
   GWTOTAL:  cpu time  516.1755: real time  517.4317
    4ORBIT:  cpu time    0.0000: real time    0.0000

 Spin-Orbit-Coupling matrix elements

 Ion:    1  E_soc:     -0.0774203
 l=   1
     0.0000000    -0.0129031    -0.0129031
    -0.0129031     0.0000000    -0.0129031
    -0.0129031    -0.0129031     0.0000000
 l=   2
     0.0000000    -0.0000000     0.0000000    -0.0000000    -0.0000002
    -0.0000000     0.0000000    -0.0000002    -0.0000000    -0.0000000
     0.0000000    -0.0000002     0.0000000    -0.0000002     0.0000000
    -0.0000000    -0.0000000    -0.0000002     0.0000000    -0.0000000
    -0.0000002    -0.0000000     0.0000000    -0.0000000     0.0000000
 l=   3
     0.0000000     0.0000000     0.0000000     0.0000000     0.0000000     0.0000000     0.0000000
     0.0000000     0.0000000     0.0000000     0.0000000     0.0000000     0.0000000     0.0000000
     0.0000000     0.0000000     0.0000000     0.0000000     0.0000000     0.0000000     0.0000000
     0.0000000     0.0000000     0.0000000     0.0000000     0.0000000     0.0000000     0.0000000
     0.0000000     0.0000000     0.0000000     0.0000000     0.0000000     0.0000000     0.0000000
     0.0000000     0.0000000     0.0000000     0.0000000     0.0000000     0.0000000     0.0000000
     0.0000000     0.0000000     0.0000000     0.0000000     0.0000000     0.0000000     0.0000000

 total amount of memory used by VASP MPI-rank0   127475. kBytes
=======================================================================

   base      :      30000. kBytes
   nonl-proj :       5576. kBytes
   fftplans  :      16199. kBytes
   grid      :      14155. kBytes
   one-center:         62. kBytes
   HF        :        129. kBytes
   nonlr-proj:        209. kBytes
   wavefun   :      61145. kBytes
   2eintegral:          0. kBytes
   fockhandle:          0. kBytes
   response  :          0. kBytes
   cacher    :          0. kBytes
 
  
  
 General timing and accounting informations for this job:
 ========================================================
  
                  Total CPU time used (sec):      518.594
                            User time (sec):      516.522
                          System time (sec):        2.073
                         Elapsed time (sec):      519.798
  
                   Maximum memory used (kb):      527144.
                   Average memory used (kb):           0.
  
                          Minor page faults:       103583
                          Major page faults:            0
                 Voluntary context switches:         2643
