   1   1   0   0
  0.3721384E+02  0.3747484E-09  0.3747484E-09  0.3747484E-09  0.1000000E-15
  1.000000000000000E-004
  CAR 
 Og_FCC                                  
     17.87855730    -22.98752516  301     -5.61944011      1.00000000
    -22.988  0.0000E+00  0.0000E+00
    -22.851  0.0000E+00  0.0000E+00
    -22.715  0.0000E+00  0.0000E+00
    -22.579  0.0000E+00  0.0000E+00
    -22.443  0.0000E+00  0.0000E+00
    -22.306  0.0000E+00  0.0000E+00
    -22.170  0.0000E+00  0.0000E+00
    -22.034  0.0000E+00  0.0000E+00
    -21.898  0.0000E+00  0.0000E+00
    -21.762  0.0000E+00  0.0000E+00
    -21.625  0.0000E+00  0.0000E+00
    -21.489  0.0000E+00  0.0000E+00
    -21.353  0.0000E+00  0.0000E+00
    -21.217  0.0000E+00  0.0000E+00
    -21.080  0.5388E+00  0.8265E-01
    -20.944  0.0000E+00  0.5463E+00
    -20.808  0.0000E+00  0.2000E+01
    -20.672  0.0000E+00  0.2000E+01
    -20.536  0.0000E+00  0.2000E+01
    -20.399  0.0000E+00  0.2000E+01
    -20.263  0.0000E+00  0.2000E+01
    -20.127  0.0000E+00  0.2000E+01
    -19.991  0.0000E+00  0.2000E+01
    -19.854  0.0000E+00  0.2000E+01
    -19.718  0.0000E+00  0.2000E+01
    -19.582  0.0000E+00  0.2000E+01
    -19.446  0.0000E+00  0.2000E+01
    -19.310  0.0000E+00  0.2000E+01
    -19.173  0.0000E+00  0.2000E+01
    -19.037  0.0000E+00  0.2000E+01
    -18.901  0.0000E+00  0.2000E+01
    -18.765  0.0000E+00  0.2000E+01
    -18.628  0.0000E+00  0.2000E+01
    -18.492  0.0000E+00  0.2000E+01
    -18.356  0.0000E+00  0.2000E+01
    -18.220  0.0000E+00  0.2000E+01
    -18.084  0.0000E+00  0.2000E+01
    -17.947  0.0000E+00  0.2000E+01
    -17.811  0.0000E+00  0.2000E+01
    -17.675  0.0000E+00  0.2000E+01
    -17.539  0.0000E+00  0.2000E+01
    -17.402  0.0000E+00  0.2000E+01
    -17.266  0.0000E+00  0.2000E+01
    -17.130  0.0000E+00  0.2000E+01
    -16.994  0.0000E+00  0.2000E+01
    -16.858  0.0000E+00  0.2000E+01
    -16.721  0.0000E+00  0.2000E+01
    -16.585  0.0000E+00  0.2000E+01
    -16.449  0.0000E+00  0.2000E+01
    -16.313  0.0000E+00  0.2000E+01
    -16.177  0.0000E+00  0.2000E+01
    -16.040  0.0000E+00  0.2000E+01
    -15.904  0.0000E+00  0.2000E+01
    -15.768  0.0000E+00  0.2000E+01
    -15.632  0.0000E+00  0.2000E+01
    -15.495  0.0000E+00  0.2000E+01
    -15.359  0.0000E+00  0.2000E+01
    -15.223  0.0000E+00  0.2000E+01
    -15.087  0.0000E+00  0.2000E+01
    -14.951  0.0000E+00  0.2000E+01
    -14.814  0.0000E+00  0.2000E+01
    -14.678  0.0000E+00  0.2000E+01
    -14.542  0.0000E+00  0.2000E+01
    -14.406  0.0000E+00  0.2000E+01
    -14.269  0.0000E+00  0.2000E+01
    -14.133  0.0000E+00  0.2000E+01
    -13.997  0.0000E+00  0.2000E+01
    -13.861  0.0000E+00  0.2000E+01
    -13.725  0.0000E+00  0.2000E+01
    -13.588  0.0000E+00  0.2000E+01
    -13.452  0.0000E+00  0.2000E+01
    -13.316  0.0000E+00  0.2000E+01
    -13.180  0.0000E+00  0.2000E+01
    -13.043  0.0000E+00  0.2000E+01
    -12.907  0.0000E+00  0.2000E+01
    -12.771  0.0000E+00  0.2000E+01
    -12.635  0.0000E+00  0.2000E+01
    -12.499  0.0000E+00  0.2000E+01
    -12.362  0.0000E+00  0.2000E+01
    -12.226  0.0000E+00  0.2000E+01
    -12.090  0.0000E+00  0.2000E+01
    -11.954  0.0000E+00  0.2000E+01
    -11.817  0.0000E+00  0.2000E+01
    -11.681  0.0000E+00  0.2000E+01
    -11.545  0.0000E+00  0.2000E+01
    -11.409  0.0000E+00  0.2000E+01
    -11.273  0.0000E+00  0.2000E+01
    -11.136  0.0000E+00  0.2000E+01
    -11.000  0.0000E+00  0.2000E+01
    -10.864  0.0000E+00  0.2000E+01
    -10.728  0.0000E+00  0.2000E+01
    -10.591  0.0000E+00  0.2000E+01
    -10.455  0.0000E+00  0.2000E+01
    -10.319  0.0000E+00  0.2000E+01
    -10.183  0.0000E+00  0.2000E+01
    -10.047  0.0000E+00  0.2000E+01
     -9.910  0.0000E+00  0.2000E+01
     -9.774  0.0000E+00  0.2000E+01
     -9.638  0.0000E+00  0.2000E+01
     -9.502  0.0000E+00  0.2000E+01
     -9.365  0.0000E+00  0.2000E+01
     -9.229  0.0000E+00  0.2000E+01
     -9.093  0.0000E+00  0.2000E+01
     -8.957  0.0000E+00  0.2000E+01
     -8.821  0.0000E+00  0.2000E+01
     -8.684  0.0000E+00  0.2000E+01
     -8.548  0.0000E+00  0.2000E+01
     -8.412  0.0000E+00  0.2000E+01
     -8.276  0.0000E+00  0.2000E+01
     -8.140  0.0000E+00  0.2000E+01
     -8.003  0.0000E+00  0.2000E+01
     -7.867  0.0000E+00  0.2000E+01
     -7.731  0.0000E+00  0.2000E+01
     -7.595  0.0000E+00  0.2000E+01
     -7.458  0.0000E+00  0.2000E+01
     -7.322  0.0000E+00  0.2000E+01
     -7.186  0.0000E+00  0.2000E+01
     -7.050  0.0000E+00  0.2000E+01
     -6.914  0.0000E+00  0.2037E+01
     -6.777  0.0000E+00  0.2287E+01
     -6.641  0.0000E+00  0.3361E+01
     -6.505  0.1631E+01  0.3750E+01
     -6.369  0.8157E+00  0.3972E+01
     -6.232  0.0000E+00  0.4306E+01
     -6.096  0.0000E+00  0.4889E+01
     -5.960  0.0000E+00  0.5991E+01
     -5.824  0.1219E+01  0.7490E+01
     -5.688  0.0000E+00  0.7907E+01
     -5.551  0.0000E+00  0.8000E+01
     -5.415  0.0000E+00  0.8000E+01
     -5.279  0.0000E+00  0.8000E+01
     -5.143  0.0000E+00  0.8000E+01
     -5.006  0.0000E+00  0.8000E+01
     -4.870  0.0000E+00  0.8000E+01
     -4.734  0.0000E+00  0.8000E+01
     -4.598  0.0000E+00  0.8000E+01
     -4.462  0.0000E+00  0.8000E+01
     -4.325  0.0000E+00  0.8000E+01
     -4.189  0.0000E+00  0.8000E+01
     -4.053  0.0000E+00  0.8000E+01
     -3.917  0.0000E+00  0.8000E+01
     -3.780  0.0000E+00  0.8000E+01
     -3.644  0.0000E+00  0.8000E+01
     -3.508  0.0000E+00  0.8000E+01
     -3.372  0.0000E+00  0.8000E+01
     -3.236  0.0000E+00  0.8000E+01
     -3.099  0.0000E+00  0.8000E+01
     -2.963  0.0000E+00  0.8000E+01
     -2.827  0.0000E+00  0.8000E+01
     -2.691  0.0000E+00  0.8000E+01
     -2.554  0.0000E+00  0.8000E+01
     -2.418  0.0000E+00  0.8000E+01
     -2.282  0.0000E+00  0.8000E+01
     -2.146  0.0000E+00  0.8000E+01
     -2.010  0.0000E+00  0.8000E+01
     -1.873  0.0000E+00  0.8000E+01
     -1.737  0.0000E+00  0.8000E+01
     -1.601  0.0000E+00  0.8000E+01
     -1.465  0.0000E+00  0.8000E+01
     -1.329  0.0000E+00  0.8000E+01
     -1.192  0.0000E+00  0.8000E+01
     -1.056  0.0000E+00  0.8000E+01
     -0.920  0.0000E+00  0.8000E+01
     -0.784  0.0000E+00  0.8000E+01
     -0.647  0.0000E+00  0.8000E+01
     -0.511  0.0000E+00  0.8000E+01
     -0.375  0.0000E+00  0.8000E+01
     -0.239  0.0000E+00  0.8000E+01
     -0.103  0.0000E+00  0.8000E+01
      0.034  0.0000E+00  0.8000E+01
      0.170  0.0000E+00  0.8000E+01
      0.306  0.0000E+00  0.8000E+01
      0.442  0.0000E+00  0.8000E+01
      0.579  0.0000E+00  0.8000E+01
      0.715  0.0000E+00  0.8000E+01
      0.851  0.0000E+00  0.8000E+01
      0.987  0.0000E+00  0.8000E+01
      1.123  0.0000E+00  0.8000E+01
      1.260  0.0000E+00  0.8000E+01
      1.396  0.0000E+00  0.8000E+01
      1.532  0.0000E+00  0.8000E+01
      1.668  0.0000E+00  0.8000E+01
      1.805  0.0000E+00  0.8000E+01
      1.941  0.0000E+00  0.8000E+01
      2.077  0.0000E+00  0.8000E+01
      2.213  0.0000E+00  0.8000E+01
      2.349  0.0000E+00  0.8000E+01
      2.486  0.0000E+00  0.8000E+01
      2.622  0.0000E+00  0.8000E+01
      2.758  0.0000E+00  0.8000E+01
      2.894  0.0000E+00  0.8000E+01
      3.031  0.0000E+00  0.8000E+01
      3.167  0.0000E+00  0.8000E+01
      3.303  0.0000E+00  0.8000E+01
      3.439  0.0000E+00  0.8000E+01
      3.575  0.0000E+00  0.8000E+01
      3.712  0.0000E+00  0.8000E+01
      3.848  0.0000E+00  0.8009E+01
      3.984  0.0000E+00  0.8009E+01
      4.120  0.0000E+00  0.8009E+01
      4.257  0.0000E+00  0.8009E+01
      4.393  0.0000E+00  0.8009E+01
      4.529  0.5421E+00  0.8083E+01
      4.665  0.0000E+00  0.8083E+01
      4.801  0.0000E+00  0.8139E+01
      4.938  0.0000E+00  0.8139E+01
      5.074  0.0000E+00  0.8139E+01
      5.210  0.0000E+00  0.8139E+01
      5.346  0.0000E+00  0.8139E+01
      5.483  0.0000E+00  0.8139E+01
      5.619  0.0000E+00  0.8250E+01
      5.755  0.0000E+00  0.8250E+01
      5.891  0.0000E+00  0.8250E+01
      6.027  0.0000E+00  0.8546E+01
      6.164  0.0000E+00  0.8546E+01
      6.300  0.0000E+00  0.8602E+01
      6.436  0.0000E+00  0.8630E+01
      6.572  0.0000E+00  0.8630E+01
      6.708  0.2110E-01  0.8633E+01
      6.845  0.0000E+00  0.8889E+01
      6.981  0.0000E+00  0.9111E+01
      7.117  0.0000E+00  0.9444E+01
      7.253  0.0000E+00  0.9667E+01
      7.390  0.0000E+00  0.9667E+01
      7.526  0.0000E+00  0.9667E+01
      7.662  0.0000E+00  0.9667E+01
      7.798  0.0000E+00  0.1000E+02
      7.934  0.0000E+00  0.1000E+02
      8.071  0.0000E+00  0.1003E+02
      8.207  0.0000E+00  0.1003E+02
      8.343  0.1208E+01  0.1053E+02
      8.479  0.0000E+00  0.1086E+02
      8.616  0.0000E+00  0.1097E+02
      8.752  0.0000E+00  0.1119E+02
      8.888  0.0000E+00  0.1145E+02
      9.024  0.0000E+00  0.1145E+02
      9.160  0.0000E+00  0.1175E+02
      9.297  0.0000E+00  0.1197E+02
      9.433  0.0000E+00  0.1219E+02
      9.569  0.0000E+00  0.1242E+02
      9.705  0.0000E+00  0.1242E+02
      9.842  0.0000E+00  0.1253E+02
      9.978  0.0000E+00  0.1303E+02
     10.114  0.0000E+00  0.1331E+02
     10.250  0.0000E+00  0.1338E+02
     10.386  0.0000E+00  0.1360E+02
     10.523  0.0000E+00  0.1360E+02
     10.659  0.0000E+00  0.1374E+02
     10.795  0.0000E+00  0.1381E+02
     10.931  0.0000E+00  0.1381E+02
     11.068  0.0000E+00  0.1396E+02
     11.204  0.0000E+00  0.1399E+02
     11.340  0.0000E+00  0.1444E+02
     11.476  0.0000E+00  0.1458E+02
     11.612  0.0000E+00  0.1458E+02
     11.749  0.4820E-03  0.1475E+02
     11.885  0.0000E+00  0.1519E+02
     12.021  0.4528E-16  0.1531E+02
     12.157  0.5577E-01  0.1576E+02
     12.294  0.0000E+00  0.1586E+02
     12.430  0.0000E+00  0.1586E+02
     12.566  0.0000E+00  0.1586E+02
     12.702  0.0000E+00  0.1586E+02
     12.838  0.0000E+00  0.1586E+02
     12.975  0.0000E+00  0.1608E+02
     13.111  0.0000E+00  0.1645E+02
     13.247  0.0000E+00  0.1656E+02
     13.383  0.0000E+00  0.1656E+02
     13.520  0.0000E+00  0.1681E+02
     13.656  0.0000E+00  0.1703E+02
     13.792  0.4078E+00  0.1708E+02
     13.928  0.0000E+00  0.1723E+02
     14.064  0.0000E+00  0.1723E+02
     14.201  0.8156E+00  0.1734E+02
     14.337  0.1568E+01  0.1767E+02
     14.473  0.0000E+00  0.1823E+02
     14.609  0.4078E+00  0.1851E+02
     14.745  0.0000E+00  0.1851E+02
     14.882  0.0000E+00  0.1851E+02
     15.018  0.0000E+00  0.1851E+02
     15.154  0.3399E-01  0.1861E+02
     15.290  0.0000E+00  0.1883E+02
     15.427  0.0000E+00  0.1906E+02
     15.563  0.4080E-03  0.1911E+02
     15.699  0.0000E+00  0.1944E+02
     15.835  0.0000E+00  0.1987E+02
     15.971  0.0000E+00  0.2000E+02
     16.108  0.0000E+00  0.2000E+02
     16.244  0.0000E+00  0.2000E+02
     16.380  0.0000E+00  0.2000E+02
     16.516  0.0000E+00  0.2000E+02
     16.653  0.0000E+00  0.2000E+02
     16.789  0.0000E+00  0.2000E+02
     16.925  0.0000E+00  0.2000E+02
     17.061  0.0000E+00  0.2000E+02
     17.197  0.0000E+00  0.2000E+02
     17.334  0.0000E+00  0.2000E+02
     17.470  0.0000E+00  0.2000E+02
     17.606  0.0000E+00  0.2000E+02
     17.742  0.0000E+00  0.2000E+02
     17.879  0.0000E+00  0.2000E+02
