       N       E                     dE             d eps       ncg     rms          rms(c)
DAV:   1    -0.692338303346E+01   -0.69234E+01   -0.17711E-09  7376   0.360E-04
DAV:   2    -0.692338303348E+01   -0.16598E-10   -0.16028E-10  6356   0.116E-04
DAV:   3    -0.692338303347E+01    0.52296E-11   -0.16307E-11  6424   0.366E-05
DAV:   4    -0.692338303348E+01   -0.44338E-11   -0.33462E-12  6596   0.168E-05
DAV:   5    -0.692338303349E+01   -0.71623E-11   -0.86852E-13  6516   0.843E-06    0.317E-05
DAV:   6    -0.692338302829E+01    0.51959E-08   -0.16202E-10  6656   0.107E-04
   1 F= -.69233830E+01 E0= -.69233830E+01  d E =-.960681E-93  mag=     0.0000    -0.0000    -0.0000
 imaginary and real dielectric function
