   1   1   0   0
  0.3298244E+02  0.3599697E-09  0.3599697E-09  0.3599697E-09  0.1000000E-15
  1.000000000000000E-004
  CAR 
 Og_FCC                                  
    147.86539307    -32.07867456  301     -8.38603899      1.00000000
    -32.079  0.0000E+00  0.0000E+00
    -31.479  0.0000E+00  0.0000E+00
    -30.879  0.0000E+00  0.0000E+00
    -30.279  0.0000E+00  0.0000E+00
    -29.679  0.0000E+00  0.0000E+00
    -29.080  0.0000E+00  0.0000E+00
    -28.480  0.0000E+00  0.0000E+00
    -27.880  0.0000E+00  0.0000E+00
    -27.280  0.0000E+00  0.0000E+00
    -26.680  0.0000E+00  0.0000E+00
    -26.081  0.0000E+00  0.0000E+00
    -25.481  0.0000E+00  0.0000E+00
    -24.881  0.0000E+00  0.0000E+00
    -24.281  0.0000E+00  0.0000E+00
    -23.681  0.0000E+00  0.2500E+00
    -23.081  0.0000E+00  0.2000E+01
    -22.482  0.0000E+00  0.2000E+01
    -21.882  0.0000E+00  0.2000E+01
    -21.282  0.0000E+00  0.2000E+01
    -20.682  0.0000E+00  0.2000E+01
    -20.082  0.0000E+00  0.2000E+01
    -19.483  0.0000E+00  0.2000E+01
    -18.883  0.0000E+00  0.2000E+01
    -18.283  0.0000E+00  0.2000E+01
    -17.683  0.0000E+00  0.2000E+01
    -17.083  0.0000E+00  0.2000E+01
    -16.484  0.0000E+00  0.2000E+01
    -15.884  0.0000E+00  0.2000E+01
    -15.284  0.0000E+00  0.2000E+01
    -14.684  0.0000E+00  0.2000E+01
    -14.084  0.0000E+00  0.2000E+01
    -13.484  0.0000E+00  0.2000E+01
    -12.885  0.0000E+00  0.2000E+01
    -12.285  0.0000E+00  0.2000E+01
    -11.685  0.0000E+00  0.2000E+01
    -11.085  0.0000E+00  0.2000E+01
    -10.485  0.0000E+00  0.2000E+01
     -9.886  0.0000E+00  0.3361E+01
     -9.286  0.0000E+00  0.4306E+01
     -8.686  0.0000E+00  0.7157E+01
     -8.086  0.0000E+00  0.8000E+01
     -7.486  0.0000E+00  0.8000E+01
     -6.887  0.0000E+00  0.8000E+01
     -6.287  0.0000E+00  0.8000E+01
     -5.687  0.0000E+00  0.8000E+01
     -5.087  0.0000E+00  0.8000E+01
     -4.487  0.0000E+00  0.8000E+01
     -3.887  0.0000E+00  0.8000E+01
     -3.288  0.0000E+00  0.8000E+01
     -2.688  0.0000E+00  0.8000E+01
     -2.088  0.0000E+00  0.8000E+01
     -1.488  0.0000E+00  0.8000E+01
     -0.888  0.0000E+00  0.8000E+01
     -0.289  0.0000E+00  0.8000E+01
      0.311  0.0000E+00  0.8000E+01
      0.911  0.0000E+00  0.8000E+01
      1.511  0.0000E+00  0.8000E+01
      2.111  0.0000E+00  0.8000E+01
      2.711  0.0000E+00  0.8000E+01
      3.310  0.0000E+00  0.8000E+01
      3.910  0.0000E+00  0.8000E+01
      4.510  0.0000E+00  0.8000E+01
      5.110  0.0000E+00  0.8000E+01
      5.710  0.0000E+00  0.8000E+01
      6.309  0.0000E+00  0.8009E+01
      6.909  0.0000E+00  0.8083E+01
      7.509  0.0000E+00  0.8139E+01
      8.109  0.0000E+00  0.8250E+01
      8.709  0.0000E+00  0.8630E+01
      9.308  0.0000E+00  0.8889E+01
      9.908  0.0000E+00  0.9667E+01
     10.508  0.0000E+00  0.1003E+02
     11.108  0.3705E+00  0.1086E+02
     11.708  0.0000E+00  0.1142E+02
     12.308  0.0000E+00  0.1203E+02
     12.907  0.0000E+00  0.1297E+02
     13.507  0.0000E+00  0.1399E+02
     14.107  0.0000E+00  0.1465E+02
     14.707  0.0000E+00  0.1584E+02
     15.307  0.0000E+00  0.1779E+02
     15.906  0.0000E+00  0.1853E+02
     16.506  0.0000E+00  0.1944E+02
     17.106  0.0000E+00  0.2026E+02
     17.706  0.0000E+00  0.2093E+02
     18.306  0.0000E+00  0.2159E+02
     18.905  0.0000E+00  0.2248E+02
     19.505  0.0000E+00  0.2294E+02
     20.105  0.0000E+00  0.2364E+02
     20.705  0.0000E+00  0.2482E+02
     21.305  0.0000E+00  0.2562E+02
     21.905  0.0000E+00  0.2644E+02
     22.504  0.0000E+00  0.2706E+02
     23.104  0.0000E+00  0.2775E+02
     23.704  0.0000E+00  0.2840E+02
     24.304  0.0000E+00  0.2847E+02
     24.904  0.4473E-13  0.2921E+02
     25.503  0.0000E+00  0.3014E+02
     26.103  0.1852E+00  0.3050E+02
     26.703  0.0000E+00  0.3136E+02
     27.303  0.0000E+00  0.3288E+02
     27.903  0.0000E+00  0.3353E+02
     28.502  0.0000E+00  0.3414E+02
     29.102  0.0000E+00  0.3458E+02
     29.702  0.0000E+00  0.3531E+02
     30.302  0.0000E+00  0.3614E+02
     30.902  0.9262E-01  0.3695E+02
     31.502  0.4631E-01  0.3820E+02
     32.101  0.0000E+00  0.3893E+02
     32.701  0.0000E+00  0.3984E+02
     33.301  0.0000E+00  0.4018E+02
     33.901  0.0000E+00  0.4132E+02
     34.501  0.3097E-02  0.4168E+02
     35.100  0.0000E+00  0.4271E+02
     35.700  0.0000E+00  0.4429E+02
     36.300  0.3705E+00  0.4538E+02
     36.900  0.0000E+00  0.4607E+02
     37.500  0.0000E+00  0.4663E+02
     38.100  0.0000E+00  0.4746E+02
     38.699  0.0000E+00  0.4798E+02
     39.299  0.0000E+00  0.4868E+02
     39.899  0.0000E+00  0.4990E+02
     40.499  0.0000E+00  0.5079E+02
     41.099  0.0000E+00  0.5173E+02
     41.698  0.0000E+00  0.5335E+02
     42.298  0.0000E+00  0.5376E+02
     42.898  0.0000E+00  0.5515E+02
     43.498  0.0000E+00  0.5587E+02
     44.098  0.0000E+00  0.5665E+02
     44.697  0.0000E+00  0.5733E+02
     45.297  0.0000E+00  0.5794E+02
     45.897  0.0000E+00  0.5980E+02
     46.497  0.0000E+00  0.6049E+02
     47.097  0.0000E+00  0.6153E+02
     47.697  0.0000E+00  0.6251E+02
     48.296  0.0000E+00  0.6296E+02
     48.896  0.0000E+00  0.6459E+02
     49.496  0.0000E+00  0.6556E+02
     50.096  0.0000E+00  0.6672E+02
     50.696  0.0000E+00  0.6743E+02
     51.295  0.0000E+00  0.6883E+02
     51.895  0.0000E+00  0.6931E+02
     52.495  0.0000E+00  0.7011E+02
     53.095  0.0000E+00  0.7144E+02
     53.695  0.0000E+00  0.7208E+02
     54.294  0.0000E+00  0.7303E+02
     54.894  0.0000E+00  0.7423E+02
     55.494  0.0000E+00  0.7589E+02
     56.094  0.0000E+00  0.7662E+02
     56.694  0.0000E+00  0.7725E+02
     57.294  0.0000E+00  0.7797E+02
     57.893  0.0000E+00  0.7932E+02
     58.493  0.3705E+00  0.8075E+02
     59.093  0.0000E+00  0.8197E+02
     59.693  0.0000E+00  0.8335E+02
     60.293  0.0000E+00  0.8361E+02
     60.892  0.4325E-02  0.8395E+02
     61.492  0.0000E+00  0.8612E+02
     62.092  0.0000E+00  0.8744E+02
     62.692  0.0000E+00  0.8809E+02
     63.292  0.4168E+00  0.8938E+02
     63.891  0.0000E+00  0.9086E+02
     64.491  0.1852E+00  0.9186E+02
     65.091  0.0000E+00  0.9291E+02
     65.691  0.0000E+00  0.9419E+02
     66.291  0.0000E+00  0.9540E+02
     66.891  0.0000E+00  0.9726E+02
     67.490  0.0000E+00  0.9774E+02
     68.090  0.0000E+00  0.9905E+02
     68.690  0.0000E+00  0.9997E+02
     69.290  0.3705E+00  0.1013E+03
     69.890  0.0000E+00  0.1027E+03
     70.489  0.0000E+00  0.1038E+03
     71.089  0.0000E+00  0.1054E+03
     71.689  0.0000E+00  0.1058E+03
     72.289  0.0000E+00  0.1071E+03
     72.889  0.0000E+00  0.1078E+03
     73.489  0.0000E+00  0.1087E+03
     74.088  0.0000E+00  0.1099E+03
     74.688  0.0000E+00  0.1110E+03
     75.288  0.0000E+00  0.1121E+03
     75.888  0.0000E+00  0.1138E+03
     76.488  0.0000E+00  0.1152E+03
     77.087  0.0000E+00  0.1173E+03
     77.687  0.0000E+00  0.1183E+03
     78.287  0.0000E+00  0.1198E+03
     78.887  0.3705E+00  0.1210E+03
     79.487  0.0000E+00  0.1217E+03
     80.086  0.0000E+00  0.1230E+03
     80.686  0.0000E+00  0.1240E+03
     81.286  0.4328E-03  0.1252E+03
     81.886  0.3705E+00  0.1267E+03
     82.486  0.0000E+00  0.1280E+03
     83.086  0.0000E+00  0.1284E+03
     83.685  0.3083E-04  0.1294E+03
     84.285  0.0000E+00  0.1313E+03
     84.885  0.0000E+00  0.1326E+03
     85.485  0.0000E+00  0.1339E+03
     86.085  0.0000E+00  0.1357E+03
     86.684  0.6754E-06  0.1367E+03
     87.284  0.1081E-02  0.1380E+03
     87.884  0.0000E+00  0.1389E+03
     88.484  0.0000E+00  0.1400E+03
     89.084  0.9226E+00  0.1419E+03
     89.683  0.0000E+00  0.1436E+03
     90.283  0.0000E+00  0.1446E+03
     90.883  0.0000E+00  0.1456E+03
     91.483  0.0000E+00  0.1470E+03
     92.083  0.0000E+00  0.1475E+03
     92.683  0.4939E+00  0.1487E+03
     93.282  0.0000E+00  0.1496E+03
     93.882  0.3705E+00  0.1520E+03
     94.482  0.0000E+00  0.1541E+03
     95.082  0.0000E+00  0.1549E+03
     95.682  0.0000E+00  0.1575E+03
     96.281  0.0000E+00  0.1585E+03
     96.881  0.3705E+00  0.1595E+03
     97.481  0.0000E+00  0.1614E+03
     98.081  0.0000E+00  0.1630E+03
     98.681  0.0000E+00  0.1638E+03
     99.280  0.0000E+00  0.1653E+03
     99.880  0.0000E+00  0.1667E+03
    100.480  0.0000E+00  0.1675E+03
    101.080  0.0000E+00  0.1690E+03
    101.680  0.0000E+00  0.1708E+03
    102.280  0.0000E+00  0.1717E+03
    102.879  0.0000E+00  0.1728E+03
    103.479  0.0000E+00  0.1737E+03
    104.079  0.0000E+00  0.1748E+03
    104.679  0.3185E-09  0.1762E+03
    105.279  0.0000E+00  0.1777E+03
    105.878  0.0000E+00  0.1795E+03
    106.478  0.3727E-10  0.1815E+03
    107.078  0.0000E+00  0.1829E+03
    107.678  0.0000E+00  0.1841E+03
    108.278  0.0000E+00  0.1869E+03
    108.878  0.0000E+00  0.1882E+03
    109.477  0.0000E+00  0.1896E+03
    110.077  0.0000E+00  0.1908E+03
    110.677  0.0000E+00  0.1916E+03
    111.277  0.2858E-07  0.1933E+03
    111.877  0.0000E+00  0.1947E+03
    112.476  0.9401E-04  0.1958E+03
    113.076  0.0000E+00  0.1968E+03
    113.676  0.1852E+00  0.1983E+03
    114.276  0.0000E+00  0.1996E+03
    114.876  0.0000E+00  0.2020E+03
    115.475  0.0000E+00  0.2030E+03
    116.075  0.3693E+00  0.2050E+03
    116.675  0.0000E+00  0.2062E+03
    117.275  0.0000E+00  0.2074E+03
    117.875  0.0000E+00  0.2086E+03
    118.475  0.1852E+00  0.2102E+03
    119.074  0.7671E-02  0.2116E+03
    119.674  0.0000E+00  0.2135E+03
    120.274  0.0000E+00  0.2160E+03
    120.874  0.3705E+00  0.2175E+03
    121.474  0.0000E+00  0.2195E+03
    122.073  0.8826E-01  0.2208E+03
    122.673  0.0000E+00  0.2219E+03
    123.273  0.0000E+00  0.2234E+03
    123.873  0.3705E+00  0.2250E+03
    124.473  0.0000E+00  0.2263E+03
    125.072  0.0000E+00  0.2277E+03
    125.672  0.0000E+00  0.2287E+03
    126.272  0.0000E+00  0.2297E+03
    126.872  0.0000E+00  0.2313E+03
    127.472  0.0000E+00  0.2329E+03
    128.072  0.0000E+00  0.2341E+03
    128.671  0.0000E+00  0.2360E+03
    129.271  0.0000E+00  0.2365E+03
    129.871  0.3470E+00  0.2387E+03
    130.471  0.0000E+00  0.2403E+03
    131.071  0.0000E+00  0.2432E+03
    131.670  0.0000E+00  0.2445E+03
    132.270  0.0000E+00  0.2463E+03
    132.870  0.3664E-07  0.2476E+03
    133.470  0.0000E+00  0.2498E+03
    134.070  0.0000E+00  0.2506E+03
    134.669  0.0000E+00  0.2520E+03
    135.269  0.0000E+00  0.2538E+03
    135.869  0.0000E+00  0.2542E+03
    136.469  0.0000E+00  0.2549E+03
    137.069  0.0000E+00  0.2552E+03
    137.669  0.0000E+00  0.2557E+03
    138.268  0.0000E+00  0.2559E+03
    138.868  0.0000E+00  0.2559E+03
    139.468  0.0000E+00  0.2559E+03
    140.068  0.0000E+00  0.2560E+03
    140.668  0.0000E+00  0.2560E+03
    141.267  0.0000E+00  0.2560E+03
    141.867  0.0000E+00  0.2560E+03
    142.467  0.0000E+00  0.2560E+03
    143.067  0.0000E+00  0.2560E+03
    143.667  0.0000E+00  0.2560E+03
    144.267  0.0000E+00  0.2560E+03
    144.866  0.0000E+00  0.2560E+03
    145.466  0.0000E+00  0.2560E+03
    146.066  0.0000E+00  0.2560E+03
    146.666  0.0000E+00  0.2560E+03
    147.266  0.0000E+00  0.2560E+03
    147.865  0.0000E+00  0.2560E+03
