    1    1    1    1
  0.3298244E+02  0.3599697E-09  0.3599697E-09  0.3599697E-09  0.1000000E-15
  1.000000000000000E-004
  CAR 
 Og_FCC                                  
      8    112    128
 
  0.0000000E+00  0.0000000E+00  0.0000000E+00  0.4629630E-02
    1      -23.899399   1.000000
    2       -8.425654   1.000000
    3       -8.421843   1.000000
    4       -8.420247   1.000000
    5        5.891203   0.000000
    6       14.314611   0.000000
    7       14.316290   0.000000
    8       14.318926   0.000000
    9       13.933006   0.000000
   10       13.933006   0.000000
   11       16.984786   0.000000
   12       20.044046   0.000000
   13       20.044046   0.000000
   14       20.044047   0.000000
   15       22.351623   0.000000
   16       29.509638   0.000000
   17       29.509639   0.000000
   18       29.509639   0.000000
   19       31.494862   0.000000
   20       31.494862   0.000000
   21       31.494863   0.000000
   22       33.951040   0.000000
   23       33.951040   0.000000
   24       40.816076   0.000000
   25       40.816076   0.000000
   26       40.816076   0.000000
   27       41.540395   0.000000
   28       48.169754   0.000000
   29       48.169754   0.000000
   30       51.862100   0.000000
   31       51.862100   0.000000
   32       51.862100   0.000000
   33       52.326189   0.000000
   34       52.326189   0.000000
   35       52.326190   0.000000
   36       55.968627   0.000000
   37       56.266740   0.000000
   38       56.266741   0.000000
   39       56.266741   0.000000
   40       59.511894   0.000000
   41       59.511895   0.000000
   42       59.511895   0.000000
   43       59.718587   0.000000
   44       59.718587   0.000000
   45       59.718587   0.000000
   46       59.846047   0.000000
   47       62.157043   0.000000
   48       62.157044   0.000000
   49       62.157044   0.000000
   50       62.864174   0.000000
   51       62.864175   0.000000
   52       66.776608   0.000000
   53       66.776608   0.000000
   54       66.776608   0.000000
   55       66.954884   0.000000
   56       66.954885   0.000000
   57       66.954885   0.000000
   58       67.092527   0.000000
   59       67.506465   0.000000
   60       78.920636   0.000000
   61       78.920636   0.000000
   62       83.774839   0.000000
   63       83.774840   0.000000
   64       83.774840   0.000000
   65       85.317809   0.000000
   66       85.317809   0.000000
   67       85.317809   0.000000
   68       89.208310   0.000000
   69       93.909145   0.000000
   70       93.909146   0.000000
   71       93.909147   0.000000
   72       94.219749   0.000000
   73       94.219749   0.000000
   74       94.219754   0.000000
   75       94.526336   0.000000
   76       94.526337   0.000000
   77      101.272238   0.000000
   78      105.362721   0.000000
   79      105.362722   0.000000
   80      105.362722   0.000000
   81      105.483817   0.000000
   82      105.483818   0.000000
   83      105.483819   0.000000
   84      107.088959   0.000000
   85      107.088960   0.000000
   86      107.400925   0.000000
   87      107.400925   0.000000
   88      107.400926   0.000000
   89      107.777782   0.000000
   90      107.777783   0.000000
   91      108.623924   0.000000
   92      108.893539   0.000000
   93      108.893540   0.000000
   94      108.893540   0.000000
   95      110.437481   0.000000
   96      110.437481   0.000000
   97      110.437482   0.000000
   98      111.564964   0.000000
   99      111.564965   0.000000
  100      111.564965   0.000000
  101      112.783890   0.000000
  102      113.233138   0.000000
  103      113.233138   0.000000
  104      113.233139   0.000000
  105      113.249955   0.000000
  106      113.249956   0.000000
  107      113.249957   0.000000
  108      113.853699   0.000000
  109      113.853699   0.000000
  110      113.853700   0.000000
  111      113.992177   0.000000
  112      113.992178   0.000000
  113      115.970312   0.000000
  114      126.697969   0.000000
  115      126.697970   0.000000
  116      126.697971   0.000000
  117      128.037872   0.000000
  118      129.777951   0.000000
  119      129.777952   0.000000
  120      130.544192   0.000000
  121      130.544193   0.000000
  122      130.544193   0.000000
  123      133.267887   0.000000
  124      133.267888   0.000000
  125      133.267889   0.000000
  126      133.363174   0.000000
  127      133.363175   0.000000
  128      133.363176   0.000000
 
  0.1666667E+00  0.1890198E-17 -0.2775558E-16  0.9259259E-02
    1      -23.822993   1.000000
    2       -8.980981   1.000000
    3       -8.479504   1.000000
    4       -8.479253   1.000000
    5        6.763995   0.000000
    6       13.091909   0.000000
    7       14.581277   0.000000
    8       14.581746   0.000000
    9       13.552064   0.000000
   10       13.552064   0.000000
   11       17.757014   0.000000
   12       19.127186   0.000000
   13       21.614313   0.000000
   14       21.614314   0.000000
   15       24.616317   0.000000
   16       26.988612   0.000000
   17       27.089104   0.000000
   18       27.089104   0.000000
   19       31.391801   0.000000
   20       31.391802   0.000000
   21       33.750483   0.000000
   22       34.949326   0.000000
   23       34.949327   0.000000
   24       41.142350   0.000000
   25       41.142350   0.000000
   26       41.174437   0.000000
   27       42.714892   0.000000
   28       46.288110   0.000000
   29       47.259561   0.000000
   30       47.259562   0.000000
   31       50.419650   0.000000
   32       50.419651   0.000000
   33       51.917921   0.000000
   34       52.930395   0.000000
   35       52.930396   0.000000
   36       54.545842   0.000000
   37       55.169186   0.000000
   38       55.169187   0.000000
   39       55.539867   0.000000
   40       56.810973   0.000000
   41       57.077087   0.000000
   42       57.077087   0.000000
   43       59.041748   0.000000
   44       61.298748   0.000000
   45       61.298748   0.000000
   46       62.662232   0.000000
   47       62.764715   0.000000
   48       62.764715   0.000000
   49       64.567984   0.000000
   50       65.660371   0.000000
   51       65.660372   0.000000
   52       65.740719   0.000000
   53       65.821107   0.000000
   54       70.320836   0.000000
   55       70.320836   0.000000
   56       71.595562   0.000000
   57       71.595562   0.000000
   58       71.741337   0.000000
   59       74.930165   0.000000
   60       74.930166   0.000000
   61       77.872494   0.000000
   62       79.506028   0.000000
   63       80.048607   0.000000
   64       80.048613   0.000000
   65       80.599408   0.000000
   66       87.003433   0.000000
   67       87.003442   0.000000
   68       92.544596   0.000000
   69       92.544598   0.000000
   70       92.680370   0.000000
   71       93.387798   0.000000
   72       93.387800   0.000000
   73       93.755763   0.000000
   74       95.283140   0.000000
   75       97.022264   0.000000
   76       97.022265   0.000000
   77       97.305438   0.000000
   78       97.305438   0.000000
   79       97.470145   0.000000
   80      100.896154   0.000000
   81      102.403560   0.000000
   82      102.485774   0.000000
   83      102.485774   0.000000
   84      102.677958   0.000000
   85      102.677958   0.000000
   86      103.945904   0.000000
   87      106.147794   0.000000
   88      106.147794   0.000000
   89      107.752493   0.000000
   90      107.752493   0.000000
   91      107.773372   0.000000
   92      108.093016   0.000000
   93      109.323568   0.000000
   94      109.323569   0.000000
   95      109.682595   0.000000
   96      109.682596   0.000000
   97      109.950396   0.000000
   98      111.660480   0.000000
   99      114.415363   0.000000
  100      114.489893   0.000000
  101      114.489894   0.000000
  102      116.368134   0.000000
  103      116.491395   0.000000
  104      116.786444   0.000000
  105      116.786444   0.000000
  106      117.440605   0.000000
  107      118.605670   0.000000
  108      118.605671   0.000000
  109      118.961521   0.000000
  110      118.961522   0.000000
  111      121.413625   0.000000
  112      121.413625   0.000000
  113      122.613517   0.000000
  114      122.613520   0.000000
  115      123.788672   0.000000
  116      124.877665   0.000000
  117      125.384225   0.000000
  118      125.384227   0.000000
  119      125.913990   0.000000
  120      125.913991   0.000000
  121      126.386871   0.000000
  122      126.945403   0.000000
  123      130.753854   0.000000
  124      130.753856   0.000000
  125      131.915794   0.000000
  126      132.993788   0.000000
  127      132.993789   0.000000
  128      133.708980   0.000000
 
  0.3333333E+00  0.3780395E-17 -0.2775558E-16  0.9259259E-02
    1      -23.662074   1.000000
    2       -9.982171   1.000000
    3       -8.594844   1.000000
    4       -8.594432   1.000000
    5        8.390344   0.000000
    6       11.909910   0.000000
    7       14.150485   0.000000
    8       14.151050   0.000000
    9       14.467038   0.000000
   10       14.467038   0.000000
   11       16.442288   0.000000
   12       20.285155   0.000000
   13       23.132002   0.000000
   14       23.132003   0.000000
   15       23.978099   0.000000
   16       24.931567   0.000000
   17       24.931567   0.000000
   18       31.428756   0.000000
   19       31.428758   0.000000
   20       31.440102   0.000000
   21       33.768403   0.000000
   22       35.980486   0.000000
   23       35.980487   0.000000
   24       38.497535   0.000000
   25       38.497535   0.000000
   26       39.925189   0.000000
   27       42.126160   0.000000
   28       45.303642   0.000000
   29       46.309661   0.000000
   30       46.309661   0.000000
   31       47.953494   0.000000
   32       49.344426   0.000000
   33       49.344426   0.000000
   34       50.770240   0.000000
   35       52.389742   0.000000
   36       52.389742   0.000000
   37       53.022036   0.000000
   38       54.974783   0.000000
   39       54.974784   0.000000
   40       55.142741   0.000000
   41       58.300304   0.000000
   42       58.300304   0.000000
   43       59.163683   0.000000
   44       62.022349   0.000000
   45       62.022350   0.000000
   46       63.702962   0.000000
   47       66.799339   0.000000
   48       66.799339   0.000000
   49       68.927746   0.000000
   50       69.218098   0.000000
   51       69.218099   0.000000
   52       71.122680   0.000000
   53       71.210658   0.000000
   54       71.210658   0.000000
   55       72.853205   0.000000
   56       73.285585   0.000000
   57       73.285586   0.000000
   58       74.264920   0.000000
   59       75.543662   0.000000
   60       77.225494   0.000000
   61       77.225494   0.000000
   62       78.293743   0.000000
   63       80.880439   0.000000
   64       80.880440   0.000000
   65       83.433593   0.000000
   66       83.433597   0.000000
   67       85.950802   0.000000
   68       86.298635   0.000000
   69       86.298637   0.000000
   70       89.527685   0.000000
   71       90.201859   0.000000
   72       90.832965   0.000000
   73       90.832972   0.000000
   74       91.615587   0.000000
   75       92.698341   0.000000
   76       92.698341   0.000000
   77       93.960876   0.000000
   78       93.960877   0.000000
   79       95.061805   0.000000
   80       95.880183   0.000000
   81      100.051428   0.000000
   82      100.051428   0.000000
   83      102.156626   0.000000
   84      103.291335   0.000000
   85      104.818165   0.000000
   86      104.818166   0.000000
   87      105.345157   0.000000
   88      105.345157   0.000000
   89      107.112645   0.000000
   90      107.112646   0.000000
   91      107.332907   0.000000
   92      107.397672   0.000000
   93      107.397673   0.000000
   94      107.513029   0.000000
   95      109.195574   0.000000
   96      111.218529   0.000000
   97      111.218529   0.000000
   98      111.320238   0.000000
   99      115.578390   0.000000
  100      115.578391   0.000000
  101      116.390356   0.000000
  102      117.497636   0.000000
  103      117.497638   0.000000
  104      118.512727   0.000000
  105      118.512728   0.000000
  106      118.902817   0.000000
  107      119.733770   0.000000
  108      119.996366   0.000000
  109      119.996367   0.000000
  110      120.237148   0.000000
  111      121.498358   0.000000
  112      122.073668   0.000000
  113      122.073669   0.000000
  114      122.983129   0.000000
  115      123.615647   0.000000
  116      123.615648   0.000000
  117      127.653287   0.000000
  118      128.376797   0.000000
  119      130.591054   0.000000
  120      130.591056   0.000000
  121      131.860122   0.000000
  122      131.860122   0.000000
  123      132.155069   0.000000
  124      134.150554   0.000000
  125      134.150554   0.000000
  126      134.401558   0.000000
  127      134.401558   0.000000
  128      134.645874   0.000000
 
  0.5000000E+00  0.5670593E-17 -0.8326673E-16  0.4629630E-02
    1      -23.577214   1.000000
    2      -10.439683   1.000000
    3       -8.656461   1.000000
    4       -8.653764   1.000000
    5        9.041491   0.000000
    6       11.724662   0.000000
    7       13.774921   0.000000
    8       13.775292   0.000000
    9       15.710255   0.000000
   10       15.710255   0.000000
   11       16.514877   0.000000
   12       18.206501   0.000000
   13       20.986221   0.000000
   14       20.986222   0.000000
   15       27.142050   0.000000
   16       27.142050   0.000000
   17       27.485769   0.000000
   18       30.414015   0.000000
   19       31.192888   0.000000
   20       31.192889   0.000000
   21       35.479652   0.000000
   22       35.479653   0.000000
   23       37.572466   0.000000
   24       37.572466   0.000000
   25       37.625215   0.000000
   26       38.164160   0.000000
   27       40.319392   0.000000
   28       42.801436   0.000000
   29       44.673317   0.000000
   30       44.673317   0.000000
   31       46.650586   0.000000
   32       48.450959   0.000000
   33       48.450959   0.000000
   34       49.143687   0.000000
   35       54.460960   0.000000
   36       54.460960   0.000000
   37       55.045096   0.000000
   38       55.728490   0.000000
   39       56.286146   0.000000
   40       56.286146   0.000000
   41       57.677244   0.000000
   42       57.677244   0.000000
   43       58.942569   0.000000
   44       63.249812   0.000000
   45       63.748692   0.000000
   46       63.748693   0.000000
   47       66.473878   0.000000
   48       66.473879   0.000000
   49       67.505744   0.000000
   50       67.505745   0.000000
   51       68.186013   0.000000
   52       70.994737   0.000000
   53       74.428705   0.000000
   54       74.428706   0.000000
   55       76.251829   0.000000
   56       76.528739   0.000000
   57       76.528739   0.000000
   58       77.592831   0.000000
   59       77.592832   0.000000
   60       78.876417   0.000000
   61       78.876418   0.000000
   62       80.243394   0.000000
   63       80.426655   0.000000
   64       81.134438   0.000000
   65       81.365668   0.000000
   66       83.445184   0.000000
   67       84.432127   0.000000
   68       84.432128   0.000000
   69       84.483103   0.000000
   70       84.483103   0.000000
   71       86.389818   0.000000
   72       88.668543   0.000000
   73       89.545352   0.000000
   74       89.545362   0.000000
   75       92.071691   0.000000
   76       92.071692   0.000000
   77       92.138689   0.000000
   78       92.138690   0.000000
   79       94.108240   0.000000
   80       94.108241   0.000000
   81       94.560682   0.000000
   82      100.740447   0.000000
   83      102.460312   0.000000
   84      103.745573   0.000000
   85      103.745574   0.000000
   86      104.638486   0.000000
   87      105.103084   0.000000
   88      106.012238   0.000000
   89      106.012240   0.000000
   90      106.583041   0.000000
   91      106.583042   0.000000
   92      106.999905   0.000000
   93      110.176638   0.000000
   94      110.953818   0.000000
   95      110.953819   0.000000
   96      112.284417   0.000000
   97      112.284419   0.000000
   98      113.804807   0.000000
   99      113.804807   0.000000
  100      114.437279   0.000000
  101      114.493478   0.000000
  102      114.694313   0.000000
  103      115.581880   0.000000
  104      116.192665   0.000000
  105      116.192665   0.000000
  106      116.266850   0.000000
  107      116.266851   0.000000
  108      118.813217   0.000000
  109      124.203102   0.000000
  110      124.203104   0.000000
  111      124.622018   0.000000
  112      124.854868   0.000000
  113      125.553493   0.000000
  114      125.553493   0.000000
  115      125.686740   0.000000
  116      125.686741   0.000000
  117      127.325043   0.000000
  118      127.598483   0.000000
  119      127.598484   0.000000
  120      127.769517   0.000000
  121      129.130802   0.000000
  122      129.130803   0.000000
  123      130.758492   0.000000
  124      130.758493   0.000000
  125      132.244272   0.000000
  126      132.534727   0.000000
  127      134.326019   0.000000
  128      134.326020   0.000000
 
  0.3851860E-33  0.1666667E+00 -0.1387779E-16  0.9259259E-02
    1      -23.822970   1.000000
    2       -8.981150   1.000000
    3       -8.479712   1.000000
    4       -8.479160   1.000000
    5        6.764135   0.000000
    6       13.092082   0.000000
    7       14.580883   0.000000
    8       14.582034   0.000000
    9       13.552064   0.000000
   10       13.552064   0.000000
   11       17.757014   0.000000
   12       19.127186   0.000000
   13       21.614314   0.000000
   14       21.614314   0.000000
   15       24.616317   0.000000
   16       26.988612   0.000000
   17       27.089104   0.000000
   18       27.089105   0.000000
   19       31.391800   0.000000
   20       31.391802   0.000000
   21       33.750482   0.000000
   22       34.949326   0.000000
   23       34.949327   0.000000
   24       41.142350   0.000000
   25       41.142350   0.000000
   26       41.174438   0.000000
   27       42.714892   0.000000
   28       46.288109   0.000000
   29       47.259561   0.000000
   30       47.259562   0.000000
   31       50.419650   0.000000
   32       50.419651   0.000000
   33       51.917921   0.000000
   34       52.930395   0.000000
   35       52.930396   0.000000
   36       54.545843   0.000000
   37       55.169186   0.000000
   38       55.169186   0.000000
   39       55.539866   0.000000
   40       56.810973   0.000000
   41       57.077087   0.000000
   42       57.077088   0.000000
   43       59.041748   0.000000
   44       61.298748   0.000000
   45       61.298749   0.000000
   46       62.662232   0.000000
   47       62.764715   0.000000
   48       62.764715   0.000000
   49       64.567984   0.000000
   50       65.660372   0.000000
   51       65.660372   0.000000
   52       65.740720   0.000000
   53       65.821108   0.000000
   54       70.320836   0.000000
   55       70.320836   0.000000
   56       71.595562   0.000000
   57       71.595562   0.000000
   58       71.741336   0.000000
   59       74.930165   0.000000
   60       74.930166   0.000000
   61       77.872494   0.000000
   62       79.506028   0.000000
   63       80.048607   0.000000
   64       80.048613   0.000000
   65       80.599408   0.000000
   66       87.003433   0.000000
   67       87.003442   0.000000
   68       92.544596   0.000000
   69       92.544598   0.000000
   70       92.680369   0.000000
   71       93.387798   0.000000
   72       93.387801   0.000000
   73       93.755763   0.000000
   74       95.283140   0.000000
   75       97.022264   0.000000
   76       97.022266   0.000000
   77       97.305437   0.000000
   78       97.305438   0.000000
   79       97.470145   0.000000
   80      100.896154   0.000000
   81      102.403560   0.000000
   82      102.485773   0.000000
   83      102.485774   0.000000
   84      102.677957   0.000000
   85      102.677958   0.000000
   86      103.945903   0.000000
   87      106.147794   0.000000
   88      106.147795   0.000000
   89      107.752492   0.000000
   90      107.752494   0.000000
   91      107.773372   0.000000
   92      108.093017   0.000000
   93      109.323568   0.000000
   94      109.323569   0.000000
   95      109.682595   0.000000
   96      109.682596   0.000000
   97      109.950397   0.000000
   98      111.660480   0.000000
   99      114.415363   0.000000
  100      114.489893   0.000000
  101      114.489894   0.000000
  102      116.368134   0.000000
  103      116.491396   0.000000
  104      116.786444   0.000000
  105      116.786445   0.000000
  106      117.440604   0.000000
  107      118.605670   0.000000
  108      118.605671   0.000000
  109      118.961522   0.000000
  110      118.961522   0.000000
  111      121.413625   0.000000
  112      121.413625   0.000000
  113      122.613517   0.000000
  114      122.613521   0.000000
  115      123.788673   0.000000
  116      124.877665   0.000000
  117      125.384224   0.000000
  118      125.384227   0.000000
  119      125.913990   0.000000
  120      125.913991   0.000000
  121      126.386872   0.000000
  122      126.945403   0.000000
  123      130.753853   0.000000
  124      130.753857   0.000000
  125      131.915793   0.000000
  126      132.993788   0.000000
  127      132.993790   0.000000
  128      133.708980   0.000000
 
  0.1666667E+00  0.1666667E+00 -0.6938894E-16  0.9259259E-02
    1      -23.797707   1.000000
    2       -8.963805   1.000000
    3       -8.596173   1.000000
    4       -8.595751   1.000000
    5        7.033630   0.000000
    6       12.712721   0.000000
    7       14.915019   0.000000
    8       14.917326   0.000000
    9       12.173488   0.000000
   10       14.311583   0.000000
   11       19.261892   0.000000
   12       19.631668   0.000000
   13       20.766991   0.000000
   14       20.766991   0.000000
   15       26.151479   0.000000
   16       26.151479   0.000000
   17       26.593419   0.000000
   18       27.413537   0.000000
   19       29.832929   0.000000
   20       31.533806   0.000000
   21       34.502134   0.000000
   22       34.502134   0.000000
   23       35.747889   0.000000
   24       41.351982   0.000000
   25       41.784521   0.000000
   26       41.784522   0.000000
   27       42.904819   0.000000
   28       44.719040   0.000000
   29       47.138492   0.000000
   30       47.138492   0.000000
   31       48.516420   0.000000
   32       50.766938   0.000000
   33       50.766938   0.000000
   34       50.900936   0.000000
   35       53.545960   0.000000
   36       53.745763   0.000000
   37       55.415481   0.000000
   38       55.415481   0.000000
   39       57.598014   0.000000
   40       57.755242   0.000000
   41       58.522634   0.000000
   42       58.522635   0.000000
   43       59.421008   0.000000
   44       61.257445   0.000000
   45       61.375839   0.000000
   46       61.422974   0.000000
   47       61.422974   0.000000
   48       61.745172   0.000000
   49       64.484461   0.000000
   50       64.484462   0.000000
   51       64.701501   0.000000
   52       66.113209   0.000000
   53       68.864139   0.000000
   54       68.864140   0.000000
   55       70.321578   0.000000
   56       71.765241   0.000000
   57       74.856979   0.000000
   58       75.406955   0.000000
   59       75.406955   0.000000
   60       76.534431   0.000000
   61       77.830666   0.000000
   62       78.009875   0.000000
   63       78.009876   0.000000
   64       82.897567   0.000000
   65       83.270978   0.000000
   66       86.006261   0.000000
   67       86.006261   0.000000
   68       87.391870   0.000000
   69       90.123488   0.000000
   70       92.564886   0.000000
   71       92.953660   0.000000
   72       92.953662   0.000000
   73       94.863810   0.000000
   74       96.193403   0.000000
   75       96.193403   0.000000
   76       96.764932   0.000000
   77       97.683803   0.000000
   78       97.707606   0.000000
   79       97.707606   0.000000
   80       98.761161   0.000000
   81      100.082789   0.000000
   82      100.082789   0.000000
   83      101.859535   0.000000
   84      102.708003   0.000000
   85      104.421158   0.000000
   86      104.421159   0.000000
   87      104.439761   0.000000
   88      104.701942   0.000000
   89      105.667002   0.000000
   90      107.946053   0.000000
   91      107.946054   0.000000
   92      108.366490   0.000000
   93      110.606510   0.000000
   94      110.606511   0.000000
   95      110.751570   0.000000
   96      111.545349   0.000000
   97      112.478575   0.000000
   98      114.154036   0.000000
   99      114.483576   0.000000
  100      114.483576   0.000000
  101      114.486973   0.000000
  102      116.459113   0.000000
  103      116.459113   0.000000
  104      116.662100   0.000000
  105      116.859895   0.000000
  106      118.468909   0.000000
  107      118.468909   0.000000
  108      119.002511   0.000000
  109      119.953566   0.000000
  110      119.981146   0.000000
  111      120.885948   0.000000
  112      120.885948   0.000000
  113      121.188896   0.000000
  114      123.858938   0.000000
  115      124.027837   0.000000
  116      124.568461   0.000000
  117      124.568462   0.000000
  118      125.371057   0.000000
  119      126.235017   0.000000
  120      126.792834   0.000000
  121      126.792834   0.000000
  122      127.338588   0.000000
  123      127.580999   0.000000
  124      127.580999   0.000000
  125      129.279838   0.000000
  126      130.185042   0.000000
  127      133.327883   0.000000
  128      133.327884   0.000000
 
  0.3333333E+00  0.1666667E+00 -0.5551115E-16  0.9259259E-02
    1      -23.664980   1.000000
    2       -9.692573   1.000000
    3       -8.754925   1.000000
    4       -8.738654   1.000000
    5        8.416364   0.000000
    6       11.772007   0.000000
    7       13.179406   0.000000
    8       15.071197   0.000000
    9       13.448610   0.000000
   10       14.987094   0.000000
   11       18.361686   0.000000
   12       20.843472   0.000000
   13       21.466974   0.000000
   14       22.069497   0.000000
   15       24.590152   0.000000
   16       24.908792   0.000000
   17       26.177841   0.000000
   18       28.947575   0.000000
   19       30.968037   0.000000
   20       30.998577   0.000000
   21       34.152994   0.000000
   22       35.328071   0.000000
   23       36.929090   0.000000
   24       38.846274   0.000000
   25       39.992999   0.000000
   26       41.518793   0.000000
   27       43.161191   0.000000
   28       43.899300   0.000000
   29       45.573127   0.000000
   30       45.815435   0.000000
   31       47.630303   0.000000
   32       48.536555   0.000000
   33       50.002573   0.000000
   34       50.887289   0.000000
   35       51.035329   0.000000
   36       52.040941   0.000000
   37       54.286029   0.000000
   38       54.573379   0.000000
   39       57.467479   0.000000
   40       57.722692   0.000000
   41       58.294474   0.000000
   42       58.497319   0.000000
   43       59.324054   0.000000
   44       61.153198   0.000000
   45       62.275667   0.000000
   46       63.316639   0.000000
   47       63.631766   0.000000
   48       65.368065   0.000000
   49       66.853639   0.000000
   50       66.857657   0.000000
   51       68.889324   0.000000
   52       70.139905   0.000000
   53       70.694007   0.000000
   54       70.804206   0.000000
   55       72.551738   0.000000
   56       73.521044   0.000000
   57       75.728416   0.000000
   58       76.517065   0.000000
   59       76.919795   0.000000
   60       77.361576   0.000000
   61       78.879416   0.000000
   62       79.906352   0.000000
   63       81.326682   0.000000
   64       81.882872   0.000000
   65       82.466878   0.000000
   66       84.053841   0.000000
   67       85.624911   0.000000
   68       85.750807   0.000000
   69       86.489102   0.000000
   70       87.590857   0.000000
   71       87.949036   0.000000
   72       91.402573   0.000000
   73       91.894061   0.000000
   74       93.459763   0.000000
   75       93.514220   0.000000
   76       94.117527   0.000000
   77       94.457089   0.000000
   78       95.642704   0.000000
   79       96.326108   0.000000
   80       96.508991   0.000000
   81       97.207535   0.000000
   82       98.638503   0.000000
   83       98.887681   0.000000
   84      101.664832   0.000000
   85      102.209101   0.000000
   86      103.550035   0.000000
   87      104.712354   0.000000
   88      106.161216   0.000000
   89      106.681439   0.000000
   90      107.695355   0.000000
   91      108.209620   0.000000
   92      108.553391   0.000000
   93      109.009281   0.000000
   94      109.677197   0.000000
   95      110.699387   0.000000
   96      110.879661   0.000000
   97      111.153277   0.000000
   98      112.782341   0.000000
   99      113.892729   0.000000
  100      114.830956   0.000000
  101      115.737120   0.000000
  102      116.783509   0.000000
  103      117.255771   0.000000
  104      117.502534   0.000000
  105      118.218389   0.000000
  106      119.075785   0.000000
  107      119.250450   0.000000
  108      119.470782   0.000000
  109      119.525111   0.000000
  110      120.868333   0.000000
  111      121.388712   0.000000
  112      123.162319   0.000000
  113      123.504865   0.000000
  114      124.420748   0.000000
  115      124.944461   0.000000
  116      125.050192   0.000000
  117      126.154312   0.000000
  118      126.913634   0.000000
  119      128.095505   0.000000
  120      129.694978   0.000000
  121      130.256786   0.000000