 vasp.5.4.4.18Apr17-6-g9f103f2a35 (build Jul 09 2018 16:43:14) complex          
  
 executed on             LinuxIFC date 2018.11.22  05:07:50
 running on   32 total cores
 distrk:  each k-point on    2 cores,   16 groups
 distr:  one band on NCORES_PER_BAND=   1 cores,    2 groups


--------------------------------------------------------------------------------------------------------


 INCAR:
 POTCAR:    PAW_PBE Ar_GW 21Aug2013               

 ----------------------------------------------------------------------------- 
|                                                                             |
|           W    W    AA    RRRRR   N    N  II  N    N   GGGG   !!!           |
|           W    W   A  A   R    R  NN   N  II  NN   N  G    G  !!!           |
|           W    W  A    A  R    R  N N  N  II  N N  N  G       !!!           |
|           W WW W  AAAAAA  RRRRR   N  N N  II  N  N N  G  GGG   !            |
|           WW  WW  A    A  R   R   N   NN  II  N   NN  G    G                |
|           W    W  A    A  R    R  N    N  II  N    N   GGGG   !!!           |
|                                                                             |
|      For optimal performance we recommend to set                            |
|        NCORE= 4 - approx SQRT( number of cores)                             |
|      NCORE specifies how many cores store one orbital (NPAR=cpu/NCORE).     |
|      This setting can  greatly improve the performance of VASP for DFT.     |
|      The default,   NCORE=1            might be grossly inefficient         |
|      on modern multi-core architectures or massively parallel machines.     |
|      Do your own testing !!!!                                               |
|      Unfortunately you need to use the default for GW and RPA calculations. |
|      (for HF NCORE is supported but not extensively tested yet)             |
|                                                                             |
 ----------------------------------------------------------------------------- 


 ----------------------------------------------------------------------------- 
|                                                                             |
|           W    W    AA    RRRRR   N    N  II  N    N   GGGG   !!!           |
|           W    W   A  A   R    R  NN   N  II  NN   N  G    G  !!!           |
|           W    W  A    A  R    R  N N  N  II  N N  N  G       !!!           |
|           W WW W  AAAAAA  RRRRR   N  N N  II  N  N N  G  GGG   !            |
|           WW  WW  A    A  R   R   N   NN  II  N   NN  G    G                |
|           W    W  A    A  R    R  N    N  II  N    N   GGGG   !!!           |
|                                                                             |
|      You have enabled k-point parallelism (KPAR>1).                         |
|      This developmental code was originally  written by Paul Kent at ORNL,  |
|      and carefully double checked in Vienna.                                |
|      GW as well as linear response parallelism added by Martijn Marsman     |
|      and Georg Kresse.                                                      |
|      Carefully verify results versus KPAR=1.                                |
|      Report problems to Paul Kent and Vienna.                               |
|                                                                             |
 ----------------------------------------------------------------------------- 

 POTCAR:    PAW_PBE Ar_GW 21Aug2013               
  local pseudopotential read in
  partial core-charges read in
  partial kinetic energy density read in
  kinetic energy density of atom read in
  atomic valenz-charges read in
  non local Contribution for L=           0  read in
    real space projection operators read in
  non local Contribution for L=           0  read in
    real space projection operators read in
  non local Contribution for L=           1  read in
    real space projection operators read in
  non local Contribution for L=           1  read in
    real space projection operators read in
  non local Contribution for L=           2  read in
    real space projection operators read in
  non local Contribution for L=           2  read in
    real space projection operators read in
    PAW grid and wavefunctions read in
 
   number of l-projection  operators is LMAX  =           6
   number of lm-projection operators is LMMAX =          18
 
  PAW_PBE Ar_GW 21Aug2013               :
 energy of atom  1       EATOM= -579.0493
 kinetic energy error for atom=    0.0359 (will be added to EATOM!!)
 
 
 POSCAR: Ar_FCC                                  
  positions in direct lattice
  velocities in cartesian coordinates
 exchange correlation table for  LEXCH =        8
   RHO(1)=    0.500       N(1)  =     2000
   RHO(2)=  100.500       N(2)  =     4000
 


--------------------------------------------------------------------------------------------------------


 ion  position               nearest neighbor table
   1  0.000  0.000  0.000-
 

IMPORTANT INFORMATION: All symmetrisations will be switched off!
NOSYMM: (Re-)initialisation of all symmetry stuff for point group C_1.

 
 
 KPOINTS: k-points                                

Automatic generation of k-mesh.
Space group operators:
 irot       det(A)        alpha          n_x          n_y          n_z        tau_x        tau_y        tau_z
    1     1.000000     0.000000     1.000000     0.000000     0.000000     0.000000     0.000000     0.000000
 
 Subroutine IBZKPT returns following result:
 ===========================================
 
 Found    112 irreducible k-points:
 
 Following reciprocal coordinates:
            Coordinates               Weight
  0.000000  0.000000  0.000000      1.000000
  0.166667  0.000000 -0.000000      2.000000
  0.333333  0.000000 -0.000000      2.000000
  0.500000  0.000000 -0.000000      1.000000
  0.000000  0.166667 -0.000000      2.000000
  0.166667  0.166667 -0.000000      2.000000
  0.333333  0.166667 -0.000000      2.000000
  0.500000  0.166667 -0.000000      2.000000
 -0.333333  0.166667 -0.000000      2.000000
 -0.166667  0.166667  0.000000      2.000000
  0.000000  0.333333  0.000000      2.000000
  0.166667  0.333333 -0.000000      2.000000
  0.333333  0.333333 -0.000000      2.000000
  0.500000  0.333333 -0.000000      2.000000
 -0.333333  0.333333  0.000000      2.000000
 -0.166667  0.333333  0.000000      2.000000
  0.000000  0.500000 -0.000000      1.000000
  0.166667  0.500000  0.000000      2.000000
  0.333333  0.500000  0.000000      2.000000
  0.500000  0.500000 -0.000000      1.000000
 -0.000000  0.000000  0.166667      2.000000
  0.166667  0.000000  0.166667      2.000000
  0.333333 -0.000000  0.166667      2.000000
  0.500000  0.000000  0.166667      2.000000
 -0.333333 -0.000000  0.166667      2.000000
 -0.166667 -0.000000  0.166667      2.000000
  0.000000  0.166667  0.166667      2.000000
  0.166667  0.166667  0.166667      2.000000
  0.333333  0.166667  0.166667      2.000000
  0.500000  0.166667  0.166667      2.000000
 -0.333333  0.166667  0.166667      2.000000
 -0.166667  0.166667  0.166667      2.000000
  0.000000  0.333333  0.166667      2.000000
  0.166667  0.333333  0.166667      2.000000
  0.333333  0.333333  0.166667      2.000000
  0.500000  0.333333  0.166667      2.000000
 -0.333333  0.333333  0.166667      2.000000
 -0.166667  0.333333  0.166667      2.000000
  0.000000  0.500000  0.166667      2.000000
  0.166667  0.500000  0.166667      2.000000
  0.333333  0.500000  0.166667      2.000000
  0.500000  0.500000  0.166667      2.000000
 -0.333333  0.500000  0.166667      2.000000
 -0.166667  0.500000  0.166667      2.000000
  0.000000 -0.333333  0.166667      2.000000
  0.166667 -0.333333  0.166667      2.000000
  0.333333 -0.333333  0.166667      2.000000
  0.500000 -0.333333  0.166667      2.000000
 -0.333333 -0.333333  0.166667      2.000000
 -0.166667 -0.333333  0.166667      2.000000
  0.000000 -0.166667  0.166667      2.000000
  0.166667 -0.166667  0.166667      2.000000
  0.333333 -0.166667  0.166667      2.000000
  0.500000 -0.166667  0.166667      2.000000
 -0.333333 -0.166667  0.166667      2.000000
 -0.166667 -0.166667  0.166667      2.000000
  0.000000  0.000000  0.333333      2.000000
  0.166667  0.000000  0.333333      2.000000
  0.333333  0.000000  0.333333      2.000000
  0.500000 -0.000000  0.333333      2.000000
 -0.333333  0.000000  0.333333      2.000000
 -0.166667  0.000000  0.333333      2.000000
 -0.000000  0.166667  0.333333      2.000000
  0.166667  0.166667  0.333333      2.000000
  0.333333  0.166667  0.333333      2.000000
  0.500000  0.166667  0.333333      2.000000
 -0.333333  0.166667  0.333333      2.000000
 -0.166667  0.166667  0.333333      2.000000
 -0.000000  0.333333  0.333333      2.000000
  0.166667  0.333333  0.333333      2.000000
  0.333333  0.333333  0.333333      2.000000
  0.500000  0.333333  0.333333      2.000000
 -0.333333  0.333333  0.333333      2.000000
 -0.166667  0.333333  0.333333      2.000000
 -0.000000  0.500000  0.333333      2.000000
  0.166667  0.500000  0.333333      2.000000
  0.333333  0.500000  0.333333      2.000000
  0.500000  0.500000  0.333333      2.000000
 -0.333333  0.500000  0.333333      2.000000
 -0.166667  0.500000  0.333333      2.000000
 -0.000000 -0.333333  0.333333      2.000000
  0.166667 -0.333333  0.333333      2.000000
  0.333333 -0.333333  0.333333      2.000000
  0.500000 -0.333333  0.333333      2.000000
 -0.333333 -0.333333  0.333333      2.000000
 -0.166667 -0.333333  0.333333      2.000000
 -0.000000 -0.166667  0.333333      2.000000
  0.166667 -0.166667  0.333333      2.000000
  0.333333 -0.166667  0.333333      2.000000
  0.500000 -0.166667  0.333333      2.000000
 -0.333333 -0.166667  0.333333      2.000000
 -0.166667 -0.166667  0.333333      2.000000
 -0.000000  0.000000  0.500000      1.000000
  0.166667 -0.000000  0.500000      2.000000
  0.333333  0.000000  0.500000      2.000000
  0.500000  0.000000  0.500000      1.000000
  0.000000  0.166667  0.500000      2.000000
  0.166667  0.166667  0.500000      2.000000
  0.333333  0.166667  0.500000      2.000000
  0.500000  0.166667  0.500000      2.000000
 -0.333333  0.166667  0.500000      2.000000
 -0.166667  0.166667  0.500000      2.000000
 -0.000000  0.333333  0.500000      2.000000
  0.166667  0.333333  0.500000      2.000000
  0.333333  0.333333  0.500000      2.000000
  0.500000  0.333333  0.500000      2.000000
 -0.333333  0.333333  0.500000      2.000000
 -0.166667  0.333333  0.500000      2.000000
  0.000000  0.500000  0.500000      1.000000
  0.166667  0.500000  0.500000      2.000000
  0.333333  0.500000  0.500000      2.000000
  0.500000  0.500000  0.500000      1.000000
 
 Following cartesian coordinates:
            Coordinates               Weight
  0.000000  0.000000  0.000000      1.000000
  0.046300 -0.026731 -0.018902      2.000000
  0.092600 -0.053463 -0.037804      2.000000
  0.138901 -0.080194 -0.056706      1.000000
  0.000000  0.053463 -0.018902      2.000000
  0.046300  0.026731 -0.037804      2.000000
  0.092600  0.000000 -0.056706      2.000000
  0.138901 -0.026731 -0.075608      2.000000
 -0.092600  0.106926  0.018902      2.000000
 -0.046300  0.080194  0.000000      2.000000
  0.000000  0.106926 -0.037804      2.000000
  0.046300  0.080194 -0.056706      2.000000
  0.092600  0.053463 -0.075608      2.000000
  0.138901  0.026731 -0.094510      2.000000
 -0.092600  0.160389  0.000000      2.000000
 -0.046300  0.133657 -0.018902      2.000000
  0.000000  0.160389 -0.056706      1.000000
  0.046300  0.133657 -0.075608      2.000000
  0.092600  0.106926 -0.094510      2.000000
  0.138901  0.080194 -0.113412      1.000000
 -0.000000  0.000000  0.056706      2.000000
  0.046300 -0.026731  0.037804      2.000000
  0.092600 -0.053463  0.018902      2.000000
  0.138901 -0.080194 -0.000000      2.000000
 -0.092600  0.053463  0.094510      2.000000
 -0.046300  0.026731  0.075608      2.000000
 -0.000000  0.053463  0.037804      2.000000
  0.046300  0.026731  0.018902      2.000000
  0.092600  0.000000  0.000000      2.000000
  0.138901 -0.026731 -0.018902      2.000000
 -0.092600  0.106926  0.075608      2.000000
 -0.046300  0.080194  0.056706      2.000000
 -0.000000  0.106926  0.018902      2.000000
  0.046300  0.080194  0.000000      2.000000
  0.092600  0.053463 -0.018902      2.000000
  0.138901  0.026731 -0.037804      2.000000
 -0.092600  0.160389  0.056706      2.000000
 -0.046300  0.133657  0.037804      2.000000
 -0.000000  0.160389  0.000000      2.000000
  0.046300  0.133657 -0.018902      2.000000
  0.092600  0.106926 -0.037804      2.000000
  0.138901  0.080194 -0.056706      2.000000
 -0.092600  0.213851  0.037804      2.000000
 -0.046300  0.187120  0.018902      2.000000
 -0.000000 -0.106926  0.094510      2.000000
  0.046300 -0.133657  0.075608      2.000000
  0.092600 -0.160389  0.056706      2.000000
  0.138901 -0.187120  0.037804      2.000000
 -0.092600 -0.053463  0.132314      2.000000
 -0.046300 -0.080194  0.113412      2.000000
 -0.000000 -0.053463  0.075608      2.000000
  0.046300 -0.080194  0.056706      2.000000
  0.092600 -0.106926  0.037804      2.000000
  0.138901 -0.133657  0.018902      2.000000
 -0.092600 -0.000000  0.113412      2.000000
 -0.046300 -0.026731  0.094510      2.000000
 -0.000000  0.000000  0.113412      2.000000
  0.046300 -0.026731  0.094510      2.000000
  0.092600 -0.053463  0.075608      2.000000
  0.138901 -0.080194  0.056706      2.000000
 -0.092600  0.053463  0.151216      2.000000
 -0.046300  0.026731  0.132314      2.000000
 -0.000000  0.053463  0.094510      2.000000
  0.046300  0.026731  0.075608      2.000000
  0.092600  0.000000  0.056706      2.000000
  0.138901 -0.026731  0.037804      2.000000
 -0.092600  0.106926  0.132314      2.000000
 -0.046300  0.080194  0.113412      2.000000
 -0.000000  0.106926  0.075608      2.000000
  0.046300  0.080194  0.056706      2.000000
  0.092600  0.053463  0.037804      2.000000
  0.138901  0.026731  0.018902      2.000000
 -0.092600  0.160389  0.113412      2.000000
 -0.046300  0.133657  0.094510      2.000000
 -0.000000  0.160389  0.056706      2.000000
  0.046300  0.133657  0.037804      2.000000
  0.092600  0.106926  0.018902      2.000000
  0.138901  0.080194  0.000000      2.000000
 -0.092600  0.213851  0.094510      2.000000
 -0.046300  0.187120  0.075608      2.000000
 -0.000000 -0.106926  0.151216      2.000000
  0.046300 -0.133657  0.132314      2.000000
  0.092600 -0.160389  0.113412      2.000000
  0.138901 -0.187120  0.094510      2.000000
 -0.092600 -0.053463  0.189020      2.000000
 -0.046300 -0.080194  0.170118      2.000000
 -0.000000 -0.053463  0.132314      2.000000
  0.046300 -0.080194  0.113412      2.000000
  0.092600 -0.106926  0.094510      2.000000
  0.138901 -0.133657  0.075608      2.000000
 -0.092600 -0.000000  0.170118      2.000000
 -0.046300 -0.026731  0.151216      2.000000
 -0.000000  0.000000  0.170118      1.000000
  0.046300 -0.026731  0.151216      2.000000
  0.092600 -0.053463  0.132314      2.000000
  0.138901 -0.080194  0.113412      1.000000
 -0.000000  0.053463  0.151216      2.000000
  0.046300  0.026731  0.132314      2.000000
  0.092600  0.000000  0.113412      2.000000
  0.138901 -0.026731  0.094510      2.000000
 -0.092600  0.106926  0.189020      2.000000
 -0.046300  0.080194  0.170118      2.000000
 -0.000000  0.106926  0.132314      2.000000
  0.046300  0.080194  0.113412      2.000000
  0.092600  0.053463  0.094510      2.000000
  0.138901  0.026731  0.075608      2.000000
 -0.092600  0.160389  0.170118      2.000000
 -0.046300  0.133657  0.151216      2.000000
 -0.000000  0.160389  0.113412      1.000000
  0.046300  0.133657  0.094510      2.000000
  0.092600  0.106926  0.075608      2.000000
  0.138901  0.080194  0.056706      1.000000
 
 
 Subroutine IBZKPT_HF returns following result:
 ==============================================
 
 Found    216 k-points in 1st BZ
 the following    216 k-points will be used (e.g. in the exchange kernel)
 Following reciprocal coordinates:   # in IRBZ
  0.000000  0.000000  0.000000    0.00462963   1 t-inv F
  0.166667  0.000000 -0.000000    0.00462963   2 t-inv F
  0.333333  0.000000 -0.000000    0.00462963   3 t-inv F
  0.500000  0.000000 -0.000000    0.00462963   4 t-inv F
  0.000000  0.166667 -0.000000    0.00462963   5 t-inv F
  0.166667  0.166667 -0.000000    0.00462963   6 t-inv F
  0.333333  0.166667 -0.000000    0.00462963   7 t-inv F
  0.500000  0.166667 -0.000000    0.00462963   8 t-inv F
 -0.333333  0.166667 -0.000000    0.00462963   9 t-inv F
 -0.166667  0.166667  0.000000    0.00462963  10 t-inv F
  0.000000  0.333333  0.000000    0.00462963  11 t-inv F
  0.166667  0.333333 -0.000000    0.00462963  12 t-inv F
  0.333333  0.333333 -0.000000    0.00462963  13 t-inv F
  0.500000  0.333333 -0.000000    0.00462963  14 t-inv F
 -0.333333  0.333333  0.000000    0.00462963  15 t-inv F
 -0.166667  0.333333  0.000000    0.00462963  16 t-inv F
  0.000000  0.500000 -0.000000    0.00462963  17 t-inv F
  0.166667  0.500000  0.000000    0.00462963  18 t-inv F
  0.333333  0.500000  0.000000    0.00462963  19 t-inv F
  0.500000  0.500000 -0.000000    0.00462963  20 t-inv F
 -0.000000  0.000000  0.166667    0.00462963  21 t-inv F
  0.166667  0.000000  0.166667    0.00462963  22 t-inv F
  0.333333 -0.000000  0.166667    0.00462963  23 t-inv F
  0.500000  0.000000  0.166667    0.00462963  24 t-inv F
 -0.333333 -0.000000  0.166667    0.00462963  25 t-inv F
 -0.166667 -0.000000  0.166667    0.00462963  26 t-inv F
  0.000000  0.166667  0.166667    0.00462963  27 t-inv F
  0.166667  0.166667  0.166667    0.00462963  28 t-inv F
  0.333333  0.166667  0.166667    0.00462963  29 t-inv F
  0.500000  0.166667  0.166667    0.00462963  30 t-inv F
 -0.333333  0.166667  0.166667    0.00462963  31 t-inv F
 -0.166667  0.166667  0.166667    0.00462963  32 t-inv F
  0.000000  0.333333  0.166667    0.00462963  33 t-inv F
  0.166667  0.333333  0.166667    0.00462963  34 t-inv F
  0.333333  0.333333  0.166667    0.00462963  35 t-inv F
  0.500000  0.333333  0.166667    0.00462963  36 t-inv F
 -0.333333  0.333333  0.166667    0.00462963  37 t-inv F
 -0.166667  0.333333  0.166667    0.00462963  38 t-inv F
  0.000000  0.500000  0.166667    0.00462963  39 t-inv F
  0.166667  0.500000  0.166667    0.00462963  40 t-inv F
  0.333333  0.500000  0.166667    0.00462963  41 t-inv F
  0.500000  0.500000  0.166667    0.00462963  42 t-inv F
 -0.333333  0.500000  0.166667    0.00462963  43 t-inv F
 -0.166667  0.500000  0.166667    0.00462963  44 t-inv F
  0.000000 -0.333333  0.166667    0.00462963  45 t-inv F
  0.166667 -0.333333  0.166667    0.00462963  46 t-inv F
  0.333333 -0.333333  0.166667    0.00462963  47 t-inv F
  0.500000 -0.333333  0.166667    0.00462963  48 t-inv F
 -0.333333 -0.333333  0.166667    0.00462963  49 t-inv F
 -0.166667 -0.333333  0.166667    0.00462963  50 t-inv F
  0.000000 -0.166667  0.166667    0.00462963  51 t-inv F
  0.166667 -0.166667  0.166667    0.00462963  52 t-inv F
  0.333333 -0.166667  0.166667    0.00462963  53 t-inv F
  0.500000 -0.166667  0.166667    0.00462963  54 t-inv F
 -0.333333 -0.166667  0.166667    0.00462963  55 t-inv F
 -0.166667 -0.166667  0.166667    0.00462963  56 t-inv F
  0.000000  0.000000  0.333333    0.00462963  57 t-inv F
  0.166667  0.000000  0.333333    0.00462963  58 t-inv F
  0.333333  0.000000  0.333333    0.00462963  59 t-inv F
  0.500000 -0.000000  0.333333    0.00462963  60 t-inv F
 -0.333333  0.000000  0.333333    0.00462963  61 t-inv F
 -0.166667  0.000000  0.333333    0.00462963  62 t-inv F
 -0.000000  0.166667  0.333333    0.00462963  63 t-inv F
  0.166667  0.166667  0.333333    0.00462963  64 t-inv F
  0.333333  0.166667  0.333333    0.00462963  65 t-inv F
  0.500000  0.166667  0.333333    0.00462963  66 t-inv F
 -0.333333  0.166667  0.333333    0.00462963  67 t-inv F
 -0.166667  0.166667  0.333333    0.00462963  68 t-inv F
 -0.000000  0.333333  0.333333    0.00462963  69 t-inv F
  0.166667  0.333333  0.333333    0.00462963  70 t-inv F
  0.333333  0.333333  0.333333    0.00462963  71 t-inv F
  0.500000  0.333333  0.333333    0.00462963  72 t-inv F
 -0.333333  0.333333  0.333333    0.00462963  73 t-inv F
 -0.166667  0.333333  0.333333    0.00462963  74 t-inv F
 -0.000000  0.500000  0.333333    0.00462963  75 t-inv F
  0.166667  0.500000  0.333333    0.00462963  76 t-inv F
  0.333333  0.500000  0.333333    0.00462963  77 t-inv F
  0.500000  0.500000  0.333333    0.00462963  78 t-inv F
 -0.333333  0.500000  0.333333    0.00462963  79 t-inv F
 -0.166667  0.500000  0.333333    0.00462963  80 t-inv F
 -0.000000 -0.333333  0.333333    0.00462963  81 t-inv F
  0.166667 -0.333333  0.333333    0.00462963  82 t-inv F
  0.333333 -0.333333  0.333333    0.00462963  83 t-inv F
  0.500000 -0.333333  0.333333    0.00462963  84 t-inv F
 -0.333333 -0.333333  0.333333    0.00462963  85 t-inv F
 -0.166667 -0.333333  0.333333    0.00462963  86 t-inv F
 -0.000000 -0.166667  0.333333    0.00462963  87 t-inv F
  0.166667 -0.166667  0.333333    0.00462963  88 t-inv F
  0.333333 -0.166667  0.333333    0.00462963  89 t-inv F
  0.500000 -0.166667  0.333333    0.00462963  90 t-inv F
 -0.333333 -0.166667  0.333333    0.00462963  91 t-inv F
 -0.166667 -0.166667  0.333333    0.00462963  92 t-inv F
 -0.000000  0.000000  0.500000    0.00462963  93 t-inv F
  0.166667 -0.000000  0.500000    0.00462963  94 t-inv F
  0.333333  0.000000  0.500000    0.00462963  95 t-inv F
  0.500000  0.000000  0.500000    0.00462963  96 t-inv F
  0.000000  0.166667  0.500000    0.00462963  97 t-inv F
  0.166667  0.166667  0.500000    0.00462963  98 t-inv F
  0.333333  0.166667  0.500000    0.00462963  99 t-inv F
  0.500000  0.166667  0.500000    0.00462963 100 t-inv F
 -0.333333  0.166667  0.500000    0.00462963 101 t-inv F
 -0.166667  0.166667  0.500000    0.00462963 102 t-inv F
 -0.000000  0.333333  0.500000    0.00462963 103 t-inv F
  0.166667  0.333333  0.500000    0.00462963 104 t-inv F
  0.333333  0.333333  0.500000    0.00462963 105 t-inv F
  0.500000  0.333333  0.500000    0.00462963 106 t-inv F
 -0.333333  0.333333  0.500000    0.00462963 107 t-inv F
 -0.166667  0.333333  0.500000    0.00462963 108 t-inv F
  0.000000  0.500000  0.500000    0.00462963 109 t-inv F
  0.166667  0.500000  0.500000    0.00462963 110 t-inv F
  0.333333  0.500000  0.500000    0.00462963 111 t-inv F
  0.500000  0.500000  0.500000    0.00462963 112 t-inv F
 -0.166667 -0.000000  0.000000    0.00462963   2 t-inv T
 -0.333333 -0.000000  0.000000    0.00462963   3 t-inv T
 -0.000000 -0.166667  0.000000    0.00462963   5 t-inv T
 -0.166667 -0.166667  0.000000    0.00462963   6 t-inv T
 -0.333333 -0.166667  0.000000    0.00462963   7 t-inv T
 -0.500000 -0.166667  0.000000    0.00462963   8 t-inv T
  0.333333 -0.166667  0.000000    0.00462963   9 t-inv T
  0.166667 -0.166667 -0.000000    0.00462963  10 t-inv T
 -0.000000 -0.333333  0.000000    0.00462963  11 t-inv T
 -0.166667 -0.333333  0.000000    0.00462963  12 t-inv T
 -0.333333 -0.333333  0.000000    0.00462963  13 t-inv T
 -0.500000 -0.333333  0.000000    0.00462963  14 t-inv T
  0.333333 -0.333333 -0.000000    0.00462963  15 t-inv T
  0.166667 -0.333333 -0.000000    0.00462963  16 t-inv T
 -0.166667 -0.500000  0.000000    0.00462963  18 t-inv T
 -0.333333 -0.500000  0.000000    0.00462963  19 t-inv T
  0.000000 -0.000000 -0.166667    0.00462963  21 t-inv T
 -0.166667 -0.000000 -0.166667    0.00462963  22 t-inv T
 -0.333333  0.000000 -0.166667    0.00462963  23 t-inv T
 -0.500000 -0.000000 -0.166667    0.00462963  24 t-inv T
  0.333333  0.000000 -0.166667    0.00462963  25 t-inv T
  0.166667  0.000000 -0.166667    0.00462963  26 t-inv T
  0.000000 -0.166667 -0.166667    0.00462963  27 t-inv T
 -0.166667 -0.166667 -0.166667    0.00462963  28 t-inv T
 -0.333333 -0.166667 -0.166667    0.00462963  29 t-inv T
 -0.500000 -0.166667 -0.166667    0.00462963  30 t-inv T
  0.333333 -0.166667 -0.166667    0.00462963  31 t-inv T
  0.166667 -0.166667 -0.166667    0.00462963  32 t-inv T
 -0.000000 -0.333333 -0.166667    0.00462963  33 t-inv T
 -0.166667 -0.333333 -0.166667    0.00462963  34 t-inv T
 -0.333333 -0.333333 -0.166667    0.00462963  35 t-inv T
 -0.500000 -0.333333 -0.166667    0.00462963  36 t-inv T
  0.333333 -0.333333 -0.166667    0.00462963  37 t-inv T
  0.166667 -0.333333 -0.166667    0.00462963  38 t-inv T
 -0.000000 -0.500000 -0.166667    0.00462963  39 t-inv T
 -0.166667 -0.500000 -0.166667    0.00462963  40 t-inv T
 -0.333333 -0.500000 -0.166667    0.00462963  41 t-inv T
 -0.500000 -0.500000 -0.166667    0.00462963  42 t-inv T
  0.333333 -0.500000 -0.166667    0.00462963  43 t-inv T
  0.166667 -0.500000 -0.166667    0.00462963  44 t-inv T
  0.000000  0.333333 -0.166667    0.00462963  45 t-inv T
 -0.166667  0.333333 -0.166667    0.00462963  46 t-inv T
 -0.333333  0.333333 -0.166667    0.00462963  47 t-inv T
 -0.500000  0.333333 -0.166667    0.00462963  48 t-inv T
  0.333333  0.333333 -0.166667    0.00462963  49 t-inv T
  0.166667  0.333333 -0.166667    0.00462963  50 t-inv T
  0.000000  0.166667 -0.166667    0.00462963  51 t-inv T
 -0.166667  0.166667 -0.166667    0.00462963  52 t-inv T
 -0.333333  0.166667 -0.166667    0.00462963  53 t-inv T
 -0.500000  0.166667 -0.166667    0.00462963  54 t-inv T
  0.333333  0.166667 -0.166667    0.00462963  55 t-inv T
  0.166667  0.166667 -0.166667    0.00462963  56 t-inv T
  0.000000 -0.000000 -0.333333    0.00462963  57 t-inv T
 -0.166667 -0.000000 -0.333333    0.00462963  58 t-inv T
 -0.333333 -0.000000 -0.333333    0.00462963  59 t-inv T
 -0.500000  0.000000 -0.333333    0.00462963  60 t-inv T
  0.333333 -0.000000 -0.333333    0.00462963  61 t-inv T
  0.166667 -0.000000 -0.333333    0.00462963  62 t-inv T
  0.000000 -0.166667 -0.333333    0.00462963  63 t-inv T
 -0.166667 -0.166667 -0.333333    0.00462963  64 t-inv T
 -0.333333 -0.166667 -0.333333    0.00462963  65 t-inv T
 -0.500000 -0.166667 -0.333333    0.00462963  66 t-inv T
  0.333333 -0.166667 -0.333333    0.00462963  67 t-inv T
  0.166667 -0.166667 -0.333333    0.00462963  68 t-inv T
  0.000000 -0.333333 -0.333333    0.00462963  69 t-inv T
 -0.166667 -0.333333 -0.333333    0.00462963  70 t-inv T
 -0.333333 -0.333333 -0.333333    0.00462963  71 t-inv T
 -0.500000 -0.333333 -0.333333    0.00462963  72 t-inv T
  0.333333 -0.333333 -0.333333    0.00462963  73 t-inv T
  0.166667 -0.333333 -0.333333    0.00462963  74 t-inv T
  0.000000 -0.500000 -0.333333    0.00462963  75 t-inv T
 -0.166667 -0.500000 -0.333333    0.00462963  76 t-inv T
 -0.333333 -0.500000 -0.333333    0.00462963  77 t-inv T
 -0.500000 -0.500000 -0.333333    0.00462963  78 t-inv T
  0.333333 -0.500000 -0.333333    0.00462963  79 t-inv T
  0.166667 -0.500000 -0.333333    0.00462963  80 t-inv T
  0.000000  0.333333 -0.333333    0.00462963  81 t-inv T
 -0.166667  0.333333 -0.333333    0.00462963  82 t-inv T
 -0.333333  0.333333 -0.333333    0.00462963  83 t-inv T
 -0.500000  0.333333 -0.333333    0.00462963  84 t-inv T
  0.333333  0.333333 -0.333333    0.00462963  85 t-inv T
  0.166667  0.333333 -0.333333    0.00462963  86 t-inv T
  0.000000  0.166667 -0.333333    0.00462963  87 t-inv T
 -0.166667  0.166667 -0.333333    0.00462963  88 t-inv T
 -0.333333  0.166667 -0.333333    0.00462963  89 t-inv T
 -0.500000  0.166667 -0.333333    0.00462963  90 t-inv T
  0.333333  0.166667 -0.333333    0.00462963  91 t-inv T
  0.166667  0.166667 -0.333333    0.00462963  92 t-inv T
 -0.166667  0.000000 -0.500000    0.00462963  94 t-inv T
 -0.333333 -0.000000 -0.500000    0.00462963  95 t-inv T
  0.000000 -0.166667 -0.500000    0.00462963  97 t-inv T
 -0.166667 -0.166667 -0.500000    0.00462963  98 t-inv T
 -0.333333 -0.166667 -0.500000    0.00462963  99 t-inv T
 -0.500000 -0.166667 -0.500000    0.00462963 100 t-inv T
  0.333333 -0.166667 -0.500000    0.00462963 101 t-inv T
  0.166667 -0.166667 -0.500000    0.00462963 102 t-inv T
  0.000000 -0.333333 -0.500000    0.00462963 103 t-inv T
 -0.166667 -0.333333 -0.500000    0.00462963 104 t-inv T
 -0.333333 -0.333333 -0.500000    0.00462963 105 t-inv T
 -0.500000 -0.333333 -0.500000    0.00462963 106 t-inv T
  0.333333 -0.333333 -0.500000    0.00462963 107 t-inv T
  0.166667 -0.333333 -0.500000    0.00462963 108 t-inv T
 -0.166667 -0.500000 -0.500000    0.00462963 110 t-inv T
 -0.333333 -0.500000 -0.500000    0.00462963 111 t-inv T


--------------------------------------------------------------------------------------------------------




 Dimension of arrays:
   k-points           NKPTS =    112   k-points in BZ     NKDIM =    216   number of bands    NBANDS=    128
   number of dos      NEDOS =    301   number of ions     NIONS =      1
   non local maximal  LDIM  =      6   non local SUM 2l+1 LMDIM =     18
   total plane-waves  NPLWV =   8000
   max r-space proj   IRMAX =      1   max aug-charges    IRDMAX=  35530
   dimension x,y,z NGX =    20 NGY =   20 NGZ =   20
   dimension x,y,z NGXF=    40 NGYF=   40 NGZF=   40
   support grid    NGXF=    80 NGYF=   80 NGZF=   80
   ions per type =               1
   NGX,Y,Z   is equivalent  to a cutoff of   9.24,  9.24,  9.24 a.u.
   NGXF,Y,Z  is equivalent  to a cutoff of  18.47, 18.47, 18.47 a.u.

 SYSTEM =  Og_FCC                                  
 POSCAR =  Ar_FCC                                  

 Startparameter for this run:
   NWRITE =      1    write-flag & timer
   PREC   = accura    normal or accurate (medium, high low for compatibility)
   ISTART =      1    job   : 0-new  1-cont  2-samecut
   ICHARG =      0    charge: 1-file 2-atom 10-const
   ISPIN  =      1    spin polarized calculation?
   LNONCOLLINEAR =      F non collinear calculations
   LSORBIT =      F    spin-orbit coupling
   INIWAV =      1    electr: 0-lowe 1-rand  2-diag
   LASPH  =      F    aspherical Exc in radial PAW
   METAGGA=      F    non-selfconsistent MetaGGA calc.

 Electronic Relaxation 1
   ENCUT  =  300.0 eV  22.05 Ry    4.70 a.u.   5.08  5.08  5.08*2*pi/ulx,y,z
   ENINI  =  300.0     initial cutoff
   ENAUG  =  799.9 eV  augmentation charge cutoff
   NELM   =      1;   NELMIN=  2; NELMDL=  0     # of ELM steps 
   EDIFF  = 0.1E-07   stopping-criterion for ELM
   LREAL  =      F    real-space projection
   NLSPLINE    = F    spline interpolate recip. space projectors
   LCOMPAT=      F    compatible to vasp.4.4
   GGA_COMPAT  = F    GGA compatible to vasp.4.4-vasp.4.6
   LMAXPAW     = -100 max onsite density
   LMAXMIX     =    2 max onsite mixed and CHGCAR
   VOSKOWN=      0    Vosko Wilk Nusair interpolation
   ROPT   =    0.00000
 Ionic relaxation
   EDIFFG = 0.1E-04   stopping-criterion for IOM
   NSW    =      1    number of steps for IOM
   NBLOCK =      1;   KBLOCK =      1    inner block; outer block 
   IBRION =     -1    ionic relax: 0-MD 1-quasi-New 2-CG
   NFREE  =      5    steps in history (QN), initial steepest desc. (CG)
   ISIF   =      3    stress and relaxation
   IWAVPR =     10    prediction:  0-non 1-charg 2-wave 3-comb
   ISYM   =      0    0-nonsym 1-usesym 2-fastsym
   LCORR  =      T    Harris-Foulkes like correction to forces

   POTIM  = 0.1000    time-step for ionic-motion
   TEIN   =    0.0    initial temperature
   TEBEG  =    0.0;   TEEND  =   0.0 temperature during run
   SMASS  =  -3.00    Nose mass-parameter (am)
   estimated Nose-frequenzy (Omega)   =  0.10E-29 period in steps =****** mass=  -0.296E-27a.u.
   SCALEE = 1.0000    scale energy and forces
   NPACO  =    256;   APACO  = 16.0  distance and # of slots for P.C.
   PSTRESS=    0.0 pullay stress

  Mass of Ions in am
   POMASS =  39.95
  Ionic Valenz
   ZVAL   =   8.00
  Atomic Wigner-Seitz radii
   RWIGS  =  -1.00
  virtual crystal weights 
   VCA    =   1.00
   NELECT =       8.0000    total number of electrons
   NUPDOWN=      -1.0000    fix difference up-down

 DOS related values:
   EMIN   =  10.00;   EMAX   =-10.00  energy-range for DOS
   EFERMI =   0.00
   ISMEAR =     0;   SIGMA  =   0.00  broadening in eV -4-tet -1-fermi 0-gaus

 Electronic relaxation 2 (details)
   IALGO  =     38    algorithm
   LDIAG  =      T    sub-space diagonalisation (order eigenvalues)
   LSUBROT=      F    optimize rotation matrix (better conditioning)
   TURBO    =      0    0=normal 1=particle mesh
   IRESTART =      0    0=no restart 2=restart with 2 vectors
   NREBOOT  =      0    no. of reboots
   NMIN     =      0    reboot dimension
   EREF     =   0.00    reference energy to select bands
   IMIX   =      1    mixing-type and parameters
     AMIX     =   0.40;   BMIX     =  1.00
     AMIX_MAG =   1.60;   BMIX_MAG =  1.00
     AMIN     =   0.10
     WC   =   100.;   INIMIX=   1;  MIXPRE=   1;  MAXMIX=  50

 Intra band minimization:
   WEIMIN = 0.0000     energy-eigenvalue tresh-hold
   EBREAK =  0.20E-10  absolut break condition
   DEPER  =   0.30     relativ break condition  

   TIME   =   0.40     timestep for ELM

  volume/ion in A,a.u.               =      32.98       222.58
  Fermi-wavevector in a.u.,A,eV,Ry     =   1.020964  1.929343 14.182280  1.042368
  Thomas-Fermi vector in A             =   2.154563
 
 Write flags
   LWAVE        =      T    write WAVECAR
   LDOWNSAMPLE  =      F    k-point downsampling of WAVECAR
   LCHARG       =      F    write CHGCAR
   LVTOT        =      F    write LOCPOT, total local potential
   LVHAR        =      F    write LOCPOT, Hartree potential only
   LELF         =      F    write electronic localiz. function (ELF)
   LORBIT       =      0    0 simple, 1 ext, 2 COOP (PROOUT), +10 PAW based schemes


 Dipole corrections
   LMONO  =      F    monopole corrections only (constant potential shift)
   LDIPOL =      F    correct potential (dipole corrections)
   IDIPOL =      0    1-x, 2-y, 3-z, 4-all directions 
   EPSILON=  1.0000000 bulk dielectric constant

 Exchange correlation treatment:
   GGA     =    PE    GGA type
   LEXCH   =     8    internal setting for exchange type
   VOSKOWN=      0    Vosko Wilk Nusair interpolation
   EXXOEP  =     0    0=HF, 1=EXX-LHF (local Hartree Fock) 2=EXX OEP
   LHFCALC =     T    Hartree Fock is set to
   LSYMGRAD=     F    symmetrize gradient (conserves proper symmetry)
   PRECFOCK=normal    Normal, Fast or Accurate (Low or Medium for compatibility)
   LRHFCALC=     F    long range Hartree Fock
   LRSCOR  =     F    long range correlation only (use DFT for short range part)
   LTHOMAS =     F    Thomas Fermi screening in HF
   LMODELHF=     F    short range full HF, long range fraction AEXX
   ENCUT4O =  -1.0   cutoff for four orbital integrals eV
   LMAXFOCK=     4    L truncation for augmentation on plane wave grid
   LMAXFOCKAE=   4    L truncation for all-electron charge restoration on plane wave grid
   NMAXFOCKAE=   1    number of basis functions for all-electron charge restoration
   LFOCKAEDFT=     F  apply the AE augmentation even for DFT
   NKREDX  =     1    reduce k-point grid by
   NKREDY  =     1    reduce k-point grid by
   NKREDZ  =     1    reduce k-point grid by
   SHIFTRED=     F    shift reduced grid of Gamma
   HFKIDENT=     F    idential grid for each k-point
   ODDONLY =     F    use only odd q-grid points
   EVENONLY=     F    use only even q-grid points
   HFALPHA =   -1.0000 decay constant for conv. correction
   MCALPHA =    0.0000 extent of test-charge in conv. correction in multipole expansion
   AEXX    =    1.0000 exact exchange contribution
   HFSCREEN=    0.0000 screening length (either q_TF or 0.3 A-1)
   HFSCREENC=   0.0000 screening length for correlation (either q_TF or 0.3 A-1)
   HFRCUT  =    0.0000 spherical cutoff for potential kernel
   ALDAX   =    0.0000 LDA exchange part
   AGGAX   =    0.0000 GGA exchange part
   ALDAC   =    0.0000 LDA correlation
   AGGAC   =    0.0000 GGA correlation
   ENCUTFOCK=  -1.0 apply spherical cutoff to Coloumb kernel
   NBANDSGWLOW=     1    first orbital included in HF term
   NBLOCK_FOCK=    64    blocking factor in FOCK_ACC
 Linear response parameters
   LEPSILON=     F    determine dielectric tensor
   LRPA    =     F    only Hartree local field effects (RPA)
   LNABLA  =     F    use nabla operator in PAW spheres
   LVEL    =     F    velocity operator in full k-point grid
   LINTERFAST=   F  fast interpolation
   KINTER  =     0    interpolate to denser k-point grid
   CSHIFT  =0.1000    complex shift for real part using Kramers Kronig
   OMEGAMAX=  -1.0    maximum frequency
   DEG_THRESHOLD= 0.2000000E-02 threshold for treating states as degnerate
   RTIME   =   -0.100 relaxation time in fs
  (WPLASMAI=    0.000 imaginary part of plasma frequency in eV, 0.658/RTIME)
   DFIELD  = 0.0000000 0.0000000 0.0000000 field for delta impulse in time
 
 Orbital magnetization related:
   ORBITALMAG=     F  switch on orbital magnetization
   LCHIMAG   =     F  perturbation theory with respect to B field
   DQ        =  0.001000  dq finite difference perturbation B field
   LLRAUG    =     F  two centre corrections for induced B field

 Response functions by sum over occupied states:
   ALGO    =QPGW       execute GW part
   LFXC    =     F    include DFT xc kernel in TD-HF and W
   LADDER  =     F    particle hole ladder diagrams for BSE/TD-HF and W (Nano-quanta)
   LRPAFORCE=     F   calculate RPA forces
   LHARTREE=     T    include Hartree terms (bubbles-RPA) in BSE/TD-HF
   IBSE    =     0    BSE modus: 0 exact, 1 time-evolution (store matrix), 10 time-evolution (implicit)
   KPOINT  =    -1   0   0   0    k-point index at which BSE equation is solved (and G at which response is eval.)
   LTRIPLET=     F    triplet instead of singlet excitation (BSE only)
   LRSRPA  =     F    range separated RPA (total - short) in ACFDT
   LTCTE   =     F    use test-charge test-electron dielectric function
   LTETE   =     F    use test-electron test-electron dielectric function
   LFXCEPS =     F    determine f_xc=epsilon-1/Xi Sharma and Gross kernel
   LFXHEG  =     F    model exchange using f_x(G,k_F) from free electron gas
   NATURALO=     2    0 natural orbitals, 1 only virtual, 2 only occupied-virtual rotation
   L2ORDER =     F    2nd order terms only
   LMP2LT   =     F    use LT MP2
   LUSEW   =     F    use screened W from WXXXX.tmp files instead of (screened) HF kernel
   ENCUTGW = 200.0    cutoff for response function in eV
   ENCUTGWSOFT = 200.0 soft cutoff for Coulomb kernel in GW response function in eV
   ENCUTLF =  -1.0    cutoff for local field effects
   LMAXMP2 =    -1    maximum L for one center terms
   SCISSOR =   0.0    scissor correction
   NOMEGA  =    50    number of frequencies
   NOMEGAR =    50    number of frequencies along real axis
   NBANDSGW=    -1    number of bands for which selfenergy shift is calculated
   NBANDSGWLOW=     1 lowest band included in GW (to exclude core correlation)
   NBANDSO =    -1    number of bands for electron-hole treatment (occupied)
   NBANDSV =    -1    number of bands for electron-hole treatment (virtual)
   NELM    =     1    number of iterations in solving QP/BSE equation
   NELMHF  =     1    number of iterations in the inner HF iteration
   DIM     =     3    dimensionality of system (0=0D molecules, 3=3D)
   ANTIRES =     0    antiresonant part (0) no TDA (1) w=0 exact (2) accurate
   OMEGAMAX= -30.0    maximum frequency
   OMEGAMIN= -30.000    minimum frequency
   OMEGATL =-200.0    maximum frequency of tail
   OMEGAGRID=     0    grid type (0 default)
   CSHIFT  =-0.100    complex shift used in evaluation of response functions
   SELFENERGY=   F    calculate selfenergy instead of QP shifts
   LSPECTRAL =   T    use spectral functions                   
   LSPECTRALGW=   F   use spectral functions to calculate int dz G(w-z) W(z) (more accurate)
   LSINGLES  =   F   calculate the singles contribution to the correlation energy
   LFERMIGW  =   F   update Fermi-energy in the Greens function

   ODDONLYGW =   F    avoid all even points for polarizability 
   EVENONLYGW=   F    avoid all odd  points for polarizability 
   NKREDLFX  =   1   NKREDLFY  =   1   NKREDLFZ  =   1

   TELESCOPE =   0   use telescope k-point sampling
   TAUPAR    =   1   number of TAU groups used in imaginary time calculation
   OMEGAPAR  =  -1   number of OMEGA groups used in imaginary frequency calculation



--------------------------------------------------------------------------------------------------------


 Static calculation
 charge density and potential will be updated during run
 non-spin polarized calculation
 Variant of blocked Davidson
 Davidson routine will perform the subspace rotation
 perform sub-space diagonalisation
    after iterative eigenvector-optimisation
 Kerker-like  mixing scheme
 using additional bands          124
 reciprocal scheme for non local part
 use partial core corrections
 calculate Harris-corrections to forces 
   (improved forces if not selfconsistent)
 use gradient corrections 
 use of overlap-Matrix (Vanderbilt PP)
 Gauss-broadening in eV      SIGMA  =   0.00


--------------------------------------------------------------------------------------------------------


  energy-cutoff  :      300.00
  volume of cell :       32.98
      direct lattice vectors                 reciprocal lattice vectors
     3.599696745  0.000000000  0.000000000     0.277801179 -0.160388585 -0.113411856
     1.799848373  3.117428827 -0.000000000     0.000000000  0.320777171 -0.113411856
     1.799848373  1.039142942  2.939140085    -0.000000000  0.000000000  0.340235569

  length of vectors
     3.599696745  3.599696745  3.599696745     0.340235569  0.340235569  0.340235569


 
 old parameters found on file WAVECAR:
  energy-cutoff  :      300.00
  volume of cell :       32.98
      direct lattice vectors                 reciprocal lattice vectors
     3.599696745  0.000000000  0.000000000     0.277801179 -0.160388585 -0.113411856
     1.799848373  3.117428827 -0.000000000     0.000000000  0.320777171 -0.113411856
     1.799848373  1.039142942  2.939140085    -0.000000000  0.000000000  0.340235569

  length of vectors

 
 k-points in units of 2pi/SCALE and weight: k-points                                
   0.00000000  0.00000000  0.00000000       0.005
   0.04630020 -0.02673143 -0.01890198       0.009
   0.09260039 -0.05346286 -0.03780395       0.009
   0.13890059 -0.08019429 -0.05670593       0.005
   0.00000000  0.05346286 -0.01890198       0.009
   0.04630020  0.02673143 -0.03780395       0.009
   0.09260039  0.00000000 -0.05670593       0.009
   0.13890059 -0.02673143 -0.07560790       0.009
  -0.09260039  0.10692572  0.01890198       0.009
  -0.04630020  0.08019429  0.00000000       0.009
   0.00000000  0.10692572 -0.03780395       0.009
   0.04630020  0.08019429 -0.05670593       0.009
   0.09260039  0.05346286 -0.07560790       0.009
   0.13890059  0.02673143 -0.09450988       0.009
  -0.09260039  0.16038859  0.00000000       0.009
  -0.04630020  0.13365715 -0.01890198       0.009
   0.00000000  0.16038859 -0.05670593       0.005
   0.04630020  0.13365715 -0.07560790       0.009
   0.09260039  0.10692572 -0.09450988       0.009
   0.13890059  0.08019429 -0.11341186       0.005
  -0.00000000  0.00000000  0.05670593       0.009
   0.04630020 -0.02673143  0.03780395       0.009
   0.09260039 -0.05346286  0.01890198       0.009
   0.13890059 -0.08019429 -0.00000000       0.009
  -0.09260039  0.05346286  0.09450988       0.009
  -0.04630020  0.02673143  0.07560790       0.009
  -0.00000000  0.05346286  0.03780395       0.009
   0.04630020  0.02673143  0.01890198       0.009
   0.09260039  0.00000000  0.00000000       0.009
   0.13890059 -0.02673143 -0.01890198       0.009
  -0.09260039  0.10692572  0.07560790       0.009
  -0.04630020  0.08019429  0.05670593       0.009
  -0.00000000  0.10692572  0.01890198       0.009
   0.04630020  0.08019429  0.00000000       0.009
   0.09260039  0.05346286 -0.01890198       0.009
   0.13890059  0.02673143 -0.03780395       0.009
  -0.09260039  0.16038859  0.05670593       0.009
  -0.04630020  0.13365715  0.03780395       0.009
  -0.00000000  0.16038859  0.00000000       0.009
   0.04630020  0.13365715 -0.01890198       0.009
   0.09260039  0.10692572 -0.03780395       0.009
   0.13890059  0.08019429 -0.05670593       0.009
  -0.09260039  0.21385145  0.03780395       0.009
  -0.04630020  0.18712002  0.01890198       0.009
  -0.00000000 -0.10692572  0.09450988       0.009
   0.04630020 -0.13365715  0.07560790       0.009
   0.09260039 -0.16038859  0.05670593       0.009
   0.13890059 -0.18712002  0.03780395       0.009
  -0.09260039 -0.05346286  0.13231383       0.009
  -0.04630020 -0.08019429  0.11341186       0.009
  -0.00000000 -0.05346286  0.07560790       0.009
   0.04630020 -0.08019429  0.05670593       0.009
   0.09260039 -0.10692572  0.03780395       0.009
   0.13890059 -0.13365715  0.01890198       0.009
  -0.09260039 -0.00000000  0.11341186       0.009
  -0.04630020 -0.02673143  0.09450988       0.009
  -0.00000000  0.00000000  0.11341186       0.009
   0.04630020 -0.02673143  0.09450988       0.009
   0.09260039 -0.05346286  0.07560790       0.009
   0.13890059 -0.08019429  0.05670593       0.009
  -0.09260039  0.05346286  0.15121581       0.009
  -0.04630020  0.02673143  0.13231383       0.009
  -0.00000000  0.05346286  0.09450988       0.009
   0.04630020  0.02673143  0.07560790       0.009
   0.09260039  0.00000000  0.05670593       0.009
   0.13890059 -0.02673143  0.03780395       0.009
  -0.09260039  0.10692572  0.13231383       0.009
  -0.04630020  0.08019429  0.11341186       0.009
  -0.00000000  0.10692572  0.07560790       0.009
   0.04630020  0.08019429  0.05670593       0.009
   0.09260039  0.05346286  0.03780395       0.009
   0.13890059  0.02673143  0.01890198       0.009
  -0.09260039  0.16038859  0.11341186       0.009
  -0.04630020  0.13365715  0.09450988       0.009
  -0.00000000  0.16038859  0.05670593       0.009
   0.04630020  0.13365715  0.03780395       0.009
   0.09260039  0.10692572  0.01890198       0.009
   0.13890059  0.08019429  0.00000000       0.009
  -0.09260039  0.21385145  0.09450988       0.009
  -0.04630020  0.18712002  0.07560790       0.009
  -0.00000000 -0.10692572  0.15121581       0.009
   0.04630020 -0.13365715  0.13231383       0.009
   0.09260039 -0.16038859  0.11341186       0.009
   0.13890059 -0.18712002  0.09450988       0.009
  -0.09260039 -0.05346286  0.18901976       0.009
  -0.04630020 -0.08019429  0.17011778       0.009
  -0.00000000 -0.05346286  0.13231383       0.009
   0.04630020 -0.08019429  0.11341186       0.009
   0.09260039 -0.10692572  0.09450988       0.009
   0.13890059 -0.13365715  0.07560790       0.009
  -0.09260039 -0.00000000  0.17011778       0.009
  -0.04630020 -0.02673143  0.15121581       0.009
  -0.00000000  0.00000000  0.17011778       0.005
   0.04630020 -0.02673143  0.15121581       0.009
   0.09260039 -0.05346286  0.13231383       0.009
   0.13890059 -0.08019429  0.11341186       0.005
  -0.00000000  0.05346286  0.15121581       0.009
   0.04630020  0.02673143  0.13231383       0.009
   0.09260039  0.00000000  0.11341186       0.009
   0.13890059 -0.02673143  0.09450988       0.009
  -0.09260039  0.10692572  0.18901976       0.009
  -0.04630020  0.08019429  0.17011778       0.009
  -0.00000000  0.10692572  0.13231383       0.009
   0.04630020  0.08019429  0.11341186       0.009
   0.09260039  0.05346286  0.09450988       0.009
   0.13890059  0.02673143  0.07560790       0.009
  -0.09260039  0.16038859  0.17011778       0.009
  -0.04630020  0.13365715  0.15121581       0.009
  -0.00000000  0.16038859  0.11341186       0.005
   0.04630020  0.13365715  0.09450988       0.009
   0.09260039  0.10692572  0.07560790       0.009
   0.13890059  0.08019429  0.05670593       0.005
 
 k-points in reciprocal lattice and weights: k-points                                
   0.00000000  0.00000000  0.00000000       0.005
   0.16666667  0.00000000 -0.00000000       0.009
   0.33333333  0.00000000 -0.00000000       0.009
   0.50000000  0.00000000 -0.00000000       0.005
   0.00000000  0.16666667 -0.00000000       0.009
   0.16666667  0.16666667 -0.00000000       0.009
   0.33333333  0.16666667 -0.00000000       0.009
   0.50000000  0.16666667 -0.00000000       0.009
  -0.33333333  0.16666667 -0.00000000       0.009
  -0.16666667  0.16666667  0.00000000       0.009
   0.00000000  0.33333333  0.00000000       0.009
   0.16666667  0.33333333 -0.00000000       0.009
   0.33333333  0.33333333 -0.00000000       0.009
   0.50000000  0.33333333 -0.00000000       0.009
  -0.33333333  0.33333333  0.00000000       0.009
  -0.16666667  0.33333333  0.00000000       0.009
   0.00000000  0.50000000 -0.00000000       0.005
   0.16666667  0.50000000  0.00000000       0.009
   0.33333333  0.50000000  0.00000000       0.009
   0.50000000  0.50000000 -0.00000000       0.005
  -0.00000000  0.00000000  0.16666667       0.009
   0.16666667  0.00000000  0.16666667       0.009
   0.33333333 -0.00000000  0.16666667       0.009
   0.50000000  0.00000000  0.16666667       0.009
  -0.33333333 -0.00000000  0.16666667       0.009
  -0.16666667 -0.00000000  0.16666667       0.009
   0.00000000  0.16666667  0.16666667       0.009
   0.16666667  0.16666667  0.16666667       0.009
   0.33333333  0.16666667  0.16666667       0.009
   0.50000000  0.16666667  0.16666667       0.009
  -0.33333333  0.16666667  0.16666667       0.009
  -0.16666667  0.16666667  0.16666667       0.009
   0.00000000  0.33333333  0.16666667       0.009
   0.16666667  0.33333333  0.16666667       0.009
   0.33333333  0.33333333  0.16666667       0.009
   0.50000000  0.33333333  0.16666667       0.009
  -0.33333333  0.33333333  0.16666667       0.009
  -0.16666667  0.33333333  0.16666667       0.009
   0.00000000  0.50000000  0.16666667       0.009
   0.16666667  0.50000000  0.16666667       0.009
   0.33333333  0.50000000  0.16666667       0.009
   0.50000000  0.50000000  0.16666667       0.009
  -0.33333333  0.50000000  0.16666667       0.009
  -0.16666667  0.50000000  0.16666667       0.009
   0.00000000 -0.33333333  0.16666667       0.009
   0.16666667 -0.33333333  0.16666667       0.009
   0.33333333 -0.33333333  0.16666667       0.009
   0.50000000 -0.33333333  0.16666667       0.009
  -0.33333333 -0.33333333  0.16666667       0.009
  -0.16666667 -0.33333333  0.16666667       0.009
   0.00000000 -0.16666667  0.16666667       0.009
   0.16666667 -0.16666667  0.16666667       0.009
   0.33333333 -0.16666667  0.16666667       0.009
   0.50000000 -0.16666667  0.16666667       0.009
  -0.33333333 -0.16666667  0.16666667       0.009
  -0.16666667 -0.16666667  0.16666667       0.009
   0.00000000  0.00000000  0.33333333       0.009
   0.16666667  0.00000000  0.33333333       0.009
   0.33333333  0.00000000  0.33333333       0.009
   0.50000000 -0.00000000  0.33333333       0.009
  -0.33333333  0.00000000  0.33333333       0.009
  -0.16666667  0.00000000  0.33333333       0.009
  -0.00000000  0.16666667  0.33333333       0.009
   0.16666667  0.16666667  0.33333333       0.009
   0.33333333  0.16666667  0.33333333       0.009
   0.50000000  0.16666667  0.33333333       0.009
  -0.33333333  0.16666667  0.33333333       0.009
  -0.16666667  0.16666667  0.33333333       0.009
  -0.00000000  0.33333333  0.33333333       0.009
   0.16666667  0.33333333  0.33333333       0.009
   0.33333333  0.33333333  0.33333333       0.009
   0.50000000  0.33333333  0.33333333       0.009
  -0.33333333  0.33333333  0.33333333       0.009
  -0.16666667  0.33333333  0.33333333       0.009
  -0.00000000  0.50000000  0.33333333       0.009
   0.16666667  0.50000000  0.33333333       0.009
   0.33333333  0.50000000  0.33333333       0.009
   0.50000000  0.50000000  0.33333333       0.009
  -0.33333333  0.50000000  0.33333333       0.009
  -0.16666667  0.50000000  0.33333333       0.009
  -0.00000000 -0.33333333  0.33333333       0.009
   0.16666667 -0.33333333  0.33333333       0.009
   0.33333333 -0.33333333  0.33333333       0.009
   0.50000000 -0.33333333  0.33333333       0.009
  -0.33333333 -0.33333333  0.33333333       0.009
  -0.16666667 -0.33333333  0.33333333       0.009
  -0.00000000 -0.16666667  0.33333333       0.009
   0.16666667 -0.16666667  0.33333333       0.009
   0.33333333 -0.16666667  0.33333333       0.009
   0.50000000 -0.16666667  0.33333333       0.009
  -0.33333333 -0.16666667  0.33333333       0.009
  -0.16666667 -0.16666667  0.33333333       0.009
  -0.00000000  0.00000000  0.50000000       0.005
   0.16666667 -0.00000000  0.50000000       0.009
   0.33333333  0.00000000  0.50000000       0.009
   0.50000000  0.00000000  0.50000000       0.005
   0.00000000  0.16666667  0.50000000       0.009
   0.16666667  0.16666667  0.50000000       0.009
   0.33333333  0.16666667  0.50000000       0.009
   0.50000000  0.16666667  0.50000000       0.009
  -0.33333333  0.16666667  0.50000000       0.009
  -0.16666667  0.16666667  0.50000000       0.009
  -0.00000000  0.33333333  0.50000000       0.009
   0.16666667  0.33333333  0.50000000       0.009
   0.33333333  0.33333333  0.50000000       0.009
   0.50000000  0.33333333  0.50000000       0.009
  -0.33333333  0.33333333  0.50000000       0.009
  -0.16666667  0.33333333  0.50000000       0.009
   0.00000000  0.50000000  0.50000000       0.005
   0.16666667  0.50000000  0.50000000       0.009
   0.33333333  0.50000000  0.50000000       0.009
   0.50000000  0.50000000  0.50000000       0.005
 
 position of ions in fractional coordinates (direct lattice) 
   0.00000000  0.00000000  0.00000000
 
 position of ions in cartesian coordinates  (Angst):
   0.00000000  0.00000000  0.00000000
 


--------------------------------------------------------------------------------------------------------


 k-point  1 :   0.0000 0.0000 0.0000  plane waves:     387
 k-point  2 :   0.1667 0.0000-0.0000  plane waves:     380
 k-point  3 :   0.3333 0.0000-0.0000  plane waves:     389
 k-point  4 :   0.5000 0.0000-0.0000  plane waves:     392
 k-point  5 :   0.0000 0.1667-0.0000  plane waves:     380
 k-point  6 :   0.1667 0.1667-0.0000  plane waves:     371
 k-point  7 :   0.3333 0.1667-0.0000  plane waves:     390
 k-point  8 :   0.5000 0.1667-0.0000  plane waves:     393
 k-point  9 :  -0.3333 0.1667-0.0000  plane waves:     389
 k-point 10 :  -0.1667 0.1667 0.0000  plane waves:     385
 k-point 11 :   0.0000 0.3333 0.0000  plane waves:     389
 k-point 12 :   0.1667 0.3333-0.0000  plane waves:     390
 k-point 13 :   0.3333 0.3333-0.0000  plane waves:     387
 k-point 14 :   0.5000 0.3333-0.0000  plane waves:     392
 k-point 15 :  -0.3333 0.3333 0.0000  plane waves:     389
 k-point 16 :  -0.1667 0.3333 0.0000  plane waves:     389
 k-point 17 :   0.0000 0.5000-0.0000  plane waves:     392
 k-point 18 :   0.1667 0.5000 0.0000  plane waves:     393
 k-point 19 :   0.3333 0.5000 0.0000  plane waves:     392
 k-point 20 :   0.5000 0.5000-0.0000  plane waves:     388
 k-point 21 :  -0.0000 0.0000 0.1667  plane waves:     380
 k-point 22 :   0.1667 0.0000 0.1667  plane waves:     371
 k-point 23 :   0.3333-0.0000 0.1667  plane waves:     390
 k-point 24 :   0.5000 0.0000 0.1667  plane waves:     393
 k-point 25 :  -0.3333-0.0000 0.1667  plane waves:     389
 k-point 26 :  -0.1667-0.0000 0.1667  plane waves:     385
 k-point 27 :   0.0000 0.1667 0.1667  plane waves:     371
 k-point 28 :   0.1667 0.1667 0.1667  plane waves:     380
 k-point 29 :   0.3333 0.1667 0.1667  plane waves:     385
 k-point 30 :   0.5000 0.1667 0.1667  plane waves:     389
 k-point 31 :  -0.3333 0.1667 0.1667  plane waves:     393
 k-point 32 :  -0.1667 0.1667 0.1667  plane waves:     390
 k-point 33 :   0.0000 0.3333 0.1667  plane waves:     390
 k-point 34 :   0.1667 0.3333 0.1667  plane waves:     385
 k-point 35 :   0.3333 0.3333 0.1667  plane waves:     390
 k-point 36 :   0.5000 0.3333 0.1667  plane waves:     397
 k-point 37 :  -0.3333 0.3333 0.1667  plane waves:     394
 k-point 38 :  -0.1667 0.3333 0.1667  plane waves:     397
 k-point 39 :   0.0000 0.5000 0.1667  plane waves:     393
 k-point 40 :   0.1667 0.5000 0.1667  plane waves:     389
 k-point 41 :   0.3333 0.5000 0.1667  plane waves:     397
 k-point 42 :   0.5000 0.5000 0.1667  plane waves:     392
 k-point 43 :  -0.3333 0.5000 0.1667  plane waves:     388
 k-point 44 :  -0.1667 0.5000 0.1667  plane waves:     394
 k-point 45 :   0.0000-0.3333 0.1667  plane waves:     389
 k-point 46 :   0.1667-0.3333 0.1667  plane waves:     393
 k-point 47 :   0.3333-0.3333 0.1667  plane waves:     394
 k-point 48 :   0.5000-0.3333 0.1667  plane waves:     388
 k-point 49 :  -0.3333-0.3333 0.1667  plane waves:     392
 k-point 50 :  -0.1667-0.3333 0.1667  plane waves:     397
 k-point 51 :   0.0000-0.1667 0.1667  plane waves:     385
 k-point 52 :   0.1667-0.1667 0.1667  plane waves:     390
 k-point 53 :   0.3333-0.1667 0.1667  plane waves:     397
 k-point 54 :   0.5000-0.1667 0.1667  plane waves:     394
 k-point 55 :  -0.3333-0.1667 0.1667  plane waves:     397
 k-point 56 :  -0.1667-0.1667 0.1667  plane waves:     390
 k-point 57 :   0.0000 0.0000 0.3333  plane waves:     389
 k-point 58 :   0.1667 0.0000 0.3333  plane waves:     390
 k-point 59 :   0.3333 0.0000 0.3333  plane waves:     387
 k-point 60 :   0.5000-0.0000 0.3333  plane waves:     392
 k-point 61 :  -0.3333 0.0000 0.3333  plane waves:     389
 k-point 62 :  -0.1667 0.0000 0.3333  plane waves:     389
 k-point 63 :  -0.0000 0.1667 0.3333  plane waves:     390
 k-point 64 :   0.1667 0.1667 0.3333  plane waves:     385
 k-point 65 :   0.3333 0.1667 0.3333  plane waves:     390
 k-point 66 :   0.5000 0.1667 0.3333  plane waves:     397
 k-point 67 :  -0.3333 0.1667 0.3333  plane waves:     394
 k-point 68 :  -0.1667 0.1667 0.3333  plane waves:     397
 k-point 69 :  -0.0000 0.3333 0.3333  plane waves:     387
 k-point 70 :   0.1667 0.3333 0.3333  plane waves:     390
 k-point 71 :   0.3333 0.3333 0.3333  plane waves:     389
 k-point 72 :   0.5000 0.3333 0.3333  plane waves:     389
 k-point 73 :  -0.3333 0.3333 0.3333  plane waves:     389
 k-point 74 :  -0.1667 0.3333 0.3333  plane waves:     392
 k-point 75 :  -0.0000 0.5000 0.3333  plane waves:     392
 k-point 76 :   0.1667 0.5000 0.3333  plane waves:     397
 k-point 77 :   0.3333 0.5000 0.3333  plane waves:     389
 k-point 78 :   0.5000 0.5000 0.3333  plane waves:     393
 k-point 79 :  -0.3333 0.5000 0.3333  plane waves:     394
 k-point 80 :  -0.1667 0.5000 0.3333  plane waves:     388
 k-point 81 :  -0.0000-0.3333 0.3333  plane waves:     389
 k-point 82 :   0.1667-0.3333 0.3333  plane waves:     394
 k-point 83 :   0.3333-0.3333 0.3333  plane waves:     389
 k-point 84 :   0.5000-0.3333 0.3333  plane waves:     394
 k-point 85 :  -0.3333-0.3333 0.3333  plane waves:     389
 k-point 86 :  -0.1667-0.3333 0.3333  plane waves:     394
 k-point 87 :  -0.0000-0.1667 0.3333  plane waves:     389
 k-point 88 :   0.1667-0.1667 0.3333  plane waves:     397
 k-point 89 :   0.3333-0.1667 0.3333  plane waves:     392
 k-point 90 :   0.5000-0.1667 0.3333  plane waves:     388
 k-point 91 :  -0.3333-0.1667 0.3333  plane waves:     394
 k-point 92 :  -0.1667-0.1667 0.3333  plane waves:     393
 k-point 93 :  -0.0000 0.0000 0.5000  plane waves:     392
 k-point 94 :   0.1667-0.0000 0.5000  plane waves:     393
 k-point 95 :   0.3333 0.0000 0.5000  plane waves:     392
 k-point 96 :   0.5000 0.0000 0.5000  plane waves:     388
 k-point 97 :   0.0000 0.1667 0.5000  plane waves:     393
 k-point 98 :   0.1667 0.1667 0.5000  plane waves:     389
 k-point 99 :   0.3333 0.1667 0.5000  plane waves:     397
 k-point ** :   0.5000 0.1667 0.5000  plane waves:     392
 k-point ** :  -0.3333 0.1667 0.5000  plane waves:     388
 k-point ** :  -0.1667 0.1667 0.5000  plane waves:     394
 k-point ** :  -0.0000 0.3333 0.5000  plane waves:     392
 k-point ** :   0.1667 0.3333 0.5000  plane waves:     397
 k-point ** :   0.3333 0.3333 0.5000  plane waves:     389
 k-point ** :   0.5000 0.3333 0.5000  plane waves:     393
 k-point ** :  -0.3333 0.3333 0.5000  plane waves:     394
 k-point ** :  -0.1667 0.3333 0.5000  plane waves:     388
 k-point ** :   0.0000 0.5000 0.5000  plane waves:     388
 k-point ** :   0.1667 0.5000 0.5000  plane waves:     392
 k-point ** :   0.3333 0.5000 0.5000  plane waves:     393
 k-point ** :   0.5000 0.5000 0.5000  plane waves:     392

 maximum and minimum number of plane-waves per node :       397      371

 maximum number of plane-waves:       397
 maximum index in each direction: 
   IXMAX=    5   IYMAX=    5   IZMAX=    5
   IXMIN=   -5   IYMIN=   -5   IZMIN=   -5


 serial   3D FFT for wavefunctions
 parallel 3D FFT for charge:
    minimum data exchange during FFTs selected (reduces bandwidth)


 FFT grid for exact exchange (Hartree Fock) 
  NGX = 16; NGY = 16; NGZ = 16

 
 Radii for the augmentation spheres in the non-local exchange
 for species   1 augmentation radius   0.808 (default was   0.808)
 error exchange integrals (PW-AE in eV) (mean, max) 0.415 3.074 density error[0,qmax] 0.0085
 Maximum index for augmentation-charges in exchange          249
  SETUP_FOCK is finished

 total amount of memory used by VASP MPI-rank0    96584. kBytes
=======================================================================

   base      :      30000. kBytes
   nonl-proj :       6425. kBytes
   fftplans  :       9376. kBytes
   grid      :       2816. kBytes
   one-center:         15. kBytes
   HF        :        129. kBytes
   nonlr-proj:        113. kBytes
   wavefun   :      47710. kBytes
 
     INWAV:  cpu time    1.1216: real time    1.1312
 charge density for first step will be calculated from the start-wavefunctions


--------------------------------------------------------------------------------------------------------


 Maximum index for augmentation-charges        17023 (set IRDMAX)


--------------------------------------------------------------------------------------------------------


 initial charge from wavefunction
    FEWALD:  cpu time    0.0053: real time    0.0053

 The Fermi energy was updated, please check that it is located mid-gap
 values below the HOMO (VB) or above the LUMO (CB) will cause erroneous energies
 E-fermi :   0.0349

 Response functions by sum over occupied states:
 ===============================================
   NOMEGA  =    50    number of frequencies
   NOMEGAR =    50    number of frequencies along real axis
   OMEGAMAX=  18.37   maximum frequency
   OMEGAMIN=   4.40   minimum frequency
   OMEGATL = 238.78   maximum frequency of tail
   CSHIFT  =  0.478   complex shift used in evaluation of response functions


 Energies iw= 
 ============
   0.000   0.000   0.803   0.000   1.603   0.000   2.398   0.000   3.184   0.000
   3.959   0.000   4.723   0.000   5.474   0.000   6.211   0.000   6.935   0.000
   7.647   0.000   8.347   0.000   9.037   0.000   9.718   0.000  10.392   0.000
  11.061   0.000  11.728   0.000  12.394   0.000  13.062   0.000  13.736   0.000
  14.417   0.000  15.109   0.000  15.816   0.000  16.542   0.000  17.290   0.000
  18.065   0.000  18.873   0.000  19.721   0.000  20.615   0.000  21.564   0.000
  22.579   0.000  23.670   0.000  24.855   0.000  26.149   0.000  27.576   0.000
  29.163   0.000  30.948   0.000  32.974   0.000  35.306   0.000  38.023   0.000
  41.240   0.000  45.114   0.000  49.881   0.000  55.891   0.000  63.707   0.000
  74.281   0.000  89.363   0.000 112.565   0.000 152.732   0.000 238.782   0.000
 

IMPORTANT INFORMATION: All symmetrisations will be switched off!
NOSYMM: (Re-)initialisation of all symmetry stuff for point group C_1.

 
 KPOINTS: k-points                                

Automatic generation of k-mesh.
Space group operators:
 irot       det(A)        alpha          n_x          n_y          n_z        tau_x        tau_y        tau_z
    1     1.000000     0.000000     1.000000     0.000000     0.000000     0.000000     0.000000     0.000000
 
 Subroutine IBZKPT returns following result:
 ===========================================
 
 Found    216 irreducible k-points:
 
 Following reciprocal coordinates:
            Coordinates               Weight
  0.000000  0.000000  0.000000      1.000000
  0.166667  0.000000 -0.000000      1.000000
  0.333333  0.000000 -0.000000      1.000000
  0.500000  0.000000 -0.000000      1.000000
 -0.333333 -0.000000  0.000000      1.000000
 -0.166667 -0.000000  0.000000      1.000000
  0.000000  0.166667 -0.000000      1.000000
  0.166667  0.166667 -0.000000      1.000000
  0.333333  0.166667 -0.000000      1.000000
  0.500000  0.166667 -0.000000      1.000000
 -0.333333  0.166667 -0.000000      1.000000
 -0.166667  0.166667  0.000000      1.000000
  0.000000  0.333333  0.000000      1.000000
  0.166667  0.333333 -0.000000      1.000000
  0.333333  0.333333 -0.000000      1.000000
  0.500000  0.333333 -0.000000      1.000000
 -0.333333  0.333333  0.000000      1.000000
 -0.166667  0.333333  0.000000      1.000000
  0.000000  0.500000 -0.000000      1.000000
  0.166667  0.500000  0.000000      1.000000
  0.333333  0.500000  0.000000      1.000000
  0.500000  0.500000 -0.000000      1.000000
 -0.333333  0.500000 -0.000000      1.000000
 -0.166667  0.500000 -0.000000      1.000000
 -0.000000 -0.333333  0.000000      1.000000
  0.166667 -0.333333 -0.000000      1.000000
  0.333333 -0.333333 -0.000000      1.000000
  0.500000 -0.333333 -0.000000      1.000000
 -0.333333 -0.333333  0.000000      1.000000
 -0.166667 -0.333333  0.000000      1.000000
 -0.000000 -0.166667  0.000000      1.000000
  0.166667 -0.166667 -0.000000      1.000000
  0.333333 -0.166667 -0.000000      1.000000
  0.500000 -0.166667 -0.000000      1.000000
 -0.333333 -0.166667  0.000000      1.000000
 -0.166667 -0.166667  0.000000      1.000000
 -0.000000  0.000000  0.166667      1.000000
  0.166667  0.000000  0.166667      1.000000
  0.333333 -0.000000  0.166667      1.000000
  0.500000  0.000000  0.166667      1.000000
 -0.333333 -0.000000  0.166667      1.000000
 -0.166667 -0.000000  0.166667      1.000000
  0.000000  0.166667  0.166667      1.000000
  0.166667  0.166667  0.166667      1.000000
  0.333333  0.166667  0.166667      1.000000
  0.500000  0.166667  0.166667      1.000000
 -0.333333  0.166667  0.166667      1.000000
 -0.166667  0.166667  0.166667      1.000000
  0.000000  0.333333  0.166667      1.000000
  0.166667  0.333333  0.166667      1.000000
  0.333333  0.333333  0.166667      1.000000
  0.500000  0.333333  0.166667      1.000000
 -0.333333  0.333333  0.166667      1.000000
 -0.166667  0.333333  0.166667      1.000000
  0.000000  0.500000  0.166667      1.000000
  0.166667  0.500000  0.166667      1.000000
  0.333333  0.500000  0.166667      1.000000
  0.500000  0.500000  0.166667      1.000000
 -0.333333  0.500000  0.166667      1.000000
 -0.166667  0.500000  0.166667      1.000000
  0.000000 -0.333333  0.166667      1.000000
  0.166667 -0.333333  0.166667      1.000000
  0.333333 -0.333333  0.166667      1.000000
  0.500000 -0.333333  0.166667      1.000000
 -0.333333 -0.333333  0.166667      1.000000
 -0.166667 -0.333333  0.166667      1.000000
  0.000000 -0.166667  0.166667      1.000000
  0.166667 -0.166667  0.166667      1.000000
  0.333333 -0.166667  0.166667      1.000000
  0.500000 -0.166667  0.166667      1.000000
 -0.333333 -0.166667  0.166667      1.000000
 -0.166667 -0.166667  0.166667      1.000000
  0.000000  0.000000  0.333333      1.000000
  0.166667  0.000000  0.333333      1.000000
  0.333333  0.000000  0.333333      1.000000
  0.500000 -0.000000  0.333333      1.000000
 -0.333333  0.000000  0.333333      1.000000
 -0.166667  0.000000  0.333333      1.000000
 -0.000000  0.166667  0.333333      1.000000
  0.166667  0.166667  0.333333      1.000000
  0.333333  0.166667  0.333333      1.000000
  0.500000  0.166667  0.333333      1.000000
 -0.333333  0.166667  0.333333      1.000000
 -0.166667  0.166667  0.333333      1.000000
 -0.000000  0.333333  0.333333      1.000000
  0.166667  0.333333  0.333333      1.000000
  0.333333  0.333333  0.333333      1.000000
  0.500000  0.333333  0.333333      1.000000
 -0.333333  0.333333  0.333333      1.000000
 -0.166667  0.333333  0.333333      1.000000
 -0.000000  0.500000  0.333333      1.000000
  0.166667  0.500000  0.333333      1.000000
  0.333333  0.500000  0.333333      1.000000
  0.500000  0.500000  0.333333      1.000000
 -0.333333  0.500000  0.333333      1.000000
 -0.166667  0.500000  0.333333      1.000000
 -0.000000 -0.333333  0.333333      1.000000
  0.166667 -0.333333  0.333333      1.000000
  0.333333 -0.333333  0.333333      1.000000
  0.500000 -0.333333  0.333333      1.000000
 -0.333333 -0.333333  0.333333      1.000000
 -0.166667 -0.333333  0.333333      1.000000
 -0.000000 -0.166667  0.333333      1.000000
  0.166667 -0.166667  0.333333      1.000000
  0.333333 -0.166667  0.333333      1.000000
  0.500000 -0.166667  0.333333      1.000000
 -0.333333 -0.166667  0.333333      1.000000
 -0.166667 -0.166667  0.333333      1.000000
 -0.000000  0.000000  0.500000      1.000000
  0.166667 -0.000000  0.500000      1.000000
  0.333333  0.000000  0.500000      1.000000
  0.500000  0.000000  0.500000      1.000000
 -0.333333  0.000000  0.500000      1.000000
 -0.166667 -0.000000  0.500000      1.000000
  0.000000  0.166667  0.500000      1.000000
  0.166667  0.166667  0.500000      1.000000
  0.333333  0.166667  0.500000      1.000000
  0.500000  0.166667  0.500000      1.000000
 -0.333333  0.166667  0.500000      1.000000
 -0.166667  0.166667  0.500000      1.000000
 -0.000000  0.333333  0.500000      1.000000
  0.166667  0.333333  0.500000      1.000000
  0.333333  0.333333  0.500000      1.000000
  0.500000  0.333333  0.500000      1.000000
 -0.333333  0.333333  0.500000      1.000000
 -0.166667  0.333333  0.500000      1.000000
  0.000000  0.500000  0.500000      1.000000
  0.166667  0.500000  0.500000      1.000000
  0.333333  0.500000  0.500000      1.000000
  0.500000  0.500000  0.500000      1.000000
 -0.333333  0.500000  0.500000      1.000000
 -0.166667  0.500000  0.500000      1.000000
 -0.000000 -0.333333  0.500000      1.000000
  0.166667 -0.333333  0.500000      1.000000
  0.333333 -0.333333  0.500000      1.000000
  0.500000 -0.333333  0.500000      1.000000
 -0.333333 -0.333333  0.500000      1.000000
 -0.166667 -0.333333  0.500000      1.000000
 -0.000000 -0.166667  0.500000      1.000000
  0.166667 -0.166667  0.500000      1.000000
  0.333333 -0.166667  0.500000      1.000000
  0.500000 -0.166667  0.500000      1.000000
 -0.333333 -0.166667  0.500000      1.000000
 -0.166667 -0.166667  0.500000      1.000000
  0.000000 -0.000000 -0.333333      1.000000
  0.166667 -0.000000 -0.333333      1.000000
  0.333333 -0.000000 -0.333333      1.000000
  0.500000  0.000000 -0.333333      1.000000
 -0.333333 -0.000000 -0.333333      1.000000
 -0.166667 -0.000000 -0.333333      1.000000
  0.000000  0.166667 -0.333333      1.000000
  0.166667  0.166667 -0.333333      1.000000
  0.333333  0.166667 -0.333333      1.000000
  0.500000  0.166667 -0.333333      1.000000
 -0.333333  0.166667 -0.333333      1.000000
 -0.166667  0.166667 -0.333333      1.000000
  0.000000  0.333333 -0.333333      1.000000
  0.166667  0.333333 -0.333333      1.000000
  0.333333  0.333333 -0.333333      1.000000
  0.500000  0.333333 -0.333333      1.000000
 -0.333333  0.333333 -0.333333      1.000000
 -0.166667  0.333333 -0.333333      1.000000
  0.000000  0.500000 -0.333333      1.000000
  0.166667  0.500000 -0.333333      1.000000
  0.333333  0.500000 -0.333333      1.000000
  0.500000  0.500000 -0.333333      1.000000
 -0.333333  0.500000 -0.333333      1.000000
 -0.166667  0.500000 -0.333333      1.000000
  0.000000 -0.333333 -0.333333      1.000000
  0.166667 -0.333333 -0.333333      1.000000
  0.333333 -0.333333 -0.333333      1.000000
  0.500000 -0.333333 -0.333333      1.000000
 -0.333333 -0.333333 -0.333333      1.000000
 -0.166667 -0.333333 -0.333333      1.000000
  0.000000 -0.166667 -0.333333      1.000000
  0.166667 -0.166667 -0.333333      1.000000
  0.333333 -0.166667 -0.333333      1.000000
  0.500000 -0.166667 -0.333333      1.000000
 -0.333333 -0.166667 -0.333333      1.000000
 -0.166667 -0.166667 -0.333333      1.000000
  0.000000 -0.000000 -0.166667      1.000000
  0.166667  0.000000 -0.166667      1.000000
  0.333333  0.000000 -0.166667      1.000000
  0.500000  0.000000 -0.166667      1.000000
 -0.333333  0.000000 -0.166667      1.000000
 -0.166667 -0.000000 -0.166667      1.000000
  0.000000  0.166667 -0.166667      1.000000
  0.166667  0.166667 -0.166667      1.000000
  0.333333  0.166667 -0.166667      1.000000
  0.500000  0.166667 -0.166667      1.000000
 -0.333333  0.166667 -0.166667      1.000000
 -0.166667  0.166667 -0.166667      1.000000
  0.000000  0.333333 -0.166667      1.000000
  0.166667  0.333333 -0.166667      1.000000
  0.333333  0.333333 -0.166667      1.000000
  0.500000  0.333333 -0.166667      1.000000
 -0.333333  0.333333 -0.166667      1.000000
 -0.166667  0.333333 -0.166667      1.000000
  0.000000  0.500000 -0.166667      1.000000
  0.166667  0.500000 -0.166667      1.000000
  0.333333  0.500000 -0.166667      1.000000
  0.500000  0.500000 -0.166667      1.000000
 -0.333333  0.500000 -0.166667      1.000000
 -0.166667  0.500000 -0.166667      1.000000
  0.000000 -0.333333 -0.166667      1.000000
  0.166667 -0.333333 -0.166667      1.000000
  0.333333 -0.333333 -0.166667      1.000000
  0.500000 -0.333333 -0.166667      1.000000
 -0.333333 -0.333333 -0.166667      1.000000
 -0.166667 -0.333333 -0.166667      1.000000
  0.000000 -0.166667 -0.166667      1.000000
  0.166667 -0.166667 -0.166667      1.000000
  0.333333 -0.166667 -0.166667      1.000000
  0.500000 -0.166667 -0.166667      1.000000
 -0.333333 -0.166667 -0.166667      1.000000
 -0.166667 -0.166667 -0.166667      1.000000
 
 Following cartesian coordinates:
            Coordinates               Weight
  0.000000  0.000000  0.000000      1.000000
  0.046300 -0.026731 -0.018902      1.000000
  0.092600 -0.053463 -0.037804      1.000000
  0.138901 -0.080194 -0.056706      1.000000
 -0.092600  0.053463  0.037804      1.000000
 -0.046300  0.026731  0.018902      1.000000
  0.000000  0.053463 -0.018902      1.000000
  0.046300  0.026731 -0.037804      1.000000
  0.092600  0.000000 -0.056706      1.000000
  0.138901 -0.026731 -0.075608      1.000000
 -0.092600  0.106926  0.018902      1.000000
 -0.046300  0.080194  0.000000      1.000000
  0.000000  0.106926 -0.037804      1.000000
  0.046300  0.080194 -0.056706      1.000000
  0.092600  0.053463 -0.075608      1.000000
  0.138901  0.026731 -0.094510      1.000000
 -0.092600  0.160389  0.000000      1.000000
 -0.046300  0.133657 -0.018902      1.000000
  0.000000  0.160389 -0.056706      1.000000
  0.046300  0.133657 -0.075608      1.000000
  0.092600  0.106926 -0.094510      1.000000
  0.138901  0.080194 -0.113412      1.000000
 -0.092600  0.213851 -0.018902      1.000000
 -0.046300  0.187120 -0.037804      1.000000
 -0.000000 -0.106926  0.037804      1.000000
  0.046300 -0.133657  0.018902      1.000000
  0.092600 -0.160389 -0.000000      1.000000
  0.138901 -0.187120 -0.018902      1.000000
 -0.092600 -0.053463  0.075608      1.000000
 -0.046300 -0.080194  0.056706      1.000000
 -0.000000 -0.053463  0.018902      1.000000
  0.046300 -0.080194 -0.000000      1.000000
  0.092600 -0.106926 -0.018902      1.000000
  0.138901 -0.133657 -0.037804      1.000000
 -0.092600 -0.000000  0.056706      1.000000
 -0.046300 -0.026731  0.037804      1.000000
 -0.000000  0.000000  0.056706      1.000000
  0.046300 -0.026731  0.037804      1.000000
  0.092600 -0.053463  0.018902      1.000000
  0.138901 -0.080194 -0.000000      1.000000
 -0.092600  0.053463  0.094510      1.000000
 -0.046300  0.026731  0.075608      1.000000
 -0.000000  0.053463  0.037804      1.000000
  0.046300  0.026731  0.018902      1.000000
  0.092600  0.000000  0.000000      1.000000
  0.138901 -0.026731 -0.018902      1.000000
 -0.092600  0.106926  0.075608      1.000000
 -0.046300  0.080194  0.056706      1.000000
 -0.000000  0.106926  0.018902      1.000000
  0.046300  0.080194  0.000000      1.000000
  0.092600  0.053463 -0.018902      1.000000
  0.138901  0.026731 -0.037804      1.000000
 -0.092600  0.160389  0.056706      1.000000
 -0.046300  0.133657  0.037804      1.000000
 -0.000000  0.160389  0.000000      1.000000
  0.046300  0.133657 -0.018902      1.000000
  0.092600  0.106926 -0.037804      1.000000
  0.138901  0.080194 -0.056706      1.000000
 -0.092600  0.213851  0.037804      1.000000
 -0.046300  0.187120  0.018902      1.000000
 -0.000000 -0.106926  0.094510      1.000000
  0.046300 -0.133657  0.075608      1.000000
  0.092600 -0.160389  0.056706      1.000000
  0.138901 -0.187120  0.037804      1.000000
 -0.092600 -0.053463  0.132314      1.000000
 -0.046300 -0.080194  0.113412      1.000000
 -0.000000 -0.053463  0.075608      1.000000
  0.046300 -0.080194  0.056706      1.000000
  0.092600 -0.106926  0.037804      1.000000
  0.138901 -0.133657  0.018902      1.000000
 -0.092600 -0.000000  0.113412      1.000000
 -0.046300 -0.026731  0.094510      1.000000
 -0.000000  0.000000  0.113412      1.000000
  0.046300 -0.026731  0.094510      1.000000
  0.092600 -0.053463  0.075608      1.000000
  0.138901 -0.080194  0.056706      1.000000
 -0.092600  0.053463  0.151216      1.000000
 -0.046300  0.026731  0.132314      1.000000
 -0.000000  0.053463  0.094510      1.000000
  0.046300  0.026731  0.075608      1.000000
  0.092600  0.000000  0.056706      1.000000
  0.138901 -0.026731  0.037804      1.000000
 -0.092600  0.106926  0.132314      1.000000
 -0.046300  0.080194  0.113412      1.000000
 -0.000000  0.106926  0.075608      1.000000
  0.046300  0.080194  0.056706      1.000000
  0.092600  0.053463  0.037804      1.000000
  0.138901  0.026731  0.018902      1.000000
 -0.092600  0.160389  0.113412      1.000000
 -0.046300  0.133657  0.094510      1.000000
 -0.000000  0.160389  0.056706      1.000000
  0.046300  0.133657  0.037804      1.000000
  0.092600  0.106926  0.018902      1.000000
  0.138901  0.080194  0.000000      1.000000
 -0.092600  0.213851  0.094510      1.000000
 -0.046300  0.187120  0.075608      1.000000
 -0.000000 -0.106926  0.151216      1.000000
  0.046300 -0.133657  0.132314      1.000000
  0.092600 -0.160389  0.113412      1.000000
  0.138901 -0.187120  0.094510      1.000000
 -0.092600 -0.053463  0.189020      1.000000
 -0.046300 -0.080194  0.170118      1.000000
 -0.000000 -0.053463  0.132314      1.000000
  0.046300 -0.080194  0.113412      1.000000
  0.092600 -0.106926  0.094510      1.000000
  0.138901 -0.133657  0.075608      1.000000
 -0.092600 -0.000000  0.170118      1.000000
 -0.046300 -0.026731  0.151216      1.000000
 -0.000000  0.000000  0.170118      1.000000
  0.046300 -0.026731  0.151216      1.000000
  0.092600 -0.053463  0.132314      1.000000
  0.138901 -0.080194  0.113412      1.000000
 -0.092600  0.053463  0.207922      1.000000
 -0.046300  0.026731  0.189020      1.000000
 -0.000000  0.053463  0.151216      1.000000
  0.046300  0.026731  0.132314      1.000000
  0.092600  0.000000  0.113412      1.000000
  0.138901 -0.026731  0.094510      1.000000
 -0.092600  0.106926  0.189020      1.000000
 -0.046300  0.080194  0.170118      1.000000
 -0.000000  0.106926  0.132314      1.000000
  0.046300  0.080194  0.113412      1.000000
  0.092600  0.053463  0.094510      1.000000
  0.138901  0.026731  0.075608      1.000000
 -0.092600  0.160389  0.170118      1.000000
 -0.046300  0.133657  0.151216      1.000000
 -0.000000  0.160389  0.113412      1.000000
  0.046300  0.133657  0.094510      1.000000
  0.092600  0.106926  0.075608      1.000000
  0.138901  0.080194  0.056706      1.000000
 -0.092600  0.213851  0.151216      1.000000
 -0.046300  0.187120  0.132314      1.000000
 -0.000000 -0.106926  0.207922      1.000000
  0.046300 -0.133657  0.189020      1.000000
[...]
 

 k-point  91 :      -0.3333   -0.1667    0.3333
  band No. DFT-energies  QP-energies  QP-e(diag)   sigma(DFT)    Z            occupation

      1     -18.9859     -21.1986     -21.1891     -22.0617       0.7163       2.0000
      2      -5.6363      -9.0789      -9.0748      -9.7327       0.8394       2.0000
      3      -5.2170      -8.5785      -8.5761      -9.2193       0.8393       2.0000
      4      -4.8011      -8.0843      -8.0837      -8.7110       0.8396       2.0000
      5       8.3788       9.8415       9.8431      10.0204       0.8920       0.0000
      6       8.9408      10.6288      10.6282      10.8414       0.8878       0.0000
      7      10.0535      11.8892      11.8864      12.1284       0.8834       0.0000
      8      12.3267      14.5277      14.5277      14.8305       0.8791       0.0000
 

 k-point  92 :      -0.1667   -0.1667    0.3333
  band No. DFT-energies  QP-energies  QP-e(diag)   sigma(DFT)    Z            occupation

      1     -19.0332     -21.2491     -21.2398     -22.1140       0.7162       2.0000
      2      -5.8485      -9.3273      -9.3214      -9.9897       0.8386       2.0000
      3      -4.8215      -8.1049      -8.1044      -8.7327       0.8394       2.0000
      4      -4.6501      -7.9060      -7.9056      -8.5259       0.8399       2.0000
      5       7.7621       9.2690       9.2761       9.4592       0.8921       0.0000
      6       9.1758      10.7001      10.6986      10.8924       0.8871       0.0000
      7      10.5967      12.5403      12.5321      12.7872       0.8835       0.0000
      8      11.7817      14.0774      14.0774      14.3827       0.8826       0.0000
 

 k-point  93 :      -0.0000    0.0000    0.5000
  band No. DFT-energies  QP-energies  QP-e(diag)   sigma(DFT)    Z            occupation

      1     -19.0555     -21.2823     -21.2625     -22.1386       0.7158       2.0000
      2      -6.0145      -9.5282      -9.5195     -10.1930       0.8388       2.0000
      3      -4.5574      -7.8000      -7.7971      -8.4105       0.8408       2.0000
      4      -4.5574      -7.7992      -7.7971      -8.4104       0.8408       2.0000
      5       7.1818       8.6728       8.6677       8.8411       0.8955       0.0000
      6       9.9387      11.2801      11.2794      11.4651       0.8783       0.0000
      7      11.1094      13.3467      13.3454      13.6337       0.8858       0.0000
      8      11.1094      13.3484      13.3453      13.6336       0.8858       0.0000
 

 k-point  94 :       0.1667   -0.0000    0.5000
  band No. DFT-energies  QP-energies  QP-e(diag)   sigma(DFT)    Z            occupation

      1     -19.0332     -21.2493     -21.2389     -22.1140       0.7160       2.0000
      2      -5.8485      -9.3284      -9.3226      -9.9897       0.8389       2.0000
      3      -4.8215      -8.1046      -8.1040      -8.7327       0.8392       2.0000
      4      -4.6501      -7.9066      -7.9062      -8.5259       0.8401       2.0000
      5       7.7621       9.2693       9.2764       9.4593       0.8922       0.0000
      6       9.1758      10.6999      10.6984      10.8923       0.8870       0.0000
      7      10.5967      12.5405      12.5322      12.7873       0.8836       0.0000
      8      11.7817      14.0772      14.0772      14.3827       0.8826       0.0000
 

 k-point  95 :       0.3333    0.0000    0.5000
  band No. DFT-energies  QP-energies  QP-e(diag)   sigma(DFT)    Z            occupation

      1     -18.9875     -21.1985     -21.1888     -22.0637       0.7156       2.0000
      2      -5.7220      -9.1784      -9.1733      -9.8377       0.8386       2.0000
      3      -5.0468      -8.3736      -8.3725      -9.0130       0.8385       2.0000
      4      -4.8267      -8.1174      -8.1153      -8.7465       0.8390       2.0000
      5       7.3568       8.7466       8.7480       8.9089       0.8963       0.0000
      6       8.7120      10.4881      10.4872      10.7037       0.8913       0.0000
      7      10.7699      12.4806      12.4787      12.7158       0.8782       0.0000
      8      13.6131      16.0521      16.0521      16.4130       0.8711       0.0000
 

 k-point  96 :       0.5000    0.0000    0.5000
  band No. DFT-energies  QP-energies  QP-e(diag)   sigma(DFT)    Z            occupation

      1     -18.9641     -21.1832     -21.1662     -22.0378       0.7164       2.0000
      2      -5.8587      -9.3476      -9.3365     -10.0088       0.8380       2.0000
      3      -4.9121      -8.2198      -8.2167      -8.8528       0.8386       2.0000
      4      -4.9121      -8.2179      -8.2167      -8.8528       0.8386       2.0000
      5       6.8269       8.1776       8.1741       8.3266       0.8983       0.0000
      6       8.2665      10.0260      10.0234      10.2322       0.8938       0.0000
      7      11.6800      13.2221      13.2218      13.4521       0.8701       0.0000
      8      15.7197      18.9916      18.9899      19.5425       0.8555       0.0000
 

 k-point  97 :       0.0000    0.1667    0.5000
  band No. DFT-energies  QP-energies  QP-e(diag)   sigma(DFT)    Z            occupation

      1     -19.0332     -21.2500     -21.2395     -22.1140       0.7161       2.0000
      2      -5.8485      -9.3278      -9.3220      -9.9897       0.8388       2.0000
      3      -4.8215      -8.1048      -8.1042      -8.7327       0.8393       2.0000
      4      -4.6501      -7.9062      -7.9058      -8.5259       0.8400       2.0000
      5       7.7621       9.2694       9.2765       9.4593       0.8923       0.0000
      6       9.1758      10.6998      10.6983      10.8923       0.8870       0.0000
      7      10.5967      12.5406      12.5323      12.7873       0.8836       0.0000
      8      11.7817      14.0771      14.0771      14.3827       0.8825       0.0000
 

 k-point  98 :       0.1667    0.1667    0.5000
  band No. DFT-energies  QP-energies  QP-e(diag)   sigma(DFT)    Z            occupation

      1     -19.0577     -21.2737     -21.2626     -22.1411       0.7151       2.0000
      2      -5.7367      -9.1916      -9.1869      -9.8497       0.8388       2.0000
      3      -4.8791      -8.1713      -8.1705      -8.8039       0.8386       2.0000
      4      -4.5604      -7.7999      -7.7997      -8.4139       0.8406       2.0000
      5       7.6655       9.1060       9.1142       9.2923       0.8905       0.0000
      6       9.4518      11.0418      11.0321      11.2345       0.8864       0.0000
      7      10.3872      12.3345      12.3335      12.5851       0.8855       0.0000
      8      11.7425      14.0379      14.0379      14.3405       0.8835       0.0000
 

 k-point  99 :       0.3333    0.1667    0.5000
  band No. DFT-energies  QP-energies  QP-e(diag)   sigma(DFT)    Z            occupation

      1     -19.0353     -21.2509     -21.2394     -22.1164       0.7154       2.0000
      2      -5.6048      -9.0387      -9.0348      -9.6876       0.8401       2.0000
      3      -5.0181      -8.3402      -8.3391      -8.9770       0.8389       2.0000
      4      -4.7098      -7.9763      -7.9756      -8.5979       0.8400       2.0000
      5       7.7740       9.1524       9.1542       9.3251       0.8898       0.0000
      6       9.3157      11.1472      11.1468      11.3755       0.8890       0.0000
      7       9.7932      11.5554      11.5551      11.7776       0.8879       0.0000
      8      12.7335      14.9967      14.9927      15.3144       0.8754       0.0000
 

 k-point 100 :       0.5000    0.1667    0.5000
  band No. DFT-energies  QP-energies  QP-e(diag)   sigma(DFT)    Z            occupation

      1     -18.9875     -21.1992     -21.1891     -22.0637       0.7157       2.0000
      2      -5.7220      -9.1793      -9.1742      -9.8376       0.8388       2.0000
      3      -5.0468      -8.3733      -8.3722      -9.0129       0.8384       2.0000
      4      -4.8267      -8.1167      -8.1146      -8.7466       0.8388       2.0000
      5       7.3568       8.7470       8.7484       8.9089       0.8966       0.0000
      6       8.7120      10.4885      10.4876      10.7037       0.8915       0.0000
      7      10.7699      12.4804      12.4786      12.7158       0.8781       0.0000
      8      13.6131      16.0518      16.0518      16.4128       0.8711       0.0000
 

 k-point 101 :      -0.3333    0.1667    0.5000
  band No. DFT-energies  QP-energies  QP-e(diag)   sigma(DFT)    Z            occupation

      1     -18.9627     -21.1751     -21.1650     -22.0361       0.7166       2.0000
      2      -5.6431      -9.0892      -9.0840      -9.7443       0.8390       2.0000
      3      -5.1727      -8.5268      -8.5259      -9.1687       0.8391       2.0000
      4      -4.9611      -8.2720      -8.2703      -8.9072       0.8386       2.0000
      5       7.6290       9.0445       9.0442       9.2106       0.8948       0.0000
      6       8.9916      10.7935      10.7930      11.0170       0.8894       0.0000
      7      10.6250      12.3911      12.3909      12.6343       0.8789       0.0000
      8      12.7804      14.8579      14.8577      15.1504       0.8765       0.0000
 

 k-point 102 :      -0.1667    0.1667    0.5000
  band No. DFT-energies  QP-energies  QP-e(diag)   sigma(DFT)    Z            occupation

      1     -18.9859     -21.1992     -21.1888     -22.0617       0.7162       2.0000
      2      -5.6363      -9.0792      -9.0751      -9.7326       0.8395       2.0000
      3      -5.2170      -8.5785      -8.5760      -9.2193       0.8393       2.0000
      4      -4.8011      -8.0845      -8.0840      -8.7110       0.8396       2.0000
      5       8.3788       9.8418       9.8434      10.0204       0.8922       0.0000
      6       8.9408      10.6290      10.6283      10.8414       0.8879       0.0000
      7      10.0535      11.8895      11.8866      12.1284       0.8835       0.0000
      8      12.3267      14.5272      14.5272      14.8304       0.8789       0.0000
 

 k-point 103 :      -0.0000    0.3333    0.5000
  band No. DFT-energies  QP-energies  QP-e(diag)   sigma(DFT)    Z            occupation

      1     -18.9875     -21.1998     -21.1896     -22.0637       0.7159       2.0000
      2      -5.7220      -9.1783      -9.1732      -9.8377       0.8386       2.0000
      3      -5.0468      -8.3734      -8.3723      -9.0129       0.8385       2.0000
      4      -4.8267      -8.1167      -8.1146      -8.7465       0.8388       2.0000
      5       7.3568       8.7469       8.7483       8.9089       0.8965       0.0000
      6       8.7120      10.4880      10.4871      10.7037       0.8913       0.0000
      7      10.7699      12.4805      12.4786      12.7158       0.8781       0.0000
      8      13.6131      16.0520      16.0520      16.4130       0.8711       0.0000
 

 k-point 104 :       0.1667    0.3333    0.5000
  band No. DFT-energies  QP-energies  QP-e(diag)   sigma(DFT)    Z            occupation

      1     -19.0353     -21.2516     -21.2397     -22.1164       0.7155       2.0000
      2      -5.6048      -9.0385      -9.0346      -9.6876       0.8401       2.0000
      3      -5.0181      -8.3398      -8.3387      -8.9770       0.8388       2.0000
      4      -4.7098      -7.9761      -7.9753      -8.5979       0.8399       2.0000
      5       7.7740       9.1524       9.1542       9.3251       0.8898       0.0000
      6       9.3157      11.1471      11.1467      11.3755       0.8889       0.0000
      7       9.7932      11.5554      11.5552      11.7776       0.8879       0.0000
      8      12.7335      14.9968      14.9928      15.3144       0.8754       0.0000
 

 k-point 105 :       0.3333    0.3333    0.5000
  band No. DFT-energies  QP-energies  QP-e(diag)   sigma(DFT)    Z            occupation

      1     -19.0577     -21.2751     -21.2631     -22.1411       0.7152       2.0000
      2      -5.7367      -9.1911      -9.1864      -9.8497       0.8387       2.0000
      3      -4.8791      -8.1708      -8.1700      -8.8039       0.8385       2.0000
      4      -4.5604      -7.8005      -7.8003      -8.4139       0.8408       2.0000
      5       7.6655       9.1059       9.1142       9.2923       0.8905       0.0000
      6       9.4518      11.0420      11.0322      11.2346       0.8865       0.0000
      7      10.3872      12.3344      12.3334      12.5851       0.8855       0.0000
      8      11.7425      14.0376      14.0375      14.3404       0.8834       0.0000
 

 k-point 106 :       0.5000    0.3333    0.5000
  band No. DFT-energies  QP-energies  QP-e(diag)   sigma(DFT)    Z            occupation

      1     -19.0332     -21.2511     -21.2395     -22.1140       0.7161       2.0000
      2      -5.8485      -9.3274      -9.3216      -9.9897       0.8387       2.0000
      3      -4.8215      -8.1046      -8.1040      -8.7327       0.8392       2.0000
      4      -4.6501      -7.9063      -7.9059      -8.5259       0.8400       2.0000
      5       7.7621       9.2695       9.2766       9.4594       0.8923       0.0000
      6       9.1758      10.6999      10.6985      10.8924       0.8870       0.0000
      7      10.5967      12.5405      12.5322      12.7873       0.8836       0.0000
      8      11.7817      14.0770      14.0770      14.3826       0.8825       0.0000
 

 k-point 107 :      -0.3333    0.3333    0.5000
  band No. DFT-energies  QP-energies  QP-e(diag)   sigma(DFT)    Z            occupation

      1     -18.9859     -21.2009     -21.1895     -22.0617       0.7164       2.0000
      2      -5.6363      -9.0788      -9.0747      -9.7326       0.8394       2.0000
      3      -5.2170      -8.5788      -8.5763      -9.2193       0.8393       2.0000
      4      -4.8011      -8.0838      -8.0832      -8.7110       0.8394       2.0000
      5       8.3788       9.8418       9.8434      10.0204       0.8921       0.0000
      6       8.9408      10.6291      10.6284      10.8415       0.8879       0.0000
      7      10.0535      11.8893      11.8864      12.1284       0.8834       0.0000
      8      12.3267      14.5273      14.5273      14.8304       0.8789       0.0000
 

 k-point 108 :      -0.1667    0.3333    0.5000
  band No. DFT-energies  QP-energies  QP-e(diag)   sigma(DFT)    Z            occupation

      1     -18.9627     -21.1759     -21.1654     -22.0361       0.7167       2.0000
      2      -5.6431      -9.0895      -9.0844      -9.7443       0.8391       2.0000
      3      -5.1727      -8.5267      -8.5257      -9.1687       0.8391       2.0000
      4      -4.9611      -8.2716      -8.2699      -8.9072       0.8385       2.0000
      5       7.6290       9.0445       9.0442       9.2106       0.8948       0.0000
      6       8.9916      10.7935      10.7930      11.0170       0.8894       0.0000
      7      10.6250      12.3912      12.3910      12.6343       0.8789       0.0000
      8      12.7804      14.8582      14.8579      15.1504       0.8766       0.0000
 

 k-point 109 :       0.0000    0.5000    0.5000
  band No. DFT-energies  QP-energies  QP-e(diag)   sigma(DFT)    Z            occupation

      1     -18.9641     -21.1852     -21.1663     -22.0378       0.7165       2.0000
      2      -5.8587      -9.3475      -9.3365     -10.0088       0.8380       2.0000
      3      -4.9121      -8.2186      -8.2166      -8.8528       0.8386       2.0000
      4      -4.9121      -8.2175      -8.2166      -8.8528       0.8386       2.0000
      5       6.8269       8.1776       8.1741       8.3266       0.8983       0.0000
      6       8.2665      10.0253      10.0234      10.2322       0.8938       0.0000
      7      11.6800      13.2224      13.2218      13.4520       0.8701       0.0000
      8      15.7197      18.9911      18.9899      19.5425       0.8554       0.0000
 

 k-point 110 :       0.1667    0.5000    0.5000
  band No. DFT-energies  QP-energies  QP-e(diag)   sigma(DFT)    Z            occupation

      1     -18.9875     -21.2007     -21.1901     -22.0637       0.7160       2.0000
      2      -5.7220      -9.1792      -9.1741      -9.8376       0.8388       2.0000
      3      -5.0468      -8.3733      -8.3722      -9.0129       0.8384       2.0000
      4      -4.8267      -8.1171      -8.1150      -8.7465       0.8389       2.0000
      5       7.3568       8.7465       8.7480       8.9090       0.8963       0.0000
      6       8.7120      10.4885      10.4876      10.7038       0.8915       0.0000
      7      10.7699      12.4807      12.4788      12.7158       0.8782       0.0000
      8      13.6131      16.0519      16.0519      16.4129       0.8711       0.0000
 

 k-point 111 :       0.3333    0.5000    0.5000
  band No. DFT-energies  QP-energies  QP-e(diag)   sigma(DFT)    Z            occupation

      1     -19.0332     -21.2517     -21.2398     -22.1140       0.7162       2.0000
      2      -5.8485      -9.3280      -9.3221      -9.9897       0.8388       2.0000
      3      -4.8215      -8.1045      -8.1039      -8.7327       0.8392       2.0000
      4      -4.6501      -7.9062      -7.9057      -8.5259       0.8400       2.0000
      5       7.7621       9.2694       9.2764       9.4594       0.8922       0.0000
      6       9.1758      10.7001      10.6986      10.8924       0.8871       0.0000
      7      10.5967      12.5404      12.5321      12.7873       0.8835       0.0000
      8      11.7817      14.0772      14.0772      14.3826       0.8826       0.0000
 

 k-point 112 :       0.5000    0.5000    0.5000
  band No. DFT-energies  QP-energies  QP-e(diag)   sigma(DFT)    Z            occupation

      1     -19.0555     -21.2865     -21.2625     -22.1385       0.7159       2.0000
      2      -6.0145      -9.5274      -9.5195     -10.1929       0.8388       2.0000
      3      -4.5574      -7.7980      -7.7971      -8.4105       0.8408       2.0000
      4      -4.5574      -7.7971      -7.7971      -8.4105       0.8408       2.0000
      5       7.1818       8.6718       8.6677       8.8412       0.8955       0.0000
      6       9.9387      11.2807      11.2795      11.4652       0.8783       0.0000
      7      11.1094      13.3453      13.3453      13.6336       0.8858       0.0000
      8      11.1094      13.3463      13.3453      13.6336       0.8858       0.0000
 


--------------------------------------------------------------------------------------------------------



IMPORTANT INFORMATION: All symmetrisations will be switched off!
NOSYMM: (Re-)initialisation of all symmetry stuff for point group C_1.

   GW_DIAG:  cpu time    0.6766: real time    0.6766
    GWLOOP:  cpu time  366.4407: real time  370.4501
 writing wavefunctions
    --------------------------------------------
   GWTOTAL:  cpu time  366.9759: real time  371.4038
    4ORBIT:  cpu time    0.0000: real time    0.0000

 total amount of memory used by VASP MPI-rank0    96584. kBytes
=======================================================================

   base      :      30000. kBytes
   nonl-proj :       6425. kBytes
   fftplans  :       9376. kBytes
   grid      :       2816. kBytes
   one-center:         15. kBytes
   HF        :        129. kBytes
   nonlr-proj:        113. kBytes
   wavefun   :      47710. kBytes
   2eintegral:          0. kBytes
   fockhandle:          0. kBytes
   response  :          0. kBytes
   cacher    :          0. kBytes
 
  
  
 General timing and accounting informations for this job:
 ========================================================
  
                  Total CPU time used (sec):      369.852
                            User time (sec):      367.072
                          System time (sec):        2.780
                         Elapsed time (sec):      374.732
  
                   Maximum memory used (kb):      624496.
                   Average memory used (kb):           0.
  
                          Minor page faults:       753264
                          Major page faults:            0
                 Voluntary context switches:         6151
