<?xml version="1.0" encoding="ISO-8859-1"?>
<modeling>
 <generator>
  <i name="program" type="string">vasp </i>
  <i name="version" type="string">5.4.4.18Apr17-6-g9f103f2a35  </i>
  <i name="subversion" type="string">(build Jul 09 2018 16:43:14) complex            parallel </i>
  <i name="platform" type="string">LinuxIFC </i>
  <i name="date" type="string">2018 11 22 </i>
  <i name="time" type="string">05:31:47 </i>
 </generator>
 <incar>
  <i type="string" name="SYSTEM">   Og_FCC</i>
  <i type="string" name="PREC">accurate</i>
  <i type="string" name="ALGO">   QPGW</i>
  <i type="logical" name="ADDGRID"> T  </i>
  <i type="logical" name="LSORBIT"> F  </i>
  <i type="int" name="ISPIN">     1</i>
  <i type="int" name="MAXMIX">    50</i>
  <i type="int" name="NELM">     1</i>
  <i type="int" name="IBRION">    -1</i>
  <i type="int" name="NFREE">     5</i>
  <i name="EDIFF">      0.00000001</i>
  <i name="EDIFFG">      0.00001000</i>
  <i type="int" name="NSW">     1</i>
  <i type="int" name="ISIF">     3</i>
  <i type="int" name="ISYM">     0</i>
  <i name="SYMPREC">      0.00000010</i>
  <i name="ENCUT">    300.00000000</i>
  <i type="int" name="NBANDS">   128</i>
  <i name="POTIM">      0.10000000</i>
  <i type="logical" name="LREAL"> F  </i>
  <i type="int" name="ISMEAR">     0</i>
  <i name="SIGMA">      0.00100000</i>
  <i type="int" name="NWRITE">     1</i>
  <i type="logical" name="LWAVE"> T  </i>
  <i type="logical" name="LCHARG"> F  </i>
  <i type="logical" name="LVTOT"> F  </i>
  <i type="logical" name="GGA_COMPAT"> F  </i>
  <i type="int" name="NOMEGA">    50</i>
  <v type="int" name="KPOINT_BSE">    -1     0     0     0</v>
  <i type="logical" name="LSPECTRAL"> T  </i>
  <i type="int" name="NELM">     1</i>
  <i type="string" name="GGA"> PE</i>
 </incar>
 <structure name="primitive_cell" >
  <crystal>
   <varray name="basis" >
    <v>       3.59969675       0.00000000       0.00000000 </v>
    <v>       1.79984837       3.11742883      -0.00000000 </v>
    <v>       1.79984837       1.03914294       2.93914009 </v>
   </varray>
   <i name="volume">     32.98243751 </i>
   <varray name="rec_basis" >
    <v>       0.27780118      -0.16038859      -0.11341186 </v>
    <v>       0.00000000       0.32077717      -0.11341186 </v>
    <v>      -0.00000000       0.00000000       0.34023557 </v>
   </varray>
  </crystal>
  <varray name="positions" >
   <v>       0.00000000       0.00000000       0.00000000 </v>
  </varray>
 </structure>
 <varray name="primitive_index" >
  <v type="int" >        1 </v>
 </varray>
 <kpoints>
  <generation param="Gamma">
   <v type="int" name="divisions">       6        6        6 </v>
   <v name="usershift">      0.00000000       0.00000000       0.00000000 </v>
   <v name="genvec1">      0.16666667       0.00000000       0.00000000 </v>
   <v name="genvec2">      0.00000000       0.16666667      -0.00000000 </v>
   <v name="genvec3">      0.00000000       0.00000000       0.16666667 </v>
   <v name="shift">      0.00000000       0.00000000       0.00000000 </v>
  </generation>
  <varray name="kpointlist" >
   <v>       0.00000000       0.00000000       0.00000000 </v>
   <v>       0.16666667       0.00000000      -0.00000000 </v>
   <v>       0.33333333       0.00000000      -0.00000000 </v>
   <v>       0.50000000       0.00000000      -0.00000000 </v>
   <v>       0.00000000       0.16666667      -0.00000000 </v>
   <v>       0.16666667       0.16666667      -0.00000000 </v>
   <v>       0.33333333       0.16666667      -0.00000000 </v>
   <v>       0.50000000       0.16666667      -0.00000000 </v>
   <v>      -0.33333333       0.16666667      -0.00000000 </v>
   <v>      -0.16666667       0.16666667       0.00000000 </v>
   <v>       0.00000000       0.33333333       0.00000000 </v>
   <v>       0.16666667       0.33333333      -0.00000000 </v>
   <v>       0.33333333       0.33333333      -0.00000000 </v>
   <v>       0.50000000       0.33333333      -0.00000000 </v>
   <v>      -0.33333333       0.33333333       0.00000000 </v>
   <v>      -0.16666667       0.33333333       0.00000000 </v>
   <v>       0.00000000       0.50000000      -0.00000000 </v>
   <v>       0.16666667       0.50000000       0.00000000 </v>
   <v>       0.33333333       0.50000000       0.00000000 </v>
   <v>       0.50000000       0.50000000      -0.00000000 </v>
   <v>      -0.00000000       0.00000000       0.16666667 </v>
   <v>       0.16666667       0.00000000       0.16666667 </v>
   <v>       0.33333333      -0.00000000       0.16666667 </v>
   <v>       0.50000000       0.00000000       0.16666667 </v>
   <v>      -0.33333333      -0.00000000       0.16666667 </v>
   <v>      -0.16666667      -0.00000000       0.16666667 </v>
   <v>       0.00000000       0.16666667       0.16666667 </v>
   <v>       0.16666667       0.16666667       0.16666667 </v>
   <v>       0.33333333       0.16666667       0.16666667 </v>
   <v>       0.50000000       0.16666667       0.16666667 </v>
   <v>      -0.33333333       0.16666667       0.16666667 </v>
   <v>      -0.16666667       0.16666667       0.16666667 </v>
   <v>       0.00000000       0.33333333       0.16666667 </v>
   <v>       0.16666667       0.33333333       0.16666667 </v>
   <v>       0.33333333       0.33333333       0.16666667 </v>
   <v>       0.50000000       0.33333333       0.16666667 </v>
   <v>      -0.33333333       0.33333333       0.16666667 </v>
   <v>      -0.16666667       0.33333333       0.16666667 </v>
   <v>       0.00000000       0.50000000       0.16666667 </v>
   <v>       0.16666667       0.50000000       0.16666667 </v>
   <v>       0.33333333       0.50000000       0.16666667 </v>
   <v>       0.50000000       0.50000000       0.16666667 </v>
   <v>      -0.33333333       0.50000000       0.16666667 </v>
   <v>      -0.16666667       0.50000000       0.16666667 </v>
   <v>       0.00000000      -0.33333333       0.16666667 </v>
   <v>       0.16666667      -0.33333333       0.16666667 </v>
   <v>       0.33333333      -0.33333333       0.16666667 </v>
   <v>       0.50000000      -0.33333333       0.16666667 </v>
   <v>      -0.33333333      -0.33333333       0.16666667 </v>
   <v>      -0.16666667      -0.33333333       0.16666667 </v>
   <v>       0.00000000      -0.16666667       0.16666667 </v>
   <v>       0.16666667      -0.16666667       0.16666667 </v>
   <v>       0.33333333      -0.16666667       0.16666667 </v>
   <v>       0.50000000      -0.16666667       0.16666667 </v>
   <v>      -0.33333333      -0.16666667       0.16666667 </v>
   <v>      -0.16666667      -0.16666667       0.16666667 </v>
   <v>       0.00000000       0.00000000       0.33333333 </v>
   <v>       0.16666667       0.00000000       0.33333333 </v>
   <v>       0.33333333       0.00000000       0.33333333 </v>
   <v>       0.50000000      -0.00000000       0.33333333 </v>
   <v>      -0.33333333       0.00000000       0.33333333 </v>
   <v>      -0.16666667       0.00000000       0.33333333 </v>
   <v>      -0.00000000       0.16666667       0.33333333 </v>
   <v>       0.16666667       0.16666667       0.33333333 </v>
   <v>       0.33333333       0.16666667       0.33333333 </v>
   <v>       0.50000000       0.16666667       0.33333333 </v>
   <v>      -0.33333333       0.16666667       0.33333333 </v>
   <v>      -0.16666667       0.16666667       0.33333333 </v>
   <v>      -0.00000000       0.33333333       0.33333333 </v>
   <v>       0.16666667       0.33333333       0.33333333 </v>
   <v>       0.33333333       0.33333333       0.33333333 </v>
   <v>       0.50000000       0.33333333       0.33333333 </v>
   <v>      -0.33333333       0.33333333       0.33333333 </v>
   <v>      -0.16666667       0.33333333       0.33333333 </v>
   <v>      -0.00000000       0.50000000       0.33333333 </v>
   <v>       0.16666667       0.50000000       0.33333333 </v>
   <v>       0.33333333       0.50000000       0.33333333 </v>
   <v>       0.50000000       0.50000000       0.33333333 </v>
   <v>      -0.33333333       0.50000000       0.33333333 </v>
   <v>      -0.16666667       0.50000000       0.33333333 </v>
   <v>      -0.00000000      -0.33333333       0.33333333 </v>
   <v>       0.16666667      -0.33333333       0.33333333 </v>
   <v>       0.33333333      -0.33333333       0.33333333 </v>
   <v>       0.50000000      -0.33333333       0.33333333 </v>
   <v>      -0.33333333      -0.33333333       0.33333333 </v>
   <v>      -0.16666667      -0.33333333       0.33333333 </v>
   <v>      -0.00000000      -0.16666667       0.33333333 </v>
   <v>       0.16666667      -0.16666667       0.33333333 </v>
   <v>       0.33333333      -0.16666667       0.33333333 </v>
   <v>       0.50000000      -0.16666667       0.33333333 </v>
   <v>      -0.33333333      -0.16666667       0.33333333 </v>
   <v>      -0.16666667      -0.16666667       0.33333333 </v>
   <v>      -0.00000000       0.00000000       0.50000000 </v>
   <v>       0.16666667      -0.00000000       0.50000000 </v>
   <v>       0.33333333       0.00000000       0.50000000 </v>
   <v>       0.50000000       0.00000000       0.50000000 </v>
   <v>       0.00000000       0.16666667       0.50000000 </v>
   <v>       0.16666667       0.16666667       0.50000000 </v>
   <v>       0.33333333       0.16666667       0.50000000 </v>
   <v>       0.50000000       0.16666667       0.50000000 </v>
   <v>      -0.33333333       0.16666667       0.50000000 </v>
   <v>      -0.16666667       0.16666667       0.50000000 </v>
   <v>      -0.00000000       0.33333333       0.50000000 </v>
   <v>       0.16666667       0.33333333       0.50000000 </v>
   <v>       0.33333333       0.33333333       0.50000000 </v>
   <v>       0.50000000       0.33333333       0.50000000 </v>
   <v>      -0.33333333       0.33333333       0.50000000 </v>
   <v>      -0.16666667       0.33333333       0.50000000 </v>
   <v>       0.00000000       0.50000000       0.50000000 </v>
   <v>       0.16666667       0.50000000       0.50000000 </v>
   <v>       0.33333333       0.50000000       0.50000000 </v>
   <v>       0.50000000       0.50000000       0.50000000 </v>
  </varray>
  <varray name="weights" >
   <v>       0.00462963 </v>
   <v>       0.00925926 </v>
   <v>       0.00925926 </v>
   <v>       0.00462963 </v>
   <v>       0.00925926 </v>
   <v>       0.00925926 </v>
   <v>       0.00925926 </v>
   <v>       0.00925926 </v>
   <v>       0.00925926 </v>
   <v>       0.00925926 </v>
   <v>       0.00925926 </v>
   <v>       0.00925926 </v>
   <v>       0.00925926 </v>
   <v>       0.00925926 </v>
   <v>       0.00925926 </v>
   <v>       0.00925926 </v>
   <v>       0.00462963 </v>
   <v>       0.00925926 </v>
   <v>       0.00925926 </v>
   <v>       0.00462963 </v>
   <v>       0.00925926 </v>
   <v>       0.00925926 </v>
   <v>       0.00925926 </v>
   <v>       0.00925926 </v>
   <v>       0.00925926 </v>
   <v>       0.00925926 </v>
   <v>       0.00925926 </v>
   <v>       0.00925926 </v>
   <v>       0.00925926 </v>
   <v>       0.00925926 </v>
   <v>       0.00925926 </v>
   <v>       0.00925926 </v>
   <v>       0.00925926 </v>
   <v>       0.00925926 </v>
   <v>       0.00925926 </v>
   <v>       0.00925926 </v>
   <v>       0.00925926 </v>
   <v>       0.00925926 </v>
   <v>       0.00925926 </v>
   <v>       0.00925926 </v>
   <v>       0.00925926 </v>
   <v>       0.00925926 </v>
   <v>       0.00925926 </v>
   <v>       0.00925926 </v>
   <v>       0.00925926 </v>
   <v>       0.00925926 </v>
   <v>       0.00925926 </v>
   <v>       0.00925926 </v>
   <v>       0.00925926 </v>
   <v>       0.00925926 </v>
   <v>       0.00925926 </v>
   <v>       0.00925926 </v>
   <v>       0.00925926 </v>
   <v>       0.00925926 </v>
   <v>       0.00925926 </v>
   <v>       0.00925926 </v>
   <v>       0.00925926 </v>
   <v>       0.00925926 </v>
   <v>       0.00925926 </v>
   <v>       0.00925926 </v>
   <v>       0.00925926 </v>
   <v>       0.00925926 </v>
   <v>       0.00925926 </v>
   <v>       0.00925926 </v>
   <v>       0.00925926 </v>
   <v>       0.00925926 </v>
   <v>       0.00925926 </v>
   <v>       0.00925926 </v>
   <v>       0.00925926 </v>
   <v>       0.00925926 </v>
   <v>       0.00925926 </v>
   <v>       0.00925926 </v>
   <v>       0.00925926 </v>
   <v>       0.00925926 </v>
   <v>       0.00925926 </v>
   <v>       0.00925926 </v>
   <v>       0.00925926 </v>
   <v>       0.00925926 </v>
   <v>       0.00925926 </v>
   <v>       0.00925926 </v>
   <v>       0.00925926 </v>
   <v>       0.00925926 </v>
   <v>       0.00925926 </v>
   <v>       0.00925926 </v>
   <v>       0.00925926 </v>
   <v>       0.00925926 </v>
   <v>       0.00925926 </v>
   <v>       0.00925926 </v>
   <v>       0.00925926 </v>
   <v>       0.00925926 </v>
   <v>       0.00925926 </v>
   <v>       0.00925926 </v>
   <v>       0.00462963 </v>
   <v>       0.00925926 </v>
   <v>       0.00925926 </v>
   <v>       0.00462963 </v>
   <v>       0.00925926 </v>
   <v>       0.00925926 </v>
   <v>       0.00925926 </v>
   <v>       0.00925926 </v>
   <v>       0.00925926 </v>
   <v>       0.00925926 </v>
   <v>       0.00925926 </v>
   <v>       0.00925926 </v>
   <v>       0.00925926 </v>
   <v>       0.00925926 </v>
   <v>       0.00925926 </v>
   <v>       0.00925926 </v>
   <v>       0.00462963 </v>
   <v>       0.00925926 </v>
   <v>       0.00925926 </v>
   <v>       0.00462963 </v>
  </varray>
 </kpoints>
 <parameters>
  <separator name="general" >
   <i type="string" name="SYSTEM">Og_FCC</i>
   <i type="logical" name="LCOMPAT"> F  </i>
  </separator>
  <separator name="electronic" >
   <i type="string" name="PREC">accura</i>
   <i name="ENMAX">    300.00000000</i>
   <i name="ENAUG">    799.85900000</i>
   <i name="EDIFF">      0.00000001</i>
   <i type="int" name="IALGO">    38</i>
   <i type="int" name="IWAVPR">    10</i>
   <i type="int" name="NBANDS">   128</i>
   <i name="NELECT">      8.00000000</i>
   <i type="int" name="TURBO">     0</i>
   <i type="int" name="IRESTART">     0</i>
   <i type="int" name="NREBOOT">     0</i>
   <i type="int" name="NMIN">     0</i>
   <i name="EREF">      0.00000000</i>
   <separator name="electronic smearing" >
    <i type="int" name="ISMEAR">     0</i>
    <i name="SIGMA">      0.00100000</i>
    <i name="KSPACING">      0.50000000</i>
    <i type="logical" name="KGAMMA"> T  </i>
   </separator>
   <separator name="electronic projectors" >
    <i type="logical" name="LREAL"> F  </i>
    <v name="ROPT">      0.00000000</v>
    <i type="int" name="LMAXPAW">  -100</i>
    <i type="int" name="LMAXMIX">     2</i>
    <i type="logical" name="NLSPLINE"> F  </i>
   </separator>
   <separator name="electronic startup" >
    <i type="int" name="ISTART">     1</i>
    <i type="int" name="ICHARG">     0</i>
    <i type="int" name="INIWAV">     1</i>
   </separator>
   <separator name="electronic spin" >
    <i type="int" name="ISPIN">     1</i>
    <i type="logical" name="LNONCOLLINEAR"> F  </i>
    <v name="MAGMOM">      1.00000000</v>
    <i name="NUPDOWN">     -1.00000000</i>
    <i type="logical" name="LSORBIT"> F  </i>
    <v name="SAXIS">      0.00000000      0.00000000      1.00000000</v>
    <i type="logical" name="LSPIRAL"> F  </i>
    <v name="QSPIRAL">      0.00000000      0.00000000      0.00000000</v>
    <i type="logical" name="LZEROZ"> F  </i>
   </separator>
   <separator name="electronic exchange-correlation" >
    <i type="logical" name="LASPH"> F  </i>
    <i type="logical" name="LMETAGGA"> F  </i>
   </separator>
   <separator name="electronic convergence" >
    <i type="int" name="NELM">     1</i>
    <i type="int" name="NELMDL">     0</i>
    <i type="int" name="NELMIN">     2</i>
    <i name="ENINI">    300.00000000</i>
    <separator name="electronic convergence detail" >
     <i type="logical" name="LDIAG"> T  </i>
     <i type="logical" name="LSUBROT"> F  </i>
     <i name="WEIMIN">      0.00000000</i>
     <i name="EBREAK">      0.00000000</i>
     <i name="DEPER">      0.30000000</i>
     <i type="int" name="NRMM">     4</i>
     <i name="TIME">      0.40000000</i>
    </separator>
   </separator>
   <separator name="electronic mixer" >
    <i name="AMIX">      0.40000000</i>
    <i name="BMIX">      1.00000000</i>
    <i name="AMIN">      0.10000000</i>
    <i name="AMIX_MAG">      1.60000000</i>
    <i name="BMIX_MAG">      1.00000000</i>
    <separator name="electronic mixer details" >
     <i type="int" name="IMIX">     1</i>
     <i type="logical" name="MIXFIRST"> F  </i>
     <i type="int" name="MAXMIX">    50</i>
     <i name="WC">    100.00000000</i>
     <i type="int" name="INIMIX">     1</i>
     <i type="int" name="MIXPRE">     1</i>
     <i type="int" name="MREMOVE">     5</i>
    </separator>
   </separator>
   <separator name="electronic dipolcorrection" >
    <i type="logical" name="LDIPOL"> F  </i>
    <i type="logical" name="LMONO"> F  </i>
    <i type="int" name="IDIPOL">     0</i>
    <i name="EPSILON">      1.00000000</i>
    <v name="DIPOL">   -100.00000000   -100.00000000   -100.00000000</v>
    <i name="EFIELD">      0.00000000</i>
   </separator>
  </separator>
  <separator name="grids" >
   <i type="int" name="NGX">    20</i>
   <i type="int" name="NGY">    20</i>
   <i type="int" name="NGZ">    20</i>
   <i type="int" name="NGXF">    40</i>
   <i type="int" name="NGYF">    40</i>
   <i type="int" name="NGZF">    40</i>
   <i type="logical" name="ADDGRID"> T  </i>
  </separator>
  <separator name="ionic" >
   <i type="int" name="NSW">     1</i>
   <i type="int" name="IBRION">    -1</i>
   <i type="int" name="MDALGO">     0</i>
   <i type="int" name="ISIF">     3</i>
   <i name="PSTRESS">      0.00000000</i>
   <i name="EDIFFG">      0.00001000</i>
   <i type="int" name="NFREE">     5</i>
   <i name="POTIM">      0.10000000</i>
   <i name="SMASS">     -3.00000000</i>
   <i name="SCALEE">      1.00000000</i>
  </separator>
  <separator name="ionic md" >
   <i name="TEBEG">      0.00010000</i>
   <i name="TEEND">      0.00010000</i>
   <i type="int" name="NBLOCK">     1</i>
   <i type="int" name="KBLOCK">     1</i>
   <i type="int" name="NPACO">   256</i>
   <i name="APACO">     16.00000000</i>
  </separator>
  <separator name="symmetry" >
   <i type="int" name="ISYM">     0</i>
   <i name="SYMPREC">      0.00000010</i>
  </separator>
  <separator name="dos" >
   <i type="int" name="LORBIT">     0</i>
   <v name="RWIGS">     -1.00000000</v>
   <i type="int" name="NEDOS">   301</i>
   <i name="EMIN">     10.00000000</i>
   <i name="EMAX">    -10.00000000</i>
   <i name="EFERMI">      0.00000000</i>
  </separator>
  <separator name="writing" >
   <i type="int" name="NWRITE">     1</i>
   <i type="logical" name="LWAVE"> T  </i>
   <i type="logical" name="LDOWNSAMPLE"> F  </i>
   <i type="logical" name="LCHARG"> F  </i>
   <i type="logical" name="LPARD"> F  </i>
   <i type="logical" name="LVTOT"> F  </i>
   <i type="logical" name="LVHAR"> F  </i>
   <i type="logical" name="LELF"> F  </i>
   <i type="logical" name="LOPTICS"> F  </i>
   <v name="STM">      0.00000000      0.00000000      0.00000000      0.00000000      0.00000000      0.00000000      0.00000000</v>
  </separator>
  <separator name="performance" >
   <i type="int" name="NPAR">     2</i>
   <i type="int" name="NSIM">     4</i>
   <i type="int" name="NBLK">    -1</i>
   <i type="logical" name="LPLANE"> T  </i>
   <i type="logical" name="LSCALAPACK"> T  </i>
   <i type="logical" name="LSCAAWARE"> F  </i>
   <i type="logical" name="LSCALU"> F  </i>
   <i type="logical" name="LASYNC"> F  </i>
   <i type="logical" name="LORBITALREAL"> F  </i>
  </separator>
  <separator name="miscellaneous" >
   <i type="int" name="IDIOT">     3</i>
   <i type="int" name="ISPECIAL">     0</i>
   <i type="logical" name="LMUSIC"> F  </i>
   <v name="POMASS">     39.94900000</v>
   <v name="DARWINR">      0.00000000</v>
   <v name="DARWINV">      1.00000000</v>
   <i type="logical" name="LCORR"> T  </i>
  </separator>
  <i type="logical" name="GGA_COMPAT"> F  </i>
  <i type="logical" name="LBERRY"> F  </i>
  <i type="int" name="ICORELEVEL">     0</i>
  <i type="logical" name="LDAU"> F  </i>
  <i type="int" name="I_CONSTRAINED_M">     0</i>
  <separator name="electronic exchange-correlation" >
   <i type="string" name="GGA">PE</i>
   <i type="int" name="VOSKOWN">     0</i>
   <i type="logical" name="LHFCALC"> T  </i>
   <i type="string" name="PRECFOCK">normal</i>
   <i type="logical" name="LSYMGRAD"> F  </i>
   <i type="logical" name="LHFONE"> F  </i>
   <i type="logical" name="LRHFCALC"> F  </i>
   <i type="logical" name="LTHOMAS"> F  </i>
   <i type="logical" name="LMODELHF"> F  </i>
   <i name="ENCUT4O">     -1.00000000</i>
   <i type="int" name="EXXOEP">     0</i>
   <i type="int" name="FOURORBIT">     0</i>
   <i name="AEXX">      1.00000000</i>
   <i name="HFALPHA">     -1.00000000</i>
   <i name="MCALPHA">      0.00000000</i>
   <i name="ALDAX">      0.00000000</i>
   <i name="AGGAX">      0.00000000</i>
   <i name="ALDAC">      0.00000000</i>
   <i name="AGGAC">      0.00000000</i>
   <i type="int" name="NKREDX">     1</i>
   <i type="int" name="NKREDY">     1</i>
   <i type="int" name="NKREDZ">     1</i>
   <i type="logical" name="SHIFTRED"> F  </i>
   <i type="logical" name="ODDONLY"> F  </i>
   <i type="logical" name="EVENONLY"> F  </i>
   <i type="int" name="LMAXFOCK">     4</i>
   <i type="int" name="NMAXFOCKAE">     1</i>
   <i type="logical" name="LFOCKAEDFT"> F  </i>
   <i name="HFSCREEN">      0.00000000</i>
   <i name="HFSCREENC">      0.00000000</i>
   <i type="int" name="NBANDSGWLOW">     1</i>
  </separator>
  <separator name="vdW DFT" >
   <i type="logical" name="LUSE_VDW"> F  </i>
   <i name="Zab_VDW">     -0.84910000</i>
   <i name="PARAM1">      0.12340000</i>
   <i name="PARAM2">      1.00000000</i>
   <i name="PARAM3">      0.00000000</i>
  </separator>
  <separator name="model GW" >
   <i type="int" name="MODEL_GW">     0</i>
   <i name="MODEL_EPS0">     19.78946251</i>
   <i name="MODEL_ALPHA">      1.00000000</i>
  </separator>
  <separator name="linear response parameters" >
   <i type="logical" name="LEPSILON"> F  </i>
   <i type="logical" name="LRPA"> F  </i>
   <i type="logical" name="LNABLA"> F  </i>
   <i type="logical" name="LVEL"> F  </i>
   <i type="int" name="KINTER">     0</i>
   <i name="CSHIFT">      0.10000000</i>
   <i name="OMEGAMAX">     -1.00000000</i>
   <i name="DEG_THRESHOLD">      0.00200000</i>
   <i name="RTIME">     -0.10000000</i>
   <i name="WPLASMAI">      0.00000000</i>
   <v name="DFIELD">      0.00000000      0.00000000      0.00000000</v>
   <v name="WPLASMA">      0.00000000      0.00000000      0.00000000      0.00000000      0.00000000      0.00000000      0.00000000      0.00000000      0.00000000</v>
  </separator>
  <separator name="orbital magnetization" >
   <i type="logical" name="NUCIND"> F  </i>
   <v name="MAGPOS">      0.00000000      0.00000000      0.00000000</v>
   <i type="logical" name="LNICSALL"> T  </i>
   <i type="logical" name="ORBITALMAG"> F  </i>
   <i type="logical" name="LMAGBLOCH"> F  </i>
   <i type="logical" name="LCHIMAG"> F  </i>
   <i type="logical" name="LGAUGE"> T  </i>
   <i type="int" name="MAGATOM">     0</i>
   <v name="MAGDIPOL">      0.00000000      0.00000000      0.00000000</v>
   <v name="AVECCONST">      0.00000000      0.00000000      0.00000000</v>
  </separator>
  <separator name="response functions" >
   <i type="logical" name="LADDER"> F  </i>
   <i type="logical" name="LRPAFORCE"> F  </i>
   <i type="logical" name="LFXC"> F  </i>
   <i type="logical" name="LHARTREE"> T  </i>
   <i type="int" name="IBSE">     0</i>
   <v type="int" name="KPOINT">    -1     0     0     0</v>
   <i type="logical" name="LTCTE"> F  </i>
   <i type="logical" name="LTETE"> F  </i>
   <i type="logical" name="LTRIPLET"> F  </i>
   <i type="logical" name="LFXCEPS"> F  </i>
   <i type="logical" name="LFXHEG"> F  </i>
   <i type="int" name="NATURALO">     2</i>
   <i type="logical" name="L2ORDER"> F  </i>
   <i type="logical" name="LMP2LT"> F  </i>
   <i type="logical" name="LUSEW"> F  </i>
   <i name="ENCUTGW">    200.00000000</i>
   <i name="ENCUTGWSOFT">    200.00000000</i>
   <i name="ENCUTLF">     -1.00000000</i>
   <i type="int" name="LMAXMP2">    -1</i>
   <i name="SCISSOR">      0.00000000</i>
   <i type="int" name="NOMEGA">    50</i>
   <i type="int" name="NOMEGAR">    50</i>
   <i type="int" name="NBANDSGW">    -1</i>
   <i type="int" name="NBANDSO">    -1</i>
   <i type="int" name="NBANDSV">    -1</i>
   <i type="int" name="NELM">     1</i>
   <i type="int" name="NELMHF">     1</i>
   <i type="int" name="DIM">     3</i>
   <i type="int" name="ANTIRES">     0</i>
   <i name="OMEGAMAX">    -30.00000000</i>
   <i name="OMEGAMIN">    -30.00000000</i>
   <i name="OMEGATL">   -200.00000000</i>
   <i type="int" name="OMEGAGRID">     0</i>
   <i name="CSHIFT">     -0.10000000</i>
   <i type="logical" name="SELFENERGY"> F  </i>
   <i type="logical" name="LSPECTRAL"> T  </i>
   <i type="logical" name="LSPECTRALGW"> F  </i>
   <i type="logical" name="LSINGLES"> F  </i>
   <i type="logical" name="LFERMIGW"> F  </i>
   <i type="logical" name="ODDONLYGW"> F  </i>
   <i type="logical" name="EVENONLYGW"> F  </i>
   <i type="int" name="NKREDLFX">     1</i>
   <i type="int" name="NKREDLFY">     1</i>
   <i type="int" name="NKREDLFZ">     1</i>
   <i type="int" name="MAXMEM">  2800</i>
   <i type="int" name="TELESCOPE">     0</i>
   <i type="int" name="TAUPAR">     1</i>
   <i type="int" name="OMEGAPAR">    -1</i>
   <i name="LAMBDA">      1.00000000</i>
  </separator>
  <separator name="External order field" >
   <i name="OFIELD_KAPPA">      0.00000000</i>
   <v name="OFIELD_K">      0.00000000      0.00000000      0.00000000</v>
   <i name="OFIELD_Q6_NEAR">      0.00000000</i>
   <i name="OFIELD_Q6_FAR">      0.00000000</i>
   <i name="OFIELD_A">      0.00000000</i>
  </separator>
 </parameters>
 <atominfo>
  <atoms>       1 </atoms>
  <types>       1 </types>
  <array name="atoms" >
   <dimension dim="1">ion</dimension>
   <field type="string">element</field>
   <field type="int">atomtype</field>
   <set>
    <rc><c>Ar</c><c>   1</c></rc>
   </set>
  </array>
  <array name="atomtypes" >
   <dimension dim="1">type</dimension>
   <field type="int">atomspertype</field>
   <field type="string">element</field>
   <field>mass</field>
   <field>valence</field>
   <field type="string">pseudopotential</field>
   <set>
    <rc><c>   1</c><c>Ar</c><c>     39.94900000</c><c>      8.00000000</c><c>  PAW_PBE Ar_GW 21Aug2013               </c></rc>
   </set>
  </array>
 </atominfo>
 <structure name="initialpos" >
  <crystal>
   <varray name="basis" >
    <v>       3.59969675       0.00000000       0.00000000 </v>
    <v>       1.79984837       3.11742883      -0.00000000 </v>
    <v>       1.79984837       1.03914294       2.93914009 </v>
   </varray>
   <i name="volume">     32.98243751 </i>
   <varray name="rec_basis" >
    <v>       0.27780118      -0.16038859      -0.11341186 </v>
    <v>       0.00000000       0.32077717      -0.11341186 </v>
    <v>      -0.00000000       0.00000000       0.34023557 </v>
   </varray>
  </crystal>
  <varray name="positions" >
   <v>       0.00000000       0.00000000       0.00000000 </v>
  </varray>
  <varray name="velocities" >
   <v>       0.00000000       0.00000000       0.00000000 </v>
  </varray>
 </structure>
 <kpoints>
  <generation param="Gamma">
   <v type="int" name="divisions">       6        6        6 </v>
   <v name="usershift">      0.00000000       0.00000000       0.00000000 </v>
   <v name="genvec1">      0.16666667       0.00000000       0.00000000 </v>
   <v name="genvec2">      0.00000000       0.16666667      -0.00000000 </v>
   <v name="genvec3">      0.00000000       0.00000000       0.16666667 </v>
   <v name="shift">      0.00000000       0.00000000       0.00000000 </v>
  </generation>
  <varray name="kpointlist" >
   <v>       0.00000000       0.00000000       0.00000000 </v>
   <v>       0.16666667       0.00000000      -0.00000000 </v>
   <v>       0.33333333       0.00000000      -0.00000000 </v>
   <v>       0.50000000       0.00000000      -0.00000000 </v>
   <v>      -0.33333333      -0.00000000       0.00000000 </v>
   <v>      -0.16666667      -0.00000000       0.00000000 </v>
   <v>       0.00000000       0.16666667      -0.00000000 </v>
   <v>       0.16666667       0.16666667      -0.00000000 </v>
   <v>       0.33333333       0.16666667      -0.00000000 </v>
   <v>       0.50000000       0.16666667      -0.00000000 </v>
   <v>      -0.33333333       0.16666667      -0.00000000 </v>
   <v>      -0.16666667       0.16666667       0.00000000 </v>
   <v>       0.00000000       0.33333333       0.00000000 </v>
   <v>       0.16666667       0.33333333      -0.00000000 </v>
   <v>       0.33333333       0.33333333      -0.00000000 </v>
   <v>       0.50000000       0.33333333      -0.00000000 </v>
   <v>      -0.33333333       0.33333333       0.00000000 </v>
   <v>      -0.16666667       0.33333333       0.00000000 </v>
   <v>       0.00000000       0.50000000      -0.00000000 </v>
   <v>       0.16666667       0.50000000       0.00000000 </v>
   <v>       0.33333333       0.50000000       0.00000000 </v>
   <v>       0.50000000       0.50000000      -0.00000000 </v>
   <v>      -0.33333333       0.50000000      -0.00000000 </v>
   <v>      -0.16666667       0.50000000      -0.00000000 </v>
   <v>      -0.00000000      -0.33333333       0.00000000 </v>
   <v>       0.16666667      -0.33333333      -0.00000000 </v>
   <v>       0.33333333      -0.33333333      -0.00000000 </v>
   <v>       0.50000000      -0.33333333      -0.00000000 </v>
   <v>      -0.33333333      -0.33333333       0.00000000 </v>
   <v>      -0.16666667      -0.33333333       0.00000000 </v>
   <v>      -0.00000000      -0.16666667       0.00000000 </v>
   <v>       0.16666667      -0.16666667      -0.00000000 </v>
   <v>       0.33333333      -0.16666667      -0.00000000 </v>
   <v>       0.50000000      -0.16666667      -0.00000000 </v>
   <v>      -0.33333333      -0.16666667       0.00000000 </v>
   <v>      -0.16666667      -0.16666667       0.00000000 </v>
   <v>      -0.00000000       0.00000000       0.16666667 </v>
   <v>       0.16666667       0.00000000       0.16666667 </v>
   <v>       0.33333333      -0.00000000       0.16666667 </v>
   <v>       0.50000000       0.00000000       0.16666667 </v>
   <v>      -0.33333333      -0.00000000       0.16666667 </v>
   <v>      -0.16666667      -0.00000000       0.16666667 </v>
   <v>       0.00000000       0.16666667       0.16666667 </v>
   <v>       0.16666667       0.16666667       0.16666667 </v>
   <v>       0.33333333       0.16666667       0.16666667 </v>
   <v>       0.50000000       0.16666667       0.16666667 </v>
   <v>      -0.33333333       0.16666667       0.16666667 </v>
   <v>      -0.16666667       0.16666667       0.16666667 </v>
   <v>       0.00000000       0.33333333       0.16666667 </v>
   <v>       0.16666667       0.33333333       0.16666667 </v>
   <v>       0.33333333       0.33333333       0.16666667 </v>
   <v>       0.50000000       0.33333333       0.16666667 </v>
   <v>      -0.33333333       0.33333333       0.16666667 </v>
   <v>      -0.16666667       0.33333333       0.16666667 </v>
   <v>       0.00000000       0.50000000       0.16666667 </v>
   <v>       0.16666667       0.50000000       0.16666667 </v>
   <v>       0.33333333       0.50000000       0.16666667 </v>
   <v>       0.50000000       0.50000000       0.16666667 </v>
   <v>      -0.33333333       0.50000000       0.16666667 </v>
   <v>      -0.16666667       0.50000000       0.16666667 </v>
   <v>       0.00000000      -0.33333333       0.16666667 </v>
   <v>       0.16666667      -0.33333333       0.16666667 </v>
   <v>       0.33333333      -0.33333333       0.16666667 </v>
   <v>       0.50000000      -0.33333333       0.16666667 </v>
   <v>      -0.33333333      -0.33333333       0.16666667 </v>
   <v>      -0.16666667      -0.33333333       0.16666667 </v>
   <v>       0.00000000      -0.16666667       0.16666667 </v>
   <v>       0.16666667      -0.16666667       0.16666667 </v>
   <v>       0.33333333      -0.16666667       0.16666667 </v>
   <v>       0.50000000      -0.16666667       0.16666667 </v>
   <v>      -0.33333333      -0.16666667       0.16666667 </v>
   <v>      -0.16666667      -0.16666667       0.16666667 </v>
   <v>       0.00000000       0.00000000       0.33333333 </v>
   <v>       0.16666667       0.00000000       0.33333333 </v>
   <v>       0.33333333       0.00000000       0.33333333 </v>
   <v>       0.50000000      -0.00000000       0.33333333 </v>
   <v>      -0.33333333       0.00000000       0.33333333 </v>
   <v>      -0.16666667       0.00000000       0.33333333 </v>
   <v>      -0.00000000       0.16666667       0.33333333 </v>
   <v>       0.16666667       0.16666667       0.33333333 </v>
   <v>       0.33333333       0.16666667       0.33333333 </v>
   <v>       0.50000000       0.16666667       0.33333333 </v>
   <v>      -0.33333333       0.16666667       0.33333333 </v>
   <v>      -0.16666667       0.16666667       0.33333333 </v>
   <v>      -0.00000000       0.33333333       0.33333333 </v>
   <v>       0.16666667       0.33333333       0.33333333 </v>
   <v>       0.33333333       0.33333333       0.33333333 </v>
   <v>       0.50000000       0.33333333       0.33333333 </v>
   <v>      -0.33333333       0.33333333       0.33333333 </v>
   <v>      -0.16666667       0.33333333       0.33333333 </v>
   <v>      -0.00000000       0.50000000       0.33333333 </v>
   <v>       0.16666667       0.50000000       0.33333333 </v>
   <v>       0.33333333       0.50000000       0.33333333 </v>
   <v>       0.50000000       0.50000000       0.33333333 </v>
   <v>      -0.33333333       0.50000000       0.33333333 </v>
   <v>      -0.16666667       0.50000000       0.33333333 </v>
   <v>      -0.00000000      -0.33333333       0.33333333 </v>
   <v>       0.16666667      -0.33333333       0.33333333 </v>
   <v>       0.33333333      -0.33333333       0.33333333 </v>
   <v>       0.50000000      -0.33333333       0.33333333 </v>
   <v>      -0.33333333      -0.33333333       0.33333333 </v>
   <v>      -0.16666667      -0.33333333       0.33333333 </v>
   <v>      -0.00000000      -0.16666667       0.33333333 </v>
   <v>       0.16666667      -0.16666667       0.33333333 </v>
   <v>       0.33333333      -0.16666667       0.33333333 </v>
   <v>       0.50000000      -0.16666667       0.33333333 </v>
   <v>      -0.33333333      -0.16666667       0.33333333 </v>
   <v>      -0.16666667      -0.16666667       0.33333333 </v>
   <v>      -0.00000000       0.00000000       0.50000000 </v>
   <v>       0.16666667      -0.00000000       0.50000000 </v>
   <v>       0.33333333       0.00000000       0.50000000 </v>
   <v>       0.50000000       0.00000000       0.50000000 </v>
   <v>      -0.33333333       0.00000000       0.50000000 </v>
   <v>      -0.16666667      -0.00000000       0.50000000 </v>
   <v>       0.00000000       0.16666667       0.50000000 </v>
   <v>       0.16666667       0.16666667       0.50000000 </v>
   <v>       0.33333333       0.16666667       0.50000000 </v>
   <v>       0.50000000       0.16666667       0.50000000 </v>
   <v>      -0.33333333       0.16666667       0.50000000 </v>
   <v>      -0.16666667       0.16666667       0.50000000 </v>
   <v>      -0.00000000       0.33333333       0.50000000 </v>
   <v>       0.16666667       0.33333333       0.50000000 </v>
   <v>       0.33333333       0.33333333       0.50000000 </v>
   <v>       0.50000000       0.33333333       0.50000000 </v>
   <v>      -0.33333333       0.33333333       0.50000000 </v>
   <v>      -0.16666667       0.33333333       0.50000000 </v>
   <v>       0.00000000       0.50000000       0.50000000 </v>
   <v>       0.16666667       0.50000000       0.50000000 </v>
   <v>       0.33333333       0.50000000       0.50000000 </v>
   <v>       0.50000000       0.50000000       0.50000000 </v>
   <v>      -0.33333333       0.50000000       0.50000000 </v>
   <v>      -0.16666667       0.50000000       0.50000000 </v>
   <v>      -0.00000000      -0.33333333       0.50000000 </v>
   <v>       0.16666667      -0.33333333       0.50000000 </v>
   <v>       0.33333333      -0.33333333       0.50000000 </v>
   <v>       0.50000000      -0.33333333       0.50000000 </v>
   <v>      -0.33333333      -0.33333333       0.50000000 </v>
   <v>      -0.16666667      -0.33333333       0.50000000 </v>
   <v>      -0.00000000      -0.16666667       0.50000000 </v>
   <v>       0.16666667      -0.16666667       0.50000000 </v>
   <v>       0.33333333      -0.16666667       0.50000000 </v>
   <v>       0.50000000      -0.16666667       0.50000000 </v>
   <v>      -0.33333333      -0.16666667       0.50000000 </v>
   <v>      -0.16666667      -0.16666667       0.50000000 </v>
   <v>       0.00000000      -0.00000000      -0.33333333 </v>
   <v>       0.16666667      -0.00000000      -0.33333333 </v>
   <v>       0.33333333      -0.00000000      -0.33333333 </v>
   <v>       0.50000000       0.00000000      -0.33333333 </v>
   <v>      -0.33333333      -0.00000000      -0.33333333 </v>
   <v>      -0.16666667      -0.00000000      -0.33333333 </v>
   <v>       0.00000000       0.16666667      -0.33333333 </v>
   <v>       0.16666667       0.16666667      -0.33333333 </v>
   <v>       0.33333333       0.16666667      -0.33333333 </v>
   <v>       0.50000000       0.16666667      -0.33333333 </v>
   <v>      -0.33333333       0.16666667      -0.33333333 </v>
   <v>      -0.16666667       0.16666667      -0.33333333 </v>
   <v>       0.00000000       0.33333333      -0.33333333 </v>
   <v>       0.16666667       0.33333333      -0.33333333 </v>
   <v>       0.33333333       0.33333333      -0.33333333 </v>
   <v>       0.50000000       0.33333333      -0.33333333 </v>
   <v>      -0.33333333       0.33333333      -0.33333333 </v>
   <v>      -0.16666667       0.33333333      -0.33333333 </v>
   <v>       0.00000000       0.50000000      -0.33333333 </v>
   <v>       0.16666667       0.50000000      -0.33333333 </v>
   <v>       0.33333333       0.50000000      -0.33333333 </v>
   <v>       0.50000000       0.50000000      -0.33333333 </v>
   <v>      -0.33333333       0.50000000      -0.33333333 </v>
   <v>      -0.16666667       0.50000000      -0.33333333 </v>
   <v>       0.00000000      -0.33333333      -0.33333333 </v>
   <v>       0.16666667      -0.33333333      -0.33333333 </v>
   <v>       0.33333333      -0.33333333      -0.33333333 </v>
   <v>       0.50000000      -0.33333333      -0.33333333 </v>
   <v>      -0.33333333      -0.33333333      -0.33333333 </v>
   <v>      -0.16666667      -0.33333333      -0.33333333 </v>
   <v>       0.00000000      -0.16666667      -0.33333333 </v>
   <v>       0.16666667      -0.16666667      -0.33333333 </v>
   <v>       0.33333333      -0.16666667      -0.33333333 </v>
   <v>       0.50000000      -0.16666667      -0.33333333 </v>
   <v>      -0.33333333      -0.16666667      -0.33333333 </v>
   <v>      -0.16666667      -0.16666667      -0.33333333 </v>
   <v>       0.00000000      -0.00000000      -0.16666667 </v>
   <v>       0.16666667       0.00000000      -0.16666667 </v>
   <v>       0.33333333       0.00000000      -0.16666667 </v>
   <v>       0.50000000       0.00000000      -0.16666667 </v>
   <v>      -0.33333333       0.00000000      -0.16666667 </v>
   <v>      -0.16666667      -0.00000000      -0.16666667 </v>
   <v>       0.00000000       0.16666667      -0.16666667 </v>
   <v>       0.16666667       0.16666667      -0.16666667 </v>
   <v>       0.33333333       0.16666667      -0.16666667 </v>
   <v>       0.50000000       0.16666667      -0.16666667 </v>
   <v>      -0.33333333       0.16666667      -0.16666667 </v>
   <v>      -0.16666667       0.16666667      -0.16666667 </v>
   <v>       0.00000000       0.33333333      -0.16666667 </v>
   <v>       0.16666667       0.33333333      -0.16666667 </v>
   <v>       0.33333333       0.33333333      -0.16666667 </v>
   <v>       0.50000000       0.33333333      -0.16666667 </v>
   <v>      -0.33333333       0.33333333      -0.16666667 </v>
   <v>      -0.16666667       0.33333333      -0.16666667 </v>
   <v>       0.00000000       0.50000000      -0.16666667 </v>
   <v>       0.16666667       0.50000000      -0.16666667 </v>
   <v>       0.33333333       0.50000000      -0.16666667 </v>
   <v>       0.50000000       0.50000000      -0.16666667 </v>
   <v>      -0.33333333       0.50000000      -0.16666667 </v>
   <v>      -0.16666667       0.50000000      -0.16666667 </v>
   <v>       0.00000000      -0.33333333      -0.16666667 </v>
   <v>       0.16666667      -0.33333333      -0.16666667 </v>
   <v>       0.33333333      -0.33333333      -0.16666667 </v>
   <v>       0.50000000      -0.33333333      -0.16666667 </v>
   <v>      -0.33333333      -0.33333333      -0.16666667 </v>
   <v>      -0.16666667      -0.33333333      -0.16666667 </v>
   <v>       0.00000000      -0.16666667      -0.16666667 </v>
   <v>       0.16666667      -0.16666667      -0.16666667 </v>
   <v>       0.33333333      -0.16666667      -0.16666667 </v>
   <v>       0.50000000      -0.16666667      -0.16666667 </v>
   <v>      -0.33333333      -0.16666667      -0.16666667 </v>
   <v>      -0.16666667      -0.16666667      -0.16666667 </v>
  </varray>
  <varray name="weights" >
   <v>       0.00462963 </v>
   <v>       0.00462963 </v>
   <v>       0.00462963 </v>
   <v>       0.00462963 </v>
   <v>       0.00462963 </v>
   <v>       0.00462963 </v>
   <v>       0.00462963 </v>
   <v>       0.00462963 </v>
   <v>       0.00462963 </v>
   <v>       0.00462963 </v>
   <v>       0.00462963 </v>
   <v>       0.00462963 </v>
   <v>       0.00462963 </v>
   <v>       0.00462963 </v>
   <v>       0.00462963 </v>
   <v>       0.00462963 </v>
   <v>       0.00462963 </v>
   <v>       0.00462963 </v>
   <v>       0.00462963 </v>
   <v>       0.00462963 </v>
   <v>       0.00462963 </v>
   <v>       0.00462963 </v>
   <v>       0.00462963 </v>
   <v>       0.00462963 </v>
   <v>       0.00462963 </v>
   <v>       0.00462963 </v>
   <v>       0.00462963 </v>
   <v>       0.00462963 </v>
   <v>       0.00462963 </v>
   <v>       0.00462963 </v>
   <v>       0.00462963 </v>
   <v>       0.00462963 </v>
   <v>       0.00462963 </v>
   <v>       0.00462963 </v>
   <v>       0.00462963 </v>
   <v>       0.00462963 </v>
   <v>       0.00462963 </v>
   <v>       0.00462963 </v>
   <v>       0.00462963 </v>
   <v>       0.00462963 </v>
   <v>       0.00462963 </v>
   <v>       0.00462963 </v>
   <v>       0.00462963 </v>
   <v>       0.00462963 </v>
   <v>       0.00462963 </v>
   <v>       0.00462963 </v>
   <v>       0.00462963 </v>
   <v>       0.00462963 </v>
   <v>       0.00462963 </v>
   <v>       0.00462963 </v>
   <v>       0.00462963 </v>
   <v>       0.00462963 </v>
   <v>       0.00462963 </v>
   <v>       0.00462963 </v>
   <v>       0.00462963 </v>
   <v>       0.00462963 </v>
   <v>       0.00462963 </v>
   <v>       0.00462963 </v>
   <v>       0.00462963 </v>
   <v>       0.00462963 </v>
   <v>       0.00462963 </v>
   <v>       0.00462963 </v>
   <v>       0.00462963 </v>
   <v>       0.00462963 </v>
   <v>       0.00462963 </v>
   <v>       0.00462963 </v>
   <v>       0.00462963 </v>
   <v>       0.00462963 </v>
   <v>       0.00462963 </v>
   <v>       0.00462963 </v>
   <v>       0.00462963 </v>
   <v>       0.00462963 </v>
   <v>       0.00462963 </v>
   <v>       0.00462963 </v>
   <v>       0.00462963 </v>
   <v>       0.00462963 </v>
   <v>       0.00462963 </v>
   <v>       0.00462963 </v>
   <v>       0.00462963 </v>
   <v>       0.00462963 </v>
   <v>       0.00462963 </v>
   <v>       0.00462963 </v>
   <v>       0.00462963 </v>
   <v>       0.00462963 </v>
   <v>       0.00462963 </v>
   <v>       0.00462963 </v>
   <v>       0.00462963 </v>
   <v>       0.00462963 </v>
   <v>       0.00462963 </v>
   <v>       0.00462963 </v>
   <v>       0.00462963 </v>
   <v>       0.00462963 </v>
   <v>       0.00462963 </v>
   <v>       0.00462963 </v>
   <v>       0.00462963 </v>
   <v>       0.00462963 </v>
   <v>       0.00462963 </v>
   <v>       0.00462963 </v>
   <v>       0.00462963 </v>
   <v>       0.00462963 </v>
   <v>       0.00462963 </v>
   <v>       0.00462963 </v>
   <v>       0.00462963 </v>
   <v>       0.00462963 </v>
   <v>       0.00462963 </v>
   <v>       0.00462963 </v>
   <v>       0.00462963 </v>
   <v>       0.00462963 </v>
   <v>       0.00462963 </v>
   <v>       0.00462963 </v>
   <v>       0.00462963 </v>
   <v>       0.00462963 </v>
   <v>       0.00462963 </v>
   <v>       0.00462963 </v>
   <v>       0.00462963 </v>
   <v>       0.00462963 </v>
   <v>       0.00462963 </v>
   <v>       0.00462963 </v>
   <v>       0.00462963 </v>
   <v>       0.00462963 </v>
   <v>       0.00462963 </v>
   <v>       0.00462963 </v>
   <v>       0.00462963 </v>
   <v>       0.00462963 </v>
   <v>       0.00462963 </v>
   <v>       0.00462963 </v>
   <v>       0.00462963 </v>
   <v>       0.00462963 </v>
   <v>       0.00462963 </v>
   <v>       0.00462963 </v>
   <v>       0.00462963 </v>
   <v>       0.00462963 </v>
   <v>       0.00462963 </v>
   <v>       0.00462963 </v>
   <v>       0.00462963 </v>
   <v>       0.00462963 </v>
   <v>       0.00462963 </v>
   <v>       0.00462963 </v>
   <v>       0.00462963 </v>
   <v>       0.00462963 </v>
   <v>       0.00462963 </v>
   <v>       0.00462963 </v>
   <v>       0.00462963 </v>
   <v>       0.00462963 </v>
   <v>       0.00462963 </v>
   <v>       0.00462963 </v>
   <v>       0.00462963 </v>
   <v>       0.00462963 </v>
   <v>       0.00462963 </v>
   <v>       0.00462963 </v>
   <v>       0.00462963 </v>
   <v>       0.00462963 </v>
   <v>       0.00462963 </v>
   <v>       0.00462963 </v>
   <v>       0.00462963 </v>
   <v>       0.00462963 </v>
   <v>       0.00462963 </v>
   <v>       0.00462963 </v>
   <v>       0.00462963 </v>
   <v>       0.00462963 </v>
   <v>       0.00462963 </v>
   <v>       0.00462963 </v>
   <v>       0.00462963 </v>
   <v>       0.00462963 </v>
   <v>       0.00462963 </v>
   <v>       0.00462963 </v>
   <v>       0.00462963 </v>
   <v>       0.00462963 </v>
   <v>       0.00462963 </v>
   <v>       0.00462963 </v>
   <v>       0.00462963 </v>
   <v>       0.00462963 </v>
   <v>       0.00462963 </v>
   <v>       0.00462963 </v>
   <v>       0.00462963 </v>
   <v>       0.00462963 </v>
   <v>       0.00462963 </v>
   <v>       0.00462963 </v>
   <v>       0.00462963 </v>
   <v>       0.00462963 </v>
   <v>       0.00462963 </v>
   <v>       0.00462963 </v>
   <v>       0.00462963 </v>
   <v>       0.00462963 </v>
   <v>       0.00462963 </v>
   <v>       0.00462963 </v>
   <v>       0.00462963 </v>
   <v>       0.00462963 </v>
   <v>       0.00462963 </v>
   <v>       0.00462963 </v>
   <v>       0.00462963 </v>
   <v>       0.00462963 </v>
   <v>       0.00462963 </v>
   <v>       0.00462963 </v>
   <v>       0.00462963 </v>
   <v>       0.00462963 </v>
   <v>       0.00462963 </v>
   <v>       0.00462963 </v>
   <v>       0.00462963 </v>
   <v>       0.00462963 </v>
   <v>       0.00462963 </v>
   <v>       0.00462963 </v>
   <v>       0.00462963 </v>
   <v>       0.00462963 </v>
   <v>       0.00462963 </v>
   <v>       0.00462963 </v>
   <v>       0.00462963 </v>
   <v>       0.00462963 </v>
   <v>       0.00462963 </v>
   <v>       0.00462963 </v>
   <v>       0.00462963 </v>
   <v>       0.00462963 </v>
   <v>       0.00462963 </v>
   <v>       0.00462963 </v>
   <v>       0.00462963 </v>
   <v>       0.00462963 </v>
  </varray>
 </kpoints>
 <dielectricfunction comment="HEAD OF MICROSCOPIC DIELECTRIC TENSOR (INDEPENDENT PARTICLE)">
  <imag>
   <array>
    <dimension dim="1">gridpoints</dimension>
    <field>energy</field>
    <field>xx</field>
    <field>yy</field>
    <field>zz</field>
    <field>xy</field>
    <field>yz</field>
    <field>zx</field>
    <set>
     <r>     0.0000    -0.0000     0.0000    -0.0000    -0.0000     0.0000    -0.0000 </r>
     <r>     0.8033     0.0013     0.0013     0.0013    -0.0000    -0.0000     0.0000 </r>
     <r>     1.6035     0.0026     0.0026     0.0026    -0.0000    -0.0000     0.0000 </r>
     <r>     2.3979     0.0040     0.0040     0.0040    -0.0000    -0.0000     0.0000 </r>
     <r>     3.1838     0.0054     0.0054     0.0054    -0.0000    -0.0000     0.0000 </r>
     <r>     3.9593     0.0069     0.0069     0.0069    -0.0000    -0.0000     0.0000 </r>
     <r>     4.7229     0.0086     0.0086     0.0086    -0.0000    -0.0000     0.0000 </r>
     <r>     5.4737     0.0104     0.0104     0.0104    -0.0000    -0.0000     0.0000 </r>
     <r>     6.2111     0.0124     0.0124     0.0124    -0.0000    -0.0000     0.0000 </r>
     <r>     6.9354     0.0146     0.0146     0.0146    -0.0000    -0.0000     0.0000 </r>
     <r>     7.6471     0.0172     0.0172     0.0172    -0.0000    -0.0000     0.0000 </r>
     <r>     8.3471     0.0202     0.0202     0.0202    -0.0000    -0.0000     0.0000 </r>
     <r>     9.0368     0.0237     0.0237     0.0237    -0.0000    -0.0000     0.0000 </r>
     <r>     9.7178     0.0280     0.0280     0.0280    -0.0000    -0.0000     0.0000 </r>
     <r>    10.3919     0.0334     0.0334     0.0334    -0.0000    -0.0000     0.0000 </r>
     <r>    11.0612     0.0403     0.0403     0.0403    -0.0000    -0.0000     0.0000 </r>
     <r>    11.7278     0.0497     0.0497     0.0497    -0.0000    -0.0000     0.0000 </r>
     <r>    12.3940     0.0636     0.0635     0.0635    -0.0000     0.0000     0.0000 </r>
     <r>    13.0625     0.0874     0.0874     0.0874     0.0000     0.0000     0.0000 </r>
     <r>    13.7359     0.1367     0.1366     0.1367     0.0000     0.0000     0.0000 </r>
     <r>    14.4171     0.2454     0.2454     0.2454    -0.0000    -0.0000     0.0000 </r>
     <r>    15.1094     0.4244     0.4244     0.4244    -0.0000    -0.0000     0.0000 </r>
     <r>    15.8163     0.5806     0.5806     0.5806    -0.0000    -0.0000     0.0000 </r>
     <r>    16.5415     0.8416     0.8416     0.8415    -0.0000     0.0000     0.0000 </r>
     <r>    17.2896     1.2613     1.2613     1.2612    -0.0001    -0.0001    -0.0001 </r>
     <r>    18.0650     1.6800     1.6801     1.6800    -0.0001    -0.0001    -0.0001 </r>
     <r>    18.8731     1.8993     1.8992     1.8995    -0.0001    -0.0001     0.0000 </r>
     <r>    19.7210     2.2585     2.2585     2.2585    -0.0002    -0.0001    -0.0000 </r>
     <r>    20.6151     2.5474     2.5474     2.5477    -0.0004    -0.0002    -0.0000 </r>
     <r>    21.5643     2.6644     2.6645     2.6650    -0.0010    -0.0003     0.0002 </r>
     <r>    22.5790     2.5669     2.5663     2.5688    -0.0036    -0.0016     0.0007 </r>
     <r>    23.6705     2.3468     2.3456     2.3522    -0.0096    -0.0044     0.0018 </r>
     <r>    24.8545     1.6707     1.6705     1.6714    -0.0012    -0.0006     0.0002 </r>
     <r>    26.1493     1.0518     1.0526     1.0483     0.0064     0.0029    -0.0012 </r>
     <r>    27.5761     0.6154     0.6159     0.6132     0.0041     0.0019    -0.0007 </r>
     <r>    29.1632     0.3655     0.3656     0.3650     0.0008     0.0004    -0.0001 </r>
     <r>    30.9477     0.2226     0.2226     0.2225     0.0001     0.0001    -0.0000 </r>
     <r>    32.9744     0.1114     0.1114     0.1114     0.0000     0.0000    -0.0000 </r>
     <r>    35.3058     0.0736     0.0736     0.0736     0.0000     0.0000    -0.0000 </r>
     <r>    38.0229     0.0485     0.0485     0.0485    -0.0000    -0.0000     0.0000 </r>
     <r>    41.2396     0.0361     0.0361     0.0360     0.0000     0.0000    -0.0000 </r>
     <r>    45.1145     0.0231     0.0231     0.0231     0.0000     0.0000    -0.0000 </r>
     <r>    49.8808     0.0155     0.0155     0.0155     0.0000     0.0000    -0.0000 </r>
     <r>    55.8910     0.0136     0.0136     0.0136     0.0000     0.0000    -0.0000 </r>
     <r>    63.7071     0.0120     0.0120     0.0120     0.0000     0.0000    -0.0000 </r>
     <r>    74.2806     0.0094     0.0094     0.0094     0.0000     0.0000    -0.0000 </r>
     <r>    89.3627     0.0072     0.0072     0.0072     0.0000     0.0000    -0.0000 </r>
     <r>   112.5655     0.0045     0.0045     0.0045     0.0000     0.0000    -0.0000 </r>
     <r>   152.7317     0.0013     0.0013     0.0013     0.0000     0.0000    -0.0000 </r>
     <r>   238.7818     0.0000     0.0000     0.0000     0.0000     0.0000    -0.0000 </r>
    </set>
   </array>
  </imag>
  <real>
   <array>
    <dimension dim="1">gridpoints</dimension>
    <field>energy</field>
    <field>xx</field>
    <field>yy</field>
    <field>zz</field>
    <field>xy</field>
    <field>yz</field>
    <field>zx</field>
    <set>
     <r>     0.0000     1.7342     1.7342     1.7343    -0.0001    -0.0000     0.0000 </r>
     <r>     0.8033     1.7353     1.7353     1.7354    -0.0001    -0.0000     0.0000 </r>
     <r>     1.6035     1.7386     1.7386     1.7386    -0.0001    -0.0000     0.0000 </r>
     <r>     2.3979     1.7441     1.7440     1.7441    -0.0001    -0.0000     0.0000 </r>
     <r>     3.1838     1.7518     1.7517     1.7518    -0.0001    -0.0000     0.0000 </r>
     <r>     3.9593     1.7617     1.7617     1.7618    -0.0001    -0.0001     0.0000 </r>
     <r>     4.7229     1.7741     1.7741     1.7741    -0.0001    -0.0001     0.0000 </r>
     <r>     5.4737     1.7889     1.7889     1.7889    -0.0001    -0.0001     0.0000 </r>
     <r>     6.2111     1.8063     1.8063     1.8064    -0.0001    -0.0001     0.0000 </r>
     <r>     6.9354     1.8267     1.8267     1.8267    -0.0001    -0.0001     0.0000 </r>
     <r>     7.6471     1.8502     1.8502     1.8503    -0.0001    -0.0001     0.0000 </r>
     <r>     8.3471     1.8774     1.8774     1.8774    -0.0001    -0.0001     0.0000 </r>
     <r>     9.0368     1.9088     1.9088     1.9089    -0.0001    -0.0001     0.0000 </r>
     <r>     9.7178     1.9453     1.9453     1.9454    -0.0001    -0.0001     0.0000 </r>
     <r>    10.3919     1.9882     1.9882     1.9883    -0.0002    -0.0001     0.0000 </r>
     <r>    11.0612     2.0391     2.0391     2.0392    -0.0002    -0.0001     0.0000 </r>
     <r>    11.7278     2.1007     2.1007     2.1008    -0.0002    -0.0001     0.0000 </r>
     <r>    12.3940     2.1775     2.1774     2.1776    -0.0002    -0.0001     0.0000 </r>
     <r>    13.0625     2.2766     2.2765     2.2767    -0.0002    -0.0001     0.0000 </r>
     <r>    13.7359     2.4057     2.4057     2.4058    -0.0003    -0.0002     0.0001 </r>
     <r>    14.4171     2.5601     2.5602     2.5603    -0.0003    -0.0002     0.0001 </r>
     <r>    15.1094     2.6678     2.6677     2.6679    -0.0003    -0.0001     0.0000 </r>
     <r>    15.8163     2.7702     2.7702     2.7704    -0.0004    -0.0002     0.0000 </r>
     <r>    16.5415     2.9193     2.9193     2.9195    -0.0004    -0.0002     0.0000 </r>
     <r>    17.2896     2.9595     2.9595     2.9598    -0.0005    -0.0003    -0.0000 </r>
     <r>    18.0650     2.7521     2.7520     2.7526    -0.0005    -0.0002     0.0001 </r>
     <r>    18.8731     2.5312     2.5311     2.5316    -0.0007    -0.0003     0.0002 </r>
     <r>    19.7210     2.3002     2.3001     2.3007    -0.0010    -0.0004     0.0002 </r>
     <r>    20.6151     1.8431     1.8430     1.8439    -0.0014    -0.0005     0.0003 </r>
     <r>    21.5643     1.2677     1.2673     1.2688    -0.0021    -0.0010     0.0005 </r>
     <r>    22.5790     0.6967     0.6962     0.6988    -0.0036    -0.0017     0.0007 </r>
     <r>    23.6705     0.0714     0.0717     0.0700     0.0026     0.0011    -0.0005 </r>
     <r>    24.8545    -0.3726    -0.3714    -0.3781     0.0099     0.0046    -0.0018 </r>
     <r>    26.1493    -0.3716    -0.3711    -0.3742     0.0046     0.0022    -0.0008 </r>
     <r>    27.5761    -0.1934    -0.1936    -0.1927    -0.0014    -0.0006     0.0003 </r>
     <r>    29.1632     0.0311     0.0309     0.0321    -0.0017    -0.0008     0.0003 </r>
     <r>    30.9477     0.2139     0.2138     0.2143    -0.0007    -0.0003     0.0001 </r>
     <r>    32.9744     0.3786     0.3786     0.3788    -0.0004    -0.0002     0.0001 </r>
     <r>    35.3058     0.5244     0.5243     0.5245    -0.0002    -0.0001     0.0000 </r>
     <r>    38.0229     0.6262     0.6262     0.6263    -0.0001    -0.0000     0.0000 </r>
     <r>    41.2396     0.7066     0.7066     0.7066    -0.0001    -0.0000     0.0000 </r>
     <r>    45.1145     0.7699     0.7699     0.7700    -0.0001    -0.0000     0.0000 </r>
     <r>    49.8808     0.8251     0.8251     0.8251    -0.0000    -0.0000     0.0000 </r>
     <r>    55.8910     0.8693     0.8693     0.8693    -0.0000    -0.0000     0.0000 </r>
     <r>    63.7071     0.9030     0.9030     0.9030    -0.0000    -0.0000     0.0000 </r>
     <r>    74.2806     0.9299     0.9299     0.9299    -0.0000    -0.0000     0.0000 </r>
     <r>    89.3627     0.9517     0.9516     0.9517    -0.0000    -0.0000     0.0000 </r>
     <r>   112.5655     0.9686     0.9686     0.9686    -0.0000    -0.0000     0.0000 </r>
     <r>   152.7317     0.9823     0.9823     0.9823    -0.0000    -0.0000     0.0000 </r>
     <r>   238.7818     0.9928     0.9928     0.9928    -0.0000    -0.0000     0.0000 </r>
    </set>
   </array>
  </real>
 </dielectricfunction>
 <varray name="epsilon_diag_mic" >
  <v>       0.00000000       1.73424337 </v>
  <v>       2.13776313       1.28528338 </v>
  <v>       4.27552626       1.06692357 </v>
  <v>       6.41328939       1.01191268 </v>
  <v>       6.41328939       1.01191407 </v>
  <v>       4.27552626       1.06692866 </v>
  <v>       2.13776313       1.28529994 </v>
  <v>       2.13776313       1.28526752 </v>
  <v>       2.46847624       1.22786079 </v>
  <v>       4.09350474       1.07579016 </v>
  <v>       6.04650722       1.01667071 </v>
  <v>       5.37991923       1.02950380 </v>
  <v>       3.49095257       1.11380406 </v>
  <v>       4.27552626       1.06692077 </v>
  <v>       4.09350474       1.07578796 </v>
  <v>       4.93695247       1.04160906 </v>
  <v>       6.41328939       1.01185906 </v>
  <v>       6.98190515       1.00686959 </v>
  <v>       5.37991923       1.02950171 </v>
  <v>       6.41328939       1.01191185 </v>
  <v>       6.04650722       1.01666992 </v>
  <v>       6.41328939       1.01185878 </v>
  <v>       6.41328939       1.01191463 </v>
  <v>       6.41328939       1.01186252 </v>
  <v>       6.04650722       1.01667459 </v>
  <v>       4.27552626       1.06693099 </v>
  <v>       5.37991923       1.02950534 </v>
  <v>       6.98190515       1.00687006 </v>
  <v>       6.41328939       1.01186229 </v>
  <v>       4.93695247       1.04161807 </v>
  <v>       4.09350474       1.07580238 </v>
  <v>       2.13776313       1.28530066 </v>
  <v>       3.49095257       1.11380899 </v>
  <v>       5.37991923       1.02950368 </v>
  <v>       6.04650722       1.01667402 </v>
  <v>       4.09350474       1.07580164 </v>
  <v>       2.46847624       1.22789713 </v>
  <v>       2.13776313       1.28525267 </v>
  <v>       2.46847624       1.22790898 </v>
  <v>       4.09350474       1.07579057 </v>
  <v>       6.04650722       1.01667039 </v>
  <v>       5.37991923       1.02950138 </v>
  <v>       3.49095257       1.11380115 </v>
  <v>       2.46847624       1.22783887 </v>
  <v>       2.13776313       1.28519683 </v>
  <v>       3.49095257       1.11377667 </v>
  <v>       5.37991923       1.02949798 </v>
  <v>       6.04650722       1.01667065 </v>
  <v>       4.09350474       1.07578884 </v>
  <v>       4.09350474       1.07578320 </v>
  <v>       3.49095257       1.11377280 </v>
  <v>       4.09350474       1.07577784 </v>
  <v>       5.51968067       1.02627683 </v>
  <v>       5.51968067       1.02627934 </v>
  <v>       6.04650722       1.01666906 </v>
  <v>       5.37991923       1.02949580 </v>
  <v>       5.51968067       1.02627538 </v>
  <v>       6.41328939       1.01185726 </v>
  <v>       5.37991923       1.02950296 </v>
  <v>       6.04650722       1.01667160 </v>
  <v>       6.41328939       1.01186075 </v>
  <v>       5.51968067       1.02628316 </v>
  <v>       3.49095257       1.11379976 </v>
  <v>       4.09350474       1.07579505 </v>
  <v>       5.51968067       1.02628039 </v>
  <v>       5.51968067       1.02628197 </v>
  <v>       4.09350474       1.07579392 </v>
  <v>       4.27552626       1.06691497 </v>
  <v>       4.09350474       1.07578568 </v>
  <v>       4.93695247       1.04160556 </v>
  <v>       6.41328939       1.01185734 </v>
  <v>       6.98190515       1.00686869 </v>
  <v>       5.37991923       1.02949852 </v>
  <v>       4.09350474       1.07578058 </v>
  <v>       3.49095257       1.11376954 </v>
  <v>       4.09350474       1.07577878 </v>
  <v>       5.51968067       1.02627520 </v>
  <v>       5.51968067       1.02627690 </v>
  <v>       4.93695247       1.04160412 </v>
  <v>       4.09350474       1.07577336 </v>
  <v>       4.27552626       1.06690606 </v>
  <v>       5.37991923       1.02949305 </v>
  <v>       6.98190515       1.00686771 </v>
  <v>       6.41328939       1.01185794 </v>
  <v>       6.41328939       1.01185731 </v>
  <v>       5.51968067       1.02627356 </v>
  <v>       5.37991923       1.02949174 </v>
  <v>       6.04650722       1.01666578 </v>
  <v>       6.98190515       1.00686728 </v>
  <v>       6.98190515       1.00686906 </v>
  <v>       5.37991923       1.02949966 </v>
  <v>       5.51968067       1.02627826 </v>
  <v>       6.41328939       1.01185785 </v>
  <v>       6.04650722       1.01667010 </v>
  <v>       6.41328939       1.01191045 </v>
  <v>       6.04650722       1.01666788 </v>
  <v>       6.41328939       1.01185636 </v>
  <v>       6.04650722       1.01666734 </v>
  <v>       5.37991923       1.02949415 </v>
  <v>       5.51968067       1.02627309 </v>
  <v>       6.41328939       1.01185538 </v>
  <v>       6.41328939       1.01185662 </v>
  <v>       5.51968067       1.02627303 </v>
  <v>       5.37991923       1.02949086 </v>
  <v>       6.04650722       1.01666479 </v>
  <v>       6.41328939       1.01185567 </v>
  <v>       6.04650722       1.01666440 </v>
  <v>       6.41328939       1.01190756 </v>
  <v>       6.98190515       1.00686681 </v>
  <v>       6.98190515       1.00687269 </v>
  <v>       6.41328939       1.01191689 </v>
  <v>       6.41328939       1.01186383 </v>
  <v>       6.04650722       1.01667787 </v>
  <v>       6.41328939       1.01191818 </v>
  <v>       6.04650722       1.01667912 </v>
  <v>       6.41328939       1.01186559 </v>
  <v>       6.41328939       1.01186502 </v>
  <v>       6.04650722       1.01667886 </v>
  <v>       5.37991923       1.02951415 </v>
  <v>       5.51968067       1.02629241 </v>
  <v>       6.04650722       1.01667799 </v>
  <v>       6.41328939       1.01186436 </v>
  <v>       5.51968067       1.02629139 </v>
  <v>       5.37991923       1.02951364 </v>
  <v>       4.27552626       1.06693862 </v>
  <v>       5.37991923       1.02950842 </v>
  <v>       6.98190515       1.00687038 </v>
  <v>       6.41328939       1.01186300 </v>
  <v>       4.93695247       1.04162260 </v>
  <v>       4.09350474       1.07581534 </v>
  <v>       5.37991923       1.02950845 </v>
  <v>       6.04650722       1.01667448 </v>
  <v>       6.41328939       1.01186200 </v>
  <v>       5.51968067       1.02628700 </v>
  <v>       6.98190515       1.00687029 </v>
  <v>       6.98190515       1.00687185 </v>
  <v>       6.41328939       1.01186441 </v>
  <v>       6.04650722       1.01667816 </v>
  <v>       5.37991923       1.02951210 </v>
  <v>       5.51968067       1.02629034 </v>
  <v>       4.93695247       1.04162408 </v>
  <v>       6.41328939       1.01186352 </v>
  <v>       6.98190515       1.00687178 </v>
  <v>       5.37991923       1.02951230 </v>
  <v>       4.27552626       1.06694499 </v>
  <v>       4.09350474       1.07581473 </v>
  <v>       4.09350474       1.07581307 </v>
  <v>       5.51968067       1.02628768 </v>
  <v>       5.51968067       1.02628991 </v>
  <v>       4.09350474       1.07581740 </v>
  <v>       3.49095257       1.11382763 </v>
  <v>       2.13776313       1.28532901 </v>
  <v>       3.49095257       1.11381893 </v>
  <v>       5.37991923       1.02950418 </v>
  <v>       6.04650722       1.01667545 </v>
  <v>       4.09350474       1.07580957 </v>
  <v>       2.46847624       1.22797732 </v>
  <v>       3.49095257       1.11381269 </v>
  <v>       4.09350474       1.07579944 </v>
  <v>       5.51968067       1.02628237 </v>
  <v>       5.51968067       1.02628540 </v>
  <v>       4.09350474       1.07580506 </v>
  <v>       5.37991923       1.02950339 </v>
  <v>       5.51968067       1.02628255 </v>
  <v>       6.41328939       1.01186037 </v>
  <v>       6.04650722       1.01667257 </v>
  <v>       6.04650722       1.01667612 </v>
  <v>       6.41328939       1.01186387 </v>
  <v>       5.51968067       1.02628822 </v>
  <v>       5.37991923       1.02950904 </v>
  <v>       4.09350474       1.07580799 </v>
  <v>       5.51968067       1.02628736 </v>
  <v>       5.51968067       1.02628867 </v>
  <v>       4.09350474       1.07580923 </v>
  <v>       3.49095257       1.11381909 </v>
  <v>       2.46847624       1.22791932 </v>
  <v>       4.09350474       1.07580473 </v>
  <v>       6.04650722       1.01667363 </v>
  <v>       5.37991923       1.02950886 </v>
  <v>       3.49095257       1.11381842 </v>
  <v>       2.13776313       1.28532203 </v>
 </varray>
 <dielectricfunction comment="1 + v P,  with REDUCIBLE POLARIZABILTY P=P_0 (1 -(v+f) P_0)^-1">
  <imag>
   <array>
    <dimension dim="1">gridpoints</dimension>
    <field>energy</field>
    <field>xx</field>
    <field>yy</field>
    <field>zz</field>
    <field>xy</field>
    <field>yz</field>
    <field>zx</field>
    <set>
     <r>     0.0000    -0.0000     0.0000    -0.0000     0.0000    -0.0000     0.0000 </r>
     <r>     0.8033     0.0013     0.0013     0.0013     0.0000     0.0000    -0.0000 </r>
     <r>     1.6035     0.0026     0.0026     0.0026     0.0000     0.0000    -0.0000 </r>
     <r>     2.3979     0.0040     0.0040     0.0040     0.0000     0.0000    -0.0000 </r>
     <r>     3.1838     0.0054     0.0054     0.0054     0.0000     0.0000    -0.0000 </r>
     <r>     3.9593     0.0069     0.0069     0.0069     0.0000     0.0000    -0.0000 </r>
     <r>     4.7229     0.0086     0.0086     0.0086     0.0000     0.0000    -0.0000 </r>
     <r>     5.4737     0.0104     0.0104     0.0104     0.0000     0.0000    -0.0000 </r>
     <r>     6.2111     0.0123     0.0123     0.0123     0.0000     0.0000    -0.0000 </r>
     <r>     6.9354     0.0146     0.0146     0.0146     0.0000     0.0000    -0.0000 </r>
     <r>     7.6471     0.0171     0.0172     0.0172     0.0000     0.0000    -0.0000 </r>
     <r>     8.3471     0.0201     0.0201     0.0201     0.0000     0.0000    -0.0000 </r>
     <r>     9.0368     0.0237     0.0237     0.0237     0.0000     0.0000    -0.0000 </r>
     <r>     9.7178     0.0280     0.0280     0.0280     0.0000     0.0000    -0.0000 </r>
     <r>    10.3919     0.0333     0.0333     0.0333     0.0000     0.0000    -0.0000 </r>
     <r>    11.0612     0.0402     0.0403     0.0403     0.0000     0.0000    -0.0000 </r>
     <r>    11.7278     0.0496     0.0496     0.0497     0.0000     0.0000    -0.0000 </r>
     <r>    12.3940     0.0634     0.0635     0.0635     0.0000    -0.0000    -0.0000 </r>
     <r>    13.0625     0.0872     0.0873     0.0874    -0.0000    -0.0000    -0.0000 </r>
     <r>    13.7359     0.1362     0.1364     0.1366    -0.0000    -0.0000    -0.0000 </r>
     <r>    14.4171     0.2443     0.2451     0.2452     0.0000     0.0000    -0.0000 </r>
     <r>    15.1094     0.4234     0.4243     0.4236     0.0000     0.0000    -0.0000 </r>
     <r>    15.8163     0.5798     0.5803     0.5794     0.0000     0.0000    -0.0000 </r>
     <r>    16.5415     0.8386     0.8404     0.8398     0.0000    -0.0000    -0.0000 </r>
     <r>    17.2896     1.2560     1.2617     1.2599     0.0001     0.0001     0.0001 </r>
     <r>    18.0650     1.6747     1.6787     1.6804     0.0001     0.0001     0.0001 </r>
     <r>    18.8731     1.8977     1.8996     1.8987     0.0001     0.0001    -0.0000 </r>
     <r>    19.7210     2.2567     2.2603     2.2544     0.0002     0.0001     0.0000 </r>
     <r>    20.6151     2.5454     2.5542     2.5475     0.0004     0.0002     0.0000 </r>
     <r>    21.5643     2.6660     2.6646     2.6648     0.0010     0.0003    -0.0002 </r>
     <r>    22.5790     2.5721     2.5590     2.5691     0.0036     0.0016    -0.0007 </r>
     <r>    23.6705     2.3419     2.3371     2.3543     0.0096     0.0044    -0.0018 </r>
     <r>    24.8545     1.6712     1.6515     1.6649     0.0012     0.0006    -0.0002 </r>
     <r>    26.1493     1.0529     1.0486     1.0485    -0.0064    -0.0029     0.0012 </r>
     <r>    27.5761     0.6151     0.6206     0.6103    -0.0041    -0.0019     0.0007 </r>
     <r>    29.1632     0.3651     0.3710     0.3651    -0.0008    -0.0004     0.0001 </r>
     <r>    30.9477     0.2231     0.2249     0.2230    -0.0001    -0.0001     0.0000 </r>
     <r>    32.9744     0.1126     0.1132     0.1126    -0.0000    -0.0000     0.0000 </r>
     <r>    35.3058     0.0744     0.0754     0.0744    -0.0000    -0.0000     0.0000 </r>
     <r>    38.0229     0.0501     0.0512     0.0501     0.0000     0.0000    -0.0000 </r>
     <r>    41.2396     0.0362     0.0362     0.0361    -0.0000    -0.0000     0.0000 </r>
     <r>    45.1145     0.0216     0.0216     0.0217    -0.0000    -0.0000     0.0000 </r>
     <r>    49.8808     0.0148     0.0148     0.0148    -0.0000    -0.0000     0.0000 </r>
     <r>    55.8910     0.0129     0.0129     0.0129    -0.0000    -0.0000     0.0000 </r>
     <r>    63.7071     0.0118     0.0117     0.0118    -0.0000    -0.0000     0.0000 </r>
     <r>    74.2806     0.0094     0.0094     0.0094    -0.0000    -0.0000     0.0000 </r>
     <r>    89.3627     0.0072     0.0072     0.0072    -0.0000    -0.0000     0.0000 </r>
     <r>   112.5655     0.0045     0.0045     0.0046    -0.0000    -0.0000     0.0000 </r>
     <r>   152.7317     0.0013     0.0013     0.0013    -0.0000    -0.0000     0.0000 </r>
     <r>   238.7818     0.0000     0.0000     0.0000    -0.0000    -0.0000     0.0000 </r>
    </set>
   </array>
  </imag>
  <real>
   <array>
    <dimension dim="1">gridpoints</dimension>
    <field>energy</field>
    <field>xx</field>
    <field>yy</field>
    <field>zz</field>
    <field>xy</field>
    <field>yz</field>
    <field>zx</field>
    <set>
     <r>     0.0000     1.7337     1.7338     1.7339     0.0001     0.0000    -0.0000 </r>
     <r>     0.8033     1.7348     1.7349     1.7349     0.0001     0.0000    -0.0000 </r>
     <r>     1.6035     1.7381     1.7381     1.7382     0.0001     0.0000    -0.0000 </r>
     <r>     2.3979     1.7435     1.7436     1.7437     0.0001     0.0000    -0.0000 </r>
     <r>     3.1838     1.7512     1.7513     1.7514     0.0001     0.0000    -0.0000 </r>
     <r>     3.9593     1.7612     1.7613     1.7613     0.0001     0.0001    -0.0000 </r>
     <r>     4.7229     1.7735     1.7736     1.7737     0.0001     0.0001    -0.0000 </r>
     <r>     5.4737     1.7883     1.7884     1.7885     0.0001     0.0001    -0.0000 </r>
     <r>     6.2111     1.8057     1.8058     1.8059     0.0001     0.0001    -0.0000 </r>
     <r>     6.9354     1.8260     1.8262     1.8262     0.0001     0.0001    -0.0000 </r>
     <r>     7.6471     1.8495     1.8497     1.8498     0.0001     0.0001    -0.0000 </r>
     <r>     8.3471     1.8767     1.8768     1.8769     0.0001     0.0001    -0.0000 </r>
     <r>     9.0368     1.9081     1.9082     1.9083     0.0001     0.0001    -0.0000 </r>
     <r>     9.7178     1.9445     1.9448     1.9448     0.0001     0.0001    -0.0000 </r>
     <r>    10.3919     1.9873     1.9876     1.9877     0.0002     0.0001    -0.0000 </r>
     <r>    11.0612     2.0381     2.0384     2.0385     0.0002     0.0001    -0.0000 </r>
     <r>    11.7278     2.0997     2.1000     2.1001     0.0002     0.0001    -0.0000 </r>
     <r>    12.3940     2.1763     2.1767     2.1768     0.0002     0.0001    -0.0000 </r>
     <r>    13.0625     2.2751     2.2757     2.2758     0.0002     0.0001    -0.0000 </r>
     <r>    13.7359     2.4040     2.4049     2.4048     0.0003     0.0002    -0.0001 </r>
     <r>    14.4171     2.5583     2.5594     2.5589     0.0003     0.0002    -0.0001 </r>
     <r>    15.1094     2.6666     2.6671     2.6666     0.0003     0.0001    -0.0000 </r>
     <r>    15.8163     2.7677     2.7689     2.7692     0.0004     0.0002    -0.0000 </r>
     <r>    16.5415     2.9163     2.9190     2.9189     0.0004     0.0002    -0.0000 </r>
     <r>    17.2896     2.9576     2.9591     2.9600     0.0005     0.0003     0.0000 </r>
     <r>    18.0650     2.7556     2.7518     2.7528     0.0005     0.0002    -0.0001 </r>
     <r>    18.8731     2.5333     2.5321     2.5292     0.0007     0.0003    -0.0002 </r>
     <r>    19.7210     2.3034     2.3005     2.3010     0.0010     0.0004    -0.0002 </r>
     <r>    20.6151     1.8454     1.8421     1.8470     0.0014     0.0005    -0.0003 </r>
     <r>    21.5643     1.2749     1.2546     1.2688     0.0021     0.0010    -0.0005 </r>
     <r>    22.5790     0.6932     0.6905     0.6999     0.0036     0.0017    -0.0007 </r>
     <r>    23.6705     0.0711     0.0643     0.0681    -0.0026    -0.0011     0.0005 </r>
     <r>    24.8545    -0.3698    -0.3661    -0.3789    -0.0099    -0.0046     0.0018 </r>
     <r>    26.1493    -0.3717    -0.3560    -0.3725    -0.0046    -0.0022     0.0008 </r>
     <r>    27.5761    -0.1933    -0.1837    -0.1924     0.0014     0.0006    -0.0003 </r>
     <r>    29.1632     0.0320     0.0318     0.0340     0.0017     0.0008    -0.0003 </r>
     <r>    30.9477     0.2152     0.2142     0.2160     0.0007     0.0003    -0.0001 </r>
     <r>    32.9744     0.3788     0.3787     0.3791     0.0004     0.0002    -0.0001 </r>
     <r>    35.3058     0.5244     0.5248     0.5248     0.0002     0.0001    -0.0000 </r>
     <r>    38.0229     0.6259     0.6250     0.6259     0.0001     0.0000    -0.0000 </r>
     <r>    41.2396     0.7043     0.7038     0.7046     0.0001     0.0000    -0.0000 </r>
     <r>    45.1145     0.7692     0.7689     0.7693     0.0001     0.0000    -0.0000 </r>
     <r>    49.8808     0.8251     0.8250     0.8251     0.0000     0.0000    -0.0000 </r>
     <r>    55.8910     0.8696     0.8695     0.8696     0.0000     0.0000    -0.0000 </r>
     <r>    63.7071     0.9035     0.9035     0.9035     0.0000     0.0000    -0.0000 </r>
     <r>    74.2806     0.9302     0.9302     0.9302     0.0000     0.0000    -0.0000 </r>
     <r>    89.3627     0.9518     0.9518     0.9518     0.0000     0.0000    -0.0000 </r>
     <r>   112.5655     0.9686     0.9686     0.9686     0.0000     0.0000    -0.0000 </r>
     <r>   152.7317     0.9822     0.9823     0.9822     0.0000     0.0000    -0.0000 </r>
     <r>   238.7818     0.9928     0.9928     0.9928     0.0000     0.0000    -0.0000 </r>
    </set>
   </array>
  </real>
 </dielectricfunction>
 <dielectricfunction comment="INVERSE MACROSCOPIC DIELECTRIC TENSOR (including local field effects in RPA (Hartree))">
  <imag>
   <array>
    <dimension dim="1">gridpoints</dimension>
    <field>energy</field>
    <field>xx</field>
    <field>yy</field>
    <field>zz</field>
    <field>xy</field>
    <field>yz</field>
    <field>zx</field>
    <set>
     <r>     0.0000    -0.0000     0.0000    -0.0000     0.0000    -0.0000     0.0000 </r>
     <r>     0.8033     0.0013     0.0013     0.0013     0.0000     0.0000    -0.0000 </r>
     <r>     1.6035     0.0026     0.0026     0.0026     0.0000     0.0000    -0.0000 </r>
     <r>     2.3979     0.0040     0.0040     0.0040     0.0000     0.0000    -0.0000 </r>
     <r>     3.1838     0.0054     0.0054     0.0054     0.0000     0.0000    -0.0000 </r>
     <r>     3.9593     0.0069     0.0069     0.0069     0.0000     0.0000    -0.0000 </r>
     <r>     4.7229     0.0086     0.0086     0.0086     0.0000     0.0000    -0.0000 </r>
     <r>     5.4737     0.0104     0.0104     0.0104     0.0000     0.0000    -0.0000 </r>
     <r>     6.2111     0.0123     0.0123     0.0123     0.0000     0.0000    -0.0000 </r>
     <r>     6.9354     0.0146     0.0146     0.0146     0.0000     0.0000    -0.0000 </r>
     <r>     7.6471     0.0171     0.0172     0.0172     0.0000     0.0000    -0.0000 </r>
     <r>     8.3471     0.0201     0.0201     0.0201     0.0000     0.0000    -0.0000 </r>
     <r>     9.0368     0.0237     0.0237     0.0237     0.0000     0.0000    -0.0000 </r>
     <r>     9.7178     0.0280     0.0280     0.0280     0.0000     0.0000    -0.0000 </r>
     <r>    10.3919     0.0333     0.0333     0.0333     0.0000     0.0000    -0.0000 </r>
     <r>    11.0612     0.0402     0.0403     0.0403     0.0000     0.0000    -0.0000 </r>
     <r>    11.7278     0.0496     0.0496     0.0497     0.0000     0.0000    -0.0000 </r>
     <r>    12.3940     0.0634     0.0635     0.0635     0.0000    -0.0000    -0.0000 </r>
     <r>    13.0625     0.0872     0.0873     0.0874    -0.0000    -0.0000    -0.0000 </r>
     <r>    13.7359     0.1362     0.1364     0.1366    -0.0000    -0.0000    -0.0000 </r>
     <r>    14.4171     0.2443     0.2451     0.2452     0.0000     0.0000    -0.0000 </r>
     <r>    15.1094     0.4234     0.4243     0.4236     0.0000     0.0000    -0.0000 </r>
     <r>    15.8163     0.5798     0.5803     0.5794     0.0000     0.0000    -0.0000 </r>
     <r>    16.5415     0.8386     0.8404     0.8398     0.0000    -0.0000    -0.0000 </r>
     <r>    17.2896     1.2560     1.2617     1.2599     0.0000     0.0000     0.0000 </r>
     <r>    18.0650     1.6747     1.6787     1.6804     0.0000     0.0000     0.0000 </r>
     <r>    18.8731     1.8977     1.8996     1.8987     0.0000     0.0000    -0.0000 </r>
     <r>    19.7210     2.2567     2.2603     2.2544     0.0000     0.0000     0.0000 </r>
     <r>    20.6151     2.5454     2.5542     2.5475     0.0001     0.0000     0.0000 </r>
     <r>    21.5643     2.6660     2.6646     2.6648     0.0002     0.0001    -0.0000 </r>
     <r>    22.5790     2.5721     2.5590     2.5691     0.0006     0.0003    -0.0001 </r>
     <r>    23.6705     2.3419     2.3371     2.3543     0.0017     0.0008    -0.0003 </r>
     <r>    24.8545     1.6712     1.6515     1.6649     0.0002     0.0001    -0.0000 </r>
     <r>    26.1493     1.0529     1.0486     1.0485    -0.0012    -0.0005     0.0002 </r>
     <r>    27.5761     0.6151     0.6206     0.6103    -0.0007    -0.0003     0.0001 </r>
     <r>    29.1632     0.3651     0.3710     0.3651    -0.0002    -0.0001     0.0000 </r>
     <r>    30.9477     0.2231     0.2249     0.2230    -0.0000    -0.0000     0.0000 </r>
     <r>    32.9744     0.1126     0.1132     0.1126    -0.0000    -0.0000     0.0000 </r>
     <r>    35.3058     0.0744     0.0754     0.0744    -0.0000    -0.0000     0.0000 </r>
     <r>    38.0229     0.0501     0.0512     0.0501     0.0000     0.0000    -0.0000 </r>
     <r>    41.2396     0.0362     0.0362     0.0361    -0.0000    -0.0000     0.0000 </r>
     <r>    45.1145     0.0216     0.0216     0.0217    -0.0000    -0.0000     0.0000 </r>
     <r>    49.8808     0.0148     0.0148     0.0148    -0.0000    -0.0000     0.0000 </r>
     <r>    55.8910     0.0129     0.0129     0.0129    -0.0000    -0.0000     0.0000 </r>
[...]
       <r>   35.4796    0.0000 </r>
       <r>   35.4797    0.0000 </r>
       <r>   37.5725    0.0000 </r>
       <r>   37.5725    0.0000 </r>
       <r>   37.6252    0.0000 </r>
       <r>   38.1642    0.0000 </r>
       <r>   40.3194    0.0000 </r>
       <r>   42.8014    0.0000 </r>
       <r>   44.6733    0.0000 </r>
       <r>   44.6733    0.0000 </r>
       <r>   46.6506    0.0000 </r>
       <r>   48.4510    0.0000 </r>
       <r>   48.4510    0.0000 </r>
       <r>   49.1437    0.0000 </r>
       <r>   54.4610    0.0000 </r>
       <r>   54.4610    0.0000 </r>
       <r>   55.0451    0.0000 </r>
       <r>   55.7285    0.0000 </r>
       <r>   56.2861    0.0000 </r>
       <r>   56.2861    0.0000 </r>
       <r>   57.6772    0.0000 </r>
       <r>   57.6772    0.0000 </r>
       <r>   58.9426    0.0000 </r>
       <r>   63.2498    0.0000 </r>
       <r>   63.7487    0.0000 </r>
       <r>   63.7487    0.0000 </r>
       <r>   66.4739    0.0000 </r>
       <r>   66.4739    0.0000 </r>
       <r>   67.5057    0.0000 </r>
       <r>   67.5057    0.0000 </r>
       <r>   68.1860    0.0000 </r>
       <r>   70.9947    0.0000 </r>
       <r>   74.4287    0.0000 </r>
       <r>   74.4287    0.0000 </r>
       <r>   76.2518    0.0000 </r>
       <r>   76.5287    0.0000 </r>
       <r>   76.5287    0.0000 </r>
       <r>   77.5928    0.0000 </r>
       <r>   77.5928    0.0000 </r>
       <r>   78.8764    0.0000 </r>
       <r>   78.8764    0.0000 </r>
       <r>   80.2434    0.0000 </r>
       <r>   80.4267    0.0000 </r>
       <r>   81.1344    0.0000 </r>
       <r>   81.3657    0.0000 </r>
       <r>   83.4452    0.0000 </r>
       <r>   84.4321    0.0000 </r>
       <r>   84.4321    0.0000 </r>
       <r>   84.4831    0.0000 </r>
       <r>   84.4831    0.0000 </r>
       <r>   86.3898    0.0000 </r>
       <r>   88.6685    0.0000 </r>
       <r>   89.5453    0.0000 </r>
       <r>   89.5453    0.0000 </r>
       <r>   92.0717    0.0000 </r>
       <r>   92.0717    0.0000 </r>
       <r>   92.1387    0.0000 </r>
       <r>   92.1387    0.0000 </r>
       <r>   94.1082    0.0000 </r>
       <r>   94.1082    0.0000 </r>
       <r>   94.5607    0.0000 </r>
       <r>  100.7404    0.0000 </r>
       <r>  102.4603    0.0000 </r>
       <r>  103.7456    0.0000 </r>
       <r>  103.7456    0.0000 </r>
       <r>  104.6385    0.0000 </r>
       <r>  105.1031    0.0000 </r>
       <r>  106.0122    0.0000 </r>
       <r>  106.0122    0.0000 </r>
       <r>  106.5830    0.0000 </r>
       <r>  106.5830    0.0000 </r>
       <r>  106.9999    0.0000 </r>
       <r>  110.1766    0.0000 </r>
       <r>  110.9538    0.0000 </r>
       <r>  110.9538    0.0000 </r>
       <r>  112.2844    0.0000 </r>
       <r>  112.2844    0.0000 </r>
       <r>  113.8048    0.0000 </r>
       <r>  113.8048    0.0000 </r>
       <r>  114.4373    0.0000 </r>
       <r>  114.4935    0.0000 </r>
       <r>  114.6943    0.0000 </r>
       <r>  115.5819    0.0000 </r>
       <r>  116.1927    0.0000 </r>
       <r>  116.1927    0.0000 </r>
       <r>  116.2669    0.0000 </r>
       <r>  116.2669    0.0000 </r>
       <r>  118.8132    0.0000 </r>
       <r>  124.2031    0.0000 </r>
       <r>  124.2031    0.0000 </r>
       <r>  124.6220    0.0000 </r>
       <r>  124.8549    0.0000 </r>
       <r>  125.5535    0.0000 </r>
       <r>  125.5535    0.0000 </r>
       <r>  125.6867    0.0000 </r>
       <r>  125.6867    0.0000 </r>
       <r>  127.3250    0.0000 </r>
       <r>  127.5985    0.0000 </r>
       <r>  127.5985    0.0000 </r>
       <r>  127.7695    0.0000 </r>
       <r>  129.1308    0.0000 </r>
       <r>  129.1308    0.0000 </r>
       <r>  130.7585    0.0000 </r>
       <r>  130.7585    0.0000 </r>
       <r>  132.2443    0.0000 </r>
       <r>  132.5347    0.0000 </r>
       <r>  134.3260    0.0000 </r>
       <r>  134.3260    0.0000 </r>
      </set>
     </set>
    </set>
   </array>
  </eigenvalues>
  <separator name="orbital magnetization" >
   <v name="MAGDIPOLOUT">      0.00000000      0.00000000      0.00000000</v>
  </separator>
  <dos>
   <i name="efermi">     -8.38603899 </i>
   <total>
    <array>
     <dimension dim="1">gridpoints</dimension>
     <dimension dim="2">spin</dimension>
     <field>energy</field>
     <field>total</field>
     <field>integrated</field>
     <set>
      <set comment="spin 1">
       <r>   -32.0787     0.0000     0.0000 </r>
       <r>   -31.4789     0.0000     0.0000 </r>
       <r>   -30.8790     0.0000     0.0000 </r>
       <r>   -30.2792     0.0000     0.0000 </r>
       <r>   -29.6794     0.0000     0.0000 </r>
       <r>   -29.0796     0.0000     0.0000 </r>
       <r>   -28.4798     0.0000     0.0000 </r>
       <r>   -27.8800     0.0000     0.0000 </r>
       <r>   -27.2802     0.0000     0.0000 </r>
       <r>   -26.6804     0.0000     0.0000 </r>
       <r>   -26.0805     0.0000     0.0000 </r>
       <r>   -25.4807     0.0000     0.0000 </r>
       <r>   -24.8809     0.0000     0.0000 </r>
       <r>   -24.2811     0.0000     0.0000 </r>
       <r>   -23.6813     0.0000     0.2500 </r>
       <r>   -23.0815     0.0000     2.0000 </r>
       <r>   -22.4817     0.0000     2.0000 </r>
       <r>   -21.8818     0.0000     2.0000 </r>
       <r>   -21.2820     0.0000     2.0000 </r>
       <r>   -20.6822     0.0000     2.0000 </r>
       <r>   -20.0824     0.0000     2.0000 </r>
       <r>   -19.4826     0.0000     2.0000 </r>
       <r>   -18.8828     0.0000     2.0000 </r>
       <r>   -18.2830     0.0000     2.0000 </r>
       <r>   -17.6831     0.0000     2.0000 </r>
       <r>   -17.0833     0.0000     2.0000 </r>
       <r>   -16.4835     0.0000     2.0000 </r>
       <r>   -15.8837     0.0000     2.0000 </r>
       <r>   -15.2839     0.0000     2.0000 </r>
       <r>   -14.6841     0.0000     2.0000 </r>
       <r>   -14.0843     0.0000     2.0000 </r>
       <r>   -13.4845     0.0000     2.0000 </r>
       <r>   -12.8846     0.0000     2.0000 </r>
       <r>   -12.2848     0.0000     2.0000 </r>
       <r>   -11.6850     0.0000     2.0000 </r>
       <r>   -11.0852     0.0000     2.0000 </r>
       <r>   -10.4854     0.0000     2.0000 </r>
       <r>    -9.8856     0.0000     3.3611 </r>
       <r>    -9.2858     0.0000     4.3056 </r>
       <r>    -8.6859     0.0000     7.1574 </r>
       <r>    -8.0861     0.0000     8.0000 </r>
       <r>    -7.4863     0.0000     8.0000 </r>
       <r>    -6.8865     0.0000     8.0000 </r>
       <r>    -6.2867     0.0000     8.0000 </r>
       <r>    -5.6869     0.0000     8.0000 </r>
       <r>    -5.0871     0.0000     8.0000 </r>
       <r>    -4.4873     0.0000     8.0000 </r>
       <r>    -3.8874     0.0000     8.0000 </r>
       <r>    -3.2876     0.0000     8.0000 </r>
       <r>    -2.6878     0.0000     8.0000 </r>
       <r>    -2.0880     0.0000     8.0000 </r>
       <r>    -1.4882     0.0000     8.0000 </r>
       <r>    -0.8884     0.0000     8.0000 </r>
       <r>    -0.2886     0.0000     8.0000 </r>
       <r>     0.3113     0.0000     8.0000 </r>
       <r>     0.9111     0.0000     8.0000 </r>
       <r>     1.5109     0.0000     8.0000 </r>
       <r>     2.1107     0.0000     8.0000 </r>
       <r>     2.7105     0.0000     8.0000 </r>
       <r>     3.3103     0.0000     8.0000 </r>
       <r>     3.9101     0.0000     8.0000 </r>
       <r>     4.5100     0.0000     8.0000 </r>
       <r>     5.1098     0.0000     8.0000 </r>
       <r>     5.7096     0.0000     8.0000 </r>
       <r>     6.3094     0.0000     8.0093 </r>
       <r>     6.9092     0.0000     8.0833 </r>
       <r>     7.5090     0.0000     8.1389 </r>
       <r>     8.1088     0.0000     8.2500 </r>
       <r>     8.7086     0.0000     8.6296 </r>
       <r>     9.3085     0.0000     8.8889 </r>
       <r>     9.9083     0.0000     9.6667 </r>
       <r>    10.5081     0.0000    10.0278 </r>
       <r>    11.1079     0.3705    10.8611 </r>
       <r>    11.7077     0.0000    11.4167 </r>
       <r>    12.3075     0.0000    12.0278 </r>
       <r>    12.9073     0.0000    12.9722 </r>
       <r>    13.5072     0.0000    13.9907 </r>
       <r>    14.1070     0.0000    14.6481 </r>
       <r>    14.7068     0.0000    15.8426 </r>
       <r>    15.3066     0.0000    17.7870 </r>
       <r>    15.9064     0.0000    18.5278 </r>
       <r>    16.5062     0.0000    19.4352 </r>
       <r>    17.1060     0.0000    20.2593 </r>
       <r>    17.7059     0.0000    20.9259 </r>
       <r>    18.3057     0.0000    21.5926 </r>
       <r>    18.9055     0.0000    22.4815 </r>
       <r>    19.5053     0.0000    22.9444 </r>
       <r>    20.1051     0.0000    23.6389 </r>
       <r>    20.7049     0.0000    24.8241 </r>
       <r>    21.3047     0.0000    25.6204 </r>
       <r>    21.9045     0.0000    26.4352 </r>
       <r>    22.5044     0.0000    27.0556 </r>
       <r>    23.1042     0.0000    27.7500 </r>
       <r>    23.7040     0.0000    28.3981 </r>
       <r>    24.3038     0.0000    28.4722 </r>
       <r>    24.9036     0.0000    29.2130 </r>
       <r>    25.5034     0.0000    30.1389 </r>
       <r>    26.1032     0.1852    30.5000 </r>
       <r>    26.7031     0.0000    31.3611 </r>
       <r>    27.3029     0.0000    32.8796 </r>
       <r>    27.9027     0.0000    33.5278 </r>
       <r>    28.5025     0.0000    34.1389 </r>
       <r>    29.1023     0.0000    34.5833 </r>
       <r>    29.7021     0.0000    35.3056 </r>
       <r>    30.3019     0.0000    36.1389 </r>
       <r>    30.9017     0.0926    36.9537 </r>
       <r>    31.5016     0.0463    38.2037 </r>
       <r>    32.1014     0.0000    38.9259 </r>
       <r>    32.7012     0.0000    39.8426 </r>
       <r>    33.3010     0.0000    40.1759 </r>
       <r>    33.9008     0.0000    41.3241 </r>
       <r>    34.5006     0.0031    41.6778 </r>
       <r>    35.1004     0.0000    42.7130 </r>
       <r>    35.7003     0.0000    44.2870 </r>
       <r>    36.3001     0.3705    45.3796 </r>
       <r>    36.8999     0.0000    46.0741 </r>
       <r>    37.4997     0.0000    46.6296 </r>
       <r>    38.0995     0.0000    47.4630 </r>
       <r>    38.6993     0.0000    47.9815 </r>
       <r>    39.2991     0.0000    48.6759 </r>
       <r>    39.8990     0.0000    49.8981 </r>
       <r>    40.4988     0.0000    50.7870 </r>
       <r>    41.0986     0.0000    51.7315 </r>
       <r>    41.6984     0.0000    53.3519 </r>
       <r>    42.2982     0.0000    53.7593 </r>
       <r>    42.8980     0.0000    55.1481 </r>
       <r>    43.4978     0.0000    55.8704 </r>
       <r>    44.0976     0.0000    56.6481 </r>
       <r>    44.6975     0.0000    57.3333 </r>
       <r>    45.2973     0.0000    57.9444 </r>
       <r>    45.8971     0.0000    59.7963 </r>
       <r>    46.4969     0.0000    60.4907 </r>
       <r>    47.0967     0.0000    61.5278 </r>
       <r>    47.6965     0.0000    62.5093 </r>
       <r>    48.2963     0.0000    62.9630 </r>
       <r>    48.8962     0.0000    64.5926 </r>
       <r>    49.4960     0.0000    65.5556 </r>
       <r>    50.0958     0.0000    66.7222 </r>
       <r>    50.6956     0.0000    67.4259 </r>
       <r>    51.2954     0.0000    68.8333 </r>
       <r>    51.8952     0.0000    69.3056 </r>
       <r>    52.4950     0.0000    70.1111 </r>
       <r>    53.0949     0.0000    71.4444 </r>
       <r>    53.6947     0.0000    72.0833 </r>
       <r>    54.2945     0.0000    73.0278 </r>
       <r>    54.8943     0.0000    74.2315 </r>
       <r>    55.4941     0.0000    75.8889 </r>
       <r>    56.0939     0.0000    76.6204 </r>
       <r>    56.6937     0.0000    77.2500 </r>
       <r>    57.2935     0.0000    77.9722 </r>
       <r>    57.8934     0.0000    79.3241 </r>
       <r>    58.4932     0.3705    80.7500 </r>
       <r>    59.0930     0.0000    81.9722 </r>
       <r>    59.6928     0.0000    83.3519 </r>
       <r>    60.2926     0.0000    83.6111 </r>
       <r>    60.8924     0.0043    83.9470 </r>
       <r>    61.4922     0.0000    86.1204 </r>
       <r>    62.0921     0.0000    87.4352 </r>
       <r>    62.6919     0.0000    88.0926 </r>
       <r>    63.2917     0.4168    89.3796 </r>
       <r>    63.8915     0.0000    90.8611 </r>
       <r>    64.4913     0.1852    91.8611 </r>
       <r>    65.0911     0.0000    92.9074 </r>
       <r>    65.6909     0.0000    94.1944 </r>
       <r>    66.2907     0.0000    95.3981 </r>
       <r>    66.8906     0.0000    97.2593 </r>
       <r>    67.4904     0.0000    97.7407 </r>
       <r>    68.0902     0.0000    99.0463 </r>
       <r>    68.6900     0.0000    99.9722 </r>
       <r>    69.2898     0.3705   101.3056 </r>
       <r>    69.8896     0.0000   102.6667 </r>
       <r>    70.4894     0.0000   103.7593 </r>
       <r>    71.0893     0.0000   105.3519 </r>
       <r>    71.6891     0.0000   105.8333 </r>
       <r>    72.2889     0.0000   107.1296 </r>
       <r>    72.8887     0.0000   107.8148 </r>
       <r>    73.4885     0.0000   108.7407 </r>
       <r>    74.0883     0.0000   109.9352 </r>
       <r>    74.6881     0.0000   111.0278 </r>
       <r>    75.2880     0.0000   112.1204 </r>
       <r>    75.8878     0.0000   113.8056 </r>
       <r>    76.4876     0.0000   115.2037 </r>
       <r>    77.0874     0.0000   117.3056 </r>
       <r>    77.6872     0.0000   118.3056 </r>
       <r>    78.2870     0.0000   119.8241 </r>
       <r>    78.8868     0.3705   120.9722 </r>
       <r>    79.4866     0.0000   121.6574 </r>
       <r>    80.0865     0.0000   122.9907 </r>
       <r>    80.6863     0.0000   124.0278 </r>
       <r>    81.2861     0.0004   125.2132 </r>
       <r>    81.8859     0.3705   126.7500 </r>
       <r>    82.4857     0.0000   127.9722 </r>
       <r>    83.0855     0.0000   128.3611 </r>
       <r>    83.6853     0.0000   129.4074 </r>
       <r>    84.2852     0.0000   131.2685 </r>
       <r>    84.8850     0.0000   132.5833 </r>
       <r>    85.4848     0.0000   133.8889 </r>
       <r>    86.0846     0.0000   135.7407 </r>
       <r>    86.6844     0.0000   136.7315 </r>
       <r>    87.2842     0.0011   137.9636 </r>
       <r>    87.8840     0.0000   138.8519 </r>
       <r>    88.4839     0.0000   139.9630 </r>
       <r>    89.0837     0.9226   141.8867 </r>
       <r>    89.6835     0.0000   143.5741 </r>
       <r>    90.2833     0.0000   144.6481 </r>
       <r>    90.8831     0.0000   145.5741 </r>
       <r>    91.4829     0.0000   146.9630 </r>
       <r>    92.0827     0.0000   147.5278 </r>
       <r>    92.6825     0.4939   148.6573 </r>
       <r>    93.2824     0.0000   149.5833 </r>
       <r>    93.8822     0.3705   151.9722 </r>
       <r>    94.4820     0.0000   154.0833 </r>
       <r>    95.0818     0.0000   154.9352 </r>
       <r>    95.6816     0.0000   157.4537 </r>
       <r>    96.2814     0.0000   158.4722 </r>
       <r>    96.8812     0.3705   159.4722 </r>
       <r>    97.4811     0.0000   161.3981 </r>
       <r>    98.0809     0.0000   162.9537 </r>
       <r>    98.6807     0.0000   163.8426 </r>
       <r>    99.2805     0.0000   165.2870 </r>
       <r>    99.8803     0.0000   166.7315 </r>
       <r>   100.4801     0.0000   167.5463 </r>
       <r>   101.0799     0.0000   168.9907 </r>
       <r>   101.6797     0.0000   170.8056 </r>
       <r>   102.2796     0.0000   171.7130 </r>
       <r>   102.8794     0.0000   172.8426 </r>
       <r>   103.4792     0.0000   173.6944 </r>
       <r>   104.0790     0.0000   174.8426 </r>
       <r>   104.6788     0.0000   176.1574 </r>
       <r>   105.2786     0.0000   177.6759 </r>
       <r>   105.8784     0.0000   179.4907 </r>
       <r>   106.4783     0.0000   181.4907 </r>
       <r>   107.0781     0.0000   182.9352 </r>
       <r>   107.6779     0.0000   184.0926 </r>
       <r>   108.2777     0.0000   186.8519 </r>
       <r>   108.8775     0.0000   188.2500 </r>
       <r>   109.4773     0.0000   189.5556 </r>
       <r>   110.0771     0.0000   190.8333 </r>
       <r>   110.6770     0.0000   191.5648 </r>
       <r>   111.2768     0.0000   193.2870 </r>
       <r>   111.8766     0.0000   194.7407 </r>
       <r>   112.4764     0.0001   195.8149 </r>
       <r>   113.0762     0.0000   196.7685 </r>
       <r>   113.6760     0.1852   198.2685 </r>
       <r>   114.2758     0.0000   199.5833 </r>
       <r>   114.8756     0.0000   201.9722 </r>
       <r>   115.4755     0.0000   203.0000 </r>
       <r>   116.0753     0.3693   205.0270 </r>
       <r>   116.6751     0.0000   206.1759 </r>
       <r>   117.2749     0.0000   207.3796 </r>
       <r>   117.8747     0.0000   208.6019 </r>
       <r>   118.4745     0.1852   210.2407 </r>
       <r>   119.0743     0.0077   211.6342 </r>
       <r>   119.6742     0.0000   213.5463 </r>
       <r>   120.2740     0.0000   215.9537 </r>
       <r>   120.8738     0.3705   217.5093 </r>
       <r>   121.4736     0.0000   219.4907 </r>
       <r>   122.0734     0.0883   220.7844 </r>
       <r>   122.6732     0.0000   221.9167 </r>
       <r>   123.2730     0.0000   223.4352 </r>
       <r>   123.8729     0.3705   224.9630 </r>
       <r>   124.4727     0.0000   226.2593 </r>
       <r>   125.0725     0.0000   227.6574 </r>
       <r>   125.6723     0.0000   228.7130 </r>
       <r>   126.2721     0.0000   229.6574 </r>
       <r>   126.8719     0.0000   231.2593 </r>
       <r>   127.4717     0.0000   232.8704 </r>
       <r>   128.0715     0.0000   234.0926 </r>
       <r>   128.6714     0.0000   236.0000 </r>
       <r>   129.2712     0.0000   236.5185 </r>
       <r>   129.8710     0.3470   238.6618 </r>
       <r>   130.4708     0.0000   240.3426 </r>
       <r>   131.0706     0.0000   243.1852 </r>
       <r>   131.6704     0.0000   244.5185 </r>
       <r>   132.2702     0.0000   246.2963 </r>
       <r>   132.8701     0.0000   247.5556 </r>
       <r>   133.4699     0.0000   249.7870 </r>
       <r>   134.0697     0.0000   250.5556 </r>
       <r>   134.6695     0.0000   252.0000 </r>
       <r>   135.2693     0.0000   253.7778 </r>
       <r>   135.8691     0.0000   254.2222 </r>
       <r>   136.4689     0.0000   254.8889 </r>
       <r>   137.0687     0.0000   255.2500 </r>
       <r>   137.6686     0.0000   255.6944 </r>
       <r>   138.2684     0.0000   255.9167 </r>
       <r>   138.8682     0.0000   255.9444 </r>
       <r>   139.4680     0.0000   255.9444 </r>
       <r>   140.0678     0.0000   256.0000 </r>
       <r>   140.6676     0.0000   256.0000 </r>
       <r>   141.2674     0.0000   256.0000 </r>
       <r>   141.8673     0.0000   256.0000 </r>
       <r>   142.4671     0.0000   256.0000 </r>
       <r>   143.0669     0.0000   256.0000 </r>
       <r>   143.6667     0.0000   256.0000 </r>
       <r>   144.2665     0.0000   256.0000 </r>
       <r>   144.8663     0.0000   256.0000 </r>
       <r>   145.4661     0.0000   256.0000 </r>
       <r>   146.0660     0.0000   256.0000 </r>
       <r>   146.6658     0.0000   256.0000 </r>
       <r>   147.2656     0.0000   256.0000 </r>
       <r>   147.8654     0.0000   256.0000 </r>
      </set>
     </set>
    </array>
   </total>
  </dos>
 </calculation>
 <structure name="finalpos" >
  <crystal>
   <varray name="basis" >
    <v>       3.59969675       0.00000000       0.00000000 </v>
    <v>       1.79984837       3.11742883      -0.00000000 </v>
    <v>       1.79984837       1.03914294       2.93914009 </v>
   </varray>
   <i name="volume">     32.98243751 </i>
   <varray name="rec_basis" >
    <v>       0.27780118      -0.16038859      -0.11341186 </v>
    <v>       0.00000000       0.32077717      -0.11341186 </v>
    <v>      -0.00000000       0.00000000       0.34023557 </v>
   </varray>
  </crystal>
  <varray name="positions" >
   <v>       0.00000000       0.00000000       0.00000000 </v>
  </varray>
  <varray name="velocities" >
   <v>       0.00000000       0.00000000       0.00000000 </v>
  </varray>
 </structure>
</modeling>
