   1   1   0   0
  0.8808974E+02  0.4994363E-09  0.4994363E-09  0.4994363E-09  0.1000000E-15
  1.000000000000000E-004
  CAR 
 Og_FCC                                  
     11.37863383    -32.68517260  301     -1.52045124      1.00000000
    -32.685  0.0000E+00  0.0000E+00
    -32.538  0.0000E+00  0.0000E+00
    -32.391  0.0000E+00  0.0000E+00
    -32.245  0.0000E+00  0.0000E+00
    -32.098  0.0000E+00  0.0000E+00
    -31.951  0.0000E+00  0.0000E+00
    -31.804  0.0000E+00  0.0000E+00
    -31.657  0.0000E+00  0.0000E+00
    -31.510 -0.2395E-27 -0.3518E-28
    -31.363 -0.8502E-18 -0.1249E-18
    -31.216 -0.3716E-10 -0.5458E-11
    -31.069 -0.2015E-04 -0.2959E-05
    -30.923 -0.1159E+00 -0.1703E-01
    -30.776 -0.1118E+01 -0.1812E+00
    -30.629  0.6142E+02  0.8840E+01
    -30.482  0.8449E+01  0.1008E+02
    -30.335 -0.5532E+00  0.1000E+02
    -30.188 -0.3774E-03  0.1000E+02
    -30.041 -0.2473E-08  0.1000E+02
    -29.894  0.0000E+00  0.1000E+02
    -29.748  0.0000E+00  0.1000E+02
    -29.601  0.0000E+00  0.1000E+02
    -29.454  0.0000E+00  0.1000E+02
    -29.307  0.0000E+00  0.1000E+02
    -29.160  0.0000E+00  0.1000E+02
    -29.013  0.0000E+00  0.1000E+02
    -28.866  0.0000E+00  0.1000E+02
    -28.719  0.0000E+00  0.1000E+02
    -28.573  0.0000E+00  0.1000E+02
    -28.426  0.0000E+00  0.1000E+02
    -28.279  0.0000E+00  0.1000E+02
    -28.132  0.0000E+00  0.1000E+02
    -27.985  0.0000E+00  0.1000E+02
    -27.838  0.0000E+00  0.1000E+02
    -27.691  0.0000E+00  0.1000E+02
    -27.544  0.0000E+00  0.1000E+02
    -27.398  0.0000E+00  0.1000E+02
    -27.251  0.0000E+00  0.1000E+02
    -27.104  0.0000E+00  0.1000E+02
    -26.957  0.0000E+00  0.1000E+02
    -26.810  0.0000E+00  0.1000E+02
    -26.663  0.0000E+00  0.1000E+02
    -26.516  0.0000E+00  0.1000E+02
    -26.369  0.0000E+00  0.1000E+02
    -26.222  0.0000E+00  0.1000E+02
    -26.076  0.0000E+00  0.1000E+02
    -25.929  0.0000E+00  0.1000E+02
    -25.782  0.0000E+00  0.1000E+02
    -25.635  0.0000E+00  0.1000E+02
    -25.488  0.0000E+00  0.1000E+02
    -25.341  0.0000E+00  0.1000E+02
    -25.194  0.0000E+00  0.1000E+02
    -25.047  0.0000E+00  0.1000E+02
    -24.901  0.0000E+00  0.1000E+02
    -24.754  0.0000E+00  0.1000E+02
    -24.607  0.0000E+00  0.1000E+02
    -24.460 -0.4997E-30  0.1000E+02
    -24.313 -0.3742E-20  0.1000E+02
    -24.166 -0.3573E-12  0.1000E+02
    -24.019 -0.4392E-06  0.1000E+02
    -23.872 -0.6133E-02  0.9999E+01
    -23.726 -0.4722E+00  0.9930E+01
    -23.579  0.9873E+01  0.1138E+02
    -23.432  0.4475E+01  0.1204E+02
    -23.285 -0.2522E+00  0.1200E+02
    -23.138 -0.4921E-03  0.1200E+02
    -22.991 -0.8250E-08  0.1200E+02
    -22.844 -0.1789E-14  0.1200E+02
    -22.697  0.0000E+00  0.1200E+02
    -22.550  0.0000E+00  0.1200E+02
    -22.404  0.0000E+00  0.1200E+02
    -22.257  0.0000E+00  0.1200E+02
    -22.110  0.0000E+00  0.1200E+02
    -21.963  0.0000E+00  0.1200E+02
    -21.816  0.0000E+00  0.1200E+02
    -21.669  0.0000E+00  0.1200E+02
    -21.522  0.0000E+00  0.1200E+02
    -21.375  0.0000E+00  0.1200E+02
    -21.229  0.0000E+00  0.1200E+02
    -21.082  0.0000E+00  0.1200E+02
    -20.935  0.0000E+00  0.1200E+02
    -20.788  0.0000E+00  0.1200E+02
    -20.641  0.0000E+00  0.1200E+02
    -20.494  0.0000E+00  0.1200E+02
    -20.347  0.0000E+00  0.1200E+02
    -20.200  0.0000E+00  0.1200E+02
    -20.054  0.0000E+00  0.1200E+02
    -19.907  0.0000E+00  0.1200E+02
    -19.760  0.0000E+00  0.1200E+02
    -19.613  0.0000E+00  0.1200E+02
    -19.466  0.0000E+00  0.1200E+02
    -19.319  0.0000E+00  0.1200E+02
    -19.172  0.0000E+00  0.1200E+02
    -19.025  0.0000E+00  0.1200E+02
    -18.879  0.0000E+00  0.1200E+02
    -18.732  0.0000E+00  0.1200E+02
    -18.585  0.0000E+00  0.1200E+02
    -18.438  0.0000E+00  0.1200E+02
    -18.291  0.0000E+00  0.1200E+02
    -18.144  0.0000E+00  0.1200E+02
    -17.997  0.0000E+00  0.1200E+02
    -17.850  0.0000E+00  0.1200E+02
    -17.703  0.0000E+00  0.1200E+02
    -17.557  0.0000E+00  0.1200E+02
    -17.410  0.0000E+00  0.1200E+02
    -17.263  0.0000E+00  0.1200E+02
    -17.116  0.0000E+00  0.1200E+02
    -16.969  0.0000E+00  0.1200E+02
    -16.822  0.0000E+00  0.1200E+02
    -16.675  0.0000E+00  0.1200E+02
    -16.528  0.0000E+00  0.1200E+02
    -16.382  0.0000E+00  0.1200E+02
    -16.235  0.0000E+00  0.1200E+02
    -16.088  0.0000E+00  0.1200E+02
    -15.941  0.0000E+00  0.1200E+02
    -15.794  0.0000E+00  0.1200E+02
    -15.647  0.0000E+00  0.1200E+02
    -15.500  0.0000E+00  0.1200E+02
    -15.353  0.0000E+00  0.1200E+02
    -15.207  0.0000E+00  0.1200E+02
    -15.060  0.0000E+00  0.1200E+02
    -14.913  0.0000E+00  0.1200E+02
    -14.766  0.0000E+00  0.1200E+02
    -14.619  0.0000E+00  0.1200E+02
    -14.472  0.0000E+00  0.1200E+02
    -14.325  0.0000E+00  0.1200E+02
    -14.178  0.0000E+00  0.1200E+02
    -14.031  0.0000E+00  0.1200E+02
    -13.885  0.0000E+00  0.1200E+02
    -13.738  0.0000E+00  0.1200E+02
    -13.591  0.0000E+00  0.1200E+02
    -13.444  0.0000E+00  0.1200E+02
    -13.297  0.0000E+00  0.1200E+02
    -13.150  0.0000E+00  0.1200E+02
    -13.003  0.0000E+00  0.1200E+02
    -12.856  0.0000E+00  0.1200E+02
    -12.710  0.0000E+00  0.1200E+02
    -12.563  0.0000E+00  0.1200E+02
    -12.416  0.0000E+00  0.1200E+02
    -12.269  0.0000E+00  0.1200E+02
    -12.122  0.0000E+00  0.1200E+02
    -11.975  0.0000E+00  0.1200E+02
    -11.828  0.0000E+00  0.1200E+02
    -11.681  0.0000E+00  0.1200E+02
    -11.535  0.0000E+00  0.1200E+02
    -11.388  0.0000E+00  0.1200E+02
    -11.241  0.0000E+00  0.1200E+02
    -11.094  0.0000E+00  0.1200E+02
    -10.947  0.0000E+00  0.1200E+02
    -10.800  0.0000E+00  0.1200E+02
    -10.653  0.0000E+00  0.1200E+02
    -10.506  0.0000E+00  0.1200E+02
    -10.360  0.0000E+00  0.1200E+02
    -10.213  0.0000E+00  0.1200E+02
    -10.066  0.0000E+00  0.1200E+02
     -9.919  0.0000E+00  0.1200E+02
     -9.772  0.0000E+00  0.1200E+02
     -9.625  0.0000E+00  0.1200E+02
     -9.478  0.0000E+00  0.1200E+02
     -9.331  0.0000E+00  0.1200E+02
     -9.184  0.0000E+00  0.1200E+02
     -9.038  0.0000E+00  0.1200E+02
     -8.891  0.0000E+00  0.1200E+02
     -8.744  0.0000E+00  0.1200E+02
     -8.597  0.0000E+00  0.1200E+02
     -8.450  0.0000E+00  0.1200E+02
     -8.303  0.0000E+00  0.1200E+02
     -8.156  0.0000E+00  0.1200E+02
     -8.009  0.0000E+00  0.1200E+02
     -7.863  0.0000E+00  0.1200E+02
     -7.716  0.0000E+00  0.1200E+02
     -7.569  0.0000E+00  0.1200E+02
     -7.422  0.0000E+00  0.1200E+02
     -7.275  0.0000E+00  0.1200E+02
     -7.128  0.0000E+00  0.1200E+02
     -6.981  0.0000E+00  0.1200E+02
     -6.834  0.0000E+00  0.1200E+02
     -6.688  0.0000E+00  0.1200E+02
     -6.541  0.0000E+00  0.1200E+02
     -6.394  0.0000E+00  0.1200E+02
     -6.247  0.0000E+00  0.1200E+02
     -6.100  0.0000E+00  0.1200E+02
     -5.953  0.0000E+00  0.1200E+02
     -5.806  0.0000E+00  0.1200E+02
     -5.659  0.0000E+00  0.1200E+02
     -5.512  0.0000E+00  0.1200E+02
     -5.366  0.0000E+00  0.1200E+02
     -5.219  0.0000E+00  0.1200E+02
     -5.072  0.0000E+00  0.1200E+02
     -4.925  0.0000E+00  0.1200E+02
     -4.778  0.0000E+00  0.1200E+02
     -4.631  0.0000E+00  0.1200E+02
     -4.484  0.0000E+00  0.1200E+02
     -4.337  0.0000E+00  0.1200E+02
     -4.191  0.0000E+00  0.1200E+02
     -4.044  0.0000E+00  0.1200E+02
     -3.897  0.0000E+00  0.1200E+02
     -3.750 -0.6919E-36  0.1200E+02
     -3.603 -0.2377E-25  0.1200E+02
     -3.456 -0.1051E-16  0.1200E+02
     -3.309 -0.5625E-10  0.1200E+02
     -3.162 -0.3762E-05  0.1200E+02
     -3.016 -0.3261E-02  0.1200E+02
     -2.869 -0.2376E-01  0.1200E+02
     -2.722  0.1295E+01  0.1219E+02
     -2.575  0.5911E+01  0.1305E+02
     -2.428  0.4265E+01  0.1368E+02
     -2.281  0.2294E+01  0.1402E+02
     -2.134  0.2855E+01  0.1444E+02
     -1.987  0.5136E+01  0.1519E+02
     -1.841  0.7244E+01  0.1626E+02
     -1.694  0.8038E+01  0.1744E+02
     -1.547  0.3701E+01  0.1798E+02
     -1.400  0.1589E+00  0.1800E+02
     -1.253 -0.1921E-01  0.1800E+02
     -1.106 -0.3331E-04  0.1800E+02
     -0.959 -0.6902E-09  0.1800E+02
     -0.812 -0.1417E-15  0.1800E+02
     -0.665  0.0000E+00  0.1800E+02
     -0.519  0.0000E+00  0.1800E+02
     -0.372  0.0000E+00  0.1800E+02
     -0.225  0.0000E+00  0.1800E+02
     -0.078  0.0000E+00  0.1800E+02
      0.069  0.0000E+00  0.1800E+02
      0.216  0.0000E+00  0.1800E+02
      0.363  0.0000E+00  0.1800E+02
      0.510  0.0000E+00  0.1800E+02
      0.656  0.0000E+00  0.1800E+02
      0.803 -0.7111E-30  0.1800E+02
      0.950 -0.1747E-20  0.1800E+02
      1.097 -0.5266E-13  0.1800E+02
      1.244 -0.1959E-07  0.1800E+02
      1.391 -0.7550E-04  0.1800E+02
      1.538  0.2185E-03  0.1800E+02
      1.685  0.2489E-01  0.1800E+02
      1.831  0.9223E-03  0.1800E+02
      1.978  0.5037E-02  0.1800E+02
      2.125  0.2033E+00  0.1803E+02
      2.272  0.1583E+00  0.1806E+02
      2.419  0.5685E-02  0.1806E+02
      2.566  0.1289E-01  0.1806E+02
      2.713  0.2970E+00  0.1810E+02
      2.860  0.4064E-01  0.1811E+02
      3.007  0.7871E+00  0.1823E+02
      3.153  0.3686E-01  0.1823E+02
      3.300 -0.1884E-01  0.1823E+02
      3.447  0.2730E+00  0.1827E+02
      3.594  0.7293E+00  0.1838E+02
      3.741  0.1185E+01  0.1855E+02
      3.888  0.1935E+00  0.1858E+02
      4.035  0.9565E+00  0.1872E+02
      4.182  0.1107E+01  0.1888E+02
      4.328  0.1635E+00  0.1890E+02
      4.475  0.1947E+01  0.1919E+02
      4.622  0.1436E+01  0.1940E+02
      4.769  0.1342E+01  0.1960E+02
      4.916  0.6632E+00  0.1970E+02
      5.063  0.4726E+00  0.1977E+02
      5.210  0.9130E+00  0.1990E+02
      5.357  0.5388E+00  0.1998E+02
      5.503  0.4763E-01  0.1999E+02
      5.650  0.5549E+00  0.2007E+02
      5.797  0.7049E+00  0.2017E+02
      5.944  0.1228E+01  0.2035E+02
      6.091  0.2261E+01  0.2068E+02
      6.238  0.3082E+01  0.2114E+02
      6.385  0.1341E+01  0.2133E+02
      6.532  0.1070E+01  0.2149E+02
      6.678  0.5280E+01  0.2227E+02
      6.825  0.3746E+01  0.2282E+02
      6.972  0.9970E+00  0.2296E+02
      7.119  0.1068E+01  0.2312E+02
      7.266  0.9712E+00  0.2326E+02
      7.413  0.2319E+01  0.2360E+02
      7.560  0.2412E+01  0.2396E+02
      7.707  0.2174E+01  0.2428E+02
      7.854  0.2326E+01  0.2462E+02
      8.000  0.3464E+01  0.2513E+02
      8.147  0.2075E+01  0.2543E+02
      8.294  0.7131E+00  0.2554E+02
      8.441  0.8217E+00  0.2566E+02
      8.588  0.5296E+00  0.2573E+02
      8.735  0.2861E+00  0.2578E+02
      8.882  0.4611E+00  0.2584E+02
      9.029  0.1928E+00  0.2587E+02
      9.175 -0.3719E-01  0.2587E+02
      9.322  0.5218E+00  0.2594E+02
      9.469  0.3994E+00  0.2600E+02
      9.616 -0.1673E-01  0.2600E+02
      9.763 -0.3119E-03  0.2600E+02
      9.910 -0.5069E-07  0.2600E+02
     10.057 -0.9490E-13  0.2600E+02
     10.204  0.0000E+00  0.2600E+02
     10.350  0.0000E+00  0.2600E+02
     10.497  0.0000E+00  0.2600E+02
     10.644  0.0000E+00  0.2600E+02
     10.791  0.0000E+00  0.2600E+02
     10.938  0.0000E+00  0.2600E+02
     11.085  0.0000E+00  0.2600E+02
     11.232  0.0000E+00  0.2600E+02
     11.379  0.0000E+00  0.2600E+02
