    1    1    1    1
  0.8808974E+02  0.4994363E-09  0.4994363E-09  0.4994363E-09  0.1000000E-15
  1.000000000000000E-004
  CAR 
 Og_FCC                                  
     18     29     13
 
  0.0000000E+00  0.0000000E+00  0.0000000E+00  0.1953125E-02
    1      -30.681940   1.000000
    2      -30.681940   1.000000
    3      -30.681940   1.000000
    4      -30.681581   1.000000
    5      -30.681581   1.000000
    6      -23.617189   1.000000
    7       -1.545955   0.708242
    8       -1.545955   0.708242
    9       -1.545955   0.708242
   10        1.619565   0.000000
   11        7.604961   0.000000
   12        7.604961   0.000000
   13        7.604962   0.000000
 
  0.1250000E+00  0.1490978E-16  0.1387779E-16  0.1562500E-01
    1      -30.681902   1.000000
    2      -30.681876   1.000000
    3      -30.681876   1.000000
    4      -30.681554   1.000000
    5      -30.681554   1.000000
    6      -23.614968   1.000000
    7       -1.823898   1.000077
    8       -1.570668   0.871287
    9       -1.570668   0.871287
   10        2.053606   0.000000
   11        7.085098   0.000000
   12        7.714763   0.000000
   13        7.714764   0.000000
 
  0.2500000E+00  0.2981956E-16  0.2775558E-16  0.1562500E-01
    1      -30.681836   1.000000
    2      -30.681836   1.000000
    3      -30.681787   1.000000
    4      -30.681362   1.000000
    5      -30.681362   1.000000
    6      -23.609525   1.000000
    7       -2.326005   1.000000
    8       -1.628911   1.031826
    9       -1.628911   1.031826
   10        2.910930   0.000000
   11        6.744470   0.000000
   12        7.691756   0.000000
   13        7.691757   0.000000
 
  0.3750000E+00  0.8636270E-16  0.5551115E-16  0.1562500E-01
    1      -30.681880   1.000000
    2      -30.681880   1.000000
    3      -30.681667   1.000000
    4      -30.681086   1.000000
    5      -30.681085   1.000000
    6      -23.604097   1.000000
    7       -2.707576   1.000000
    8       -1.685286   1.020848
    9       -1.685286   1.020848
   10        3.530696   0.000000
   11        7.067238   0.000000
   12        7.420651   0.000000
   13        7.420651   0.000000
 
  0.5000000E+00  0.5963911E-16  0.5551115E-16  0.7812500E-02
    1      -30.681900   1.000000
    2      -30.681900   1.000000
    3      -30.681608   1.000000
    4      -30.680951   1.000000
    5      -30.680951   1.000000
    6      -23.601819   1.000000
    7       -2.844631   1.000000
    8       -1.708124   1.011661
    9       -1.708124   1.011661
   10        3.701478   0.000000
   11        7.302467   0.000000
   12        7.302467   0.000000
   13        7.408901   0.000000
 
  0.1250000E+00  0.1250000E+00  0.0000000E+00  0.1171875E-01
    1      -30.681999   1.000000
    2      -30.681783   1.000000
    3      -30.681783   1.000000
    4      -30.681631   1.000000
    5      -30.681505   1.000000
    6      -23.614223   1.000000
    7       -1.831488   1.000050
    8       -1.619852   1.024494
    9       -1.619852   1.024494
   10        2.203562   0.000000
   11        6.869316   0.000000
   12        7.838722   0.000000
   13        7.840612   0.000000
 
  0.2500000E+00  0.1250000E+00  0.0000000E+00  0.4687500E-01
    1      -30.681970   1.000000
    2      -30.681723   1.000000
    3      -30.681692   1.000000
    4      -30.681513   1.000000
    5      -30.681332   1.000000
    6      -23.609851   1.000000
    7       -2.206715   1.000000
    8       -1.694021   1.017020
    9       -1.677558   1.024405
   10        2.941473   0.000000
   11        6.506087   0.000000
   12        7.354283   0.000000
   13        7.997918   0.000000
 
  0.3750000E+00  0.1250000E+00  0.8326673E-16  0.4687500E-01
    1      -30.681903   1.000000
    2      -30.681722   1.000000
    3      -30.681677   1.000000
    4      -30.681254   1.000000
    5      -30.681060   1.000000
    6      -23.604410   1.000000
    7       -2.583435   1.000000
    8       -1.766226   1.001396
    9       -1.749250   1.002832
   10        3.703959   0.000000
   11        6.595996   0.000000
   12        6.895268   0.000000
   13        7.799754   0.000000
 
  0.5000000E+00  0.1250000E+00  0.0000000E+00  0.4687500E-01
    1      -30.681901   1.000000
    2      -30.681760   1.000000
    3      -30.681554   1.000000
    4      -30.681063   1.000000
    5      -30.680941   1.000000
    6      -23.601079   1.000000
    7       -2.775404   1.000000
    8       -1.850921   1.000015
    9       -1.755482   1.002201
   10        4.045087   0.000000
   11        6.541766   0.000000
   12        7.487823   0.000000
   13        7.568602   0.000000
 
 -0.3750000E+00  0.1250000E+00 -0.6938894E-16  0.4687500E-01
    1      -30.681871   1.000000
    2      -30.681761   1.000000
    3      -30.681576   1.000000
    4      -30.681085   1.000000
    5      -30.681008   1.000000
    6      -23.601825   1.000000
    7       -2.731164   1.000000
    8       -1.880242   1.000002
    9       -1.709589   1.011175
   10        3.991476   0.000000
   11        6.629110   0.000000
   12        7.292647   0.000000
   13        7.535812   0.000000
 
 -0.2500000E+00  0.1250000E+00 -0.2081668E-16  0.4687500E-01
    1      -30.681818   1.000000
    2      -30.681730   1.000000
    3      -30.681715   1.000000
    4      -30.681397   1.000000
    5      -30.681142   1.000000
    6      -23.606210   1.000000
    7       -2.469306   1.000000
    8       -1.829336   1.000056
    9       -1.636252   1.034707
   10        3.481300   0.000000
   11        6.642519   0.000000
   12        7.060615   0.000000
   13        7.755977   0.000000
 
 -0.1250000E+00  0.1250000E+00 -0.2392400E-16  0.2343750E-01
    1      -30.681861   1.000000
    2      -30.681779   1.000000
    3      -30.681765   1.000000
    4      -30.681601   1.000000
    5      -30.681381   1.000000
    6      -23.611637   1.000000
    7       -2.094319   1.000000
    8       -1.702995   1.013473
    9       -1.577712   0.907342
   10        2.636377   0.000000
   11        6.733245   0.000000
   12        7.576505   0.000000
   13        7.914156   0.000000
 
  0.2500000E+00  0.2500000E+00  0.0000000E+00  0.1171875E-01
    1      -30.682100   1.000000
    2      -30.681725   1.000000
    3      -30.681357   1.000000
    4      -30.681357   1.000000
    5      -30.681320   1.000000
    6      -23.606939   1.000000
    7       -2.304419   1.000000
    8       -1.789355   1.000478
    9       -1.789355   1.000478
   10        3.421426   0.000000
   11        6.077189   0.000000
   12        6.956904   0.000000
   13        8.480900   0.000000
 
  0.3750000E+00  0.2500000E+00  0.2775558E-16  0.4687500E-01
    1      -30.682077   1.000000
    2      -30.681754   1.000000
    3      -30.681377   1.000000
    4      -30.681160   1.000000
    5      -30.681034   1.000000
    6      -23.602608   1.000000
    7       -2.526697   1.000000
    8       -1.908967   1.000000
    9       -1.858737   1.000009
   10        4.070177   0.000000
   11        5.958847   0.000000
   12        6.616360   0.000000
   13        8.583364   0.000000
 
  0.5000000E+00  0.2500000E+00  0.0000000E+00  0.4687500E-01
    1      -30.681972   1.000000
    2      -30.681604   1.000000
    3      -30.681427   1.000000
    4      -30.681096   1.000000
    5      -30.680914   1.000000
    6      -23.599291   1.000000
    7       -2.643596   1.000000
    8       -2.091763   1.000000
    9       -1.865228   1.000006
   10        4.590901   0.000000
   11        6.144185   0.000000
   12        6.698644   0.000000
   13        8.308715   0.000000
 
 -0.3750000E+00  0.2500000E+00 -0.8326673E-16  0.4687500E-01
    1      -30.681907   1.000000
    2      -30.681466   1.000000
    3      -30.681368   1.000000
    4      -30.681174   1.000000
    5      -30.681056   1.000000
    6      -23.598972   1.000000
    7       -2.611148   1.000000
    8       -2.224255   1.000000
    9       -1.805569   1.000209
   10        4.796946   0.000000
   11        6.087012   0.000000
   12        7.237642   0.000000
   13        8.081188   0.000000
 
 -0.2500000E+00  0.2500000E+00 -0.4784800E-16  0.2343750E-01
    1      -30.681848   1.000000
    2      -30.681532   1.000000
    3      -30.681506   1.000000
    4      -30.681355   1.000000
    5      -30.681084   1.000000
    6      -23.601866   1.000000
    7       -2.546236   1.000000
    8       -2.121014   1.000000
    9       -1.711061   1.010699
   10        4.364477   0.000000
   11        6.347210   0.000000
   12        6.689847   0.000000
   13        7.961130   0.000000
 
  0.3750000E+00  0.3750000E+00  0.0000000E+00  0.1171875E-01
    1      -30.682216   1.000000
    2      -30.681807   1.000000
    3      -30.681140   1.000000
    4      -30.680941   1.000000
    5      -30.680941   1.000000
    6      -23.599723   1.000000
    7       -2.632085   1.000000
    8       -1.947845   1.000000
    9       -1.947845   1.000000
   10        4.192794   0.000000
   11        5.584783   0.000000
   12        7.103087   0.000000
   13        9.375734   0.000000
 
  0.5000000E+00  0.3750000E+00 -0.1110223E-15  0.4687500E-01
    1      -30.682151   1.000000
    2      -30.681792   1.000000
    3      -30.681146   1.000000
    4      -30.680869   1.000000
    5      -30.680840   1.000000
    6      -23.597473   1.000000
    7       -2.678426   1.000000
    8       -2.085562   1.000000
    9       -1.969153   1.000000
   10        4.421553   0.000000
   11        5.660622   0.000000
   12        7.458277   0.000000
   13        9.302427   0.000000
 
 -0.3750000E+00  0.3750000E+00 -0.1191284E-15  0.2343750E-01
    1      -30.682003   1.000000
    2      -30.681577   1.000000
    3      -30.681219   1.000000
    4      -30.681012   1.000000
    5      -30.680928   1.000000
    6      -23.597149   1.000000
    7       -2.560873   1.000000
    8       -2.328049   1.000000
    9       -1.912068   1.000000
   10        4.794362   0.000000
   11        6.131179   0.000000
   12        7.587410   0.000000
   13        7.650444   0.000000
 
  0.5000000E+00  0.5000000E+00  0.0000000E+00  0.5859375E-02
    1      -30.682272   1.000000
    2      -30.681855   1.000000
    3      -30.681075   1.000000
    4      -30.680773   1.000000
    5      -30.680773   1.000000
    6      -23.596755   1.000000
    7       -2.743109   1.000000
    8       -2.010668   1.000000
    9       -2.010668   1.000000
   10        4.223527   0.000000
   11        5.419181   0.000000
   12        8.511003   0.000000
   13        9.302246   0.000000
 
  0.3750000E+00  0.2500000E+00  0.1250000E+00  0.4687500E-01
    1      -30.681925   1.000000
    2      -30.681748   1.000000
    3      -30.681545   1.000000
    4      -30.681376   1.000000
    5      -30.681131   1.000000
    6      -23.605479   1.000000
    7       -2.423224   1.000000
    8       -1.892019   1.000001
    9       -1.713832   1.009843
   10        3.686429   0.000000
   11        6.303629   0.000000
   12        6.742164   0.000000
   13        8.305551   0.000000
 
  0.5000000E+00  0.2500000E+00  0.1250000E+00  0.9375000E-01
    1      -30.681837   1.000000
    2      -30.681699   1.000000
    3      -30.681510   1.000000
    4      -30.681172   1.000000
    5      -30.681008   1.000000
    6      -23.601107   1.000000
    7       -2.608740   1.000000
    8       -2.043461   1.000000
    9       -1.787404   1.000525
   10        4.421395   0.000000
   11        6.233925   0.000000
   12        6.625348   0.000000
   13        8.097268   0.000000
 
 -0.3750000E+00  0.2500000E+00  0.1250000E+00  0.4687500E-01
    1      -30.681850   1.000000
    2      -30.681659   1.000000
    3      -30.681395   1.000000
    4      -30.681165   1.000000
    5      -30.680957   1.000000
    6      -23.599292   1.000000
    7       -2.680721   1.000000
    8       -2.092923   1.000000
    9       -1.827088   1.000064
   10        4.679898   0.000000
   11        6.049316   0.000000
   12        7.319630   0.000000
   13        7.917140   0.000000
 
  0.5000000E+00  0.3750000E+00  0.1250000E+00  0.4687500E-01
    1      -30.682007   1.000000
    2      -30.681758   1.000000
    3      -30.681319   1.000000
    4      -30.680978   1.000000
    5      -30.680944   1.000000
    6      -23.599287   1.000000
    7       -2.605679   1.000000
    8       -2.066914   1.000000
    9       -1.928751   1.000000
   10        4.569547   0.000000
   11        5.935605   0.000000
   12        6.530657   0.000000
   13        8.855349   0.000000
 
 -0.3750000E+00  0.3750000E+00  0.1250000E+00  0.9375000E-01
    1      -30.681866   1.000000
    2      -30.681604   1.000000
    3      -30.681338   1.000000
    4      -30.681147   1.000000
    5      -30.680850   1.000000
    6      -23.597485   1.000000
    7       -2.559413   1.000000
    8       -2.269476   1.000000
    9       -1.959239   1.000000
   10        5.077277   0.000000
   11        6.108982   0.000000
   12        6.693207   0.000000
   13        7.877534   0.000000
 
 -0.2500000E+00  0.3750000E+00  0.1250000E+00  0.4687500E-01
    1      -30.681810   1.000000
    2      -30.681498   1.000000
    3      -30.681418   1.000000
    4      -30.681208   1.000000
    5      -30.680955   1.000000
    6      -23.598238   1.000000
    7       -2.511714   1.000000
    8       -2.328317   1.000000
    9       -1.888364   1.000001
   10        5.262712   0.000000
   11        5.830008   0.000000
   12        6.801341   0.000000
   13        7.911168   0.000000
 
 -0.3750000E+00  0.5000000E+00  0.1250000E+00  0.2343750E-01
    1      -30.682044   1.000000
    2      -30.681775   1.000000
    3      -30.681145   1.000000
    4      -30.680977   1.000000
    5      -30.680763   1.000000
    6      -23.596717   1.000000
    7       -2.650426   1.000000
    8       -2.135795   1.000000
    9       -2.034006   1.000000
   10        4.647885   0.000000
   11        5.801869   0.000000
   12        7.668241   0.000000
   13        7.947339   0.000000
 
 -0.2500000E+00  0.5000000E+00  0.2500000E+00  0.1171875E-01
    1      -30.681648   1.000000
    2      -30.681505   1.000000
    3      -30.681505   1.000000
    4      -30.681258   1.000000
    5      -30.680754   1.000000
    6      -23.596717   1.000000
    7       -2.408927   1.000000
    8       -2.408927   1.000000
    9       -2.056814   1.000000
   10        5.596076   0.000000
   11        6.165431   0.000000
   12        6.789455   0.000000
   13        6.789455   0.000000
