<?xml version="1.0" encoding="ISO-8859-1"?>
<modeling>
 <generator>
  <i name="program" type="string">vasp </i>
  <i name="version" type="string">5.4.4.18Apr17-6-g9f103f2a35  </i>
  <i name="subversion" type="string">(build Nov 03 2018 10:20:43) complex            parallel </i>
  <i name="platform" type="string">LinuxIFC </i>
  <i name="date" type="string">2018 12 03 </i>
  <i name="time" type="string">16:13:14 </i>
 </generator>
 <incar>
  <i type="string" name="SYSTEM">   Og_FCC</i>
  <i type="string" name="PREC">accurate</i>
  <i type="string" name="ALGO">   Fast</i>
  <i type="logical" name="ADDGRID"> T  </i>
  <i type="logical" name="LSORBIT"> F  </i>
  <i type="int" name="ISPIN">     1</i>
  <i type="int" name="MAXMIX">    50</i>
  <i type="int" name="NELM">   100</i>
  <i type="int" name="NELMDL">    -5</i>
  <i type="int" name="NELMIN">     5</i>
  <i type="int" name="IBRION">    -1</i>
  <i type="int" name="NFREE">     5</i>
  <i name="EDIFF">      0.00000010</i>
  <i name="EDIFFG">      0.00001000</i>
  <i type="int" name="NSW">     1</i>
  <i type="int" name="ISIF">     7</i>
  <i type="int" name="ISYM">     2</i>
  <i name="SYMPREC">      0.00000010</i>
  <i name="ENCUT">    600.00000000</i>
  <i name="POTIM">      0.10000000</i>
  <i type="logical" name="LREAL"> F  </i>
  <i type="int" name="ISMEAR">     1</i>
  <i name="SIGMA">      0.10000000</i>
  <i name="KSPACING">      0.20000000</i>
  <i type="int" name="NWRITE">     2</i>
  <i type="logical" name="LWAVE"> F  </i>
  <i type="logical" name="LCHARG"> F  </i>
  <i type="logical" name="LVTOT"> F  </i>
  <i type="logical" name="GGA_COMPAT"> F  </i>
  <v type="int" name="KPOINT_BSE">    -1     0     0     0</v>
  <i type="int" name="NELM">   100</i>
  <i type="string" name="GGA"> PE</i>
 </incar>
 <structure name="primitive_cell" >
  <crystal>
   <varray name="basis" >
    <v>       4.99436301       0.00000000       0.00000000 </v>
    <v>       2.49718151       4.32524525      -0.00000000 </v>
    <v>       2.49718151       1.44174842       4.07788033 </v>
   </varray>
   <i name="volume">     88.08973827 </i>
   <varray name="rec_basis" >
    <v>       0.20022573      -0.11560038      -0.08174181 </v>
    <v>       0.00000000       0.23120076      -0.08174181 </v>
    <v>      -0.00000000       0.00000000       0.24522544 </v>
   </varray>
  </crystal>
  <varray name="positions" >
   <v>       0.00000000       0.00000000       0.00000000 </v>
  </varray>
 </structure>
 <varray name="primitive_index" >
  <v type="int" >        1 </v>
 </varray>
 <kpoints>
  <generation param="Gamma">
   <v type="int" name="divisions">       8        8        8 </v>
   <v name="usershift">      0.00000000       0.00000000       0.00000000 </v>
   <v name="genvec1">      0.12500000       0.00000000       0.00000000 </v>
   <v name="genvec2">      0.00000000       0.12500000      -0.00000000 </v>
   <v name="genvec3">      0.00000000       0.00000000       0.12500000 </v>
   <v name="shift">      0.00000000       0.00000000       0.00000000 </v>
  </generation>
  <varray name="kpointlist" >
   <v>       0.00000000       0.00000000       0.00000000 </v>
   <v>       0.12500000       0.00000000       0.00000000 </v>
   <v>       0.25000000       0.00000000       0.00000000 </v>
   <v>       0.37500000       0.00000000       0.00000000 </v>
   <v>       0.50000000       0.00000000       0.00000000 </v>
   <v>       0.12500000       0.12500000       0.00000000 </v>
   <v>       0.25000000       0.12500000       0.00000000 </v>
   <v>       0.37500000       0.12500000       0.00000000 </v>
   <v>       0.50000000       0.12500000       0.00000000 </v>
   <v>      -0.37500000       0.12500000      -0.00000000 </v>
   <v>      -0.25000000       0.12500000      -0.00000000 </v>
   <v>      -0.12500000       0.12500000      -0.00000000 </v>
   <v>       0.25000000       0.25000000       0.00000000 </v>
   <v>       0.37500000       0.25000000       0.00000000 </v>
   <v>       0.50000000       0.25000000       0.00000000 </v>
   <v>      -0.37500000       0.25000000      -0.00000000 </v>
   <v>      -0.25000000       0.25000000      -0.00000000 </v>
   <v>       0.37500000       0.37500000       0.00000000 </v>
   <v>       0.50000000       0.37500000      -0.00000000 </v>
   <v>      -0.37500000       0.37500000      -0.00000000 </v>
   <v>       0.50000000       0.50000000       0.00000000 </v>
   <v>       0.37500000       0.25000000       0.12500000 </v>
   <v>       0.50000000       0.25000000       0.12500000 </v>
   <v>      -0.37500000       0.25000000       0.12500000 </v>
   <v>       0.50000000       0.37500000       0.12500000 </v>
   <v>      -0.37500000       0.37500000       0.12500000 </v>
   <v>      -0.25000000       0.37500000       0.12500000 </v>
   <v>      -0.37500000       0.50000000       0.12500000 </v>
   <v>      -0.25000000       0.50000000       0.25000000 </v>
  </varray>
  <varray name="weights" >
   <v>       0.00195312 </v>
   <v>       0.01562500 </v>
   <v>       0.01562500 </v>
   <v>       0.01562500 </v>
   <v>       0.00781250 </v>
   <v>       0.01171875 </v>
   <v>       0.04687500 </v>
   <v>       0.04687500 </v>
   <v>       0.04687500 </v>
   <v>       0.04687500 </v>
   <v>       0.04687500 </v>
   <v>       0.02343750 </v>
   <v>       0.01171875 </v>
   <v>       0.04687500 </v>
   <v>       0.04687500 </v>
   <v>       0.04687500 </v>
   <v>       0.02343750 </v>
   <v>       0.01171875 </v>
   <v>       0.04687500 </v>
   <v>       0.02343750 </v>
   <v>       0.00585938 </v>
   <v>       0.04687500 </v>
   <v>       0.09375000 </v>
   <v>       0.04687500 </v>
   <v>       0.04687500 </v>
   <v>       0.09375000 </v>
   <v>       0.04687500 </v>
   <v>       0.02343750 </v>
   <v>       0.01171875 </v>
  </varray>
 </kpoints>
 <parameters>
  <separator name="general" >
   <i type="string" name="SYSTEM">Og_FCC</i>
   <i type="logical" name="LCOMPAT"> F  </i>
  </separator>
  <separator name="electronic" >
   <i type="string" name="PREC">accura</i>
   <i name="ENMAX">    600.00000000</i>
   <i name="ENAUG">    361.02500000</i>
   <i name="EDIFF">      0.00000010</i>
   <i type="int" name="IALGO">    68</i>
   <i type="int" name="IWAVPR">    10</i>
   <i type="int" name="NBANDS">    13</i>
   <i name="NELECT">     18.00000000</i>
   <i type="int" name="TURBO">     0</i>
   <i type="int" name="IRESTART">     0</i>
   <i type="int" name="NREBOOT">     0</i>
   <i type="int" name="NMIN">     0</i>
   <i name="EREF">      0.00000000</i>
   <separator name="electronic smearing" >
    <i type="int" name="ISMEAR">     1</i>
    <i name="SIGMA">      0.10000000</i>
    <i name="KSPACING">      0.20000000</i>
    <i type="logical" name="KGAMMA"> T  </i>
   </separator>
   <separator name="electronic projectors" >
    <i type="logical" name="LREAL"> F  </i>
    <v name="ROPT">      0.00000000</v>
    <i type="int" name="LMAXPAW">  -100</i>
    <i type="int" name="LMAXMIX">     2</i>
    <i type="logical" name="NLSPLINE"> F  </i>
   </separator>
   <separator name="electronic startup" >
    <i type="int" name="ISTART">     0</i>
    <i type="int" name="ICHARG">     2</i>
    <i type="int" name="INIWAV">     1</i>
   </separator>
   <separator name="electronic spin" >
    <i type="int" name="ISPIN">     1</i>
    <i type="logical" name="LNONCOLLINEAR"> F  </i>
    <v name="MAGMOM">      1.00000000</v>
    <i name="NUPDOWN">     -1.00000000</i>
    <i type="logical" name="LSORBIT"> F  </i>
    <v name="SAXIS">      0.00000000      0.00000000      1.00000000</v>
    <i type="logical" name="LSPIRAL"> F  </i>
    <v name="QSPIRAL">      0.00000000      0.00000000      0.00000000</v>
    <i type="logical" name="LZEROZ"> F  </i>
   </separator>
   <separator name="electronic exchange-correlation" >
    <i type="logical" name="LASPH"> F  </i>
    <i type="logical" name="LMETAGGA"> F  </i>
   </separator>
   <separator name="electronic convergence" >
    <i type="int" name="NELM">   100</i>
    <i type="int" name="NELMDL">    -5</i>
    <i type="int" name="NELMIN">     5</i>
    <i name="ENINI">    600.00000000</i>
    <separator name="electronic convergence detail" >
     <i type="logical" name="LDIAG"> T  </i>
     <i type="logical" name="LSUBROT"> F  </i>
     <i name="WEIMIN">      0.00000000</i>
     <i name="EBREAK">      0.00000000</i>
     <i name="DEPER">      0.30000000</i>
     <i type="int" name="NRMM">     4</i>
     <i name="TIME">      0.40000000</i>
    </separator>
   </separator>
   <separator name="electronic mixer" >
    <i name="AMIX">      0.40000000</i>
    <i name="BMIX">      1.00000000</i>
    <i name="AMIN">      0.10000000</i>
    <i name="AMIX_MAG">      1.60000000</i>
    <i name="BMIX_MAG">      1.00000000</i>
    <separator name="electronic mixer details" >
     <i type="int" name="IMIX">     4</i>
     <i type="logical" name="MIXFIRST"> F  </i>
     <i type="int" name="MAXMIX">    50</i>
     <i name="WC">    100.00000000</i>
     <i type="int" name="INIMIX">     1</i>
     <i type="int" name="MIXPRE">     1</i>
     <i type="int" name="MREMOVE">     5</i>
    </separator>
   </separator>
   <separator name="electronic dipolcorrection" >
    <i type="logical" name="LDIPOL"> F  </i>
    <i type="logical" name="LMONO"> F  </i>
    <i type="int" name="IDIPOL">     0</i>
    <i name="EPSILON">      1.00000000</i>
    <v name="DIPOL">   -100.00000000   -100.00000000   -100.00000000</v>
    <i name="EFIELD">      0.00000000</i>
   </separator>
  </separator>
  <separator name="grids" >
   <i type="int" name="NGX">    40</i>
   <i type="int" name="NGY">    40</i>
   <i type="int" name="NGZ">    40</i>
   <i type="int" name="NGXF">    80</i>
   <i type="int" name="NGYF">    80</i>
   <i type="int" name="NGZF">    80</i>
   <i type="logical" name="ADDGRID"> T  </i>
  </separator>
  <separator name="ionic" >
   <i type="int" name="NSW">     1</i>
   <i type="int" name="IBRION">    -1</i>
   <i type="int" name="MDALGO">     0</i>
   <i type="int" name="ISIF">     7</i>
   <i name="PSTRESS">      0.00000000</i>
   <i name="EDIFFG">      0.00001000</i>
   <i type="int" name="NFREE">     5</i>
   <i name="POTIM">      0.10000000</i>
   <i name="SMASS">     -3.00000000</i>
   <i name="SCALEE">      1.00000000</i>
  </separator>
  <separator name="ionic md" >
   <i name="TEBEG">      0.00010000</i>
   <i name="TEEND">      0.00010000</i>
   <i type="int" name="NBLOCK">     1</i>
   <i type="int" name="KBLOCK">     1</i>
   <i type="int" name="NPACO">   256</i>
   <i name="APACO">     16.00000000</i>
  </separator>
  <separator name="symmetry" >
   <i type="int" name="ISYM">     2</i>
   <i name="SYMPREC">      0.00000010</i>
  </separator>
  <separator name="dos" >
   <i type="int" name="LORBIT">     0</i>
   <v name="RWIGS">     -1.00000000</v>
   <i type="int" name="NEDOS">   301</i>
   <i name="EMIN">     10.00000000</i>
   <i name="EMAX">    -10.00000000</i>
   <i name="EFERMI">      0.00000000</i>
  </separator>
  <separator name="writing" >
   <i type="int" name="NWRITE">     2</i>
   <i type="logical" name="LWAVE"> F  </i>
   <i type="logical" name="LDOWNSAMPLE"> F  </i>
   <i type="logical" name="LCHARG"> F  </i>
   <i type="logical" name="LPARD"> F  </i>
   <i type="logical" name="LVTOT"> F  </i>
   <i type="logical" name="LVHAR"> F  </i>
   <i type="logical" name="LELF"> F  </i>
   <i type="logical" name="LOPTICS"> F  </i>
   <v name="STM">      0.00000000      0.00000000      0.00000000      0.00000000      0.00000000      0.00000000      0.00000000</v>
  </separator>
  <separator name="performance" >
   <i type="int" name="NPAR">     1</i>
   <i type="int" name="NSIM">     4</i>
   <i type="int" name="NBLK">    -1</i>
   <i type="logical" name="LPLANE"> T  </i>
   <i type="logical" name="LSCALAPACK"> T  </i>
   <i type="logical" name="LSCAAWARE"> F  </i>
   <i type="logical" name="LSCALU"> F  </i>
   <i type="logical" name="LASYNC"> F  </i>
   <i type="logical" name="LORBITALREAL"> F  </i>
  </separator>
  <separator name="miscellaneous" >
   <i type="int" name="IDIOT">     3</i>
   <i type="int" name="ISPECIAL">     0</i>
   <i type="logical" name="LMUSIC"> F  </i>
   <v name="POMASS">      0.01000000</v>
   <v name="DARWINR">      0.00000000</v>
   <v name="DARWINV">      1.00000000</v>
   <i type="logical" name="LCORR"> T  </i>
  </separator>
  <i type="logical" name="GGA_COMPAT"> F  </i>
  <i type="logical" name="LBERRY"> F  </i>
  <i type="int" name="ICORELEVEL">     0</i>
  <i type="logical" name="LDAU"> F  </i>
  <i type="int" name="I_CONSTRAINED_M">     0</i>
  <separator name="electronic exchange-correlation" >
   <i type="string" name="GGA">PE</i>
   <i type="int" name="VOSKOWN">     0</i>
   <i type="logical" name="LHFCALC"> F  </i>
   <i type="string" name="PRECFOCK"></i>
   <i type="logical" name="LSYMGRAD"> F  </i>
   <i type="logical" name="LHFONE"> F  </i>
   <i type="logical" name="LRHFCALC"> F  </i>
   <i type="logical" name="LTHOMAS"> F  </i>
   <i type="logical" name="LMODELHF"> F  </i>
   <i name="ENCUT4O">     -1.00000000</i>
   <i type="int" name="EXXOEP">     0</i>
   <i type="int" name="FOURORBIT">     0</i>
   <i name="AEXX">      0.00000000</i>
   <i name="HFALPHA">      0.00000000</i>
   <i name="MCALPHA">      0.00000000</i>
   <i name="ALDAX">      1.00000000</i>
   <i name="AGGAX">      1.00000000</i>
   <i name="ALDAC">      1.00000000</i>
   <i name="AGGAC">      1.00000000</i>
   <i type="int" name="NKREDX">     1</i>
   <i type="int" name="NKREDY">     1</i>
   <i type="int" name="NKREDZ">     1</i>
   <i type="logical" name="SHIFTRED"> F  </i>
   <i type="logical" name="ODDONLY"> F  </i>
   <i type="logical" name="EVENONLY"> F  </i>
   <i type="int" name="LMAXFOCK">     0</i>
   <i type="int" name="NMAXFOCKAE">     0</i>
   <i type="logical" name="LFOCKAEDFT"> F  </i>
   <i name="HFSCREEN">      0.00000000</i>
   <i name="HFSCREENC">      0.00000000</i>
   <i type="int" name="NBANDSGWLOW">     0</i>
  </separator>
  <separator name="vdW DFT" >
   <i type="logical" name="LUSE_VDW"> F  </i>
   <i name="Zab_VDW">     -0.84910000</i>
   <i name="PARAM1">      0.12340000</i>
   <i name="PARAM2">      1.00000000</i>
   <i name="PARAM3">      0.00000000</i>
  </separator>
  <separator name="model GW" >
   <i type="int" name="MODEL_GW">     0</i>
   <i name="MODEL_EPS0">     52.85384296</i>
   <i name="MODEL_ALPHA">      1.00000000</i>
  </separator>
  <separator name="linear response parameters" >
   <i type="logical" name="LEPSILON"> F  </i>
   <i type="logical" name="LRPA"> F  </i>
   <i type="logical" name="LNABLA"> F  </i>
   <i type="logical" name="LVEL"> F  </i>
   <i type="int" name="KINTER">     0</i>
   <i name="CSHIFT">      0.10000000</i>
   <i name="OMEGAMAX">     -1.00000000</i>
   <i name="DEG_THRESHOLD">      0.00200000</i>
   <i name="RTIME">     -0.10000000</i>
   <i name="WPLASMAI">      0.00000000</i>
   <v name="DFIELD">      0.00000000      0.00000000      0.00000000</v>
   <v name="WPLASMA">      0.00000000      0.00000000      0.00000000      0.00000000      0.00000000      0.00000000      0.00000000      0.00000000      0.00000000</v>
  </separator>
  <separator name="orbital magnetization" >
   <i type="logical" name="NUCIND"> F  </i>
   <v name="MAGPOS">      0.00000000      0.00000000      0.00000000</v>
   <i type="logical" name="LNICSALL"> T  </i>
   <i type="logical" name="ORBITALMAG"> F  </i>
   <i type="logical" name="LMAGBLOCH"> F  </i>
   <i type="logical" name="LCHIMAG"> F  </i>
   <i type="logical" name="LGAUGE"> T  </i>
   <i type="int" name="MAGATOM">     0</i>
   <v name="MAGDIPOL">      0.00000000      0.00000000      0.00000000</v>
   <v name="AVECCONST">      0.00000000      0.00000000      0.00000000</v>
  </separator>
  <separator name="response functions" >
   <i type="logical" name="LADDER"> F  </i>
   <i type="logical" name="LRPAFORCE"> F  </i>
   <i type="logical" name="LFXC"> F  </i>
   <i type="logical" name="LHARTREE"> T  </i>
   <i type="int" name="IBSE">     0</i>
   <v type="int" name="KPOINT">    -1     0     0     0</v>
   <i type="logical" name="LTCTE"> F  </i>
   <i type="logical" name="LTETE"> F  </i>
   <i type="logical" name="LTRIPLET"> F  </i>
   <i type="logical" name="LFXCEPS"> F  </i>
   <i type="logical" name="LFXHEG"> F  </i>
   <i type="int" name="NATURALO">     2</i>
   <i type="logical" name="L2ORDER"> F  </i>
   <i type="logical" name="LMP2LT"> F  </i>
   <i type="logical" name="LUSEW"> F  </i>
   <i name="ENCUTGW">     -2.00000000</i>
   <i name="ENCUTGWSOFT">     -2.00000000</i>
   <i name="ENCUTLF">     -1.00000000</i>
   <i type="int" name="LMAXMP2">    -1</i>
   <i name="SCISSOR">      0.00000000</i>
   <i type="int" name="NOMEGA">     0</i>
   <i type="int" name="NOMEGAR">     0</i>
   <i type="int" name="NBANDSGW">    -1</i>
   <i type="int" name="NBANDSO">    -1</i>
   <i type="int" name="NBANDSV">    -1</i>
   <i type="int" name="NELM">   100</i>
   <i type="int" name="NELMHF">     1</i>
   <i type="int" name="DIM">     3</i>
   <i type="int" name="ANTIRES">     0</i>
   <i name="OMEGAMAX">    -30.00000000</i>
   <i name="OMEGAMIN">    -30.00000000</i>
   <i name="OMEGATL">   -200.00000000</i>
   <i type="int" name="OMEGAGRID">   140</i>
   <i name="CSHIFT">     -0.10000000</i>
   <i type="logical" name="SELFENERGY"> F  </i>
   <i type="logical" name="LSPECTRAL"> F  </i>
   <i type="logical" name="LSPECTRALGW"> F  </i>
   <i type="logical" name="LSINGLES"> F  </i>
   <i type="logical" name="LFERMIGW"> F  </i>
   <i type="logical" name="ODDONLYGW"> F  </i>
   <i type="logical" name="EVENONLYGW"> F  </i>
   <i type="int" name="NKREDLFX">     1</i>
   <i type="int" name="NKREDLFY">     1</i>
   <i type="int" name="NKREDLFZ">     1</i>
   <i type="int" name="MAXMEM">  2800</i>
   <i type="int" name="TELESCOPE">     0</i>
   <i type="int" name="TAUPAR">     1</i>
   <i type="int" name="OMEGAPAR">    -1</i>
   <i name="LAMBDA">      1.00000000</i>
  </separator>
  <separator name="External order field" >
   <i name="OFIELD_KAPPA">      0.00000000</i>
   <v name="OFIELD_K">      0.00000000      0.00000000      0.00000000</v>
   <i name="OFIELD_Q6_NEAR">      0.00000000</i>
   <i name="OFIELD_Q6_FAR">      0.00000000</i>
   <i name="OFIELD_A">      0.00000000</i>
  </separator>
 </parameters>
 <atominfo>
  <atoms>       1 </atoms>
  <types>       1 </types>
  <array name="atoms" >
   <dimension dim="1">ion</dimension>
   <field type="string">element</field>
   <field type="int">atomtype</field>
   <set>
    <rc><c>Og</c><c>   1</c></rc>
   </set>
  </array>
  <array name="atomtypes" >
   <dimension dim="1">type</dimension>
   <field type="int">atomspertype</field>
   <field type="string">element</field>
   <field>mass</field>
   <field>valence</field>
   <field type="string">pseudopotential</field>
   <set>
    <rc><c>   1</c><c>Og</c><c>      0.01000000</c><c>     18.00000000</c><c>  PAW Og, JanMewes Oct 18               </c></rc>
   </set>
  </array>
 </atominfo>
 <structure name="initialpos" >
  <crystal>
   <varray name="basis" >
    <v>       4.99436301       0.00000000       0.00000000 </v>
    <v>       2.49718151       4.32524525      -0.00000000 </v>
    <v>       2.49718151       1.44174842       4.07788033 </v>
   </varray>
   <i name="volume">     88.08973827 </i>
   <varray name="rec_basis" >
    <v>       0.20022573      -0.11560038      -0.08174181 </v>
    <v>       0.00000000       0.23120076      -0.08174181 </v>
    <v>      -0.00000000       0.00000000       0.24522544 </v>
   </varray>
  </crystal>
  <varray name="positions" >
   <v>       0.00000000       0.00000000       0.00000000 </v>
  </varray>
  <varray name="velocities" >
   <v>       0.00000000       0.00000000       0.00000000 </v>
  </varray>
 </structure>
 <calculation>
  <scstep>
   <time name="dav">    0.40    0.40</time>
   <time name="total">    0.76    0.76</time>
   <energy>
    <i name="alphaZ">     43.31102209 </i>
    <i name="ewald">  -1514.26630738 </i>
    <i name="hartreedc">   -818.06607762 </i>
    <i name="XCdc">    -69.59713176 </i>
    <i name="pawpsdc">   2268.42939301 </i>
    <i name="pawaedc">  -2184.22833953 </i>
    <i name="eentropy">     -0.00006907 </i>
    <i name="bandstr">    -52.72067651 </i>
    <i name="atom">   2640.52872706 </i>
    <i name="e_fr_energy">    313.39054027 </i>
    <i name="e_wo_entrp">    313.39060935 </i>
    <i name="e_0_energy">    313.39056330 </i>
   </energy>
  </scstep>
  <scstep>
   <time name="dav">    0.47    0.47</time>
   <time name="total">    0.47    0.47</time>
   <energy>
    <i name="e_fr_energy">     13.94288578 </i>
    <i name="e_wo_entrp">     13.94261400 </i>
    <i name="e_0_energy">     13.94279519 </i>
   </energy>
  </scstep>
  <scstep>
   <time name="dav">    0.41    0.41</time>
   <time name="total">    0.41    0.41</time>
   <energy>
    <i name="e_fr_energy">      0.21832789 </i>
    <i name="e_wo_entrp">      0.21584689 </i>
    <i name="e_0_energy">      0.21750089 </i>
   </energy>
  </scstep>
  <scstep>
   <time name="dav">    0.44    0.44</time>
   <time name="total">    0.44    0.44</time>
   <energy>
    <i name="e_fr_energy">     -0.00633541 </i>
    <i name="e_wo_entrp">     -0.00886238 </i>
    <i name="e_0_energy">     -0.00717773 </i>
   </energy>
  </scstep>
  <scstep>
   <time name="dav">    0.42    0.42</time>
   <time name="total">    0.68    0.68</time>
   <energy>
    <i name="e_fr_energy">     -0.01465079 </i>
    <i name="e_wo_entrp">     -0.01717363 </i>
    <i name="e_0_energy">     -0.01549174 </i>
   </energy>
  </scstep>
  <scstep>
   <time name="diag">    0.07    0.07</time>
   <time name="diis">    0.43    0.43</time>
   <time name="orth">    0.00    0.00</time>
   <time name="total">    1.13    1.13</time>
   <energy>
    <i name="e_fr_energy">     -0.01548536 </i>
    <i name="e_wo_entrp">     -0.01801319 </i>
    <i name="e_0_energy">     -0.01632797 </i>
   </energy>
  </scstep>
  <scstep>
   <time name="diag">    0.07    0.07</time>
   <time name="diis">    0.46    0.46</time>
   <time name="orth">    0.00    0.00</time>
   <time name="total">    1.17    1.16</time>
   <energy>
    <i name="e_fr_energy">     -0.01587378 </i>
    <i name="e_wo_entrp">     -0.01840796 </i>
    <i name="e_0_energy">     -0.01671851 </i>
   </energy>
  </scstep>
  <scstep>
   <time name="diag">    0.07    0.07</time>
   <time name="diis">    0.46    0.46</time>
   <time name="orth">    0.00    0.00</time>
   <time name="total">    1.15    1.15</time>
   <energy>
    <i name="e_fr_energy">     -0.01589346 </i>
    <i name="e_wo_entrp">     -0.01842657 </i>
    <i name="e_0_energy">     -0.01673783 </i>
   </energy>
  </scstep>
  <scstep>
   <time name="diag">    0.08    0.08</time>
   <time name="diis">    0.47    0.47</time>
   <time name="orth">    0.00    0.00</time>
   <time name="total">    1.15    1.15</time>
   <energy>
    <i name="e_fr_energy">     -0.01590499 </i>
    <i name="e_wo_entrp">     -0.01843662 </i>
    <i name="e_0_energy">     -0.01674887 </i>
   </energy>
  </scstep>
  <scstep>
   <time name="diag">    0.07    0.07</time>
   <time name="diis">    0.48    0.48</time>
   <time name="orth">    0.00    0.00</time>
   <time name="total">    1.17    1.17</time>
   <energy>
    <i name="e_fr_energy">     -0.01590575 </i>
    <i name="e_wo_entrp">     -0.01843761 </i>
    <i name="e_0_energy">     -0.01674970 </i>
   </energy>
  </scstep>
  <scstep>
   <time name="diag">    0.07    0.07</time>
   <time name="diis">    0.40    0.40</time>
   <time name="orth">    0.00    0.00</time>
   <time name="total">    1.07    1.07</time>
   <energy>
    <i name="e_fr_energy">     -0.01590619 </i>
    <i name="e_wo_entrp">     -0.01843803 </i>
    <i name="e_0_energy">     -0.01675014 </i>
   </energy>
  </scstep>
  <scstep>
   <time name="diag">    0.08    0.08</time>
   <time name="diis">    0.30    0.30</time>
   <time name="orth">    0.00    0.00</time>
   <time name="total">    0.73    0.73</time>
   <energy>
    <i name="alphaZ">     43.31102209 </i>
    <i name="ewald">  -1514.26630738 </i>
    <i name="hartreedc">   -817.45970785 </i>
    <i name="XCdc">    -69.63284732 </i>
    <i name="pawpsdc">   2266.19170276 </i>
    <i name="pawaedc">  -2181.97729822 </i>
    <i name="eentropy">      0.00253175 </i>
    <i name="bandstr">   -366.71372908 </i>
    <i name="atom">   2640.52872706 </i>
    <i name="e_fr_energy">     -0.01590620 </i>
    <i name="e_wo_entrp">     -0.01843795 </i>
    <i name="e_0_energy">     -0.01675011 </i>
   </energy>
  </scstep>
  <structure>
   <crystal>
    <varray name="basis" >
     <v>       4.99436301       0.00000000       0.00000000 </v>
     <v>       2.49718151       4.32524525      -0.00000000 </v>
     <v>       2.49718151       1.44174842       4.07788033 </v>
    </varray>
    <i name="volume">     88.08973827 </i>
    <varray name="rec_basis" >
     <v>       0.20022573      -0.11560038      -0.08174181 </v>
     <v>       0.00000000       0.23120076      -0.08174181 </v>
     <v>      -0.00000000       0.00000000       0.24522544 </v>
    </varray>
   </crystal>
   <varray name="positions" >
    <v>       0.00000000       0.00000000       0.00000000 </v>
   </varray>
  </structure>
  <varray name="forces" >
   <v>       0.00000000      -0.00000000      -0.00000000 </v>
  </varray>
  <varray name="stress" >
   <v>      -0.37677738       0.00000000       0.00000000 </v>
   <v>       0.00000000      -0.37677738      -0.00000000 </v>
   <v>      -0.00000000       0.00000000      -0.37677738 </v>
  </varray>
  <energy>
   <i name="e_fr_energy">     -0.01590620 </i>
   <i name="e_wo_entrp">     -0.01675011 </i>
   <i name="e_0_energy">      0.00253175 </i>
  </energy>
  <time name="totalsc">   16.21   16.21</time>
  <eigenvalues>
   <array>
    <dimension dim="1">band</dimension>
    <dimension dim="2">kpoint</dimension>
    <dimension dim="3">spin</dimension>
    <field>eigene</field>
    <field>occ</field>
    <set>
     <set comment="spin 1">
      <set comment="kpoint 1">
       <r>  -30.6819    1.0000 </r>
       <r>  -30.6819    1.0000 </r>
       <r>  -30.6819    1.0000 </r>
       <r>  -30.6816    1.0000 </r>
       <r>  -30.6816    1.0000 </r>
       <r>  -23.6172    1.0000 </r>
       <r>   -1.5460    0.7082 </r>
       <r>   -1.5460    0.7082 </r>
       <r>   -1.5460    0.7082 </r>
       <r>    1.6196    0.0000 </r>
       <r>    7.6050    0.0000 </r>
       <r>    7.6050    0.0000 </r>
       <r>    7.6050    0.0000 </r>
      </set>
      <set comment="kpoint 2">
       <r>  -30.6819    1.0000 </r>
       <r>  -30.6819    1.0000 </r>
       <r>  -30.6819    1.0000 </r>
       <r>  -30.6816    1.0000 </r>
       <r>  -30.6816    1.0000 </r>
       <r>  -23.6150    1.0000 </r>
       <r>   -1.8239    1.0001 </r>
       <r>   -1.5707    0.8713 </r>
       <r>   -1.5707    0.8713 </r>
       <r>    2.0536    0.0000 </r>
       <r>    7.0851    0.0000 </r>
       <r>    7.7148    0.0000 </r>
       <r>    7.7148    0.0000 </r>
      </set>
      <set comment="kpoint 3">
       <r>  -30.6818    1.0000 </r>
       <r>  -30.6818    1.0000 </r>
       <r>  -30.6818    1.0000 </r>
       <r>  -30.6814    1.0000 </r>
       <r>  -30.6814    1.0000 </r>
       <r>  -23.6095    1.0000 </r>
       <r>   -2.3260    1.0000 </r>
       <r>   -1.6289    1.0318 </r>
       <r>   -1.6289    1.0318 </r>
       <r>    2.9109    0.0000 </r>
       <r>    6.7445    0.0000 </r>
       <r>    7.6918    0.0000 </r>
       <r>    7.6918    0.0000 </r>
      </set>
      <set comment="kpoint 4">
       <r>  -30.6819    1.0000 </r>
       <r>  -30.6819    1.0000 </r>
       <r>  -30.6817    1.0000 </r>
       <r>  -30.6811    1.0000 </r>
       <r>  -30.6811    1.0000 </r>
       <r>  -23.6041    1.0000 </r>
       <r>   -2.7076    1.0000 </r>
       <r>   -1.6853    1.0208 </r>
       <r>   -1.6853    1.0208 </r>
       <r>    3.5307    0.0000 </r>
       <r>    7.0672    0.0000 </r>
       <r>    7.4207    0.0000 </r>
       <r>    7.4207    0.0000 </r>
      </set>
      <set comment="kpoint 5">
       <r>  -30.6819    1.0000 </r>
       <r>  -30.6819    1.0000 </r>
       <r>  -30.6816    1.0000 </r>
       <r>  -30.6810    1.0000 </r>
       <r>  -30.6810    1.0000 </r>
       <r>  -23.6018    1.0000 </r>
       <r>   -2.8446    1.0000 </r>
       <r>   -1.7081    1.0117 </r>
       <r>   -1.7081    1.0117 </r>
       <r>    3.7015    0.0000 </r>
       <r>    7.3025    0.0000 </r>
       <r>    7.3025    0.0000 </r>
       <r>    7.4089    0.0000 </r>
      </set>
      <set comment="kpoint 6">
       <r>  -30.6820    1.0000 </r>
       <r>  -30.6818    1.0000 </r>
       <r>  -30.6818    1.0000 </r>
       <r>  -30.6816    1.0000 </r>
       <r>  -30.6815    1.0000 </r>
       <r>  -23.6142    1.0000 </r>
       <r>   -1.8315    1.0000 </r>
       <r>   -1.6199    1.0245 </r>
       <r>   -1.6199    1.0245 </r>
       <r>    2.2036    0.0000 </r>
       <r>    6.8693    0.0000 </r>
       <r>    7.8387    0.0000 </r>
       <r>    7.8406    0.0000 </r>
      </set>
      <set comment="kpoint 7">
       <r>  -30.6820    1.0000 </r>
       <r>  -30.6817    1.0000 </r>
       <r>  -30.6817    1.0000 </r>
       <r>  -30.6815    1.0000 </r>
       <r>  -30.6813    1.0000 </r>
       <r>  -23.6099    1.0000 </r>
       <r>   -2.2067    1.0000 </r>
       <r>   -1.6940    1.0170 </r>
       <r>   -1.6776    1.0244 </r>
       <r>    2.9415    0.0000 </r>
       <r>    6.5061    0.0000 </r>
       <r>    7.3543    0.0000 </r>
       <r>    7.9979    0.0000 </r>
      </set>
      <set comment="kpoint 8">
       <r>  -30.6819    1.0000 </r>
       <r>  -30.6817    1.0000 </r>
       <r>  -30.6817    1.0000 </r>
       <r>  -30.6813    1.0000 </r>
       <r>  -30.6811    1.0000 </r>
       <r>  -23.6044    1.0000 </r>
       <r>   -2.5834    1.0000 </r>
       <r>   -1.7662    1.0014 </r>
       <r>   -1.7492    1.0028 </r>
       <r>    3.7040    0.0000 </r>
       <r>    6.5960    0.0000 </r>
       <r>    6.8953    0.0000 </r>
       <r>    7.7998    0.0000 </r>
      </set>
      <set comment="kpoint 9">
       <r>  -30.6819    1.0000 </r>
       <r>  -30.6818    1.0000 </r>
       <r>  -30.6816    1.0000 </r>
       <r>  -30.6811    1.0000 </r>
       <r>  -30.6809    1.0000 </r>
       <r>  -23.6011    1.0000 </r>
       <r>   -2.7754    1.0000 </r>
       <r>   -1.8509    1.0000 </r>
       <r>   -1.7555    1.0022 </r>
       <r>    4.0451    0.0000 </r>
       <r>    6.5418    0.0000 </r>
       <r>    7.4878    0.0000 </r>
       <r>    7.5686    0.0000 </r>
      </set>
      <set comment="kpoint 10">
       <r>  -30.6819    1.0000 </r>
       <r>  -30.6818    1.0000 </r>
       <r>  -30.6816    1.0000 </r>
       <r>  -30.6811    1.0000 </r>
       <r>  -30.6810    1.0000 </r>
       <r>  -23.6018    1.0000 </r>
       <r>   -2.7312    1.0000 </r>
       <r>   -1.8802    1.0000 </r>
       <r>   -1.7096    1.0112 </r>
       <r>    3.9915    0.0000 </r>
       <r>    6.6291    0.0000 </r>
       <r>    7.2926    0.0000 </r>
       <r>    7.5358    0.0000 </r>
      </set>
      <set comment="kpoint 11">
       <r>  -30.6818    1.0000 </r>
       <r>  -30.6817    1.0000 </r>
       <r>  -30.6817    1.0000 </r>
       <r>  -30.6814    1.0000 </r>
       <r>  -30.6811    1.0000 </r>
       <r>  -23.6062    1.0000 </r>
       <r>   -2.4693    1.0000 </r>
       <r>   -1.8293    1.0001 </r>
       <r>   -1.6363    1.0347 </r>
       <r>    3.4813    0.0000 </r>
       <r>    6.6425    0.0000 </r>
       <r>    7.0606    0.0000 </r>
       <r>    7.7560    0.0000 </r>
      </set>
      <set comment="kpoint 12">
       <r>  -30.6819    1.0000 </r>
       <r>  -30.6818    1.0000 </r>
       <r>  -30.6818    1.0000 </r>
       <r>  -30.6816    1.0000 </r>
       <r>  -30.6814    1.0000 </r>
       <r>  -23.6116    1.0000 </r>
       <r>   -2.0943    1.0000 </r>
       <r>   -1.7030    1.0135 </r>
       <r>   -1.5777    0.9073 </r>
       <r>    2.6364    0.0000 </r>
       <r>    6.7332    0.0000 </r>
       <r>    7.5765    0.0000 </r>
       <r>    7.9142    0.0000 </r>
      </set>
      <set comment="kpoint 13">
       <r>  -30.6821    1.0000 </r>
       <r>  -30.6817    1.0000 </r>
       <r>  -30.6814    1.0000 </r>
       <r>  -30.6814    1.0000 </r>
       <r>  -30.6813    1.0000 </r>
       <r>  -23.6069    1.0000 </r>
       <r>   -2.3044    1.0000 </r>
       <r>   -1.7894    1.0005 </r>
       <r>   -1.7894    1.0005 </r>
       <r>    3.4214    0.0000 </r>
       <r>    6.0772    0.0000 </r>
       <r>    6.9569    0.0000 </r>
       <r>    8.4809    0.0000 </r>
      </set>
      <set comment="kpoint 14">
       <r>  -30.6821    1.0000 </r>
       <r>  -30.6818    1.0000 </r>
       <r>  -30.6814    1.0000 </r>
       <r>  -30.6812    1.0000 </r>
       <r>  -30.6810    1.0000 </r>
       <r>  -23.6026    1.0000 </r>
       <r>   -2.5267    1.0000 </r>
       <r>   -1.9090    1.0000 </r>
       <r>   -1.8587    1.0000 </r>
       <r>    4.0702    0.0000 </r>
       <r>    5.9588    0.0000 </r>
       <r>    6.6164    0.0000 </r>
       <r>    8.5834    0.0000 </r>
      </set>
      <set comment="kpoint 15">
       <r>  -30.6820    1.0000 </r>
       <r>  -30.6816    1.0000 </r>
       <r>  -30.6814    1.0000 </r>
       <r>  -30.6811    1.0000 </r>
       <r>  -30.6809    1.0000 </r>
       <r>  -23.5993    1.0000 </r>
       <r>   -2.6436    1.0000 </r>
       <r>   -2.0918    1.0000 </r>
       <r>   -1.8652    1.0000 </r>
       <r>    4.5909    0.0000 </r>
       <r>    6.1442    0.0000 </r>
       <r>    6.6986    0.0000 </r>
       <r>    8.3087    0.0000 </r>
      </set>
      <set comment="kpoint 16">
       <r>  -30.6819    1.0000 </r>
       <r>  -30.6815    1.0000 </r>
       <r>  -30.6814    1.0000 </r>
       <r>  -30.6812    1.0000 </r>
       <r>  -30.6811    1.0000 </r>
       <r>  -23.5990    1.0000 </r>
       <r>   -2.6111    1.0000 </r>
       <r>   -2.2243    1.0000 </r>
       <r>   -1.8056    1.0002 </r>
       <r>    4.7969    0.0000 </r>
       <r>    6.0870    0.0000 </r>
       <r>    7.2376    0.0000 </r>
       <r>    8.0812    0.0000 </r>
      </set>
      <set comment="kpoint 17">
       <r>  -30.6818    1.0000 </r>
       <r>  -30.6815    1.0000 </r>
       <r>  -30.6815    1.0000 </r>
       <r>  -30.6814    1.0000 </r>
       <r>  -30.6811    1.0000 </r>
       <r>  -23.6019    1.0000 </r>
       <r>   -2.5462    1.0000 </r>
       <r>   -2.1210    1.0000 </r>
       <r>   -1.7111    1.0107 </r>
       <r>    4.3645    0.0000 </r>
       <r>    6.3472    0.0000 </r>
       <r>    6.6898    0.0000 </r>
       <r>    7.9611    0.0000 </r>
      </set>
      <set comment="kpoint 18">
       <r>  -30.6822    1.0000 </r>
       <r>  -30.6818    1.0000 </r>
       <r>  -30.6811    1.0000 </r>
       <r>  -30.6809    1.0000 </r>
       <r>  -30.6809    1.0000 </r>
       <r>  -23.5997    1.0000 </r>
       <r>   -2.6321    1.0000 </r>
       <r>   -1.9478    1.0000 </r>
       <r>   -1.9478    1.0000 </r>
       <r>    4.1928    0.0000 </r>
       <r>    5.5848    0.0000 </r>
       <r>    7.1031    0.0000 </r>
       <r>    9.3757    0.0000 </r>
      </set>
      <set comment="kpoint 19">
       <r>  -30.6822    1.0000 </r>
       <r>  -30.6818    1.0000 </r>
       <r>  -30.6811    1.0000 </r>
       <r>  -30.6809    1.0000 </r>
       <r>  -30.6808    1.0000 </r>
       <r>  -23.5975    1.0000 </r>
       <r>   -2.6784    1.0000 </r>
       <r>   -2.0856    1.0000 </r>
       <r>   -1.9692    1.0000 </r>
       <r>    4.4216    0.0000 </r>
       <r>    5.6606    0.0000 </r>
       <r>    7.4583    0.0000 </r>
       <r>    9.3024    0.0000 </r>
      </set>
      <set comment="kpoint 20">
       <r>  -30.6820    1.0000 </r>
       <r>  -30.6816    1.0000 </r>
       <r>  -30.6812    1.0000 </r>
       <r>  -30.6810    1.0000 </r>
       <r>  -30.6809    1.0000 </r>
       <r>  -23.5971    1.0000 </r>
       <r>   -2.5609    1.0000 </r>
       <r>   -2.3280    1.0000 </r>
       <r>   -1.9121    1.0000 </r>
       <r>    4.7944    0.0000 </r>
       <r>    6.1312    0.0000 </r>
       <r>    7.5874    0.0000 </r>
       <r>    7.6504    0.0000 </r>
      </set>
      <set comment="kpoint 21">
       <r>  -30.6823    1.0000 </r>
       <r>  -30.6819    1.0000 </r>
       <r>  -30.6811    1.0000 </r>
       <r>  -30.6808    1.0000 </r>
       <r>  -30.6808    1.0000 </r>
       <r>  -23.5968    1.0000 </r>
       <r>   -2.7431    1.0000 </r>
       <r>   -2.0107    1.0000 </r>
       <r>   -2.0107    1.0000 </r>
       <r>    4.2235    0.0000 </r>
       <r>    5.4192    0.0000 </r>
       <r>    8.5110    0.0000 </r>
       <r>    9.3022    0.0000 </r>
      </set>
      <set comment="kpoint 22">
       <r>  -30.6819    1.0000 </r>
       <r>  -30.6817    1.0000 </r>
       <r>  -30.6815    1.0000 </r>
       <r>  -30.6814    1.0000 </r>
       <r>  -30.6811    1.0000 </r>
       <r>  -23.6055    1.0000 </r>
       <r>   -2.4232    1.0000 </r>
       <r>   -1.8920    1.0000 </r>
       <r>   -1.7138    1.0098 </r>
       <r>    3.6864    0.0000 </r>
       <r>    6.3036    0.0000 </r>
       <r>    6.7422    0.0000 </r>
       <r>    8.3056    0.0000 </r>
      </set>
      <set comment="kpoint 23">
       <r>  -30.6818    1.0000 </r>
       <r>  -30.6817    1.0000 </r>
       <r>  -30.6815    1.0000 </r>
       <r>  -30.6812    1.0000 </r>
       <r>  -30.6810    1.0000 </r>
       <r>  -23.6011    1.0000 </r>
       <r>   -2.6087    1.0000 </r>
       <r>   -2.0435    1.0000 </r>
       <r>   -1.7874    1.0005 </r>
       <r>    4.4214    0.0000 </r>
       <r>    6.2339    0.0000 </r>
       <r>    6.6253    0.0000 </r>
       <r>    8.0973    0.0000 </r>
      </set>
      <set comment="kpoint 24">
       <r>  -30.6818    1.0000 </r>
       <r>  -30.6817    1.0000 </r>
       <r>  -30.6814    1.0000 </r>
       <r>  -30.6812    1.0000 </r>
       <r>  -30.6810    1.0000 </r>
       <r>  -23.5993    1.0000 </r>
       <r>   -2.6807    1.0000 </r>
       <r>   -2.0929    1.0000 </r>
       <r>   -1.8271    1.0001 </r>
       <r>    4.6799    0.0000 </r>
       <r>    6.0493    0.0000 </r>
       <r>    7.3196    0.0000 </r>
       <r>    7.9171    0.0000 </r>
      </set>
      <set comment="kpoint 25">
       <r>  -30.6820    1.0000 </r>
       <r>  -30.6818    1.0000 </r>
       <r>  -30.6813    1.0000 </r>
       <r>  -30.6810    1.0000 </r>
       <r>  -30.6809    1.0000 </r>
       <r>  -23.5993    1.0000 </r>
       <r>   -2.6057    1.0000 </r>
       <r>   -2.0669    1.0000 </r>
       <r>   -1.9288    1.0000 </r>
       <r>    4.5695    0.0000 </r>
       <r>    5.9356    0.0000 </r>
       <r>    6.5307    0.0000 </r>
       <r>    8.8553    0.0000 </r>
      </set>
      <set comment="kpoint 26">
       <r>  -30.6819    1.0000 </r>
       <r>  -30.6816    1.0000 </r>
       <r>  -30.6813    1.0000 </r>
       <r>  -30.6811    1.0000 </r>
       <r>  -30.6808    1.0000 </r>
       <r>  -23.5975    1.0000 </r>
       <r>   -2.5594    1.0000 </r>
       <r>   -2.2695    1.0000 </r>
       <r>   -1.9592    1.0000 </r>
       <r>    5.0773    0.0000 </r>
       <r>    6.1090    0.0000 </r>
       <r>    6.6932    0.0000 </r>
       <r>    7.8775    0.0000 </r>
      </set>
      <set comment="kpoint 27">
       <r>  -30.6818    1.0000 </r>
       <r>  -30.6815    1.0000 </r>
       <r>  -30.6814    1.0000 </r>
       <r>  -30.6812    1.0000 </r>
       <r>  -30.6810    1.0000 </r>
       <r>  -23.5982    1.0000 </r>
       <r>   -2.5117    1.0000 </r>
       <r>   -2.3283    1.0000 </r>
       <r>   -1.8884    1.0000 </r>
       <r>    5.2627    0.0000 </r>
       <r>    5.8300    0.0000 </r>
       <r>    6.8013    0.0000 </r>
       <r>    7.9112    0.0000 </r>
      </set>
      <set comment="kpoint 28">
       <r>  -30.6820    1.0000 </r>
       <r>  -30.6818    1.0000 </r>
       <r>  -30.6811    1.0000 </r>
       <r>  -30.6810    1.0000 </r>
       <r>  -30.6808    1.0000 </r>
       <r>  -23.5967    1.0000 </r>
       <r>   -2.6504    1.0000 </r>
       <r>   -2.1358    1.0000 </r>
       <r>   -2.0340    1.0000 </r>
       <r>    4.6479    0.0000 </r>
       <r>    5.8019    0.0000 </r>
       <r>    7.6682    0.0000 </r>
       <r>    7.9473    0.0000 </r>
      </set>
      <set comment="kpoint 29">
       <r>  -30.6816    1.0000 </r>
       <r>  -30.6815    1.0000 </r>
       <r>  -30.6815    1.0000 </r>
       <r>  -30.6813    1.0000 </r>
       <r>  -30.6808    1.0000 </r>
       <r>  -23.5967    1.0000 </r>
       <r>   -2.4089    1.0000 </r>
       <r>   -2.4089    1.0000 </r>
       <r>   -2.0568    1.0000 </r>
       <r>    5.5961    0.0000 </r>
       <r>    6.1654    0.0000 </r>
       <r>    6.7895    0.0000 </r>
       <r>    6.7895    0.0000 </r>
      </set>
     </set>
    </set>
   </array>
  </eigenvalues>
  <separator name="orbital magnetization" >
   <v name="MAGDIPOLOUT">      0.00000000      0.00000000      0.00000000</v>
  </separator>
  <dos>
   <i name="efermi">     -1.52045124 </i>
   <total>
    <array>
     <dimension dim="1">gridpoints</dimension>
     <dimension dim="2">spin</dimension>
     <field>energy</field>
     <field>total</field>
     <field>integrated</field>
     <set>
      <set comment="spin 1">
       <r>   -32.6852     0.0000     0.0000 </r>
       <r>   -32.5383     0.0000     0.0000 </r>
       <r>   -32.3914     0.0000     0.0000 </r>
       <r>   -32.2445     0.0000     0.0000 </r>
       <r>   -32.0977     0.0000     0.0000 </r>
       <r>   -31.9508     0.0000     0.0000 </r>
       <r>   -31.8039     0.0000     0.0000 </r>
       <r>   -31.6570     0.0000     0.0000 </r>
       <r>   -31.5101    -0.0000    -0.0000 </r>
       <r>   -31.3633    -0.0000    -0.0000 </r>
       <r>   -31.2164    -0.0000    -0.0000 </r>
       <r>   -31.0695    -0.0000    -0.0000 </r>
       <r>   -30.9226    -0.1159    -0.0170 </r>
       <r>   -30.7757    -1.1179    -0.1812 </r>
       <r>   -30.6289    61.4215     8.8403 </r>
       <r>   -30.4820     8.4490    10.0813 </r>
       <r>   -30.3351    -0.5532    10.0001 </r>
       <r>   -30.1882    -0.0004    10.0000 </r>
       <r>   -30.0413    -0.0000    10.0000 </r>
       <r>   -29.8945     0.0000    10.0000 </r>
       <r>   -29.7476     0.0000    10.0000 </r>
       <r>   -29.6007     0.0000    10.0000 </r>
       <r>   -29.4538     0.0000    10.0000 </r>
       <r>   -29.3069     0.0000    10.0000 </r>
       <r>   -29.1601     0.0000    10.0000 </r>
       <r>   -29.0132     0.0000    10.0000 </r>
       <r>   -28.8663     0.0000    10.0000 </r>
       <r>   -28.7194     0.0000    10.0000 </r>
       <r>   -28.5726     0.0000    10.0000 </r>
       <r>   -28.4257     0.0000    10.0000 </r>
       <r>   -28.2788     0.0000    10.0000 </r>
       <r>   -28.1319     0.0000    10.0000 </r>
       <r>   -27.9850     0.0000    10.0000 </r>
       <r>   -27.8382     0.0000    10.0000 </r>
       <r>   -27.6913     0.0000    10.0000 </r>
       <r>   -27.5444     0.0000    10.0000 </r>
       <r>   -27.3975     0.0000    10.0000 </r>
       <r>   -27.2506     0.0000    10.0000 </r>
       <r>   -27.1038     0.0000    10.0000 </r>
       <r>   -26.9569     0.0000    10.0000 </r>
       <r>   -26.8100     0.0000    10.0000 </r>
       <r>   -26.6631     0.0000    10.0000 </r>
       <r>   -26.5162     0.0000    10.0000 </r>
       <r>   -26.3694     0.0000    10.0000 </r>
       <r>   -26.2225     0.0000    10.0000 </r>
       <r>   -26.0756     0.0000    10.0000 </r>
       <r>   -25.9287     0.0000    10.0000 </r>
       <r>   -25.7818     0.0000    10.0000 </r>
       <r>   -25.6350     0.0000    10.0000 </r>
       <r>   -25.4881     0.0000    10.0000 </r>
       <r>   -25.3412     0.0000    10.0000 </r>
       <r>   -25.1943     0.0000    10.0000 </r>
       <r>   -25.0474     0.0000    10.0000 </r>
       <r>   -24.9006     0.0000    10.0000 </r>
       <r>   -24.7537     0.0000    10.0000 </r>
       <r>   -24.6068     0.0000    10.0000 </r>
       <r>   -24.4599    -0.0000    10.0000 </r>
       <r>   -24.3130    -0.0000    10.0000 </r>
       <r>   -24.1662    -0.0000    10.0000 </r>
       <r>   -24.0193    -0.0000    10.0000 </r>
       <r>   -23.8724    -0.0061     9.9991 </r>
       <r>   -23.7255    -0.4722     9.9297 </r>
       <r>   -23.5787     9.8729    11.3799 </r>
       <r>   -23.4318     4.4748    12.0371 </r>
       <r>   -23.2849    -0.2522    12.0001 </r>
       <r>   -23.1380    -0.0005    12.0000 </r>
       <r>   -22.9911    -0.0000    12.0000 </r>
       <r>   -22.8443    -0.0000    12.0000 </r>
       <r>   -22.6974     0.0000    12.0000 </r>
       <r>   -22.5505     0.0000    12.0000 </r>
       <r>   -22.4036     0.0000    12.0000 </r>
       <r>   -22.2567     0.0000    12.0000 </r>
       <r>   -22.1099     0.0000    12.0000 </r>
       <r>   -21.9630     0.0000    12.0000 </r>
       <r>   -21.8161     0.0000    12.0000 </r>
       <r>   -21.6692     0.0000    12.0000 </r>
       <r>   -21.5223     0.0000    12.0000 </r>
       <r>   -21.3755     0.0000    12.0000 </r>
       <r>   -21.2286     0.0000    12.0000 </r>
       <r>   -21.0817     0.0000    12.0000 </r>
       <r>   -20.9348     0.0000    12.0000 </r>
       <r>   -20.7879     0.0000    12.0000 </r>
       <r>   -20.6411     0.0000    12.0000 </r>
       <r>   -20.4942     0.0000    12.0000 </r>
       <r>   -20.3473     0.0000    12.0000 </r>
       <r>   -20.2004     0.0000    12.0000 </r>
       <r>   -20.0535     0.0000    12.0000 </r>
       <r>   -19.9067     0.0000    12.0000 </r>
       <r>   -19.7598     0.0000    12.0000 </r>
       <r>   -19.6129     0.0000    12.0000 </r>
       <r>   -19.4660     0.0000    12.0000 </r>
       <r>   -19.3192     0.0000    12.0000 </r>
       <r>   -19.1723     0.0000    12.0000 </r>
       <r>   -19.0254     0.0000    12.0000 </r>
       <r>   -18.8785     0.0000    12.0000 </r>
       <r>   -18.7316     0.0000    12.0000 </r>
       <r>   -18.5848     0.0000    12.0000 </r>
       <r>   -18.4379     0.0000    12.0000 </r>
       <r>   -18.2910     0.0000    12.0000 </r>
       <r>   -18.1441     0.0000    12.0000 </r>
       <r>   -17.9972     0.0000    12.0000 </r>
       <r>   -17.8504     0.0000    12.0000 </r>
       <r>   -17.7035     0.0000    12.0000 </r>
       <r>   -17.5566     0.0000    12.0000 </r>
       <r>   -17.4097     0.0000    12.0000 </r>
       <r>   -17.2628     0.0000    12.0000 </r>
       <r>   -17.1160     0.0000    12.0000 </r>
       <r>   -16.9691     0.0000    12.0000 </r>
       <r>   -16.8222     0.0000    12.0000 </r>
       <r>   -16.6753     0.0000    12.0000 </r>
       <r>   -16.5284     0.0000    12.0000 </r>
       <r>   -16.3816     0.0000    12.0000 </r>
       <r>   -16.2347     0.0000    12.0000 </r>
       <r>   -16.0878     0.0000    12.0000 </r>
       <r>   -15.9409     0.0000    12.0000 </r>
       <r>   -15.7940     0.0000    12.0000 </r>
       <r>   -15.6472     0.0000    12.0000 </r>
       <r>   -15.5003     0.0000    12.0000 </r>
       <r>   -15.3534     0.0000    12.0000 </r>
       <r>   -15.2065     0.0000    12.0000 </r>
       <r>   -15.0597     0.0000    12.0000 </r>
       <r>   -14.9128     0.0000    12.0000 </r>
       <r>   -14.7659     0.0000    12.0000 </r>
       <r>   -14.6190     0.0000    12.0000 </r>
       <r>   -14.4721     0.0000    12.0000 </r>
       <r>   -14.3253     0.0000    12.0000 </r>
       <r>   -14.1784     0.0000    12.0000 </r>
       <r>   -14.0315     0.0000    12.0000 </r>
       <r>   -13.8846     0.0000    12.0000 </r>
       <r>   -13.7377     0.0000    12.0000 </r>
       <r>   -13.5909     0.0000    12.0000 </r>
       <r>   -13.4440     0.0000    12.0000 </r>
       <r>   -13.2971     0.0000    12.0000 </r>
       <r>   -13.1502     0.0000    12.0000 </r>
       <r>   -13.0033     0.0000    12.0000 </r>
       <r>   -12.8565     0.0000    12.0000 </r>
       <r>   -12.7096     0.0000    12.0000 </r>
       <r>   -12.5627     0.0000    12.0000 </r>
       <r>   -12.4158     0.0000    12.0000 </r>
       <r>   -12.2689     0.0000    12.0000 </r>
       <r>   -12.1221     0.0000    12.0000 </r>
       <r>   -11.9752     0.0000    12.0000 </r>
       <r>   -11.8283     0.0000    12.0000 </r>
       <r>   -11.6814     0.0000    12.0000 </r>
       <r>   -11.5345     0.0000    12.0000 </r>
       <r>   -11.3877     0.0000    12.0000 </r>
       <r>   -11.2408     0.0000    12.0000 </r>
       <r>   -11.0939     0.0000    12.0000 </r>
       <r>   -10.9470     0.0000    12.0000 </r>
       <r>   -10.8001     0.0000    12.0000 </r>
       <r>   -10.6533     0.0000    12.0000 </r>
       <r>   -10.5064     0.0000    12.0000 </r>
       <r>   -10.3595     0.0000    12.0000 </r>
       <r>   -10.2126     0.0000    12.0000 </r>
       <r>   -10.0658     0.0000    12.0000 </r>
       <r>    -9.9189     0.0000    12.0000 </r>
       <r>    -9.7720     0.0000    12.0000 </r>
       <r>    -9.6251     0.0000    12.0000 </r>
       <r>    -9.4782     0.0000    12.0000 </r>
       <r>    -9.3314     0.0000    12.0000 </r>
       <r>    -9.1845     0.0000    12.0000 </r>
       <r>    -9.0376     0.0000    12.0000 </r>
       <r>    -8.8907     0.0000    12.0000 </r>
       <r>    -8.7438     0.0000    12.0000 </r>
       <r>    -8.5970     0.0000    12.0000 </r>
       <r>    -8.4501     0.0000    12.0000 </r>
       <r>    -8.3032     0.0000    12.0000 </r>
       <r>    -8.1563     0.0000    12.0000 </r>
       <r>    -8.0094     0.0000    12.0000 </r>
       <r>    -7.8626     0.0000    12.0000 </r>
       <r>    -7.7157     0.0000    12.0000 </r>
       <r>    -7.5688     0.0000    12.0000 </r>
       <r>    -7.4219     0.0000    12.0000 </r>
       <r>    -7.2750     0.0000    12.0000 </r>
       <r>    -7.1282     0.0000    12.0000 </r>
       <r>    -6.9813     0.0000    12.0000 </r>
       <r>    -6.8344     0.0000    12.0000 </r>
       <r>    -6.6875     0.0000    12.0000 </r>
       <r>    -6.5406     0.0000    12.0000 </r>
       <r>    -6.3938     0.0000    12.0000 </r>
       <r>    -6.2469     0.0000    12.0000 </r>
       <r>    -6.1000     0.0000    12.0000 </r>
       <r>    -5.9531     0.0000    12.0000 </r>
       <r>    -5.8063     0.0000    12.0000 </r>
       <r>    -5.6594     0.0000    12.0000 </r>
       <r>    -5.5125     0.0000    12.0000 </r>
       <r>    -5.3656     0.0000    12.0000 </r>
       <r>    -5.2187     0.0000    12.0000 </r>
       <r>    -5.0719     0.0000    12.0000 </r>
       <r>    -4.9250     0.0000    12.0000 </r>
       <r>    -4.7781     0.0000    12.0000 </r>
       <r>    -4.6312     0.0000    12.0000 </r>
       <r>    -4.4843     0.0000    12.0000 </r>
       <r>    -4.3375     0.0000    12.0000 </r>
       <r>    -4.1906     0.0000    12.0000 </r>
       <r>    -4.0437     0.0000    12.0000 </r>
       <r>    -3.8968     0.0000    12.0000 </r>
       <r>    -3.7499    -0.0000    12.0000 </r>
       <r>    -3.6031    -0.0000    12.0000 </r>
       <r>    -3.4562    -0.0000    12.0000 </r>
       <r>    -3.3093    -0.0000    12.0000 </r>
       <r>    -3.1624    -0.0000    12.0000 </r>
       <r>    -3.0155    -0.0033    11.9995 </r>
       <r>    -2.8687    -0.0238    11.9960 </r>
       <r>    -2.7218     1.2947    12.1862 </r>
       <r>    -2.5749     5.9107    13.0544 </r>
       <r>    -2.4280     4.2651    13.6808 </r>
       <r>    -2.2811     2.2942    14.0178 </r>
       <r>    -2.1343     2.8548    14.4371 </r>
       <r>    -1.9874     5.1358    15.1914 </r>
       <r>    -1.8405     7.2436    16.2554 </r>
       <r>    -1.6936     8.0376    17.4359 </r>
       <r>    -1.5467     3.7008    17.9795 </r>
       <r>    -1.3999     0.1589    18.0028 </r>
       <r>    -1.2530    -0.0192    18.0000 </r>
       <r>    -1.1061    -0.0000    18.0000 </r>
       <r>    -0.9592    -0.0000    18.0000 </r>
       <r>    -0.8124    -0.0000    18.0000 </r>
       <r>    -0.6655     0.0000    18.0000 </r>
       <r>    -0.5186     0.0000    18.0000 </r>
       <r>    -0.3717     0.0000    18.0000 </r>
       <r>    -0.2248     0.0000    18.0000 </r>
       <r>    -0.0780     0.0000    18.0000 </r>
       <r>     0.0689     0.0000    18.0000 </r>
       <r>     0.2158     0.0000    18.0000 </r>
       <r>     0.3627     0.0000    18.0000 </r>
       <r>     0.5096     0.0000    18.0000 </r>
       <r>     0.6564     0.0000    18.0000 </r>
       <r>     0.8033    -0.0000    18.0000 </r>
       <r>     0.9502    -0.0000    18.0000 </r>
       <r>     1.0971    -0.0000    18.0000 </r>
       <r>     1.2440    -0.0000    18.0000 </r>
       <r>     1.3908    -0.0001    18.0000 </r>
       <r>     1.5377     0.0002    18.0000 </r>
       <r>     1.6846     0.0249    18.0037 </r>
       <r>     1.8315     0.0009    18.0038 </r>
       <r>     1.9784     0.0050    18.0046 </r>
       <r>     2.1252     0.2033    18.0344 </r>
       <r>     2.2721     0.1583    18.0577 </r>
       <r>     2.4190     0.0057    18.0585 </r>
       <r>     2.5659     0.0129    18.0604 </r>
       <r>     2.7128     0.2970    18.1040 </r>
       <r>     2.8596     0.0406    18.1100 </r>
       <r>     3.0065     0.7871    18.2256 </r>
       <r>     3.1534     0.0369    18.2310 </r>
       <r>     3.3003    -0.0188    18.2282 </r>
       <r>     3.4471     0.2730    18.2683 </r>
       <r>     3.5940     0.7293    18.3755 </r>
       <r>     3.7409     1.1851    18.5495 </r>
       <r>     3.8878     0.1935    18.5779 </r>
       <r>     4.0347     0.9565    18.7184 </r>
       <r>     4.1815     1.1066    18.8810 </r>
       <r>     4.3284     0.1635    18.9050 </r>
       <r>     4.4753     1.9469    19.1909 </r>
       <r>     4.6222     1.4357    19.4018 </r>
       <r>     4.7691     1.3417    19.5989 </r>
       <r>     4.9159     0.6632    19.6963 </r>
       <r>     5.0628     0.4726    19.7657 </r>
       <r>     5.2097     0.9130    19.8998 </r>
       <r>     5.3566     0.5388    19.9789 </r>
       <r>     5.5035     0.0476    19.9859 </r>
       <r>     5.6503     0.5549    20.0675 </r>
       <r>     5.7972     0.7049    20.1710 </r>
       <r>     5.9441     1.2278    20.3513 </r>
       <r>     6.0910     2.2615    20.6835 </r>
       <r>     6.2379     3.0822    21.1362 </r>
       <r>     6.3847     1.3409    21.3331 </r>
       <r>     6.5316     1.0704    21.4904 </r>
       <r>     6.6785     5.2797    22.2658 </r>
       <r>     6.8254     3.7457    22.8160 </r>
       <r>     6.9723     0.9970    22.9625 </r>
       <r>     7.1191     1.0680    23.1193 </r>
       <r>     7.2660     0.9712    23.2620 </r>
       <r>     7.4129     2.3192    23.6026 </r>
       <r>     7.5598     2.4121    23.9569 </r>
       <r>     7.7066     2.1742    24.2762 </r>
       <r>     7.8535     2.3260    24.6179 </r>
       <r>     8.0004     3.4636    25.1266 </r>
       <r>     8.1473     2.0749    25.4314 </r>
       <r>     8.2942     0.7131    25.5361 </r>
       <r>     8.4410     0.8217    25.6568 </r>
       <r>     8.5879     0.5296    25.7346 </r>
       <r>     8.7348     0.2861    25.7766 </r>
       <r>     8.8817     0.4611    25.8443 </r>
       <r>     9.0286     0.1928    25.8727 </r>
       <r>     9.1754    -0.0372    25.8672 </r>
       <r>     9.3223     0.5218    25.9438 </r>
       <r>     9.4692     0.3994    26.0025 </r>
       <r>     9.6161    -0.0167    26.0000 </r>
       <r>     9.7630    -0.0003    26.0000 </r>
       <r>     9.9098    -0.0000    26.0000 </r>
       <r>    10.0567    -0.0000    26.0000 </r>
       <r>    10.2036     0.0000    26.0000 </r>
       <r>    10.3505     0.0000    26.0000 </r>
       <r>    10.4974     0.0000    26.0000 </r>
       <r>    10.6442     0.0000    26.0000 </r>
       <r>    10.7911     0.0000    26.0000 </r>
       <r>    10.9380     0.0000    26.0000 </r>
       <r>    11.0849     0.0000    26.0000 </r>
       <r>    11.2318     0.0000    26.0000 </r>
       <r>    11.3786     0.0000    26.0000 </r>
      </set>
     </set>
    </array>
   </total>
  </dos>
 </calculation>
 <structure name="finalpos" >
  <crystal>
   <varray name="basis" >
    <v>       4.99436301       0.00000000       0.00000000 </v>
    <v>       2.49718151       4.32524525      -0.00000000 </v>
    <v>       2.49718151       1.44174842       4.07788033 </v>
   </varray>
   <i name="volume">     88.08973827 </i>
   <varray name="rec_basis" >
    <v>       0.20022573      -0.11560038      -0.08174181 </v>
    <v>       0.00000000       0.23120076      -0.08174181 </v>
    <v>      -0.00000000       0.00000000       0.24522544 </v>
   </varray>
  </crystal>
  <varray name="positions" >
   <v>       0.00000000       0.00000000       0.00000000 </v>
  </varray>
  <varray name="velocities" >
   <v>       0.00000000       0.00000000       0.00000000 </v>
  </varray>
 </structure>
</modeling>
