Og_FCC                                  
           1
     4.534874    0.000000    0.000000
     2.267437    3.927316   -0.000000
     2.267437    1.309105    3.702709
   Og
   1
Direct configuration=     1
   0.00000000  0.00000000  0.00000000
