Og_FCC                                  
           1
     4.994363    0.000000    0.000000
     2.497182    4.325245   -0.000000
     2.497182    1.441748    4.077880
   Og
   1
Direct configuration=     1
   0.00000000  0.00000000  0.00000000
