   1   1   0   0
  0.1860393E+02  0.2974221E-09  0.2974221E-09  0.2974221E-09  0.1000000E-15
  1.000000000000000E-004
  CAR 
 Og_FCC                                  
    221.83288847    -47.34158169  301    -10.10577998      1.00000000
    -47.342  0.0000E+00  0.0000E+00
    -46.444  0.0000E+00  0.0000E+00
    -45.547  0.0000E+00  0.0000E+00
    -44.650  0.0000E+00  0.0000E+00
    -43.753  0.0000E+00  0.0000E+00
    -42.855  0.0000E+00  0.0000E+00
    -41.958  0.0000E+00  0.0000E+00
    -41.061  0.0000E+00  0.0000E+00
    -40.164  0.0000E+00  0.0000E+00
    -39.266  0.0000E+00  0.0000E+00
    -38.369  0.0000E+00  0.0000E+00
    -37.472  0.0000E+00  0.0000E+00
    -36.575  0.0000E+00  0.0000E+00
    -35.677  0.0000E+00  0.0000E+00
    -34.780  0.0000E+00  0.2000E+01
    -33.883  0.0000E+00  0.2000E+01
    -32.986  0.0000E+00  0.2000E+01
    -32.088  0.0000E+00  0.2000E+01
    -31.191  0.0000E+00  0.2000E+01
    -30.294  0.0000E+00  0.2000E+01
    -29.397  0.0000E+00  0.2000E+01
    -28.499  0.0000E+00  0.2000E+01
    -27.602  0.0000E+00  0.2000E+01
    -26.705  0.0000E+00  0.2000E+01
    -25.808  0.0000E+00  0.2000E+01
    -24.910  0.0000E+00  0.2000E+01
    -24.013  0.0000E+00  0.2000E+01
    -23.116  0.0000E+00  0.2000E+01
    -22.219  0.0000E+00  0.2000E+01
    -21.321  0.0000E+00  0.2000E+01
    -20.424  0.0000E+00  0.2000E+01
    -19.527  0.0000E+00  0.2000E+01
    -18.630  0.0000E+00  0.2000E+01
    -17.732  0.0000E+00  0.2000E+01
    -16.835  0.0000E+00  0.2000E+01
    -15.938  0.0000E+00  0.2000E+01
    -15.041  0.0000E+00  0.2000E+01
    -14.143  0.0000E+00  0.2000E+01
    -13.246  0.0000E+00  0.2000E+01
    -12.349  0.0000E+00  0.2000E+01
    -11.452  0.0000E+00  0.3250E+01
    -10.554  0.0000E+00  0.7852E+01
     -9.657  0.0000E+00  0.8000E+01
     -8.760  0.0000E+00  0.8000E+01
     -7.863  0.0000E+00  0.8000E+01
     -6.965  0.0000E+00  0.8000E+01
     -6.068  0.0000E+00  0.8000E+01
     -5.171  0.0000E+00  0.8000E+01
     -4.274  0.0000E+00  0.8000E+01
     -3.376  0.0000E+00  0.8000E+01
     -2.479  0.0000E+00  0.8000E+01
     -1.582  0.0000E+00  0.8000E+01
     -0.685  0.0000E+00  0.8000E+01
      0.213  0.0000E+00  0.8000E+01
      1.110  0.0000E+00  0.8000E+01
      2.007  0.0000E+00  0.8009E+01
      2.904  0.0000E+00  0.8139E+01
      3.802  0.0000E+00  0.8250E+01
      4.699  0.0000E+00  0.8546E+01
      5.596  0.0000E+00  0.8602E+01
      6.493  0.0000E+00  0.9046E+01
      7.391  0.0000E+00  0.9269E+01
      8.288  0.0000E+00  0.9565E+01
      9.185  0.0000E+00  0.9926E+01
     10.082  0.0000E+00  0.1051E+02
     10.980  0.0000E+00  0.1095E+02
     11.877  0.0000E+00  0.1136E+02
     12.774  0.0000E+00  0.1192E+02
     13.671  0.0000E+00  0.1261E+02
     14.569  0.0000E+00  0.1272E+02
     15.466  0.0000E+00  0.1306E+02
     16.363  0.0000E+00  0.1339E+02
     17.260  0.0000E+00  0.1407E+02
     18.158  0.0000E+00  0.1430E+02
     19.055  0.0000E+00  0.1524E+02
     19.952  0.0000E+00  0.1607E+02
     20.849  0.0000E+00  0.1633E+02
     21.747  0.0000E+00  0.1673E+02
     22.644  0.0000E+00  0.1736E+02
     23.541  0.0000E+00  0.1778E+02
     24.438  0.0000E+00  0.1803E+02
     25.336  0.0000E+00  0.1901E+02
     26.233  0.0000E+00  0.1926E+02
     27.130  0.0000E+00  0.2059E+02
     28.027  0.0000E+00  0.2093E+02
     28.925  0.0000E+00  0.2167E+02
     29.822  0.0000E+00  0.2208E+02
     30.719  0.0000E+00  0.2290E+02
     31.616  0.0000E+00  0.2395E+02
     32.514  0.2208E-13  0.2505E+02
     33.411  0.0000E+00  0.2612E+02
     34.308  0.0000E+00  0.2697E+02
     35.205  0.0000E+00  0.2756E+02
     36.103  0.0000E+00  0.2800E+02
     37.000  0.0000E+00  0.2906E+02
     37.897  0.0000E+00  0.2934E+02
     38.794  0.0000E+00  0.2985E+02
     39.691  0.0000E+00  0.3019E+02
     40.589  0.1477E+00  0.3100E+02
     41.486  0.0000E+00  0.3194E+02
     42.383  0.0000E+00  0.3300E+02
     43.280  0.0000E+00  0.3389E+02
     44.178  0.0000E+00  0.3441E+02
     45.075  0.0000E+00  0.3485E+02
     45.972  0.0000E+00  0.3606E+02
     46.869  0.0000E+00  0.3654E+02
     47.767  0.0000E+00  0.3787E+02
     48.664  0.0000E+00  0.3854E+02
     49.561  0.0000E+00  0.3920E+02
     50.458  0.0000E+00  0.4011E+02
     51.356  0.0000E+00  0.4108E+02
     52.253  0.0000E+00  0.4173E+02
     53.150  0.0000E+00  0.4325E+02
     54.047  0.2476E+00  0.4406E+02
     54.945  0.0000E+00  0.4440E+02
     55.842  0.0000E+00  0.4551E+02
     56.739  0.0000E+00  0.4592E+02
     57.636  0.0000E+00  0.4692E+02
     58.534  0.0000E+00  0.4802E+02
     59.431  0.0000E+00  0.4881E+02
     60.328  0.0000E+00  0.4981E+02
     61.225  0.2064E-01  0.5129E+02
     62.123  0.0000E+00  0.5231E+02
     63.020  0.0000E+00  0.5310E+02
     63.917  0.0000E+00  0.5376E+02
     64.814  0.0000E+00  0.5520E+02
     65.712  0.0000E+00  0.5591E+02
     66.609  0.0000E+00  0.5735E+02
     67.506  0.0000E+00  0.5802E+02
     68.403  0.0000E+00  0.5943E+02
     69.301  0.0000E+00  0.6016E+02
     70.198  0.0000E+00  0.6094E+02
     71.095  0.0000E+00  0.6219E+02
     71.992  0.0000E+00  0.6286E+02
     72.890  0.0000E+00  0.6389E+02
     73.787  0.0000E+00  0.6489E+02
     74.684  0.0000E+00  0.6631E+02
     75.581  0.1596E-02  0.6725E+02
     76.479  0.0000E+00  0.6834E+02
     77.376  0.0000E+00  0.6875E+02
     78.273  0.0000E+00  0.7000E+02
     79.170  0.0000E+00  0.7102E+02
     80.068  0.0000E+00  0.7181E+02
     80.965  0.0000E+00  0.7247E+02
     81.862  0.0000E+00  0.7335E+02
     82.759  0.0000E+00  0.7489E+02
     83.657  0.0000E+00  0.7636E+02
     84.554  0.0000E+00  0.7801E+02
     85.451  0.0000E+00  0.7906E+02
     86.348  0.0000E+00  0.8045E+02
     87.246  0.0000E+00  0.8122E+02
     88.143  0.0000E+00  0.8284E+02
     89.040  0.1238E+00  0.8340E+02
     89.937  0.4468E-16  0.8347E+02
     90.835  0.0000E+00  0.8452E+02
     91.732  0.0000E+00  0.8604E+02
     92.629  0.0000E+00  0.8731E+02
     93.526  0.0000E+00  0.8857E+02
     94.424  0.0000E+00  0.8972E+02
     95.321  0.0000E+00  0.9050E+02
     96.218  0.0000E+00  0.9186E+02
     97.115  0.0000E+00  0.9343E+02
     98.013  0.0000E+00  0.9481E+02
     98.910  0.0000E+00  0.9581E+02
     99.807  0.0000E+00  0.9758E+02
    100.704  0.0000E+00  0.9864E+02
    101.602  0.0000E+00  0.9960E+02
    102.499  0.0000E+00  0.1009E+03
    103.396  0.0000E+00  0.1025E+03
    104.293  0.0000E+00  0.1032E+03
    105.191  0.0000E+00  0.1043E+03
    106.088  0.0000E+00  0.1047E+03
    106.985  0.0000E+00  0.1058E+03
    107.882  0.0000E+00  0.1071E+03
    108.780  0.0000E+00  0.1085E+03
    109.677  0.0000E+00  0.1096E+03
    110.574  0.0000E+00  0.1116E+03
    111.471  0.2477E+00  0.1131E+03
    112.369  0.0000E+00  0.1146E+03
    113.266  0.0000E+00  0.1157E+03
    114.163  0.0000E+00  0.1170E+03
    115.060  0.0000E+00  0.1182E+03
    115.958  0.0000E+00  0.1192E+03
    116.855  0.0000E+00  0.1201E+03
    117.752  0.0000E+00  0.1209E+03
    118.649  0.0000E+00  0.1218E+03
    119.547  0.0000E+00  0.1235E+03
    120.444  0.0000E+00  0.1249E+03
    121.341  0.0000E+00  0.1262E+03
    122.238  0.0000E+00  0.1279E+03
    123.136  0.0000E+00  0.1292E+03
    124.033  0.0000E+00  0.1302E+03
    124.930  0.0000E+00  0.1316E+03
    125.827  0.0000E+00  0.1331E+03
    126.725  0.1238E+00  0.1335E+03
    127.622  0.9718E-01  0.1354E+03
    128.519  0.8256E-01  0.1372E+03
    129.416  0.0000E+00  0.1389E+03
    130.314  0.1238E+00  0.1401E+03
    131.211  0.0000E+00  0.1415E+03
    132.108  0.0000E+00  0.1424E+03
    133.005  0.0000E+00  0.1440E+03
    133.903  0.0000E+00  0.1447E+03
    134.800  0.0000E+00  0.1460E+03
    135.697  0.0000E+00  0.1471E+03
    136.594  0.0000E+00  0.1481E+03
    137.492  0.0000E+00  0.1495E+03
    138.389  0.2477E+00  0.1516E+03
    139.286  0.0000E+00  0.1525E+03
    140.183  0.0000E+00  0.1543E+03
    141.081  0.0000E+00  0.1559E+03
    141.978  0.0000E+00  0.1574E+03
    142.875  0.0000E+00  0.1585E+03
    143.772  0.0000E+00  0.1602E+03
    144.670  0.0000E+00  0.1612E+03
    145.567  0.1004E+00  0.1639E+03
    146.464  0.0000E+00  0.1653E+03
    147.361  0.0000E+00  0.1661E+03
    148.259  0.0000E+00  0.1677E+03
    149.156  0.1238E+00  0.1690E+03
    150.053  0.0000E+00  0.1700E+03
    150.950  0.1906E+00  0.1713E+03
    151.848  0.0000E+00  0.1722E+03
    152.745  0.0000E+00  0.1732E+03
    153.642  0.0000E+00  0.1745E+03
    154.539  0.0000E+00  0.1761E+03
    155.437  0.8256E-01  0.1781E+03
    156.334  0.0000E+00  0.1802E+03
    157.231  0.0000E+00  0.1813E+03
    158.128  0.0000E+00  0.1831E+03
    159.026  0.0000E+00  0.1845E+03
    159.923  0.1420E+00  0.1865E+03
    160.820  0.0000E+00  0.1875E+03
    161.717  0.0000E+00  0.1887E+03
    162.615  0.0000E+00  0.1901E+03
    163.512  0.0000E+00  0.1914E+03
    164.409  0.0000E+00  0.1929E+03
    165.306  0.0000E+00  0.1943E+03
    166.203  0.7202E-04  0.1965E+03
    167.101  0.2477E+00  0.1982E+03
    167.998  0.0000E+00  0.1993E+03
    168.895  0.0000E+00  0.2009E+03
    169.792  0.0000E+00  0.2023E+03
    170.690  0.0000E+00  0.2034E+03
    171.587  0.2477E+00  0.2051E+03
    172.484  0.0000E+00  0.2066E+03
    173.381  0.0000E+00  0.2076E+03
    174.279  0.0000E+00  0.2093E+03
    175.176  0.0000E+00  0.2109E+03
    176.073  0.0000E+00  0.2127E+03
    176.970  0.0000E+00  0.2138E+03
    177.868  0.0000E+00  0.2160E+03
    178.765  0.8255E-01  0.2178E+03
    179.662  0.6192E-01  0.2195E+03
    180.559  0.0000E+00  0.2206E+03
    181.457  0.0000E+00  0.2229E+03
    182.354  0.3478E-03  0.2241E+03
    183.251  0.0000E+00  0.2259E+03
    184.148  0.4368E-12  0.2266E+03
    185.046  0.0000E+00  0.2277E+03
    185.943  0.0000E+00  0.2295E+03
    186.840  0.0000E+00  0.2313E+03
    187.737  0.0000E+00  0.2330E+03
    188.635  0.0000E+00  0.2346E+03
    189.532  0.0000E+00  0.2357E+03
    190.429  0.2477E+00  0.2371E+03
    191.326  0.0000E+00  0.2383E+03
    192.224  0.0000E+00  0.2405E+03
    193.121  0.0000E+00  0.2417E+03
    194.018  0.0000E+00  0.2440E+03
    194.915  0.0000E+00  0.2455E+03
    195.813  0.0000E+00  0.2468E+03
    196.710  0.0000E+00  0.2485E+03
    197.607  0.0000E+00  0.2506E+03
    198.504  0.0000E+00  0.2513E+03
    199.402  0.0000E+00  0.2522E+03
    200.299  0.0000E+00  0.2535E+03
    201.196  0.0000E+00  0.2548E+03
    202.093  0.0000E+00  0.2550E+03
    202.991  0.2163E+00  0.2552E+03
    203.888  0.0000E+00  0.2556E+03
    204.785  0.0000E+00  0.2559E+03
    205.682  0.0000E+00  0.2559E+03
    206.580  0.0000E+00  0.2559E+03
    207.477  0.0000E+00  0.2559E+03
    208.374  0.0000E+00  0.2559E+03
    209.271  0.0000E+00  0.2559E+03
    210.169  0.0000E+00  0.2560E+03
    211.066  0.0000E+00  0.2560E+03
    211.963  0.0000E+00  0.2560E+03
    212.860  0.0000E+00  0.2560E+03
    213.758  0.0000E+00  0.2560E+03
    214.655  0.0000E+00  0.2560E+03
    215.552  0.0000E+00  0.2560E+03
    216.449  0.0000E+00  0.2560E+03
    217.347  0.0000E+00  0.2560E+03
    218.244  0.0000E+00  0.2560E+03
    219.141  0.0000E+00  0.2560E+03
    220.038  0.0000E+00  0.2560E+03
    220.936  0.0000E+00  0.2560E+03
    221.833  0.0000E+00  0.2560E+03
