   1   1   0   0
  0.6083477E+02  0.4414576E-09  0.4414576E-09  0.4414576E-09  0.1000000E-15
  1.000000000000000E-004
  CAR 
 Og_FCC                                  
     14.16614203    -43.91857977  301     -1.85556040      1.00000000
    -43.919  0.0000E+00  0.0000E+00
    -43.725  0.0000E+00  0.0000E+00
    -43.531  0.0000E+00  0.0000E+00
    -43.338  0.0000E+00  0.0000E+00
    -43.144  0.0000E+00  0.0000E+00
    -42.951  0.0000E+00  0.0000E+00
    -42.757  0.0000E+00  0.0000E+00
    -42.563  0.0000E+00  0.0000E+00
    -42.370  0.0000E+00  0.0000E+00
    -42.176  0.0000E+00  0.0000E+00
    -41.982  0.0000E+00  0.0000E+00
    -41.789  0.0000E+00  0.0000E+00
    -41.595  0.0000E+00  0.0000E+00
    -41.402  0.0000E+00  0.0000E+00
    -41.208  0.0000E+00  0.1000E+02
    -41.014  0.0000E+00  0.1000E+02
    -40.821  0.0000E+00  0.1000E+02
    -40.627  0.0000E+00  0.1000E+02
    -40.433  0.0000E+00  0.1000E+02
    -40.240  0.0000E+00  0.1000E+02
    -40.046  0.0000E+00  0.1000E+02
    -39.853  0.0000E+00  0.1000E+02
    -39.659  0.0000E+00  0.1000E+02
    -39.465  0.0000E+00  0.1000E+02
    -39.272  0.0000E+00  0.1000E+02
    -39.078  0.0000E+00  0.1000E+02
    -38.885  0.0000E+00  0.1000E+02
    -38.691  0.0000E+00  0.1000E+02
    -38.497  0.0000E+00  0.1000E+02
    -38.304  0.0000E+00  0.1000E+02
    -38.110  0.0000E+00  0.1000E+02
    -37.916  0.0000E+00  0.1000E+02
    -37.723  0.0000E+00  0.1000E+02
    -37.529  0.0000E+00  0.1000E+02
    -37.336  0.0000E+00  0.1000E+02
    -37.142  0.0000E+00  0.1000E+02
    -36.948  0.0000E+00  0.1000E+02
    -36.755  0.0000E+00  0.1000E+02
    -36.561  0.0000E+00  0.1000E+02
    -36.368  0.0000E+00  0.1000E+02
    -36.174  0.0000E+00  0.1000E+02
    -35.980  0.0000E+00  0.1000E+02
    -35.787  0.0000E+00  0.1000E+02
    -35.593  0.0000E+00  0.1000E+02
    -35.399  0.0000E+00  0.1000E+02
    -35.206  0.0000E+00  0.1000E+02
    -35.012  0.0000E+00  0.1000E+02
    -34.819  0.0000E+00  0.1000E+02
    -34.625  0.0000E+00  0.1000E+02
    -34.431  0.0000E+00  0.1000E+02
    -34.238  0.0000E+00  0.1000E+02
    -34.044  0.0000E+00  0.1000E+02
    -33.851  0.0000E+00  0.1000E+02
    -33.657  0.0000E+00  0.1000E+02
    -33.463  0.0000E+00  0.1000E+02
    -33.270  0.0000E+00  0.1000E+02
    -33.076  0.0000E+00  0.1000E+02
    -32.882  0.0000E+00  0.1000E+02
    -32.689  0.0000E+00  0.1000E+02
    -32.495  0.0000E+00  0.1000E+02
    -32.302  0.0000E+00  0.1000E+02
    -32.108  0.0000E+00  0.1000E+02
    -31.914  0.0000E+00  0.1000E+02
    -31.721  0.0000E+00  0.1000E+02
    -31.527  0.0000E+00  0.1000E+02
    -31.334  0.0000E+00  0.1000E+02
    -31.140  0.0000E+00  0.1000E+02
    -30.946  0.0000E+00  0.1000E+02
    -30.753  0.0000E+00  0.1000E+02
    -30.559  0.0000E+00  0.1000E+02
    -30.365  0.0000E+00  0.1000E+02
    -30.172  0.0000E+00  0.1000E+02
    -29.978  0.0000E+00  0.1000E+02
    -29.785  0.0000E+00  0.1000E+02
    -29.591  0.0000E+00  0.1000E+02
    -29.397  0.0000E+00  0.1000E+02
    -29.204  0.0000E+00  0.1000E+02
    -29.010  0.0000E+00  0.1000E+02
    -28.817  0.0000E+00  0.1000E+02
    -28.623  0.0000E+00  0.1000E+02
    -28.429  0.0000E+00  0.1000E+02
    -28.236  0.0000E+00  0.1000E+02
    -28.042  0.0000E+00  0.1000E+02
    -27.848  0.0000E+00  0.1000E+02
    -27.655  0.0000E+00  0.1000E+02
    -27.461  0.0000E+00  0.1000E+02
    -27.268  0.0000E+00  0.1000E+02
    -27.074  0.0000E+00  0.1000E+02
    -26.880  0.0000E+00  0.1000E+02
    -26.687  0.0000E+00  0.1000E+02
    -26.493  0.0000E+00  0.1000E+02
    -26.300  0.0000E+00  0.1000E+02
    -26.106  0.0000E+00  0.1000E+02
    -25.912  0.0000E+00  0.1000E+02
    -25.719  0.0000E+00  0.1000E+02
    -25.525  0.0000E+00  0.1000E+02
    -25.331  0.0000E+00  0.1000E+02
    -25.138  0.0000E+00  0.1000E+02
    -24.944  0.0000E+00  0.1000E+02
    -24.751  0.0000E+00  0.1000E+02
    -24.557  0.0000E+00  0.1000E+02
    -24.363  0.0000E+00  0.1000E+02
    -24.170  0.0000E+00  0.1000E+02
    -23.976  0.0000E+00  0.1000E+02
    -23.783  0.0000E+00  0.1000E+02
    -23.589  0.0000E+00  0.1000E+02
    -23.395  0.0000E+00  0.1000E+02
    -23.202  0.0000E+00  0.1000E+02
    -23.008  0.0000E+00  0.1000E+02
    -22.814  0.0000E+00  0.1000E+02
    -22.621  0.0000E+00  0.1000E+02
    -22.427  0.0000E+00  0.1000E+02
    -22.234  0.0000E+00  0.1000E+02
    -22.040  0.0000E+00  0.1000E+02
    -21.846  0.0000E+00  0.1000E+02
    -21.653  0.0000E+00  0.1000E+02
    -21.459  0.0000E+00  0.1000E+02
    -21.266  0.0000E+00  0.1000E+02
    -21.072  0.0000E+00  0.1000E+02
    -20.878  0.0000E+00  0.1000E+02
    -20.685  0.0000E+00  0.1000E+02
    -20.491  0.0000E+00  0.1000E+02
    -20.297  0.0000E+00  0.1000E+02
    -20.104  0.0000E+00  0.1000E+02
    -19.910  0.0000E+00  0.1000E+02
    -19.717  0.0000E+00  0.1000E+02
    -19.523  0.0000E+00  0.1000E+02
    -19.329  0.0000E+00  0.1000E+02
    -19.136  0.0000E+00  0.1000E+02
    -18.942  0.0000E+00  0.1000E+02
    -18.749  0.0000E+00  0.1000E+02
    -18.555  0.0000E+00  0.1000E+02
    -18.361  0.0000E+00  0.1000E+02
    -18.168  0.0000E+00  0.1000E+02
    -17.974  0.0000E+00  0.1000E+02
    -17.780  0.0000E+00  0.1000E+02
    -17.587  0.0000E+00  0.1000E+02
    -17.393  0.0000E+00  0.1000E+02
    -17.200  0.0000E+00  0.1000E+02
    -17.006  0.0000E+00  0.1034E+02
    -16.812  0.0000E+00  0.1200E+02
    -16.619  0.0000E+00  0.1200E+02
    -16.425  0.0000E+00  0.1200E+02
    -16.232  0.0000E+00  0.1200E+02
    -16.038  0.0000E+00  0.1200E+02
    -15.844  0.0000E+00  0.1200E+02
    -15.651  0.0000E+00  0.1200E+02
    -15.457  0.0000E+00  0.1200E+02
    -15.263  0.0000E+00  0.1200E+02
    -15.070  0.0000E+00  0.1200E+02
    -14.876  0.0000E+00  0.1200E+02
    -14.683  0.0000E+00  0.1200E+02
    -14.489  0.0000E+00  0.1200E+02
    -14.295  0.0000E+00  0.1200E+02
    -14.102  0.0000E+00  0.1200E+02
    -13.908  0.0000E+00  0.1200E+02
    -13.715  0.0000E+00  0.1200E+02
    -13.521  0.0000E+00  0.1200E+02
    -13.327  0.0000E+00  0.1200E+02
    -13.134  0.0000E+00  0.1200E+02
    -12.940  0.0000E+00  0.1200E+02
    -12.746  0.0000E+00  0.1200E+02
    -12.553  0.0000E+00  0.1200E+02
    -12.359  0.0000E+00  0.1200E+02
    -12.166  0.0000E+00  0.1200E+02
    -11.972  0.0000E+00  0.1200E+02
    -11.778  0.0000E+00  0.1200E+02
    -11.585  0.0000E+00  0.1200E+02
    -11.391  0.0000E+00  0.1200E+02
    -11.198  0.0000E+00  0.1200E+02
    -11.004  0.0000E+00  0.1200E+02
    -10.810  0.0000E+00  0.1200E+02
    -10.617  0.0000E+00  0.1200E+02
    -10.423  0.0000E+00  0.1200E+02
    -10.229  0.0000E+00  0.1200E+02
    -10.036  0.0000E+00  0.1200E+02
     -9.842  0.0000E+00  0.1200E+02
     -9.649  0.0000E+00  0.1200E+02
     -9.455  0.0000E+00  0.1200E+02
     -9.261  0.0000E+00  0.1200E+02
     -9.068  0.0000E+00  0.1200E+02
     -8.874  0.0000E+00  0.1200E+02
     -8.681  0.0000E+00  0.1200E+02
     -8.487  0.0000E+00  0.1200E+02
     -8.293  0.0000E+00  0.1200E+02
     -8.100  0.0000E+00  0.1200E+02
     -7.906  0.0000E+00  0.1200E+02
     -7.712  0.0000E+00  0.1200E+02
     -7.519  0.0000E+00  0.1200E+02
     -7.325  0.0000E+00  0.1200E+02
     -7.132  0.0000E+00  0.1200E+02
     -6.938  0.0000E+00  0.1200E+02
     -6.744  0.0000E+00  0.1200E+02
     -6.551  0.0000E+00  0.1200E+02
     -6.357  0.0000E+00  0.1200E+02
     -6.164  0.0000E+00  0.1200E+02
     -5.970  0.0000E+00  0.1200E+02
     -5.776  0.0000E+00  0.1200E+02
     -5.583  0.0000E+00  0.1200E+02
     -5.389  0.0000E+00  0.1200E+02
     -5.195  0.0000E+00  0.1200E+02
     -5.002  0.0000E+00  0.1200E+02
     -4.808  0.0000E+00  0.1200E+02
     -4.615  0.0000E+00  0.1200E+02
     -4.421  0.0000E+00  0.1200E+02
     -4.227  0.0000E+00  0.1200E+02
     -4.034  0.0000E+00  0.1200E+02
     -3.840  0.0000E+00  0.1219E+02
     -3.647  0.0000E+00  0.1243E+02
     -3.453  0.0000E+00  0.1334E+02
     -3.259  0.0000E+00  0.1384E+02
     -3.066  0.0000E+00  0.1405E+02
     -2.872  0.0000E+00  0.1475E+02
     -2.678  0.0000E+00  0.1475E+02
     -2.485  0.0000E+00  0.1587E+02
     -2.291  0.4254E-12  0.1693E+02
     -2.098  0.0000E+00  0.1782E+02
     -1.904  0.0000E+00  0.1800E+02
     -1.710  0.0000E+00  0.1800E+02
     -1.517  0.0000E+00  0.1800E+02
     -1.323  0.0000E+00  0.1800E+02
     -1.130  0.0000E+00  0.1800E+02
     -0.936  0.0000E+00  0.1800E+02
     -0.742  0.0000E+00  0.1800E+02
     -0.549  0.0000E+00  0.1800E+02
     -0.355  0.0000E+00  0.1800E+02
     -0.161  0.0000E+00  0.1800E+02
      0.032  0.0000E+00  0.1800E+02
      0.226  0.0000E+00  0.1800E+02
      0.419  0.0000E+00  0.1800E+02
      0.613  0.0000E+00  0.1800E+02
      0.807  0.0000E+00  0.1800E+02
      1.000  0.0000E+00  0.1800E+02
      1.194  0.0000E+00  0.1800E+02
      1.388  0.0000E+00  0.1800E+02
      1.581  0.0000E+00  0.1800E+02
      1.775  0.0000E+00  0.1800E+02
      1.968  0.0000E+00  0.1800E+02
      2.162  0.0000E+00  0.1800E+02
      2.356  0.0000E+00  0.1800E+02
      2.549  0.0000E+00  0.1800E+02
      2.743  0.0000E+00  0.1800E+02
      2.936  0.0000E+00  0.1801E+02
      3.130  0.0000E+00  0.1801E+02
      3.324  0.0000E+00  0.1801E+02
      3.517  0.0000E+00  0.1801E+02
      3.711  0.0000E+00  0.1805E+02
      3.905  0.0000E+00  0.1809E+02
      4.098  0.0000E+00  0.1809E+02
      4.292  0.0000E+00  0.1809E+02
      4.485  0.0000E+00  0.1820E+02
      4.679  0.0000E+00  0.1829E+02
      4.873  0.0000E+00  0.1850E+02
      5.066  0.0000E+00  0.1853E+02
      5.260  0.0000E+00  0.1923E+02
      5.453  0.0000E+00  0.1937E+02
      5.647  0.0000E+00  0.1955E+02
      5.841  0.0000E+00  0.1976E+02
      6.034  0.0000E+00  0.2010E+02
      6.228  0.0000E+00  0.2042E+02
      6.422  0.0000E+00  0.2070E+02
      6.615  0.0000E+00  0.2084E+02
      6.809  0.0000E+00  0.2112E+02
      7.002  0.0000E+00  0.2161E+02
      7.196  0.0000E+00  0.2185E+02
      7.390  0.0000E+00  0.2199E+02
      7.583  0.6545E-05  0.2223E+02
      7.777  0.0000E+00  0.2272E+02
      7.970  0.4690E-03  0.2313E+02
      8.164  0.0000E+00  0.2349E+02
      8.358  0.0000E+00  0.2410E+02
      8.551  0.0000E+00  0.2443E+02
      8.745  0.0000E+00  0.2471E+02
      8.939  0.0000E+00  0.2495E+02
      9.132  0.0000E+00  0.2530E+02
      9.326  0.7228E+00  0.2544E+02
      9.519  0.0000E+00  0.2558E+02
      9.713  0.0000E+00  0.2583E+02
      9.907  0.0000E+00  0.2646E+02
     10.100  0.0000E+00  0.2660E+02
     10.294  0.0000E+00  0.2667E+02
     10.487  0.0000E+00  0.2681E+02
     10.681  0.0000E+00  0.2681E+02
     10.875  0.0000E+00  0.2737E+02
     11.068  0.0000E+00  0.2765E+02
     11.262  0.0000E+00  0.2765E+02
     11.456  0.0000E+00  0.2786E+02
     11.649  0.0000E+00  0.2800E+02
     11.843  0.0000E+00  0.2800E+02
     12.036  0.0000E+00  0.2800E+02
     12.230  0.0000E+00  0.2800E+02
     12.424  0.0000E+00  0.2800E+02
     12.617  0.0000E+00  0.2800E+02
     12.811  0.0000E+00  0.2800E+02
     13.004  0.0000E+00  0.2800E+02
     13.198  0.0000E+00  0.2800E+02
     13.392  0.0000E+00  0.2800E+02
     13.585  0.0000E+00  0.2800E+02
     13.779  0.0000E+00  0.2800E+02
     13.973  0.0000E+00  0.2800E+02
     14.166  0.0000E+00  0.2800E+02
