    1    1    1    1
  0.6083477E+02  0.4414576E-09  0.4414576E-09  0.4414576E-09  0.1000000E-15
  1.000000000000000E-004
  CAR 
 Og_FCC                                  
     18    172     14
 
  0.0000000E+00  0.0000000E+00  0.0000000E+00  0.2915452E-02
    1      -41.277996   1.000000
    2      -41.277996   1.000000
    3      -41.277996   1.000000
    4      -41.277233   1.000000
    5      -41.277233   1.000000
    6      -17.122777   1.000000
    7       -1.959607   1.000000
    8       -1.959607   1.000000
    9       -1.959607   1.000000
   10        2.856358   0.000000
   11        8.146863   0.000000
   12        8.146863   0.000000
   13        8.146863   0.000000
   14        9.876389   0.000000
 
  0.1428571E+00 -0.1258766E-16 -0.6938894E-17  0.5830904E-02
    1      -41.277831   1.000000
    2      -41.277830   1.000000
    3      -41.277812   1.000000
    4      -41.277204   1.000000
    5      -41.277203   1.000000
    6      -17.091401   1.000000
    7       -2.472299   1.000000
    8       -2.008744   1.000000
    9       -2.008743   1.000000
   10        3.529804   0.000000
   11        7.509830   0.000000
   12        8.332460   0.000000
   13        8.332460   0.000000
   14        9.978849   0.000000
 
  0.2857143E+00  0.2580261E-17 -0.1387779E-16  0.5830904E-02
    1      -41.277828   1.000000
    2      -41.277827   1.000000
    3      -41.277755   1.000000
    4      -41.277004   1.000000
    5      -41.277002   1.000000
    6      -17.020590   1.000000
    7       -3.341574   1.000000
    8       -2.114733   1.000000
    9       -2.114732   1.000000
   10        4.467767   0.000000
   11        7.520637   0.000000
   12        8.190656   0.000000
   13        8.190656   0.000000
   14       10.085393   0.000000
 
  0.4285714E+00  0.3870391E-17  0.2775558E-16  0.5830904E-02
    1      -41.277943   1.000000
    2      -41.277941   1.000000
    3      -41.277404   1.000000
    4      -41.276724   1.000000
    5      -41.276723   1.000000
    6      -16.962268   1.000000
    7       -3.894871   1.000000
    8       -2.195706   1.000000
    9       -2.195706   1.000000
   10        4.641180   0.000000
   11        7.835151   0.000000
   12        7.835151   0.000000
   13        8.416942   0.000000
   14       10.086389   0.000000
 
  0.0000000E+00  0.1428571E+00  0.6938894E-17  0.5830904E-02
    1      -41.277831   1.000000
    2      -41.277830   1.000000
    3      -41.277812   1.000000
    4      -41.277204   1.000000
    5      -41.277203   1.000000
    6      -17.091401   1.000000
    7       -2.472299   1.000000
    8       -2.008744   1.000000
    9       -2.008743   1.000000
   10        3.529804   0.000000
   11        7.509830   0.000000
   12        8.332460   0.000000
   13        8.332460   0.000000
   14        9.978849   0.000000
 
  0.1428571E+00  0.1428571E+00 -0.2775558E-16  0.5830904E-02
    1      -41.278029   1.000000
    2      -41.277513   1.000000
    3      -41.277513   1.000000
    4      -41.277410   1.000000
    5      -41.277005   1.000000
    6      -17.080771   1.000000
    7       -2.469079   1.000000
    8       -2.110002   1.000000
    9       -2.110002   1.000000
   10        3.772118   0.000000
   11        7.120985   0.000000
   12        8.597253   0.000000
   13        8.597253   0.000000
   14        8.778266   0.000000
 
  0.2857143E+00  0.1428571E+00 -0.2775558E-16  0.5830904E-02
    1      -41.277951   1.000000
    2      -41.277596   1.000000
    3      -41.277400   1.000000
    4      -41.277223   1.000000
    5      -41.276883   1.000000
    6      -17.023399   1.000000
    7       -3.116781   1.000000
    8       -2.244264   1.000000
    9       -2.231709   1.000000
   10        4.716908   0.000000
   11        6.782835   0.000000
   12        7.690498   0.000000
   13        8.809536   0.000000
   14        9.577312   0.000000
 
  0.4285714E+00  0.1428571E+00  0.0000000E+00  0.5830904E-02
    1      -41.277791   1.000000
    2      -41.277515   1.000000
    3      -41.277472   1.000000
    4      -41.276801   1.000000
    5      -41.276668   1.000000
    6      -16.960471   1.000000
    7       -3.694991   1.000000
    8       -2.412902   1.000000
    9       -2.311994   1.000000
   10        5.152507   0.000000
   11        6.976030   0.000000
   12        7.793140   0.000000
   13        8.432573   0.000000
   14       10.711020   0.000000
 
 -0.4285714E+00  0.1428571E+00 -0.2775558E-16  0.5830904E-02
    1      -41.277830   1.000000
    2      -41.277624   1.000000
    3      -41.277204   1.000000
    4      -41.276728   1.000000
    5      -41.276672   1.000000
    6      -16.940727   1.000000
    7       -3.849430   1.000000
    8       -2.543323   1.000000
    9       -2.268389   1.000000
   10        5.226057   0.000000
   11        6.870304   0.000000
   12        8.174259   0.000000
   13        8.659236   0.000000
   14       11.021398   0.000000
 
 -0.2857143E+00  0.1428571E+00  0.4163336E-16  0.5830904E-02
    1      -41.277853   1.000000
    2      -41.277663   1.000000
    3      -41.277552   1.000000
    4      -41.277044   1.000000
    5      -41.276752   1.000000
    6      -16.980214   1.000000
    7       -3.525934   1.000000
    8       -2.514155   1.000000
    9       -2.142536   1.000000
   10        5.189494   0.000000
   11        7.268172   0.000000
   12        7.505022   0.000000
   13        8.316434   0.000000
   14        9.857341   0.000000
 
 -0.1428571E+00  0.1428571E+00 -0.1808581E-17  0.5830904E-02
    1      -41.277784   1.000000
    2      -41.277734   1.000000
    3      -41.277596   1.000000
    4      -41.277459   1.000000
    5      -41.277011   1.000000
    6      -17.047136   1.000000
    7       -2.925932   1.000000
    8       -2.286238   1.000000
    9       -2.024237   1.000000
   10        4.377166   0.000000
   11        7.094446   0.000000
   12        8.057376   0.000000
   13        8.676777   0.000000
   14        8.977116   0.000000
 
  0.0000000E+00  0.2857143E+00  0.1387779E-16  0.5830904E-02
    1      -41.277828   1.000000
    2      -41.277827   1.000000
    3      -41.277755   1.000000
    4      -41.277004   1.000000
    5      -41.277002   1.000000
    6      -17.020590   1.000000
    7       -3.341574   1.000000
    8       -2.114733   1.000000
    9       -2.114732   1.000000
   10        4.467767   0.000000
   11        7.520637   0.000000
   12        8.190656   0.000000
   13        8.190656   0.000000
   14       10.085393   0.000000
 
  0.1428571E+00  0.2857143E+00 -0.2775558E-16  0.5830904E-02
    1      -41.277951   1.000000
    2      -41.277596   1.000000
    3      -41.277400   1.000000
    4      -41.277223   1.000000
    5      -41.276883   1.000000
    6      -17.023399   1.000000
    7       -3.116781   1.000000
    8       -2.244264   1.000000
    9       -2.231709   1.000000
   10        4.716908   0.000000
   11        6.782835   0.000000
   12        7.690498   0.000000
   13        8.809536   0.000000
   14        9.577312   0.000000
 
  0.2857143E+00  0.2857143E+00 -0.2775558E-16  0.5830904E-02
    1      -41.278217   1.000000
    2      -41.277619   1.000000
    3      -41.277021   1.000000
    4      -41.277020   1.000000
    5      -41.276830   1.000000
    6      -16.987130   1.000000
    7       -3.268554   1.000000
    8       -2.420735   1.000000
    9       -2.420735   1.000000
   10        4.963346   0.000000
   11        6.053972   0.000000
   12        7.815158   0.000000
   13        9.788174   0.000000
   14        9.788174   0.000000
 
  0.4285714E+00  0.2857143E+00  0.0000000E+00  0.5830904E-02
    1      -41.278198   1.000000
    2      -41.277558   1.000000
    3      -41.276960   1.000000
    4      -41.276761   1.000000
    5      -41.276663   1.000000
    6      -16.937544   1.000000
    7       -3.575982   1.000000
    8       -2.672334   1.000000
    9       -2.514057   1.000000
   10        5.098723   0.000000
   11        6.082229   0.000000
   12        7.972713   0.000000
   13        9.816933   0.000000
   14       11.008609   0.000000
 
 -0.4285714E+00  0.2857143E+00  0.0000000E+00  0.5830904E-02
    1      -41.277925   1.000000
    2      -41.277162   1.000000
    3      -41.277034   1.000000
    4      -41.276691   1.000000
    5      -41.276640   1.000000
    6      -16.912484   1.000000
    7       -3.602935   1.000000
    8       -3.057532   1.000000
    9       -2.464258   1.000000
   10        5.376776   0.000000
   11        6.760250   0.000000
   12        8.143839   0.000000
   13        9.318730   0.000000
   14       10.419855   0.000000
 
 -0.2857143E+00  0.2857143E+00  0.8888411E-17  0.5830904E-02
    1      -41.277803   1.000000
    2      -41.277137   1.000000
    3      -41.277058   1.000000
    4      -41.276846   1.000000
    5      -41.276676   1.000000
    6      -16.931378   1.000000
    7       -3.507963   1.000000
    8       -3.080503   1.000000
    9       -2.302742   1.000000
   10        5.898661   0.000000
   11        6.842905   0.000000
   12        7.586128   0.000000
   13        8.871148   0.000000
   14       10.231457   0.000000
 
 -0.1428571E+00  0.2857143E+00 -0.6938894E-17  0.5830904E-02
    1      -41.277853   1.000000
    2      -41.277663   1.000000
    3      -41.277552   1.000000
    4      -41.277044   1.000000
    5      -41.276752   1.000000
    6      -16.980214   1.000000
    7       -3.525934   1.000000
    8       -2.514155   1.000000
    9       -2.142536   1.000000
   10        5.189494   0.000000
   11        7.268172   0.000000
   12        7.505022   0.000000
   13        8.316434   0.000000
   14        9.857341   0.000000
 
  0.0000000E+00  0.4285714E+00  0.0000000E+00  0.5830904E-02
    1      -41.277943   1.000000
    2      -41.277941   1.000000
    3      -41.277404   1.000000
    4      -41.276724   1.000000
    5      -41.276723   1.000000
    6      -16.962268   1.000000
    7       -3.894871   1.000000
    8       -2.195706   1.000000
    9       -2.195706   1.000000
   10        4.641180   0.000000
   11        7.835151   0.000000
   12        7.835151   0.000000
   13        8.416942   0.000000
   14       10.086389   0.000000
 
  0.1428571E+00  0.4285714E+00  0.0000000E+00  0.5830904E-02
    1      -41.277791   1.000000
    2      -41.277515   1.000000
    3      -41.277472   1.000000
    4      -41.276801   1.000000
    5      -41.276668   1.000000
    6      -16.960471   1.000000
    7       -3.694991   1.000000
    8       -2.412902   1.000000
    9       -2.311994   1.000000
   10        5.152507   0.000000
   11        6.976030   0.000000
   12        7.793140   0.000000
   13        8.432573   0.000000
   14       10.711020   0.000000
 
  0.2857143E+00  0.4285714E+00  0.0000000E+00  0.5830904E-02
    1      -41.278198   1.000000
    2      -41.277558   1.000000
    3      -41.276960   1.000000
    4      -41.276761   1.000000
    5      -41.276663   1.000000
    6      -16.937544   1.000000
    7       -3.575982   1.000000
    8       -2.672334   1.000000
    9       -2.514057   1.000000
   10        5.098723   0.000000
   11        6.082229   0.000000
   12        7.972713   0.000000
   13        9.816933   0.000000
   14       11.008609   0.000000
 
  0.4285714E+00  0.4285714E+00  0.0000000E+00  0.5830904E-02
    1      -41.278365   1.000000
    2      -41.277556   1.000000
    3      -41.276644   1.000000
    4      -41.276453   1.000000
    5      -41.276452   1.000000
    6      -16.909494   1.000000
    7       -3.743323   1.000000
    8       -2.647700   1.000000
    9       -2.647699   1.000000
   10        4.566958   0.000000
   11        5.498959   0.000000
   12        9.601644   0.000000
   13       11.363969   0.000000
   14       11.363969   0.000000
 
 -0.4285714E+00  0.4285714E+00 -0.1549205E-16  0.5830904E-02
    1      -41.278318   1.000000
    2      -41.277483   1.000000
    3      -41.276717   1.000000
    4      -41.276525   1.000000
    5      -41.276478   1.000000
    6      -16.898711   1.000000
    7       -3.714585   1.000000
    8       -2.889206   1.000000
    9       -2.626898   1.000000
   10        4.763682   0.000000
   11        5.829019   0.000000
   12        9.536234   0.000000
   13       10.773921   0.000000
   14       10.856955   0.000000
 
 -0.2857143E+00  0.4285714E+00 -0.2081668E-16  0.5830904E-02
    1      -41.277925   1.000000
    2      -41.277162   1.000000
    3      -41.277034   1.000000
    4      -41.276691   1.000000
    5      -41.276640   1.000000
    6      -16.912484   1.000000
    7       -3.602935   1.000000
    8       -3.057532   1.000000
    9       -2.464258   1.000000
   10        5.376776   0.000000
   11        6.760250   0.000000
   12        8.143839   0.000000
   13        9.318730   0.000000
   14       10.419856   0.000000
 
 -0.1428571E+00  0.4285714E+00  0.1387779E-16  0.5830904E-02
    1      -41.277830   1.000000
    2      -41.277624   1.000000
    3      -41.277204   1.000000
    4      -41.276728   1.000000
    5      -41.276672   1.000000
    6      -16.940727   1.000000
    7       -3.849430   1.000000
    8       -2.543323   1.000000
    9       -2.268389   1.000000
   10        5.226057   0.000000
   11        6.870304   0.000000
   12        8.174259   0.000000
   13        8.659236   0.000000
   14       11.021398   0.000000
 
  0.0000000E+00  0.0000000E+00  0.1428571E+00  0.5830904E-02
    1      -41.277831   1.000000
    2      -41.277830   1.000000
    3      -41.277812   1.000000
    4      -41.277204   1.000000
    5      -41.277203   1.000000
    6      -17.091401   1.000000
    7       -2.472299   1.000000
    8       -2.008744   1.000000
    9       -2.008743   1.000000
   10        3.529804   0.000000
   11        7.509830   0.000000
   12        8.332460   0.000000
   13        8.332460   0.000000
   14        9.978849   0.000000
 
  0.1428571E+00 -0.1645805E-16  0.1428571E+00  0.5830904E-02
    1      -41.278029   1.000000
    2      -41.277513   1.000000
    3      -41.277513   1.000000
    4      -41.277410   1.000000
    5      -41.277005   1.000000
    6      -17.080771   1.000000
    7       -2.469079   1.000000
    8       -2.110002   1.000000
    9       -2.110002   1.000000
   10        3.772118   0.000000
   11        7.120985   0.000000
   12        8.597253   0.000000
   13        8.597253   0.000000
   14        8.778266   0.000000
 
  0.2857143E+00 -0.1290130E-17  0.1428571E+00  0.5830904E-02
    1      -41.277951   1.000000
    2      -41.277596   1.000000
    3      -41.277400   1.000000
    4      -41.277223   1.000000
    5      -41.276883   1.000000
    6      -17.023399   1.000000
    7       -3.116781   1.000000
    8       -2.244264   1.000000
    9       -2.231709   1.000000
   10        4.716908   0.000000
   11        6.782835   0.000000
   12        7.690498   0.000000
   13        8.809537   0.000000
   14        9.577312   0.000000
 
  0.4285714E+00  0.4743343E-32  0.1428571E+00  0.5830904E-02
    1      -41.277791   1.000000
    2      -41.277515   1.000000
    3      -41.277472   1.000000
    4      -41.276801   1.000000
    5      -41.276668   1.000000
    6      -16.960471   1.000000
    7       -3.694991   1.000000
    8       -2.412902   1.000000
    9       -2.311994   1.000000
   10        5.152507   0.000000
   11        6.976030   0.000000
   12        7.793140   0.000000
   13        8.432573   0.000000
   14       10.711020   0.000000
 
 -0.4285714E+00 -0.7740783E-17  0.1428571E+00  0.5830904E-02
    1      -41.277830   1.000000
    2      -41.277624   1.000000
    3      -41.277204   1.000000
    4      -41.276728   1.000000
    5      -41.276672   1.000000
    6      -16.940727   1.000000
    7       -3.849430   1.000000
    8       -2.543323   1.000000
    9       -2.268389   1.000000
   10        5.226057   0.000000
   11        6.870304   0.000000
   12        8.174259   0.000000
   13        8.659236   0.000000
   14       11.021398   0.000000
 
 -0.2857143E+00 -0.6450652E-17  0.1428571E+00  0.5830904E-02
    1      -41.277853   1.000000
    2      -41.277663   1.000000
    3      -41.277552   1.000000
    4      -41.277044   1.000000
    5      -41.276752   1.000000
    6      -16.980214   1.000000
    7       -3.525934   1.000000
    8       -2.514155   1.000000
    9       -2.142537   1.000000
   10        5.189494   0.000000
   11        7.268172   0.000000
   12        7.505022   0.000000
   13        8.316434   0.000000
   14        9.857341   0.000000
 
 -0.1428571E+00  0.8717266E-17  0.1428571E+00  0.5830904E-02
    1      -41.277784   1.000000
    2      -41.277734   1.000000
    3      -41.277596   1.000000
    4      -41.277459   1.000000
    5      -41.277011   1.000000
    6      -17.047136   1.000000
    7       -2.925932   1.000000
    8       -2.286238   1.000000
    9       -2.024237   1.000000
   10        4.377166   0.000000
   11        7.094446   0.000000
   12        8.057376   0.000000
   13        8.676777   0.000000
   14        8.977116   0.000000
 
 -0.1155558E-32  0.1428571E+00  0.1428571E+00  0.5830904E-02
    1      -41.278029   1.000000
    2      -41.277513   1.000000
    3      -41.277513   1.000000
    4      -41.277410   1.000000
    5      -41.277005   1.000000
    6      -17.080771   1.000000
    7       -2.469079   1.000000
    8       -2.110002   1.000000
    9       -2.110002   1.000000
   10        3.772118   0.000000
   11        7.120985   0.000000
   12        8.597253   0.000000
   13        8.597253   0.000000
   14        8.778266   0.000000
 
  0.1428571E+00  0.1428571E+00  0.1428571E+00  0.5830904E-02
    1      -41.277830   1.000000
    2      -41.277830   1.000000
    3      -41.277812   1.000000
    4      -41.277204   1.000000
    5      -41.277204   1.000000
    6      -17.091401   1.000000
    7       -2.472298   1.000000
    8       -2.008744   1.000000
    9       -2.008744   1.000000
   10        3.529804   0.000000
   11        7.509830   0.000000
   12        8.332460   0.000000
   13        8.332460   0.000000
   14        9.978849   0.000000
 
  0.2857143E+00  0.1428571E+00  0.1428571E+00  0.5830904E-02
    1      -41.277784   1.000000
    2      -41.277733   1.000000
    3      -41.277596   1.000000
    4      -41.277459   1.000000
    5      -41.277013   1.000000
    6      -17.047136   1.000000
    7       -2.925931   1.000000
    8       -2.286238   1.000000
    9       -2.024237   1.000000
   10        4.377166   0.000000
   11        7.094446   0.000000
   12        8.057376   0.000000
   13        8.676777   0.000000
   14        8.977116   0.000000
 
  0.4285714E+00  0.1428571E+00  0.1428571E+00  0.5830904E-02
    1      -41.277851   1.000000
    2      -41.277664   1.000000
    3      -41.277552   1.000000
    4      -41.277043   1.000000
    5      -41.276754   1.000000
    6      -16.980214   1.000000
    7       -3.525934   1.000000
    8       -2.514155   1.000000
    9       -2.142537   1.000000
   10        5.189494   0.000000
   11        7.268172   0.000000
   12        7.505022   0.000000
   13        8.316434   0.000000
   14        9.857341   0.000000
 
 -0.4285714E+00  0.1428571E+00  0.1428571E+00  0.5830904E-02
    1      -41.277828   1.000000
    2      -41.277625   1.000000
    3      -41.277205   1.000000
    4      -41.276729   1.000000
    5      -41.276671   1.000000
    6      -16.940727   1.000000
    7       -3.849430   1.000000
    8       -2.543322   1.000000
    9       -2.268389   1.000000
   10        5.226057   0.000000
   11        6.870304   0.000000
   12        8.174259   0.000000
   13        8.659236   0.000000
   14       11.021398   0.000000
 
 -0.2857143E+00  0.1428571E+00  0.1428571E+00  0.5830904E-02
    1      -41.277789   1.000000
    2      -41.277517   1.000000
    3      -41.277474   1.000000
    4      -41.276801   1.000000
    5      -41.276667   1.000000
    6      -16.960471   1.000000
    7       -3.694991   1.000000
    8       -2.412901   1.000000
    9       -2.311994   1.000000
   10        5.152507   0.000000
   11        6.976030   0.000000
   12        7.793140   0.000000
   13        8.432573   0.000000
   14       10.711020   0.000000
 
 -0.1428571E+00  0.1428571E+00  0.1428571E+00  0.5830904E-02
    1      -41.277951   1.000000
    2      -41.277596   1.000000
    3      -41.277401   1.000000
    4      -41.277223   1.000000
    5      -41.276882   1.000000
    6      -17.023399   1.000000
    7       -3.116781   1.000000
    8       -2.244264   1.000000
    9       -2.231708   1.000000
   10        4.716908   0.000000
   11        6.782835   0.000000
   12        7.690498   0.000000
   13        8.809536   0.000000
   14        9.577312   0.000000
 
 -0.1925930E-33  0.2857143E+00  0.1428571E+00  0.5830904E-02
    1      -41.277951   1.000000
    2      -41.277596   1.000000
    3      -41.277400   1.000000
    4      -41.277223   1.000000
    5      -41.276883   1.000000
    6      -17.023399   1.000000
    7       -3.116781   1.000000
    8       -2.244264   1.000000
    9       -2.231709   1.000000
   10        4.716908   0.000000
   11        6.782835   0.000000
   12        7.690498   0.000000
   13        8.809536   0.000000
   14        9.577312   0.000000
 
  0.1428571E+00  0.2857143E+00  0.1428571E+00  0.5830904E-02
    1      -41.277784   1.000000
    2      -41.277733   1.000000
    3      -41.277596   1.000000
    4      -41.277459   1.000000
    5      -41.277013   1.000000
    6      -17.047136   1.000000
    7       -2.925931   1.000000
    8       -2.286238   1.000000
    9       -2.024237   1.000000
   10        4.377166   0.000000
   11        7.094446   0.000000
   12        8.057376   0.000000
   13        8.676777   0.000000
   14        8.977116   0.000000
 
  0.2857143E+00  0.2857143E+00  0.1428571E+00  0.5830904E-02
    1      -41.277951   1.000000
    2      -41.277595   1.000000
    3      -41.277399   1.000000
    4      -41.277224   1.000000
    5      -41.276884   1.000000
    6      -17.023399   1.000000
    7       -3.116781   1.000000
    8       -2.244264   1.000000
    9       -2.231709   1.000000
   10        4.716908   0.000000
   11        6.782835   0.000000
   12        7.690498   0.000000
   13        8.809536   0.000000
   14        9.577312   0.000000
 
  0.4285714E+00  0.2857143E+00  0.1428571E+00  0.5830904E-02
    1      -41.277947   1.000000
    2      -41.277679   1.000000
    3      -41.277312   1.000000
    4      -41.277010   1.000000
    5      -41.276729   1.000000
    6      -16.970003   1.000000
    7       -3.421245   1.000000
    8       -2.643666   1.000000
    9       -2.299964   1.000000
   10        5.542767   0.000000
   11        6.598417   0.000000
   12        7.018073   0.000000
   13        9.347480   0.000000
   14        9.805867   0.000000
 
 -0.4285714E+00  0.2857143E+00  0.1428571E+00  0.5830904E-02
    1      -41.277743   1.000000
    2      -41.277515   1.000000
    3      -41.277158   1.000000
    4      -41.276771   1.000000
    5      -41.276645   1.000000
    6      -16.925949   1.000000
    7       -3.626541   1.000000
    8       -2.899805   1.000000
    9       -2.432427   1.000000
   10        5.986142   0.000000
   11        6.372475   0.000000
   12        7.621246   0.000000
   13        9.052465   0.000000
   14       10.702251   0.000000
 
 -0.2857143E+00  0.2857143E+00  0.1428571E+00  0.5830904E-02
    1      -41.277742   1.000000
    2      -41.277516   1.000000
    3      -41.277159   1.000000
    4      -41.276770   1.000000
    5      -41.276644   1.000000
    6      -16.925949   1.000000
    7       -3.626541   1.000000
    8       -2.899805   1.000000
    9       -2.432427   1.000000
   10        5.986142   0.000000
   11        6.372475   0.000000
   12        7.621246   0.000000
   13        9.052465   0.000000
   14       10.702251   0.000000
 
 -0.1428571E+00  0.2857143E+00  0.1428571E+00  0.5830904E-02
    1      -41.277947   1.000000
    2      -41.277680   1.000000
    3      -41.277313   1.000000
    4      -41.277010   1.000000
    5      -41.276727   1.000000
    6      -16.970003   1.000000
    7       -3.421245   1.000000
    8       -2.643666   1.000000
    9       -2.299964   1.000000
   10        5.542767   0.000000
   11        6.598417   0.000000
   12        7.018073   0.000000
   13        9.347480   0.000000
   14        9.805867   0.000000
 
 -0.9650837E-33  0.4285714E+00  0.1428571E+00  0.5830904E-02
    1      -41.277791   1.000000
    2      -41.277515   1.000000
    3      -41.277472   1.000000
    4      -41.276801   1.000000
    5      -41.276668   1.000000
    6      -16.960471   1.000000
    7       -3.694991   1.000000
    8       -2.412902   1.000000
    9       -2.311994   1.000000
   10        5.152507   0.000000
   11        6.976030   0.000000
   12        7.793140   0.000000
   13        8.432573   0.000000
   14       10.711020   0.000000
 
  0.1428571E+00  0.4285714E+00  0.1428571E+00  0.5830904E-02
    1      -41.277851   1.000000
    2      -41.277664   1.000000
    3      -41.277552   1.000000
    4      -41.277043   1.000000
    5      -41.276754   1.000000
    6      -16.980214   1.000000
    7       -3.525934   1.000000
    8       -2.514155   1.000000
    9       -2.142537   1.000000
   10        5.189494   0.000000
   11        7.268172   0.000000
   12        7.505022   0.000000
   13        8.316434   0.000000
   14        9.857341   0.000000
 
  0.2857143E+00  0.4285714E+00  0.1428571E+00  0.5830904E-02
    1      -41.277947   1.000000
    2      -41.277679   1.000000
    3      -41.277312   1.000000
    4      -41.277009   1.000000
    5      -41.276729   1.000000
    6      -16.970003   1.000000
    7       -3.421245   1.000000
    8       -2.643666   1.000000
    9       -2.299964   1.000000
   10        5.542767   0.000000
   11        6.598417   0.000000
   12        7.018072   0.000000
   13        9.347480   0.000000
   14        9.805867   0.000000
 
  0.4285714E+00  0.4285714E+00  0.1428571E+00  0.5830904E-02
    1      -41.278197   1.000000
    2      -41.277558   1.000000
    3      -41.276959   1.000000
    4      -41.276762   1.000000
    5      -41.276664   1.000000
    6      -16.937544   1.000000
    7       -3.575982   1.000000
    8       -2.672334   1.000000
    9       -2.514057   1.000000
   10        5.098723   0.000000
   11        6.082229   0.000000
   12        7.972713   0.000000
   13        9.816933   0.000000
   14       11.008609   0.000000
 
 -0.4285714E+00  0.4285714E+00  0.1428571E+00  0.5830904E-02
    1      -41.278012   1.000000
    2      -41.277473   1.000000
    3      -41.276893   1.000000
    4      -41.276650   1.000000
    5      -41.276495   1.000000
    6      -16.907048   1.000000
    7       -3.614270   1.000000
    8       -2.900032   1.000000
    9       -2.671561   1.000000
   10        5.239657   0.000000
   11        6.199563   0.000000
   12        8.183903   0.000000
   13        9.895598   0.000000
   14       11.525927   0.000000
 
 -0.2857143E+00  0.4285714E+00  0.1428571E+00  0.5830904E-02
    1      -41.277665   1.000000
    2      -41.277112   1.000000
    3      -41.277001   1.000000
    4      -41.276893   1.000000
    5      -41.276424   1.000000
    6      -16.901647   1.000000
    7       -3.384129   1.000000
    8       -3.286711   1.000000
    9       -2.639533   1.000000
   10        5.715993   0.000000
   11        6.910476   0.000000
   12        7.903338   0.000000
   13        8.539912   0.000000
   14       11.370873   0.000000
 
 -0.1428571E+00  0.4285714E+00  0.1428571E+00  0.5830904E-02
    1      -41.277744   1.000000
    2      -41.277516   1.000000
    3      -41.277157   1.000000
    4      -41.276770   1.000000
    5      -41.276645   1.000000
    6      -16.925949   1.000000
    7       -3.626541   1.000000
    8       -2.899805   1.000000
    9       -2.432427   1.000000
   10        5.986142   0.000000
   11        6.372475   0.000000
   12        7.621246   0.000000
   13        9.052465   0.000000
   14       10.702251   0.000000
 
  0.0000000E+00 -0.4285714E+00  0.1428571E+00  0.5830904E-02
    1      -41.277830   1.000000
    2      -41.277624   1.000000
    3      -41.277204   1.000000
    4      -41.276728   1.000000
    5      -41.276672   1.000000
    6      -16.940727   1.000000
    7       -3.849430   1.000000
    8       -2.543323   1.000000
    9       -2.268389   1.000000
   10        5.226057   0.000000
   11        6.870304   0.000000
   12        8.174259   0.000000
   13        8.659236   0.000000
   14       11.021398   0.000000
 
  0.1428571E+00 -0.4285714E+00  0.1428571E+00  0.5830904E-02
    1      -41.277828   1.000000
    2      -41.277625   1.000000
    3      -41.277205   1.000000
    4      -41.276729   1.000000
    5      -41.276671   1.000000
    6      -16.940727   1.000000
    7       -3.849430   1.000000
    8       -2.543322   1.000000
    9       -2.268389   1.000000
   10        5.226057   0.000000
   11        6.870304   0.000000
   12        8.174259   0.000000
   13        8.659236   0.000000
   14       11.021398   0.000000
 
  0.2857143E+00 -0.4285714E+00  0.1428571E+00  0.5830904E-02
    1      -41.277743   1.000000
    2      -41.277515   1.000000
    3      -41.277158   1.000000
    4      -41.276771   1.000000
    5      -41.276645   1.000000
    6      -16.925949   1.000000
    7       -3.626541   1.000000
    8       -2.899805   1.000000
    9       -2.432427   1.000000
   10        5.986142   0.000000
   11        6.372475   0.000000
   12        7.621246   0.000000
   13        9.052465   0.000000
   14       10.702251   0.000000
 
  0.4285714E+00 -0.4285714E+00  0.1428571E+00  0.5830904E-02
    1      -41.278012   1.000000
    2      -41.277473   1.000000
    3      -41.276893   1.000000
    4      -41.276650   1.000000
    5      -41.276495   1.000000
    6      -16.907048   1.000000
    7       -3.614270   1.000000
    8       -2.900032   1.000000
    9       -2.671561   1.000000
   10        5.239657   0.000000