   1   1   0   0
  0.6083477E+02  0.4414576E-09  0.4414576E-09  0.4414576E-09  0.1000000E-15
  1.000000000000000E-004
  CAR 
 Og_FCC                                  
     14.96570088    -46.56319564  301     -0.59598253      1.00000000
    -46.563  0.0000E+00  0.0000E+00
    -46.358  0.0000E+00  0.0000E+00
    -46.153  0.0000E+00  0.0000E+00
    -45.948  0.0000E+00  0.0000E+00
    -45.743  0.0000E+00  0.0000E+00
    -45.538  0.0000E+00  0.0000E+00
    -45.333  0.0000E+00  0.0000E+00
    -45.128  0.0000E+00  0.0000E+00
    -44.922  0.0000E+00  0.0000E+00
    -44.717  0.0000E+00  0.0000E+00
    -44.512  0.0000E+00  0.0000E+00
    -44.307  0.0000E+00  0.0000E+00
    -44.102  0.0000E+00  0.0000E+00
    -43.897  0.2101E-02  0.4310E-03
    -43.692  0.1915E+02  0.3929E+01
    -43.487  0.3477E+00  0.4000E+01
    -43.282  0.0000E+00  0.4000E+01
    -43.077  0.0000E+00  0.4000E+01
    -42.871  0.0000E+00  0.4000E+01
    -42.666  0.0000E+00  0.4000E+01
    -42.461  0.0000E+00  0.4000E+01
    -42.256  0.0000E+00  0.4000E+01
    -42.051  0.0000E+00  0.4000E+01
    -41.846  0.0000E+00  0.4000E+01
    -41.641  0.0000E+00  0.4000E+01
    -41.436  0.0000E+00  0.4000E+01
    -41.231  0.0000E+00  0.4000E+01
    -41.026  0.0000E+00  0.4000E+01
    -40.820  0.0000E+00  0.4000E+01
    -40.615  0.0000E+00  0.4000E+01
    -40.410  0.0000E+00  0.4000E+01
    -40.205  0.0000E+00  0.4000E+01
    -40.000  0.0000E+00  0.4000E+01
    -39.795  0.0000E+00  0.4000E+01
    -39.590  0.1666E-08  0.4000E+01
    -39.385  0.7573E+01  0.5553E+01
    -39.180  0.2168E+02  0.1000E+02
    -38.975  0.3737E-05  0.1000E+02
    -38.770  0.0000E+00  0.1000E+02
    -38.564  0.0000E+00  0.1000E+02
    -38.359  0.0000E+00  0.1000E+02
    -38.154  0.0000E+00  0.1000E+02
    -37.949  0.0000E+00  0.1000E+02
    -37.744  0.0000E+00  0.1000E+02
    -37.539  0.0000E+00  0.1000E+02
    -37.334  0.0000E+00  0.1000E+02
    -37.129  0.0000E+00  0.1000E+02
    -36.924  0.0000E+00  0.1000E+02
    -36.719  0.0000E+00  0.1000E+02
    -36.513  0.0000E+00  0.1000E+02
    -36.308  0.0000E+00  0.1000E+02
    -36.103  0.0000E+00  0.1000E+02
    -35.898  0.0000E+00  0.1000E+02
    -35.693  0.0000E+00  0.1000E+02
    -35.488  0.0000E+00  0.1000E+02
    -35.283  0.0000E+00  0.1000E+02
    -35.078  0.0000E+00  0.1000E+02
    -34.873  0.0000E+00  0.1000E+02
    -34.668  0.0000E+00  0.1000E+02
    -34.463  0.0000E+00  0.1000E+02
    -34.257  0.0000E+00  0.1000E+02
    -34.052  0.0000E+00  0.1000E+02
    -33.847  0.0000E+00  0.1000E+02
    -33.642  0.0000E+00  0.1000E+02
    -33.437  0.0000E+00  0.1000E+02
    -33.232  0.0000E+00  0.1000E+02
    -33.027  0.0000E+00  0.1000E+02
    -32.822  0.0000E+00  0.1000E+02
    -32.617  0.0000E+00  0.1000E+02
    -32.412  0.0000E+00  0.1000E+02
    -32.206  0.0000E+00  0.1000E+02
    -32.001  0.0000E+00  0.1000E+02
    -31.796  0.0000E+00  0.1000E+02
    -31.591  0.0000E+00  0.1000E+02
    -31.386  0.0000E+00  0.1000E+02
    -31.181  0.0000E+00  0.1000E+02
    -30.976  0.0000E+00  0.1000E+02
    -30.771  0.0000E+00  0.1000E+02
    -30.566  0.0000E+00  0.1000E+02
    -30.361  0.0000E+00  0.1000E+02
    -30.155  0.0000E+00  0.1000E+02
    -29.950  0.0000E+00  0.1000E+02
    -29.745  0.0000E+00  0.1000E+02
    -29.540  0.0000E+00  0.1000E+02
    -29.335  0.0000E+00  0.1000E+02
    -29.130  0.0000E+00  0.1000E+02
    -28.925  0.0000E+00  0.1000E+02
    -28.720  0.0000E+00  0.1000E+02
    -28.515  0.0000E+00  0.1000E+02
    -28.310  0.0000E+00  0.1000E+02
    -28.105  0.0000E+00  0.1000E+02
    -27.899  0.0000E+00  0.1000E+02
    -27.694  0.0000E+00  0.1000E+02
    -27.489  0.0000E+00  0.1000E+02
    -27.284  0.0000E+00  0.1000E+02
    -27.079  0.0000E+00  0.1000E+02
    -26.874  0.0000E+00  0.1000E+02
    -26.669  0.0000E+00  0.1000E+02
    -26.464  0.0000E+00  0.1000E+02
    -26.259  0.0000E+00  0.1000E+02
    -26.054  0.0000E+00  0.1000E+02
    -25.848  0.0000E+00  0.1000E+02
    -25.643  0.0000E+00  0.1000E+02
    -25.438  0.0000E+00  0.1000E+02
    -25.233  0.0000E+00  0.1000E+02
    -25.028  0.0000E+00  0.1000E+02
    -24.823  0.0000E+00  0.1000E+02
    -24.618  0.0000E+00  0.1000E+02
    -24.413  0.0000E+00  0.1000E+02
    -24.208  0.0000E+00  0.1000E+02
    -24.003  0.0000E+00  0.1000E+02
    -23.798  0.0000E+00  0.1000E+02
    -23.592  0.0000E+00  0.1000E+02
    -23.387  0.0000E+00  0.1000E+02
    -23.182  0.0000E+00  0.1000E+02
    -22.977  0.0000E+00  0.1000E+02
    -22.772  0.0000E+00  0.1000E+02
    -22.567  0.0000E+00  0.1000E+02
    -22.362  0.0000E+00  0.1000E+02
    -22.157  0.0000E+00  0.1000E+02
    -21.952  0.0000E+00  0.1000E+02
    -21.747  0.0000E+00  0.1000E+02
    -21.541  0.0000E+00  0.1000E+02
    -21.336  0.0000E+00  0.1000E+02
    -21.131  0.0000E+00  0.1000E+02
    -20.926  0.0000E+00  0.1000E+02
    -20.721  0.0000E+00  0.1000E+02
    -20.516  0.0000E+00  0.1000E+02
    -20.311  0.0000E+00  0.1000E+02
    -20.106  0.0000E+00  0.1000E+02
    -19.901  0.0000E+00  0.1000E+02
    -19.696  0.0000E+00  0.1000E+02
    -19.490  0.0000E+00  0.1000E+02
    -19.285  0.0000E+00  0.1000E+02
    -19.080  0.0000E+00  0.1000E+02
    -18.875  0.0000E+00  0.1000E+02
    -18.670  0.0000E+00  0.1000E+02
    -18.465  0.0000E+00  0.1000E+02
    -18.260  0.0000E+00  0.1000E+02
    -18.055  0.0000E+00  0.1000E+02
    -17.850  0.0000E+00  0.1000E+02
    -17.645  0.0000E+00  0.1000E+02
    -17.440  0.0000E+00  0.1000E+02
    -17.234  0.2383E-07  0.1000E+02
    -17.029  0.2697E+00  0.1006E+02
    -16.824  0.8342E+01  0.1177E+02
    -16.619  0.1140E+01  0.1200E+02
    -16.414  0.0000E+00  0.1200E+02
    -16.209  0.0000E+00  0.1200E+02
    -16.004  0.0000E+00  0.1200E+02
    -15.799  0.0000E+00  0.1200E+02
    -15.594  0.0000E+00  0.1200E+02
    -15.389  0.0000E+00  0.1200E+02
    -15.183  0.0000E+00  0.1200E+02
    -14.978  0.0000E+00  0.1200E+02
    -14.773  0.0000E+00  0.1200E+02
    -14.568  0.0000E+00  0.1200E+02
    -14.363  0.0000E+00  0.1200E+02
    -14.158  0.0000E+00  0.1200E+02
    -13.953  0.0000E+00  0.1200E+02
    -13.748  0.0000E+00  0.1200E+02
    -13.543  0.0000E+00  0.1200E+02
    -13.338  0.0000E+00  0.1200E+02
    -13.132  0.0000E+00  0.1200E+02
    -12.927  0.0000E+00  0.1200E+02
    -12.722  0.0000E+00  0.1200E+02
    -12.517  0.0000E+00  0.1200E+02
    -12.312  0.0000E+00  0.1200E+02
    -12.107  0.0000E+00  0.1200E+02
    -11.902  0.0000E+00  0.1200E+02
    -11.697  0.0000E+00  0.1200E+02
    -11.492  0.0000E+00  0.1200E+02
    -11.287  0.0000E+00  0.1200E+02
    -11.082  0.0000E+00  0.1200E+02
    -10.876  0.0000E+00  0.1200E+02
    -10.671  0.0000E+00  0.1200E+02
    -10.466  0.0000E+00  0.1200E+02
    -10.261  0.0000E+00  0.1200E+02
    -10.056  0.0000E+00  0.1200E+02
     -9.851  0.0000E+00  0.1200E+02
     -9.646  0.0000E+00  0.1200E+02
     -9.441  0.0000E+00  0.1200E+02
     -9.236  0.0000E+00  0.1200E+02
     -9.031  0.0000E+00  0.1200E+02
     -8.825  0.0000E+00  0.1200E+02
     -8.620  0.0000E+00  0.1200E+02
     -8.415  0.0000E+00  0.1200E+02
     -8.210  0.0000E+00  0.1200E+02
     -8.005  0.0000E+00  0.1200E+02
     -7.800  0.0000E+00  0.1200E+02
     -7.595  0.0000E+00  0.1200E+02
     -7.390  0.0000E+00  0.1200E+02
     -7.185  0.0000E+00  0.1200E+02
     -6.980  0.0000E+00  0.1200E+02
     -6.775  0.0000E+00  0.1200E+02
     -6.569  0.0000E+00  0.1200E+02
     -6.364  0.0000E+00  0.1200E+02
     -6.159  0.0000E+00  0.1200E+02
     -5.954  0.0000E+00  0.1200E+02
     -5.749  0.0000E+00  0.1200E+02
     -5.544  0.8499E-04  0.1200E+02
     -5.339  0.3983E+01  0.1282E+02
     -5.134  0.3879E+01  0.1361E+02
     -4.929  0.1222E+01  0.1386E+02
     -4.724  0.6229E+00  0.1399E+02
     -4.518  0.4431E-01  0.1400E+02
     -4.313  0.1275E-05  0.1400E+02
     -4.108  0.0000E+00  0.1400E+02
     -3.903  0.0000E+00  0.1400E+02
     -3.698  0.0000E+00  0.1400E+02
     -3.493  0.0000E+00  0.1400E+02
     -3.288  0.0000E+00  0.1400E+02
     -3.083  0.0000E+00  0.1400E+02
     -2.878  0.2105E-15  0.1400E+02
     -2.673  0.8299E-02  0.1400E+02
     -2.467  0.4524E+01  0.1493E+02
     -2.262  0.2556E+01  0.1545E+02
     -2.057  0.1437E+01  0.1575E+02
     -1.852  0.1852E+01  0.1613E+02
     -1.647  0.2871E+01  0.1672E+02
     -1.442  0.2645E+01  0.1726E+02
     -1.237  0.1889E+01  0.1765E+02
     -1.032  0.1281E+01  0.1791E+02
     -0.827  0.4362E+00  0.1800E+02
     -0.622  0.2923E-02  0.1800E+02
     -0.417  0.0000E+00  0.1800E+02
     -0.211  0.0000E+00  0.1800E+02
     -0.006  0.0000E+00  0.1800E+02
      0.199  0.0000E+00  0.1800E+02
      0.404  0.0000E+00  0.1800E+02
      0.609  0.0000E+00  0.1800E+02
      0.814  0.0000E+00  0.1800E+02
      1.019  0.0000E+00  0.1800E+02
      1.224  0.0000E+00  0.1800E+02
      1.429  0.0000E+00  0.1800E+02
      1.634  0.0000E+00  0.1800E+02
      1.840  0.0000E+00  0.1800E+02
      2.045  0.0000E+00  0.1800E+02
      2.250  0.0000E+00  0.1800E+02
      2.455  0.0000E+00  0.1800E+02
      2.660  0.9491E-07  0.1800E+02
      2.865  0.3995E-01  0.1801E+02
      3.070  0.5195E-02  0.1801E+02
      3.275  0.0000E+00  0.1801E+02
      3.480  0.1406E-10  0.1801E+02
      3.685  0.8697E-01  0.1803E+02
      3.890  0.2742E+00  0.1808E+02
      4.096  0.2622E+00  0.1814E+02
      4.301  0.8728E-02  0.1814E+02
      4.506  0.1487E+00  0.1817E+02
      4.711  0.6540E+00  0.1830E+02
      4.916  0.9234E+00  0.1849E+02
      5.121  0.1930E+01  0.1889E+02
      5.326  0.1497E+01  0.1920E+02
      5.531  0.1843E+01  0.1957E+02
      5.736  0.7614E+00  0.1973E+02
      5.941  0.1145E+01  0.1996E+02
      6.147  0.1662E+01  0.2031E+02
      6.352  0.3239E+00  0.2037E+02
      6.557  0.1555E+01  0.2069E+02
      6.762  0.2966E+01  0.2130E+02
      6.967  0.3082E+01  0.2193E+02
      7.172  0.4709E+00  0.2203E+02
      7.377  0.7440E+00  0.2218E+02
      7.582  0.7010E+00  0.2232E+02
      7.787  0.1442E+01  0.2262E+02
      7.992  0.2314E+01  0.2309E+02
      8.198  0.2206E+01  0.2355E+02
      8.403  0.2406E+01  0.2404E+02
      8.608  0.2786E+01  0.2461E+02
      8.813  0.8547E+00  0.2479E+02
      9.018  0.3410E+01  0.2549E+02
      9.223  0.6682E-01  0.2550E+02
      9.428  0.5751E+00  0.2562E+02
      9.633  0.1051E+01  0.2583E+02
      9.838  0.2124E+00  0.2588E+02
     10.043  0.2154E+01  0.2632E+02
     10.248  0.1655E+01  0.2666E+02
     10.454  0.2157E+01  0.2710E+02
     10.659  0.1393E+01  0.2739E+02
     10.864  0.5635E+00  0.2750E+02
     11.069  0.5365E+00  0.2761E+02
     11.274  0.1078E+01  0.2783E+02
     11.479  0.8039E-03  0.2783E+02
     11.684  0.1112E-01  0.2784E+02
     11.889  0.1251E+00  0.2786E+02
     12.094  0.5455E+00  0.2797E+02
     12.299  0.1308E+00  0.2800E+02
     12.505  0.4494E-05  0.2800E+02
     12.710  0.0000E+00  0.2800E+02
     12.915  0.0000E+00  0.2800E+02
     13.120  0.0000E+00  0.2800E+02
     13.325  0.0000E+00  0.2800E+02
     13.530  0.0000E+00  0.2800E+02
     13.735  0.0000E+00  0.2800E+02
     13.940  0.0000E+00  0.2800E+02
     14.145  0.0000E+00  0.2800E+02
     14.350  0.0000E+00  0.2800E+02
     14.556  0.0000E+00  0.2800E+02
     14.761  0.0000E+00  0.2800E+02
     14.966  0.0000E+00  0.2800E+02
