   1   1   0   0
  0.6083477E+02  0.4414576E-09  0.4414576E-09  0.4414576E-09  0.1000000E-15
  1.000000000000000E-004
  CAR 
 Og_FCC                                  
     14.94936183    -46.56241157  301     -0.60799086      1.00000000
    -46.562  0.0000E+00  0.0000E+00
    -46.357  0.0000E+00  0.0000E+00
    -46.152  0.0000E+00  0.0000E+00
    -45.947  0.0000E+00  0.0000E+00
    -45.742  0.0000E+00  0.0000E+00
    -45.537  0.0000E+00  0.0000E+00
    -45.332  0.0000E+00  0.0000E+00
    -45.127  0.0000E+00  0.0000E+00
    -44.922  0.0000E+00  0.0000E+00
    -44.717  0.0000E+00  0.0000E+00
    -44.512  0.0000E+00  0.0000E+00
    -44.307  0.0000E+00  0.0000E+00
    -44.102  0.0000E+00  0.0000E+00
    -43.897  0.2110E-02  0.4327E-03
    -43.692  0.1916E+02  0.3929E+01
    -43.487  0.3483E+00  0.4000E+01
    -43.282  0.0000E+00  0.4000E+01
    -43.077  0.0000E+00  0.4000E+01
    -42.872  0.0000E+00  0.4000E+01
    -42.667  0.0000E+00  0.4000E+01
    -42.462  0.0000E+00  0.4000E+01
    -42.257  0.0000E+00  0.4000E+01
    -42.052  0.0000E+00  0.4000E+01
    -41.847  0.0000E+00  0.4000E+01
    -41.641  0.0000E+00  0.4000E+01
    -41.436  0.0000E+00  0.4000E+01
    -41.231  0.0000E+00  0.4000E+01
    -41.026  0.0000E+00  0.4000E+01
    -40.821  0.0000E+00  0.4000E+01
    -40.616  0.0000E+00  0.4000E+01
    -40.411  0.0000E+00  0.4000E+01
    -40.206  0.0000E+00  0.4000E+01
    -40.001  0.0000E+00  0.4000E+01
    -39.796  0.0000E+00  0.4000E+01
    -39.591  0.1341E-08  0.4000E+01
    -39.386  0.7253E+01  0.5487E+01
    -39.181  0.2201E+02  0.1000E+02
    -38.976  0.4529E-05  0.1000E+02
    -38.771  0.0000E+00  0.1000E+02
    -38.566  0.0000E+00  0.1000E+02
    -38.361  0.0000E+00  0.1000E+02
    -38.156  0.0000E+00  0.1000E+02
    -37.951  0.0000E+00  0.1000E+02
    -37.746  0.0000E+00  0.1000E+02
    -37.541  0.0000E+00  0.1000E+02
    -37.336  0.0000E+00  0.1000E+02
    -37.131  0.0000E+00  0.1000E+02
    -36.926  0.0000E+00  0.1000E+02
    -36.721  0.0000E+00  0.1000E+02
    -36.515  0.0000E+00  0.1000E+02
    -36.310  0.0000E+00  0.1000E+02
    -36.105  0.0000E+00  0.1000E+02
    -35.900  0.0000E+00  0.1000E+02
    -35.695  0.0000E+00  0.1000E+02
    -35.490  0.0000E+00  0.1000E+02
    -35.285  0.0000E+00  0.1000E+02
    -35.080  0.0000E+00  0.1000E+02
    -34.875  0.0000E+00  0.1000E+02
    -34.670  0.0000E+00  0.1000E+02
    -34.465  0.0000E+00  0.1000E+02
    -34.260  0.0000E+00  0.1000E+02
    -34.055  0.0000E+00  0.1000E+02
    -33.850  0.0000E+00  0.1000E+02
    -33.645  0.0000E+00  0.1000E+02
    -33.440  0.0000E+00  0.1000E+02
    -33.235  0.0000E+00  0.1000E+02
    -33.030  0.0000E+00  0.1000E+02
    -32.825  0.0000E+00  0.1000E+02
    -32.620  0.0000E+00  0.1000E+02
    -32.415  0.0000E+00  0.1000E+02
    -32.210  0.0000E+00  0.1000E+02
    -32.005  0.0000E+00  0.1000E+02
    -31.800  0.0000E+00  0.1000E+02
    -31.595  0.0000E+00  0.1000E+02
    -31.390  0.0000E+00  0.1000E+02
    -31.184  0.0000E+00  0.1000E+02
    -30.979  0.0000E+00  0.1000E+02
    -30.774  0.0000E+00  0.1000E+02
    -30.569  0.0000E+00  0.1000E+02
    -30.364  0.0000E+00  0.1000E+02
    -30.159  0.0000E+00  0.1000E+02
    -29.954  0.0000E+00  0.1000E+02
    -29.749  0.0000E+00  0.1000E+02
    -29.544  0.0000E+00  0.1000E+02
    -29.339  0.0000E+00  0.1000E+02
    -29.134  0.0000E+00  0.1000E+02
    -28.929  0.0000E+00  0.1000E+02
    -28.724  0.0000E+00  0.1000E+02
    -28.519  0.0000E+00  0.1000E+02
    -28.314  0.0000E+00  0.1000E+02
    -28.109  0.0000E+00  0.1000E+02
    -27.904  0.0000E+00  0.1000E+02
    -27.699  0.0000E+00  0.1000E+02
    -27.494  0.0000E+00  0.1000E+02
    -27.289  0.0000E+00  0.1000E+02
    -27.084  0.0000E+00  0.1000E+02
    -26.879  0.0000E+00  0.1000E+02
    -26.674  0.0000E+00  0.1000E+02
    -26.469  0.0000E+00  0.1000E+02
    -26.264  0.0000E+00  0.1000E+02
    -26.058  0.0000E+00  0.1000E+02
    -25.853  0.0000E+00  0.1000E+02
    -25.648  0.0000E+00  0.1000E+02
    -25.443  0.0000E+00  0.1000E+02
    -25.238  0.0000E+00  0.1000E+02
    -25.033  0.0000E+00  0.1000E+02
    -24.828  0.0000E+00  0.1000E+02
    -24.623  0.0000E+00  0.1000E+02
    -24.418  0.0000E+00  0.1000E+02
    -24.213  0.0000E+00  0.1000E+02
    -24.008  0.0000E+00  0.1000E+02
    -23.803  0.0000E+00  0.1000E+02
    -23.598  0.0000E+00  0.1000E+02
    -23.393  0.0000E+00  0.1000E+02
    -23.188  0.0000E+00  0.1000E+02
    -22.983  0.0000E+00  0.1000E+02
    -22.778  0.0000E+00  0.1000E+02
    -22.573  0.0000E+00  0.1000E+02
    -22.368  0.0000E+00  0.1000E+02
    -22.163  0.0000E+00  0.1000E+02
    -21.958  0.0000E+00  0.1000E+02
    -21.753  0.0000E+00  0.1000E+02
    -21.548  0.0000E+00  0.1000E+02
    -21.343  0.0000E+00  0.1000E+02
    -21.138  0.0000E+00  0.1000E+02
    -20.933  0.0000E+00  0.1000E+02
    -20.727  0.0000E+00  0.1000E+02
    -20.522  0.0000E+00  0.1000E+02
    -20.317  0.0000E+00  0.1000E+02
    -20.112  0.0000E+00  0.1000E+02
    -19.907  0.0000E+00  0.1000E+02
    -19.702  0.0000E+00  0.1000E+02
    -19.497  0.0000E+00  0.1000E+02
    -19.292  0.0000E+00  0.1000E+02
    -19.087  0.0000E+00  0.1000E+02
    -18.882  0.0000E+00  0.1000E+02
    -18.677  0.0000E+00  0.1000E+02
    -18.472  0.0000E+00  0.1000E+02
    -18.267  0.0000E+00  0.1000E+02
    -18.062  0.0000E+00  0.1000E+02
    -17.857  0.0000E+00  0.1000E+02
    -17.652  0.0000E+00  0.1000E+02
    -17.447  0.0000E+00  0.1000E+02
    -17.242  0.8077E-08  0.1000E+02
    -17.037  0.2127E+00  0.1004E+02
    -16.832  0.8052E+01  0.1169E+02
    -16.627  0.1490E+01  0.1200E+02
    -16.422  0.0000E+00  0.1200E+02
    -16.217  0.0000E+00  0.1200E+02
    -16.012  0.0000E+00  0.1200E+02
    -15.807  0.0000E+00  0.1200E+02
    -15.601  0.0000E+00  0.1200E+02
    -15.396  0.0000E+00  0.1200E+02
    -15.191  0.0000E+00  0.1200E+02
    -14.986  0.0000E+00  0.1200E+02
    -14.781  0.0000E+00  0.1200E+02
    -14.576  0.0000E+00  0.1200E+02
    -14.371  0.0000E+00  0.1200E+02
    -14.166  0.0000E+00  0.1200E+02
    -13.961  0.0000E+00  0.1200E+02
    -13.756  0.0000E+00  0.1200E+02
    -13.551  0.0000E+00  0.1200E+02
    -13.346  0.0000E+00  0.1200E+02
    -13.141  0.0000E+00  0.1200E+02
    -12.936  0.0000E+00  0.1200E+02
    -12.731  0.0000E+00  0.1200E+02
    -12.526  0.0000E+00  0.1200E+02
    -12.321  0.0000E+00  0.1200E+02
    -12.116  0.0000E+00  0.1200E+02
    -11.911  0.0000E+00  0.1200E+02
    -11.706  0.0000E+00  0.1200E+02
    -11.501  0.0000E+00  0.1200E+02
    -11.296  0.0000E+00  0.1200E+02
    -11.091  0.0000E+00  0.1200E+02
    -10.886  0.0000E+00  0.1200E+02
    -10.681  0.0000E+00  0.1200E+02
    -10.476  0.0000E+00  0.1200E+02
    -10.270  0.0000E+00  0.1200E+02
    -10.065  0.0000E+00  0.1200E+02
     -9.860  0.0000E+00  0.1200E+02
     -9.655  0.0000E+00  0.1200E+02
     -9.450  0.0000E+00  0.1200E+02
     -9.245  0.0000E+00  0.1200E+02
     -9.040  0.0000E+00  0.1200E+02
     -8.835  0.0000E+00  0.1200E+02
     -8.630  0.0000E+00  0.1200E+02
     -8.425  0.0000E+00  0.1200E+02
     -8.220  0.0000E+00  0.1200E+02
     -8.015  0.0000E+00  0.1200E+02
     -7.810  0.0000E+00  0.1200E+02
     -7.605  0.0000E+00  0.1200E+02
     -7.400  0.0000E+00  0.1200E+02
     -7.195  0.0000E+00  0.1200E+02
     -6.990  0.0000E+00  0.1200E+02
     -6.785  0.0000E+00  0.1200E+02
     -6.580  0.0000E+00  0.1200E+02
     -6.375  0.0000E+00  0.1200E+02
     -6.170  0.0000E+00  0.1200E+02
     -5.965  0.0000E+00  0.1200E+02
     -5.760  0.0000E+00  0.1200E+02
     -5.555  0.2579E-04  0.1200E+02
     -5.350  0.3512E+01  0.1272E+02
     -5.144  0.4199E+01  0.1358E+02
     -4.939  0.1369E+01  0.1386E+02
     -4.734  0.6280E+00  0.1399E+02
     -4.529  0.4651E-01  0.1400E+02
     -4.324  0.4529E-05  0.1400E+02
     -4.119  0.0000E+00  0.1400E+02
     -3.914  0.0000E+00  0.1400E+02
     -3.709  0.0000E+00  0.1400E+02
     -3.504  0.0000E+00  0.1400E+02
     -3.299  0.0000E+00  0.1400E+02
     -3.094  0.0000E+00  0.1400E+02
     -2.889  0.0000E+00  0.1400E+02
     -2.684  0.3314E-02  0.1400E+02
     -2.479  0.4210E+01  0.1486E+02
     -2.274  0.2849E+01  0.1545E+02
     -2.069  0.1418E+01  0.1574E+02
     -1.864  0.1699E+01  0.1609E+02
     -1.659  0.2940E+01  0.1669E+02
     -1.454  0.2536E+01  0.1721E+02
     -1.249  0.2089E+01  0.1764E+02
     -1.044  0.1313E+01  0.1791E+02
     -0.839  0.4458E+00  0.1800E+02
     -0.634  0.5946E-02  0.1800E+02
     -0.429  0.0000E+00  0.1800E+02
     -0.224  0.0000E+00  0.1800E+02
     -0.019  0.0000E+00  0.1800E+02
      0.187  0.0000E+00  0.1800E+02
      0.392  0.0000E+00  0.1800E+02
      0.597  0.0000E+00  0.1800E+02
      0.802  0.0000E+00  0.1800E+02
      1.007  0.0000E+00  0.1800E+02
      1.212  0.0000E+00  0.1800E+02
      1.417  0.0000E+00  0.1800E+02
      1.622  0.0000E+00  0.1800E+02
      1.827  0.0000E+00  0.1800E+02
      2.032  0.0000E+00  0.1800E+02
      2.237  0.0000E+00  0.1800E+02
      2.442  0.0000E+00  0.1800E+02
      2.647  0.1542E-07  0.1800E+02
      2.852  0.3602E-01  0.1801E+02
      3.057  0.9139E-02  0.1801E+02
      3.262  0.0000E+00  0.1801E+02
      3.467  0.1109E-11  0.1801E+02
      3.672  0.5084E-01  0.1802E+02
      3.877  0.3104E+00  0.1808E+02
      4.082  0.2519E+00  0.1813E+02
      4.287  0.1905E-01  0.1814E+02
      4.492  0.1370E+00  0.1817E+02
      4.697  0.6113E+00  0.1829E+02
      4.902  0.8393E+00  0.1846E+02
      5.107  0.2068E+01  0.1889E+02
      5.313  0.1347E+01  0.1916E+02
      5.518  0.1953E+01  0.1957E+02
      5.723  0.6234E+00  0.1969E+02
      5.928  0.1152E+01  0.1993E+02
      6.133  0.1835E+01  0.2031E+02
      6.338  0.2235E+00  0.2035E+02
      6.543  0.1544E+01  0.2067E+02
      6.748  0.3010E+01  0.2128E+02
      6.953  0.3064E+01  0.2191E+02
      7.158  0.5582E+00  0.2203E+02
      7.363  0.5188E+00  0.2213E+02
      7.568  0.9263E+00  0.2232E+02
      7.773  0.1164E+01  0.2256E+02
      7.978  0.2558E+01  0.2309E+02
      8.183  0.2064E+01  0.2351E+02
      8.388  0.2285E+01  0.2398E+02
      8.593  0.3083E+01  0.2461E+02
      8.798  0.7203E+00  0.2476E+02
      9.003  0.3490E+01  0.2547E+02
      9.208  0.1239E+00  0.2550E+02
      9.413  0.5468E+00  0.2561E+02
      9.618  0.1079E+01  0.2583E+02
      9.823  0.1796E+00  0.2587E+02
     10.028  0.2011E+01  0.2628E+02
     10.233  0.1805E+01  0.2665E+02
     10.438  0.2092E+01  0.2708E+02
     10.644  0.1465E+01  0.2738E+02
     10.849  0.4046E+00  0.2746E+02
     11.054  0.7140E+00  0.2761E+02
     11.259  0.1079E+01  0.2783E+02
     11.464  0.3281E-02  0.2783E+02
     11.669  0.4593E-02  0.2783E+02
     11.874  0.1311E+00  0.2786E+02
     12.079  0.5399E+00  0.2797E+02
     12.284  0.1373E+00  0.2800E+02
     12.489  0.1427E-04  0.2800E+02
     12.694  0.0000E+00  0.2800E+02
     12.899  0.0000E+00  0.2800E+02
     13.104  0.0000E+00  0.2800E+02
     13.309  0.0000E+00  0.2800E+02
     13.514  0.0000E+00  0.2800E+02
     13.719  0.0000E+00  0.2800E+02
     13.924  0.0000E+00  0.2800E+02
     14.129  0.0000E+00  0.2800E+02
     14.334  0.0000E+00  0.2800E+02
     14.539  0.0000E+00  0.2800E+02
     14.744  0.0000E+00  0.2800E+02
     14.949  0.0000E+00  0.2800E+02
