       N       E                     dE             d eps       ncg     rms          rms(c)
DAV:   1    -0.177418998565E+01   -0.17742E+01   -0.68690E-11  8352   0.202E-04
DAV:   2    -0.177418998565E+01   -0.27285E-11   -0.32993E-11  8296   0.187E-04
DAV:   3    -0.177418998565E+01    0.40927E-11   -0.18426E-11  8204   0.123E-04
DAV:   4    -0.177418998566E+01   -0.11369E-10   -0.11401E-11  8120   0.110E-04
DAV:   5    -0.177418998565E+01    0.10914E-10   -0.70459E-12  8032   0.813E-05    0.408E-06
DAV:   6    -0.177418998536E+01    0.29149E-09   -0.54055E-12  7812   0.740E-05
   1 F= -.19981803E+01 E0= -.19981803E+01  d E =-.250387E-17  mag=     0.0000     0.0000     0.0000
 imaginary and real dielectric function
