   1   1   0   0
  0.2623385E+02  0.3242103E-09  0.3242103E-09  0.3242103E-09  0.1000000E-15
  1.000000000000000E-004
  CAR 
 Og_FCC                                  
    104.05598901    -13.68008168  301      1.24541811      1.00000000
    -13.680  0.0000E+00  0.0000E+00
    -13.288  0.0000E+00  0.0000E+00
    -12.895  0.0000E+00  0.0000E+00
    -12.503  0.0000E+00  0.0000E+00
    -12.110  0.0000E+00  0.0000E+00
    -11.718  0.0000E+00  0.0000E+00
    -11.325  0.0000E+00  0.0000E+00
    -10.933  0.0000E+00  0.0000E+00
    -10.540  0.0000E+00  0.0000E+00
    -10.148  0.0000E+00  0.0000E+00
     -9.756  0.0000E+00  0.0000E+00
     -9.363  0.0000E+00  0.0000E+00
     -8.971  0.0000E+00  0.0000E+00
     -8.578  0.0000E+00  0.0000E+00
     -8.186  0.0000E+00  0.9259E-02
     -7.793  0.5164E-03  0.3935E+01
     -7.401  0.0000E+00  0.4120E+01
     -7.008  0.0000E+00  0.4120E+01
     -6.616  0.0000E+00  0.4176E+01
     -6.223  0.0000E+00  0.4176E+01
     -5.831  0.0000E+00  0.4398E+01
     -5.439  0.0000E+00  0.4509E+01
     -5.046  0.0000E+00  0.4806E+01
     -4.654  0.0000E+00  0.5833E+01
     -4.261  0.1572E-01  0.7395E+01
     -3.869  0.0000E+00  0.8481E+01
     -3.476  0.1416E+00  0.9778E+01
     -3.084  0.0000E+00  0.1050E+02
     -2.691  0.0000E+00  0.1073E+02
     -2.299  0.0000E+00  0.1073E+02
     -1.906  0.0000E+00  0.1086E+02
     -1.514  0.0000E+00  0.1142E+02
     -1.122  0.1416E+00  0.1177E+02
     -0.729  0.0000E+00  0.1188E+02
     -0.337  0.0000E+00  0.1188E+02
      0.056  0.0000E+00  0.1199E+02
      0.448  0.0000E+00  0.1199E+02
      0.841  0.0000E+00  0.1199E+02
      1.233  0.0000E+00  0.1200E+02
      1.626  0.0000E+00  0.1200E+02
      2.018  0.0000E+00  0.1200E+02
      2.411  0.0000E+00  0.1200E+02
      2.803  0.0000E+00  0.1200E+02
      3.195  0.0000E+00  0.1200E+02
      3.588  0.0000E+00  0.1206E+02
      3.980  0.0000E+00  0.1206E+02
      4.373  0.0000E+00  0.1206E+02
      4.765  0.0000E+00  0.1217E+02
      5.158  0.0000E+00  0.1217E+02
      5.550  0.0000E+00  0.1261E+02
      5.943  0.0000E+00  0.1261E+02
      6.335  0.0000E+00  0.1281E+02
      6.728  0.0000E+00  0.1314E+02
      7.120  0.0000E+00  0.1321E+02
      7.512  0.0000E+00  0.1321E+02
      7.905  0.0000E+00  0.1332E+02
      8.297  0.0000E+00  0.1368E+02
      8.690  0.0000E+00  0.1368E+02
      9.082  0.0000E+00  0.1368E+02
      9.475  0.0000E+00  0.1368E+02
      9.867  0.0000E+00  0.1401E+02
     10.260  0.0000E+00  0.1423E+02
     10.652  0.0000E+00  0.1436E+02
     11.044  0.0000E+00  0.1436E+02
     11.437  0.0000E+00  0.1442E+02
     11.829  0.0000E+00  0.1494E+02
     12.222  0.0000E+00  0.1510E+02
     12.614  0.0000E+00  0.1532E+02
     13.007  0.0000E+00  0.1544E+02
     13.399  0.0000E+00  0.1584E+02
     13.792  0.0000E+00  0.1584E+02
     14.184  0.0000E+00  0.1584E+02
     14.577  0.0000E+00  0.1606E+02
     14.969  0.0000E+00  0.1629E+02
     15.361  0.0000E+00  0.1637E+02
     15.754  0.0000E+00  0.1704E+02
     16.146  0.0000E+00  0.1731E+02
     16.539  0.0000E+00  0.1737E+02
     16.931  0.0000E+00  0.1744E+02
     17.324  0.0000E+00  0.1778E+02
     17.716  0.0000E+00  0.1789E+02
     18.109  0.0000E+00  0.1806E+02
     18.501  0.0000E+00  0.1817E+02
     18.894  0.0000E+00  0.1844E+02
     19.286  0.0000E+00  0.1878E+02
     19.678  0.0000E+00  0.1897E+02
     20.071  0.0000E+00  0.1908E+02
     20.463  0.0000E+00  0.1942E+02
     20.856  0.1132E+01  0.1992E+02
     21.248  0.0000E+00  0.2025E+02
     21.641  0.0000E+00  0.2082E+02
     22.033  0.0000E+00  0.2144E+02
     22.426  0.0000E+00  0.2144E+02
     22.818  0.0000E+00  0.2212E+02
     23.211  0.0000E+00  0.2219E+02
     23.603  0.0000E+00  0.2276E+02
     23.995  0.0000E+00  0.2288E+02
     24.388  0.0000E+00  0.2374E+02
     24.780  0.0000E+00  0.2406E+02
     25.173  0.0000E+00  0.2417E+02
     25.565  0.0000E+00  0.2446E+02
     25.958  0.0000E+00  0.2524E+02
     26.350  0.0000E+00  0.2593E+02
     26.743  0.0000E+00  0.2627E+02
     27.135  0.0000E+00  0.2634E+02
     27.528  0.0000E+00  0.2679E+02
     27.920  0.0000E+00  0.2781E+02
     28.312  0.0000E+00  0.2815E+02
     28.705  0.0000E+00  0.2839E+02
     29.097  0.0000E+00  0.2878E+02
     29.490  0.0000E+00  0.2900E+02
     29.882  0.0000E+00  0.2934E+02
     30.275  0.0000E+00  0.3012E+02
     30.667  0.0000E+00  0.3040E+02
     31.060  0.0000E+00  0.3064E+02
     31.452  0.0000E+00  0.3144E+02
     31.845  0.1525E-01  0.3200E+02
     32.237  0.0000E+00  0.3262E+02
     32.629  0.0000E+00  0.3306E+02
     33.022  0.5681E-05  0.3373E+02
     33.414  0.0000E+00  0.3412E+02
     33.807  0.0000E+00  0.3451E+02
     34.199  0.0000E+00  0.3525E+02
     34.592  0.0000E+00  0.3526E+02
     34.984  0.0000E+00  0.3615E+02
     35.377  0.0000E+00  0.3660E+02
     35.769  0.0000E+00  0.3703E+02
     36.162  0.0000E+00  0.3710E+02
     36.554  0.0000E+00  0.3760E+02
     36.946  0.0000E+00  0.3817E+02
     37.339  0.0000E+00  0.3830E+02
     37.731  0.0000E+00  0.3887E+02
     38.124  0.0000E+00  0.3924E+02
     38.516  0.0000E+00  0.3935E+02
     38.909  0.0000E+00  0.3988E+02
     39.301  0.0000E+00  0.4066E+02
     39.694  0.0000E+00  0.4077E+02
     40.086  0.5662E+00  0.4175E+02
     40.479  0.0000E+00  0.4205E+02
     40.871  0.0000E+00  0.4305E+02
     41.263  0.0000E+00  0.4310E+02
     41.656  0.1360E+00  0.4373E+02
     42.048  0.0000E+00  0.4464E+02
     42.441  0.0000E+00  0.4487E+02
     42.833  0.0000E+00  0.4543E+02
     43.226  0.0000E+00  0.4570E+02
     43.618  0.1416E+00  0.4587E+02
     44.011  0.0000E+00  0.4694E+02
     44.403  0.0000E+00  0.4717E+02
     44.796  0.0000E+00  0.4761E+02
     45.188  0.0000E+00  0.4806E+02
     45.580  0.0000E+00  0.4891E+02
     45.973  0.0000E+00  0.4980E+02
     46.365  0.0000E+00  0.5020E+02
     46.758  0.0000E+00  0.5031E+02
     47.150  0.0000E+00  0.5126E+02
     47.543  0.0000E+00  0.5167E+02
     47.935  0.0000E+00  0.5196E+02
     48.328  0.0000E+00  0.5219E+02
     48.720  0.0000E+00  0.5229E+02
     49.112  0.0000E+00  0.5344E+02
     49.505  0.0000E+00  0.5401E+02
     49.897  0.0000E+00  0.5494E+02
     50.290  0.0000E+00  0.5521E+02
     50.682  0.0000E+00  0.5553E+02
     51.075  0.0000E+00  0.5597E+02
     51.467  0.0000E+00  0.5642E+02
     51.860  0.0000E+00  0.5675E+02
     52.252  0.1132E+01  0.5814E+02
     52.645  0.0000E+00  0.5861E+02
     53.037  0.0000E+00  0.5908E+02
     53.429  0.0000E+00  0.5942E+02
     53.822  0.0000E+00  0.6014E+02
     54.214  0.0000E+00  0.6050E+02
     54.607  0.0000E+00  0.6067E+02
     54.999  0.0000E+00  0.6090E+02
     55.392  0.0000E+00  0.6131E+02
     55.784  0.0000E+00  0.6201E+02
     56.177  0.0000E+00  0.6307E+02
     56.569  0.1490E+00  0.6397E+02
     56.962  0.0000E+00  0.6481E+02
     57.354  0.0000E+00  0.6565E+02
     57.746  0.2831E+00  0.6605E+02
     58.139  0.0000E+00  0.6622E+02
     58.531  0.5662E+00  0.6691E+02
     58.924  0.0000E+00  0.6743E+02
     59.316  0.0000E+00  0.6785E+02
     59.709  0.0000E+00  0.6841E+02
     60.101  0.0000E+00  0.6893E+02
     60.494  0.0000E+00  0.6959E+02
     60.886  0.0000E+00  0.7026E+02
     61.279  0.0000E+00  0.7050E+02
     61.671  0.0000E+00  0.7157E+02
     62.063  0.0000E+00  0.7181E+02
     62.456  0.0000E+00  0.7256E+02
     62.848  0.0000E+00  0.7285E+02
     63.241  0.0000E+00  0.7359E+02
     63.633  0.0000E+00  0.7449E+02
     64.026  0.6195E-02  0.7455E+02
     64.418  0.0000E+00  0.7490E+02
     64.811  0.2828E+00  0.7575E+02
     65.203  0.0000E+00  0.7636E+02
     65.596  0.0000E+00  0.7669E+02
     65.988  0.0000E+00  0.7703E+02
     66.380  0.4619E-01  0.7829E+02
     66.773  0.0000E+00  0.7864E+02
     67.165  0.2830E+00  0.7958E+02
     67.558  0.0000E+00  0.7992E+02
     67.950  0.0000E+00  0.8131E+02
     68.343  0.0000E+00  0.8155E+02
     68.735  0.0000E+00  0.8166E+02
     69.128  0.0000E+00  0.8267E+02
     69.520  0.0000E+00  0.8396E+02
     69.913  0.2784E+00  0.8466E+02
     70.305  0.0000E+00  0.8535E+02
     70.697  0.0000E+00  0.8564E+02
     71.090  0.0000E+00  0.8581E+02
     71.482  0.0000E+00  0.8654E+02
     71.875  0.0000E+00  0.8724E+02
     72.267  0.1416E+00  0.8804E+02
     72.660  0.0000E+00  0.8857E+02
     73.052  0.2831E+00  0.8876E+02
     73.445  0.0000E+00  0.8877E+02
     73.837  0.0000E+00  0.8899E+02
     74.230  0.0000E+00  0.8969E+02
     74.622  0.0000E+00  0.9019E+02
     75.014  0.0000E+00  0.9091E+02
     75.407  0.0000E+00  0.9169E+02
     75.799  0.0000E+00  0.9274E+02
     76.192  0.1416E+00  0.9298E+02
     76.584  0.0000E+00  0.9406E+02
     76.977  0.0000E+00  0.9545E+02
     77.369  0.0000E+00  0.9618E+02
     77.762  0.8019E-06  0.9669E+02
     78.154  0.0000E+00  0.9745E+02
     78.547  0.0000E+00  0.9773E+02
     78.939  0.0000E+00  0.9829E+02
     79.331  0.3830E-01  0.9877E+02
     79.724  0.2830E+00  0.9972E+02
     80.116  0.2831E+00  0.9993E+02
     80.509  0.0000E+00  0.1014E+03
     80.901  0.0000E+00  0.1020E+03
     81.294  0.0000E+00  0.1030E+03
     81.686  0.0000E+00  0.1039E+03
     82.079  0.0000E+00  0.1041E+03
     82.471  0.5312E-07  0.1049E+03
     82.863  0.0000E+00  0.1053E+03
     83.256  0.0000E+00  0.1061E+03
     83.648  0.0000E+00  0.1069E+03
     84.041  0.0000E+00  0.1072E+03
     84.433  0.0000E+00  0.1072E+03
     84.826  0.0000E+00  0.1076E+03
     85.218  0.0000E+00  0.1077E+03
     85.611  0.0000E+00  0.1080E+03
     86.003  0.0000E+00  0.1092E+03
     86.396  0.0000E+00  0.1104E+03
     86.788  0.0000E+00  0.1116E+03
     87.180  0.0000E+00  0.1125E+03
     87.573  0.0000E+00  0.1132E+03
     87.965  0.0000E+00  0.1134E+03
     88.358  0.0000E+00  0.1139E+03
     88.750  0.0000E+00  0.1148E+03
     89.143  0.0000E+00  0.1152E+03
     89.535  0.0000E+00  0.1159E+03
     89.928  0.1314E-02  0.1163E+03
     90.320  0.0000E+00  0.1174E+03
     90.713  0.0000E+00  0.1181E+03
     91.105  0.0000E+00  0.1190E+03
     91.497  0.0000E+00  0.1201E+03
     91.890  0.0000E+00  0.1212E+03
     92.282  0.5662E+00  0.1225E+03
     92.675  0.0000E+00  0.1231E+03
     93.067  0.2831E+00  0.1252E+03
     93.460  0.0000E+00  0.1258E+03
     93.852  0.0000E+00  0.1260E+03
     94.245  0.0000E+00  0.1265E+03
     94.637  0.0000E+00  0.1265E+03
     95.030  0.0000E+00  0.1274E+03
     95.422  0.0000E+00  0.1276E+03
     95.814  0.5662E+00  0.1278E+03
     96.207  0.0000E+00  0.1278E+03
     96.599  0.0000E+00  0.1278E+03
     96.992  0.0000E+00  0.1278E+03
     97.384  0.0000E+00  0.1279E+03
     97.777  0.0000E+00  0.1279E+03
     98.169  0.0000E+00  0.1279E+03
     98.562  0.0000E+00  0.1279E+03
     98.954  0.0000E+00  0.1280E+03
     99.347  0.0000E+00  0.1280E+03
     99.739  0.0000E+00  0.1280E+03
    100.131  0.0000E+00  0.1280E+03
    100.524  0.0000E+00  0.1280E+03
    100.916  0.0000E+00  0.1280E+03
    101.309  0.0000E+00  0.1280E+03
    101.701  0.0000E+00  0.1280E+03
    102.094  0.0000E+00  0.1280E+03
    102.486  0.0000E+00  0.1280E+03
    102.879  0.0000E+00  0.1280E+03
    103.271  0.0000E+00  0.1280E+03
    103.664  0.0000E+00  0.1280E+03
    104.056  0.0000E+00  0.1280E+03
