    1    1    1    1
  0.2623385E+02  0.3242103E-09  0.3242103E-09  0.3242103E-09  0.1000000E-15
  1.000000000000000E-004
  CAR 
 Og_FCC                                  
     12    216    128
 
  0.0000000E+00  0.0000000E+00  0.0000000E+00  0.4629630E-02
    1       -8.328442   1.000000
    2       -8.328433   1.000000
    3       -8.030420   1.000000
    4       -8.030417   1.000000
    5       -8.030397   1.000000
    6       -8.030382   1.000000
    7       -4.686979   1.000000
    8       -4.686973   1.000000
    9       -3.961147   1.000000
   10       -3.961118   1.000000
   11       -3.961105   1.000000
   12       -3.961080   1.000000
   13       15.326450   0.000000
   14       15.326458   0.000000
   15       19.452989   0.000000
   16       19.453021   0.000000
   17       19.453075   0.000000
   18       19.453076   0.000000
   19       19.471217   0.000000
   20       19.471236   0.000000
   21       23.679858   0.000000
   22       23.679876   0.000000
   23       24.143266   0.000000
   24       24.143286   0.000000
   25       23.588665   0.000000
   26       23.588665   0.000000
   27       24.741019   0.000000
   28       24.741019   0.000000
   29       24.741090   0.000000
   30       24.741090   0.000000
   31       28.421281   0.000000
   32       28.421281   0.000000
   33       28.421337   0.000000
   34       28.421337   0.000000
   35       29.730105   0.000000
   36       29.730105   0.000000
   37       35.163118   0.000000
   38       35.163118   0.000000
   39       37.269721   0.000000
   40       37.269721   0.000000
   41       37.269929   0.000000
   42       37.269929   0.000000
   43       42.393964   0.000000
   44       42.393964   0.000000
   45       43.740285   0.000000
   46       43.740285   0.000000
   47       48.671005   0.000000
   48       48.671005   0.000000
   49       48.671016   0.000000
   50       48.671016   0.000000
   51       52.508202   0.000000
   52       52.508202   0.000000
   53       52.508202   0.000000
   54       52.508202   0.000000
   55       52.508404   0.000000
   56       52.508404   0.000000
   57       54.773239   0.000000
   58       54.773239   0.000000
   59       55.710071   0.000000
   60       55.710071   0.000000
   61       55.710416   0.000000
   62       55.710416   0.000000
   63       57.601041   0.000000
   64       57.601041   0.000000
   65       57.601041   0.000000
   66       57.601041   0.000000
   67       57.601251   0.000000
   68       57.601251   0.000000
   69       57.977297   0.000000
   70       57.977297   0.000000
   71       57.977565   0.000000
   72       57.977565   0.000000
   73       58.012769   0.000000
   74       58.012769   0.000000
   75       60.939872   0.000000
   76       60.939872   0.000000
   77       60.939872   0.000000
   78       60.939872   0.000000
   79       68.959446   0.000000
   80       68.959446   0.000000
   81       71.751304   0.000000
   82       71.751304   0.000000
   83       71.751662   0.000000
   84       71.751662   0.000000
   85       72.833956   0.000000
   86       72.833956   0.000000
   87       72.834296   0.000000
   88       72.834296   0.000000
   89       73.129546   0.000000
   90       73.129546   0.000000
   91       74.217628   0.000000
   92       74.217628   0.000000
   93       74.218161   0.000000
   94       74.218161   0.000000
   95       74.318298   0.000000
   96       74.318298   0.000000
   97       74.318299   0.000000
   98       74.318299   0.000000
   99       74.319182   0.000000
  100       74.319182   0.000000
  101       76.410746   0.000000
  102       76.410746   0.000000
  103       79.102258   0.000000
  104       79.102258   0.000000
  105       79.102315   0.000000
  106       79.102315   0.000000
  107       82.698385   0.000000
  108       82.698385   0.000000
  109       84.208468   0.000000
  110       84.208468   0.000000
  111       84.208497   0.000000
  112       84.208498   0.000000
  113       87.237359   0.000000
  114       87.237359   0.000000
  115       92.480451   0.000000
  116       92.480451   0.000000
  117       95.049083   0.000000
  118       95.049083   0.000000
  119       95.049304   0.000000
  120       95.049304   0.000000
  121       95.603281   0.000000
  122       95.603281   0.000000
  123       95.707563   0.000000
  124       95.707563   0.000000
  125       96.229611   0.000000
  126       96.229611   0.000000
  127       96.229706   0.000000
  128       96.229706   0.000000
 
  0.1666667E+00  0.0000000E+00  0.0000000E+00  0.4629630E-02
    1       -8.065056   1.000000
    2       -8.065042   1.000000
    3       -8.015560   1.000000
    4       -8.015553   1.000000
    5       -7.446155   1.000000
    6       -7.446148   1.000000
    7       -4.542321   1.000000
    8       -4.542306   1.000000
    9       -4.107114   1.000000
   10       -4.107089   1.000000
   11       -3.847049   1.000000
   12       -3.847030   1.000000
   13       12.945940   0.000000
   14       12.945951   0.000000
   15       17.838514   0.000000
   16       17.838522   0.000000
   17       19.206584   0.000000
   18       19.206598   0.000000
   19       19.763609   0.000000
   20       19.763617   0.000000
   21       20.143066   0.000000
   22       20.143089   0.000000
   23       21.953845   0.000000
   24       21.953865   0.000000
   25       25.848027   0.000000
   26       25.848027   0.000000
   27       26.239394   0.000000
   28       26.239394   0.000000
   29       27.263894   0.000000
   30       27.263894   0.000000
   31       28.787959   0.000000
   32       28.787959   0.000000
   33       29.562101   0.000000
   34       29.562101   0.000000
   35       31.767963   0.000000
   36       31.767963   0.000000
   37       34.946690   0.000000
   38       34.946690   0.000000
   39       36.526728   0.000000
   40       36.526728   0.000000
   41       38.542407   0.000000
   42       38.542407   0.000000
   43       44.455712   0.000000
   44       44.455712   0.000000
   45       44.635408   0.000000
   46       44.635408   0.000000
   47       45.476543   0.000000
   48       45.476543   0.000000
   49       46.741671   0.000000
   50       46.741671   0.000000
   51       47.567147   0.000000
   52       47.567147   0.000000
   53       50.137149   0.000000
   54       50.137149   0.000000
   55       51.919863   0.000000
   56       51.919863   0.000000
   57       53.236442   0.000000
   58       53.236442   0.000000
   59       55.692141   0.000000
   60       55.692141   0.000000
   61       55.735006   0.000000
   62       55.735006   0.000000
   63       56.368872   0.000000
   64       56.368872   0.000000
   65       57.744073   0.000000
   66       57.744073   0.000000
   67       59.448468   0.000000
   68       59.448468   0.000000
   69       59.875584   0.000000
   70       59.875584   0.000000
   71       60.647110   0.000000
   72       60.647110   0.000000
   73       62.877858   0.000000
   74       62.877858   0.000000
   75       64.808522   0.000000
   76       64.808522   0.000000
   77       65.249423   0.000000
   78       65.249423   0.000000
   79       67.162932   0.000000
   80       67.162932   0.000000
   81       67.444406   0.000000
   82       67.444406   0.000000
   83       67.794405   0.000000
   84       67.794405   0.000000
   85       68.408119   0.000000
   86       68.408119   0.000000
   87       69.072025   0.000000
   88       69.072025   0.000000
   89       71.210447   0.000000
   90       71.210447   0.000000
   91       71.370814   0.000000
   92       71.370814   0.000000
   93       75.137056   0.000000
   94       75.137057   0.000000
   95       75.488183   0.000000
   96       75.488183   0.000000
   97       78.294428   0.000000
   98       78.294428   0.000000
   99       80.270055   0.000000
  100       80.270055   0.000000
  101       81.009533   0.000000
  102       81.009533   0.000000
  103       81.165310   0.000000
  104       81.165310   0.000000
  105       83.019402   0.000000
  106       83.019402   0.000000
  107       83.988835   0.000000
  108       83.988835   0.000000
  109       86.046887   0.000000
  110       86.046887   0.000000
  111       86.155410   0.000000
  112       86.155410   0.000000
  113       86.701508   0.000000
  114       86.701509   0.000000
  115       87.118960   0.000000
  116       87.118960   0.000000
  117       88.200923   0.000000
  118       88.200923   0.000000
  119       91.476522   0.000000
  120       91.476522   0.000000
  121       92.559216   0.000000
  122       92.559216   0.000000
  123       92.623179   0.000000
  124       92.623179   0.000000
  125       93.062944   0.000000
  126       93.062944   0.000000
  127       94.922222   0.000000
  128       94.922222   0.000000
 
  0.3333333E+00  0.2775558E-16 -0.2775558E-16  0.4629630E-02
    1       -8.102159   1.000000
    2       -8.102148   1.000000
    3       -8.051190   1.000000
    4       -8.051179   1.000000
    5       -5.522396   1.000000
    6       -5.522386   1.000000
    7       -4.457539   1.000000
    8       -4.457520   1.000000
    9       -3.454822   1.000000
   10       -3.454802   1.000000
   11       -3.424057   1.000000
   12       -3.424033   1.000000
   13        7.555451   0.000000
   14        7.555466   0.000000
   15       14.594033   0.000000
   16       14.594049   0.000000
   17       17.093315   0.000000
   18       17.093331   0.000000
   19       19.366770   0.000000
   20       19.366794   0.000000
   21       21.426099   0.000000
   22       21.426119   0.000000
   23       23.627912   0.000000
   24       23.627941   0.000000
   25       24.147523   0.000000
   26       24.147523   0.000000
   27       28.595273   0.000000
   28       28.595273   0.000000
   29       29.541379   0.000000
   30       29.541379   0.000000
   31       30.905626   0.000000
   32       30.905626   0.000000
   33       31.483797   0.000000
   34       31.483797   0.000000
   35       33.024953   0.000000
   36       33.024953   0.000000
   37       34.898517   0.000000
   38       34.898517   0.000000
   39       38.818920   0.000000
   40       38.818920   0.000000
   41       40.285813   0.000000
   42       40.285813   0.000000
   43       40.833561   0.000000
   44       40.833561   0.000000
   45       41.717130   0.000000
   46       41.717130   0.000000
   47       42.595096   0.000000
   48       42.595096   0.000000
   49       43.701382   0.000000
   50       43.701382   0.000000
   51       49.268583   0.000000
   52       49.268583   0.000000
   53       49.876845   0.000000
   54       49.876845   0.000000
   55       52.043143   0.000000
   56       52.043143   0.000000
   57       52.401779   0.000000
   58       52.401779   0.000000
   59       55.561113   0.000000
   60       55.561113   0.000000
   61       55.820050   0.000000
   62       55.820050   0.000000
   63       56.894676   0.000000
   64       56.894676   0.000000
   65       57.509592   0.000000
   66       57.509592   0.000000
   67       58.720229   0.000000
   68       58.720229   0.000000
   69       60.563541   0.000000
   70       60.563541   0.000000
   71       61.371674   0.000000
   72       61.371674   0.000000
   73       62.337305   0.000000
   74       62.337305   0.000000
   75       63.112558   0.000000
   76       63.112558   0.000000
   77       66.207044   0.000000
   78       66.207044   0.000000
   79       66.269581   0.000000
   80       66.269581   0.000000
   81       66.717451   0.000000
   82       66.717451   0.000000
   83       67.063602   0.000000
   84       67.063602   0.000000
   85       71.665311   0.000000
   86       71.665311   0.000000
   87       72.405666   0.000000
   88       72.405666   0.000000
   89       74.396507   0.000000
   90       74.396507   0.000000
   91       75.741796   0.000000
   92       75.741796   0.000000
   93       76.688441   0.000000
   94       76.688441   0.000000
   95       77.807946   0.000000
   96       77.807946   0.000000
   97       78.238180   0.000000
   98       78.238180   0.000000
   99       79.269959   0.000000
  100       79.269959   0.000000
  101       79.536463   0.000000
  102       79.536463   0.000000
  103       79.721564   0.000000
  104       79.721564   0.000000
  105       80.109108   0.000000
  106       80.109108   0.000000
  107       80.700176   0.000000
  108       80.700176   0.000000
  109       81.164598   0.000000
  110       81.164598   0.000000
  111       82.947481   0.000000
  112       82.947481   0.000000
  113       89.154016   0.000000
  114       89.154016   0.000000
  115       89.257677   0.000000
  116       89.257677   0.000000
  117       89.542052   0.000000
  118       89.542052   0.000000
  119       89.929402   0.000000
  120       89.929402   0.000000
  121       90.826743   0.000000
  122       90.826743   0.000000
  123       91.644586   0.000000
  124       91.644586   0.000000
  125       92.919651   0.000000
  126       92.919651   0.000000
  127       94.971113   0.000000
  128       94.971113   0.000000
 
  0.5000000E+00  0.0000000E+00  0.0000000E+00  0.4629630E-02
    1       -8.142391   1.000000
    2       -8.142377   1.000000
    3       -8.105169   1.000000
    4       -8.105154   1.000000
    5       -4.898322   1.000000
    6       -4.898299   1.000000
    7       -4.491211   1.000000
    8       -4.491190   1.000000
    9       -3.121108   1.000000
   10       -3.121086   1.000000
   11       -1.127935   1.000000
   12       -1.127913   1.000000
   13        3.533252   0.000000
   14        3.533261   0.000000
   15       13.346632   0.000000
   16       13.346652   0.000000
   17       15.942506   0.000000
   18       15.942521   0.000000
   19       19.476484   0.000000
   20       19.476501   0.000000
   21       21.996516   0.000000
   22       21.996528   0.000000
   23       24.139118   0.000000
   24       24.139165   0.000000
   25       25.183478   0.000000
   26       25.183478   0.000000
   27       29.337956   0.000000
   28       29.337956   0.000000
   29       30.507190   0.000000
   30       30.507190   0.000000
   31       30.569750   0.000000
   32       30.569750   0.000000
   33       32.780630   0.000000
   34       32.780630   0.000000
   35       33.098474   0.000000
   36       33.098474   0.000000
   37       36.117676   0.000000
   38       36.117676   0.000000
   39       37.457683   0.000000
   40       37.457683   0.000000
   41       39.730680   0.000000
   42       39.730680   0.000000
   43       40.062808   0.000000
   44       40.062808   0.000000
   45       41.562830   0.000000
   46       41.562830   0.000000
   47       42.188778   0.000000
   48       42.188778   0.000000
   49       43.555164   0.000000
   50       43.555164   0.000000
   51       46.798535   0.000000
   52       46.798535   0.000000
   53       51.983600   0.000000
   54       51.983600   0.000000
   55       52.056345   0.000000
   56       52.056345   0.000000
   57       53.467987   0.000000
   58       53.467987   0.000000
   59       54.101774   0.000000
   60       54.101774   0.000000
   61       54.690275   0.000000
   62       54.690275   0.000000
   63       56.123826   0.000000
   64       56.123826   0.000000
   65       56.200940   0.000000
   66       56.200940   0.000000
   67       59.140121   0.000000
   68       59.140121   0.000000
   69       61.471111   0.000000
   70       61.471111   0.000000
   71       62.124274   0.000000
   72       62.124274   0.000000
   73       63.764467   0.000000
   74       63.764467   0.000000
   75       65.187369   0.000000
   76       65.187369   0.000000
   77       67.456783   0.000000
   78       67.456783   0.000000
   79       67.673227   0.000000
   80       67.673227   0.000000
   81       68.174676   0.000000
   82       68.174676   0.000000
   83       69.775584   0.000000
   84       69.775584   0.000000
   85       70.365532   0.000000
   86       70.365532   0.000000
   87       70.775630   0.000000
   88       70.775630   0.000000
   89       71.147509   0.000000
   90       71.147509   0.000000
   91       72.261355   0.000000
   92       72.261355   0.000000
   93       72.437410   0.000000
   94       72.437410   0.000000
   95       72.677826   0.000000
   96       72.677826   0.000000
   97       76.754310   0.000000
   98       76.754310   0.000000
   99       78.964067   0.000000
  100       78.964067   0.000000
  101       79.152974   0.000000
  102       79.152974   0.000000
  103       80.910000   0.000000
  104       80.910000   0.000000
  105       85.700147   0.000000
  106       85.700147   0.000000
  107       86.236631   0.000000
  108       86.236631   0.000000
  109       86.425996   0.000000
  110       86.425996   0.000000
  111       86.721024   0.000000
  112       86.721024   0.000000
  113       88.260993   0.000000
  114       88.260993   0.000000
  115       89.482714   0.000000
  116       89.482714   0.000000
  117       89.953898   0.000000
  118       89.953898   0.000000
  119       90.467724   0.000000
  120       90.467724   0.000000
  121       91.242045   0.000000
  122       91.242045   0.000000
  123       92.744805   0.000000
  124       92.744805   0.000000
  125       92.837911   0.000000
  126       92.837911   0.000000
  127       94.174658   0.000000
  128       94.174658   0.000000
 
 -0.3333333E+00 -0.2775558E-16  0.2775558E-16  0.4629630E-02
    1       -8.102142   1.000000
    2       -8.102130   1.000000
    3       -8.051169   1.000000
    4       -8.051157   1.000000
    5       -5.522386   1.000000
    6       -5.522376   1.000000
    7       -4.457529   1.000000
    8       -4.457510   1.000000
    9       -3.454787   1.000000
   10       -3.454767   1.000000
   11       -3.424040   1.000000
   12       -3.424016   1.000000
   13        7.555459   0.000000
   14        7.555474   0.000000
   15       14.594038   0.000000
   16       14.594054   0.000000
   17       17.093319   0.000000
   18       17.093335   0.000000
   19       19.366773   0.000000
   20       19.366796   0.000000
   21       21.426101   0.000000
   22       21.426120   0.000000
   23       23.627913   0.000000
   24       23.627942   0.000000
   25       24.147523   0.000000
   26       24.147523   0.000000
   27       28.595273   0.000000
   28       28.595273   0.000000
   29       29.541379   0.000000
   30       29.541379   0.000000
   31       30.905626   0.000000
   32       30.905626   0.000000
   33       31.483797   0.000000
   34       31.483797   0.000000
   35       33.024953   0.000000
   36       33.024953   0.000000
   37       34.898517   0.000000
   38       34.898517   0.000000
   39       38.818920   0.000000
   40       38.818920   0.000000
   41       40.285813   0.000000
   42       40.285813   0.000000
   43       40.833561   0.000000
   44       40.833561   0.000000
   45       41.717130   0.000000
   46       41.717130   0.000000
   47       42.595096   0.000000
   48       42.595096   0.000000
   49       43.701382   0.000000
   50       43.701382   0.000000
   51       49.268583   0.000000
   52       49.268583   0.000000
   53       49.876845   0.000000
   54       49.876845   0.000000
   55       52.043143   0.000000
   56       52.043143   0.000000
   57       52.401779   0.000000
   58       52.401779   0.000000
   59       55.561113   0.000000
   60       55.561113   0.000000
   61       55.820050   0.000000
   62       55.820050   0.000000
   63       56.894676   0.000000
   64       56.894676   0.000000
   65       57.509592   0.000000
   66       57.509592   0.000000
   67       58.720229   0.000000
   68       58.720229   0.000000
   69       60.563541   0.000000
   70       60.563541   0.000000
   71       61.371674   0.000000
   72       61.371674   0.000000
   73       62.337305   0.000000
   74       62.337305   0.000000
   75       63.112558   0.000000
   76       63.112558   0.000000
   77       66.207044   0.000000
   78       66.207044   0.000000
   79       66.269581   0.000000
   80       66.269581   0.000000
   81       66.717451   0.000000
   82       66.717451   0.000000
   83       67.063602   0.000000
   84       67.063602   0.000000
   85       71.665311   0.000000
   86       71.665311   0.000000
   87       72.405666   0.000000
   88       72.405666   0.000000
   89       74.396507   0.000000
   90       74.396507   0.000000
   91       75.741796   0.000000
   92       75.741796   0.000000
   93       76.688441   0.000000
   94       76.688441   0.000000
   95       77.807946   0.000000
   96       77.807946   0.000000
   97       78.238180   0.000000
   98       78.238180   0.000000
   99       79.269959   0.000000
  100       79.269959   0.000000
  101       79.536463   0.000000
  102       79.536463   0.000000
  103       79.721564   0.000000
  104       79.721564   0.000000
  105       80.109108   0.000000
  106       80.109108   0.000000
  107       80.700176   0.000000
  108       80.700176   0.000000
  109       81.164598   0.000000
  110       81.164598   0.000000
  111       82.947481   0.000000
  112       82.947481   0.000000
  113       89.154016   0.000000
  114       89.154016   0.000000
  115       89.257677   0.000000
  116       89.257677   0.000000
  117       89.542052   0.000000
  118       89.542052   0.000000
  119       89.929402   0.000000
  120       89.929402   0.000000
  121       90.826743   0.000000
  122       90.826743   0.000000
  123       91.644586   0.000000
  124       91.644586   0.000000
  125       92.919651   0.000000
  126       92.919651   0.000000
  127       94.971113   0.000000
  128       94.971113   0.000000
 
 -0.1666667E+00  0.0000000E+00  0.0000000E+00  0.4629630E-02
    1       -8.065049   1.000000
    2       -8.065037   1.000000
    3       -8.015548   1.000000
    4       -8.015541   1.000000
    5       -7.446156   1.000000
    6       -7.446147   1.000000
    7       -4.542312   1.000000
    8       -4.542308   1.000000
    9       -4.107100   1.000000
   10       -4.107080   1.000000
   11       -3.847038   1.000000
   12       -3.847017   1.000000
   13       12.945944   0.000000
   14       12.945956   0.000000
   15       17.838515   0.000000
   16       17.838524   0.000000
   17       19.206586   0.000000
   18       19.206598   0.000000
   19       19.763611   0.000000
   20       19.763618   0.000000
   21       20.143065   0.000000
   22       20.143089   0.000000
   23       21.953846   0.000000
   24       21.953867   0.000000
   25       25.848027   0.000000
   26       25.848027   0.000000
   27       26.239394   0.000000
   28       26.239394   0.000000
   29       27.263894   0.000000
   30       27.263894   0.000000
   31       28.787959   0.000000
   32       28.787959   0.000000
   33       29.562101   0.000000
   34       29.562101   0.000000
   35       31.767963   0.000000
   36       31.767963   0.000000
   37       34.946690   0.000000
   38       34.946690   0.000000
   39       36.526728   0.000000
   40       36.526728   0.000000
   41       38.542407   0.000000
   42       38.542407   0.000000
   43       44.455712   0.000000
   44       44.455712   0.000000
   45       44.635408   0.000000
   46       44.635408   0.000000
   47       45.476543   0.000000
   48       45.476543   0.000000
   49       46.741671   0.000000
   50       46.741671   0.000000
   51       47.567147   0.000000
   52       47.567147   0.000000
   53       50.137149   0.000000
   54       50.137149   0.000000
   55       51.919863   0.000000
   56       51.919863   0.000000
   57       53.236442   0.000000
   58       53.236442   0.000000
   59       55.692141   0.000000
   60       55.692141   0.000000
   61       55.735006   0.000000
   62       55.735006   0.000000
   63       56.368872   0.000000
   64       56.368872   0.000000
   65       57.744073   0.000000
   66       57.744073   0.000000
   67       59.448468   0.000000
   68       59.448468   0.000000
   69       59.875584   0.000000
   70       59.875584   0.000000
   71       60.647110   0.000000
   72       60.647110   0.000000
   73       62.877858   0.000000
   74       62.877858   0.000000
   75       64.808522   0.000000
   76       64.808522   0.000000
   77       65.249423   0.000000
   78       65.249423   0.000000
   79       67.162932   0.000000
   80       67.162932   0.000000
   81       67.444406   0.000000
   82       67.444406   0.000000
   83       67.794405   0.000000
   84       67.794405   0.000000
   85       68.408119   0.000000
   86       68.408119   0.000000
   87       69.072025   0.000000
   88       69.072025   0.000000
   89       71.210447   0.000000
   90       71.210447   0.000000
   91       71.370814   0.000000
   92       71.370814   0.000000
   93       75.137056   0.000000
   94       75.137057   0.000000
   95       75.488183   0.000000
   96       75.488183   0.000000
   97       78.294428   0.000000
   98       78.294428   0.000000
   99       80.270055   0.000000
  100       80.270055   0.000000
  101       81.009533   0.000000
  102       81.009533   0.000000
  103       81.165310   0.000000
  104       81.165310   0.000000
  105       83.019402   0.000000
  106       83.019402   0.000000
  107       83.988835   0.000000
  108       83.988835   0.000000
  109       86.046887   0.000000
  110       86.046887   0.000000
  111       86.155410   0.000000
  112       86.155410   0.000000
  113       86.701508   0.000000
  114       86.701509   0.000000
  115       87.118960   0.000000
  116       87.118960   0.000000
  117       88.200923   0.000000
  118       88.200923   0.000000
  119       91.476522   0.000000
  120       91.476522   0.000000
  121       92.559216   0.000000
  122       92.559216   0.000000
  123       92.623179   0.000000
  124       92.623179   0.000000
  125       93.062944   0.000000
  126       93.062944   0.000000
  127       94.922222   0.000000
  128       94.922222   0.000000
 
  0.0000000E+00  0.1666667E+00  0.1387779E-16  0.4629630E-02
    1       -8.065056   1.000000
    2       -8.065047   1.000000
    3       -8.015558   1.000000
    4       -8.015549   1.000000
    5       -7.446165   1.000000
    6       -7.446158   1.000000
    7       -4.542320   1.000000
    8       -4.542313   1.000000
    9       -4.107109   1.000000
   10       -4.107092   1.000000
   11       -3.847051   1.000000
   12       -3.847030   1.000000
   13       12.945944   0.000000
   14       12.945953   0.000000
   15       17.838515   0.000000
   16       17.838524   0.000000
   17       19.206586   0.000000
   18       19.206598   0.000000
   19       19.763611   0.000000
   20       19.763620   0.000000
   21       20.143066   0.000000
   22       20.143089   0.000000
   23       21.953844   0.000000
   24       21.953866   0.000000
   25       25.848027   0.000000
   26       25.848027   0.000000
   27       26.239394   0.000000
   28       26.239394   0.000000
   29       27.263894   0.000000
   30       27.263894   0.000000
   31       28.787959   0.000000
   32       28.787959   0.000000
   33       29.562101   0.000000
   34       29.562101   0.000000
   35       31.767963   0.000000
   36       31.767963   0.000000
   37       34.946690   0.000000
   38       34.946690   0.000000
   39       36.526728   0.000000
   40       36.526728   0.000000
   41       38.542407   0.000000
   42       38.542407   0.000000
   43       44.455712   0.000000
   44       44.455712   0.000000
   45       44.635408   0.000000
   46       44.635408   0.000000
   47       45.476543   0.000000
   48       45.476543   0.000000
   49       46.741671   0.000000
   50       46.741671   0.000000
   51       47.567147   0.000000
   52       47.567147   0.000000
   53       50.137149   0.000000
   54       50.137149   0.000000
   55       51.919863   0.000000
   56       51.919863   0.000000
   57       53.236442   0.000000
   58       53.236442   0.000000
   59       55.692141   0.000000
   60       55.692141   0.000000
   61       55.735006   0.000000
   62       55.735006   0.000000
   63       56.368872   0.000000
   64       56.368872   0.000000
   65       57.744073   0.000000
   66       57.744073   0.000000
   67       59.448468   0.000000
   68       59.448468   0.000000
   69       59.875584   0.000000
   70       59.875584   0.000000
   71       60.647110   0.000000
   72       60.647110   0.000000
   73       62.877858   0.000000
   74       62.877858   0.000000
   75       64.808522   0.000000
   76       64.808522   0.000000
   77       65.249423   0.000000
   78       65.249424   0.000000
   79       67.162932   0.000000
   80       67.162932   0.000000
   81       67.444406   0.000000
   82       67.444406   0.000000
   83       67.794405   0.000000
   84       67.794405   0.000000
   85       68.408119   0.000000
   86       68.408119   0.000000
   87       69.072025   0.000000
   88       69.072025   0.000000
   89       71.210447   0.000000
   90       71.210447   0.000000
   91       71.370814   0.000000
   92       71.370814   0.000000
   93       75.137056   0.000000
   94       75.137057   0.000000
   95       75.488183   0.000000
   96       75.488183   0.000000
   97       78.294428   0.000000
   98       78.294428   0.000000
   99       80.270055   0.000000
  100       80.270055   0.000000
  101       81.009533   0.000000
  102       81.009533   0.000000
  103       81.165310   0.000000
  104       81.165310   0.000000
  105       83.019402   0.000000
  106       83.019402   0.000000
  107       83.988835   0.000000
  108       83.988835   0.000000
  109       86.046887   0.000000
  110       86.046887   0.000000
  111       86.155410   0.000000
  112       86.155410   0.000000
  113       86.701508   0.000000
  114       86.701509   0.000000
  115       87.118960   0.000000
  116       87.118960   0.000000
  117       88.200923   0.000000
  118       88.200923   0.000000
  119       91.476522   0.000000
  120       91.476522   0.000000
  121       92.559216   0.000000