 running on   32 total cores
 distrk:  each k-point on    2 cores,   16 groups
 distr:  one band on    1 cores,    2 groups
 using from now: INCAR     
 vasp.5.4.4.18Apr17-6-g9f103f2a35 (build Jul 09 2018 16:43:14) complex          
  
 POSCAR found type information on POSCAR  Cn
 POSCAR found :  1 types and       1 ions
 scaLAPACK will be used

 ----------------------------------------------------------------------------- 
|                                                                             |
|           W    W    AA    RRRRR   N    N  II  N    N   GGGG   !!!           |
|           W    W   A  A   R    R  NN   N  II  NN   N  G    G  !!!           |
|           W    W  A    A  R    R  N N  N  II  N N  N  G       !!!           |
|           W WW W  AAAAAA  RRRRR   N  N N  II  N  N N  G  GGG   !            |
|           WW  WW  A    A  R   R   N   NN  II  N   NN  G    G                |
|           W    W  A    A  R    R  N    N  II  N    N   GGGG   !!!           |
|                                                                             |
|      For optimal performance we recommend to set                            |
|        NCORE= 4 - approx SQRT( number of cores)                             |
|      NCORE specifies how many cores store one orbital (NPAR=cpu/NCORE).     |
|      This setting can  greatly improve the performance of VASP for DFT.     |
|      The default,   NCORE=1            might be grossly inefficient         |
|      on modern multi-core architectures or massively parallel machines.     |
|      Do your own testing !!!!                                               |
|      Unfortunately you need to use the default for GW and RPA calculations. |
|      (for HF NCORE is supported but not extensively tested yet)             |
|                                                                             |
 ----------------------------------------------------------------------------- 


 ----------------------------------------------------------------------------- 
|                                                                             |
|           W    W    AA    RRRRR   N    N  II  N    N   GGGG   !!!           |
|           W    W   A  A   R    R  NN   N  II  NN   N  G    G  !!!           |
|           W    W  A    A  R    R  N N  N  II  N N  N  G       !!!           |
|           W WW W  AAAAAA  RRRRR   N  N N  II  N  N N  G  GGG   !            |
|           WW  WW  A    A  R   R   N   NN  II  N   NN  G    G                |
|           W    W  A    A  R    R  N    N  II  N    N   GGGG   !!!           |
|                                                                             |
|      You have enabled k-point parallelism (KPAR>1).                         |
|      This developmental code was originally  written by Paul Kent at ORNL,  |
|      and carefully double checked in Vienna.                                |
|      GW as well as linear response parallelism added by Martijn Marsman     |
|      and Georg Kresse.                                                      |
|      Carefully verify results versus KPAR=1.                                |
|      Report problems to Paul Kent and Vienna.                               |
|                                                                             |
 ----------------------------------------------------------------------------- 

 LDA part: xc-table for Pade appr. of Perdew
 found WAVECAR, reading the header
 POSCAR, INCAR and KPOINTS ok, starting setup
 FFT: planning ...
 reading WAVECAR
 the WAVECAR file was read successfully
 initial charge from wavefunction

 The Fermi energy was updated, please check that it is located mid-gap
 values below the HOMO (VB) or above the LUMO (CB) will cause erroneous energies
 E-fermi :   2.3576

 calculate exact exchange contribution
 the WAVEDER file was read successfully
energies w= 
   0.00   0.00   0.96   0.00   1.92   0.00   2.87   0.00   3.82   0.00
   4.75   0.00   5.66   0.00   6.56   0.00   7.44   0.00   8.31   0.00
   9.16   0.00  10.00   0.00  10.83   0.00  11.64   0.00  12.45   0.00
  13.25   0.00  14.05   0.00  14.85   0.00  15.65   0.00  16.46   0.00
  17.28   0.00  18.11   0.00  18.96   0.00  19.83   0.00  20.74   0.00
  21.67   0.00  22.65   0.00  23.67   0.00  24.75   0.00  25.91   0.00
  27.14   0.00  28.47   0.00  29.91   0.00  31.49   0.00  33.24   0.00
  35.19   0.00  37.39   0.00  39.89   0.00  42.79   0.00  46.18   0.00
  50.21   0.00  55.09   0.00  61.15   0.00  68.85   0.00  78.98   0.00
  92.89   0.00 113.15   0.00 145.30   0.00 203.98   0.00 344.23   0.00
 responsefunction array rank=     178
 LDA part: xc-table for Pade appr. of Perdew
 allocating   2 responsefunctions rank=   178
 shmem allocating  50 responsefunctions rank=   178
 response function shared by NCSHMEM nodes    1
 Doing            2  frequencies on each core in blocks of           50
NQ=   1    0.0000    0.0000    0.0000, 
|.........|.........|.........|.........|.........|.........|.........|.........
 performed       1928000 updates of chi_q(r,r)
 total number of BLAS operations      483.33 Gflops
NQ=   2    0.1667    0.0000    0.0000, 
|.........|.........|.........|.........|.........|.........|.........|.........
 performed       3856000 updates of chi_q(r,r)
 total number of BLAS operations      898.27 Gflops
NQ=   3    0.3333    0.0000   -0.0000, 
|.........|.........|.........|.........|.........|.........|.........|.........
 performed       5784000 updates of chi_q(r,r)
 total number of BLAS operations     1333.70 Gflops
NQ=   4    0.5000    0.0000    0.0000, 
|.........|.........|.........|.........|.........|.........|.........|.........
 performed       7712000 updates of chi_q(r,r)
 total number of BLAS operations     1822.51 Gflops
NQ=   5   -0.3333   -0.0000    0.0000, 
|.........|.........|.........|.........|.........|.........|.........|.........
 performed       9640000 updates of chi_q(r,r)
 total number of BLAS operations     2257.93 Gflops
NQ=   6   -0.1667    0.0000    0.0000, 
|.........|.........|.........|.........|.........|.........|.........|.........
 performed      11568000 updates of chi_q(r,r)
 total number of BLAS operations     2672.88 Gflops
NQ=   7    0.0000    0.1667    0.0000, 
|.........|.........|.........|.........|.........|.........|.........|.........
 performed      13496000 updates of chi_q(r,r)
 total number of BLAS operations     3087.82 Gflops
NQ=   8    0.1667    0.1667    0.0000, 
|.........|.........|.........|.........|.........|.........|.........|.........
 performed      15424000 updates of chi_q(r,r)
 total number of BLAS operations     3538.93 Gflops
NQ=   9    0.3333    0.1667    0.0000, 
|.........|.........|.........|.........|.........|.........|.........|.........
 performed      17352000 updates of chi_q(r,r)
 total number of BLAS operations     3974.36 Gflops
NQ=  10    0.5000    0.1667    0.0000, 
|.........|.........|.........|.........|.........|.........|.........|.........
 performed      19280000 updates of chi_q(r,r)
 total number of BLAS operations     4409.79 Gflops
NQ=  11   -0.3333    0.1667   -0.0000, 
|.........|.........|.........|.........|.........|.........|.........|.........
 performed      21208000 updates of chi_q(r,r)
 total number of BLAS operations     4860.91 Gflops
NQ=  12   -0.1667    0.1667   -0.0000, 
|.........|.........|.........|.........|.........|.........|.........|.........
 performed      23136000 updates of chi_q(r,r)
 total number of BLAS operations     5275.85 Gflops
NQ=  13    0.0000    0.3333    0.0000, 
|.........|.........|.........|.........|.........|.........|.........|.........
 performed      25064000 updates of chi_q(r,r)
 total number of BLAS operations     5711.28 Gflops
NQ=  14    0.1667    0.3333    0.0000, 
|.........|.........|.........|.........|.........|.........|.........|.........
 performed      26992000 updates of chi_q(r,r)
 total number of BLAS operations     6146.70 Gflops
NQ=  15    0.3333    0.3333    0.0000, 
|.........|.........|.........|.........|.........|.........|.........|.........
 performed      28920000 updates of chi_q(r,r)
 total number of BLAS operations     6546.60 Gflops
NQ=  16    0.5000    0.3333    0.0000, 
|.........|.........|.........|.........|.........|.........|.........|.........
 performed      30848000 updates of chi_q(r,r)
 total number of BLAS operations     6982.03 Gflops
NQ=  17   -0.3333    0.3333    0.0000, 
|.........|.........|.........|.........|.........|.........|.........|.........
 performed      32776000 updates of chi_q(r,r)
 total number of BLAS operations     7417.46 Gflops
NQ=  18   -0.1667    0.3333    0.0000, 
|.........|.........|.........|.........|.........|.........|.........|.........
 performed      34704000 updates of chi_q(r,r)
 total number of BLAS operations     7868.58 Gflops
NQ=  19    0.0000    0.5000   -0.0000, 
|.........|.........|.........|.........|.........|.........|.........|.........
 performed      36632000 updates of chi_q(r,r)
 total number of BLAS operations     8357.38 Gflops
NQ=  20    0.1667    0.5000    0.0000, 
|.........|.........|.........|.........|.........|.........|.........|.........
 performed      38560000 updates of chi_q(r,r)
 total number of BLAS operations     8792.81 Gflops
NQ=  21    0.3333    0.5000    0.0000, 
|.........|.........|.........|.........|.........|.........|.........|.........
 performed      40488000 updates of chi_q(r,r)
 total number of BLAS operations     9228.24 Gflops
NQ=  22    0.5000    0.5000   -0.0000, 
|.........|.........|.........|.........|.........|.........|.........|.........
 performed      42416000 updates of chi_q(r,r)
 total number of BLAS operations     9717.05 Gflops
NQ=  23   -0.3333    0.5000   -0.0000, 
|.........|.........|.........|.........|.........|.........|.........|.........
 performed      44344000 updates of chi_q(r,r)
 total number of BLAS operations    10152.48 Gflops
NQ=  24   -0.1667    0.5000    0.0000, 
|.........|.........|.........|.........|.........|.........|.........|.........
 performed      46272000 updates of chi_q(r,r)
 total number of BLAS operations    10587.90 Gflops
NQ=  25    0.0000   -0.3333   -0.0000, 
|.........|.........|.........|.........|.........|.........|.........|.........
 performed      48200000 updates of chi_q(r,r)
 total number of BLAS operations    11023.33 Gflops
NQ=  26    0.1667   -0.3333   -0.0000, 
|.........|.........|.........|.........|.........|.........|.........|.........
 performed      50128000 updates of chi_q(r,r)
 total number of BLAS operations    11474.45 Gflops
NQ=  27    0.3333   -0.3333   -0.0000, 
|.........|.........|.........|.........|.........|.........|.........|.........
 performed      52056000 updates of chi_q(r,r)
 total number of BLAS operations    11909.88 Gflops
NQ=  28    0.5000   -0.3333   -0.0000, 
|.........|.........|.........|.........|.........|.........|.........|.........
 performed      53984000 updates of chi_q(r,r)
 total number of BLAS operations    12345.31 Gflops
NQ=  29   -0.3333   -0.3333    0.0000, 
|.........|.........|.........|.........|.........|.........|.........|.........
 performed      55912000 updates of chi_q(r,r)
 total number of BLAS operations    12745.21 Gflops
NQ=  30   -0.1667   -0.3333   -0.0000, 
|.........|.........|.........|.........|.........|.........|.........|.........
 performed      57840000 updates of chi_q(r,r)
 total number of BLAS operations    13180.63 Gflops
NQ=  31    0.0000   -0.1667   -0.0000, 
|.........|.........|.........|.........|.........|.........|.........|.........
 performed      59768000 updates of chi_q(r,r)
 total number of BLAS operations    13595.57 Gflops
NQ=  32    0.1667   -0.1667    0.0000, 
|.........|.........|.........|.........|.........|.........|.........|.........
 performed      61696000 updates of chi_q(r,r)
 total number of BLAS operations    14010.51 Gflops
NQ=  33    0.3333   -0.1667    0.0000, 
|.........|.........|.........|.........|.........|.........|.........|.........
 performed      63624000 updates of chi_q(r,r)
 total number of BLAS operations    14461.63 Gflops
NQ=  34    0.5000   -0.1667    0.0000, 
|.........|.........|.........|.........|.........|.........|.........|.........
 performed      65552000 updates of chi_q(r,r)
 total number of BLAS operations    14897.06 Gflops
NQ=  35   -0.3333   -0.1667   -0.0000, 
|.........|.........|.........|.........|.........|.........|.........|.........
 performed      67480000 updates of chi_q(r,r)
 total number of BLAS operations    15332.49 Gflops
NQ=  36   -0.1667   -0.1667   -0.0000, 
|.........|.........|.........|.........|.........|.........|.........|.........
 performed      69408000 updates of chi_q(r,r)
 total number of BLAS operations    15783.61 Gflops
NQ=  37    0.0000    0.0000    0.1667, 
|.........|.........|.........|.........|.........|.........|.........|.........
 performed      71336000 updates of chi_q(r,r)
 total number of BLAS operations    16198.55 Gflops
NQ=  38    0.1667    0.0000    0.1667, 
|.........|.........|.........|.........|.........|.........|.........|.........
 performed      73264000 updates of chi_q(r,r)
 total number of BLAS operations    16649.66 Gflops
NQ=  39    0.3333    0.0000    0.1667, 
|.........|.........|.........|.........|.........|.........|.........|.........
 performed      75192000 updates of chi_q(r,r)
 total number of BLAS operations    17085.09 Gflops
NQ=  40    0.5000    0.0000    0.1667, 
|.........|.........|.........|.........|.........|.........|.........|.........
 performed      77120000 updates of chi_q(r,r)
 total number of BLAS operations    17520.52 Gflops
NQ=  41   -0.3333   -0.0000    0.1667, 
|.........|.........|.........|.........|.........|.........|.........|.........
 performed      79048000 updates of chi_q(r,r)
 total number of BLAS operations    17971.64 Gflops
NQ=  42   -0.1667    0.0000    0.1667, 
|.........|.........|.........|.........|.........|.........|.........|.........
 performed      80976000 updates of chi_q(r,r)
 total number of BLAS operations    18386.58 Gflops
NQ=  43    0.0000    0.1667    0.1667, 
|.........|.........|.........|.........|.........|.........|.........|.........
 performed      82904000 updates of chi_q(r,r)
 total number of BLAS operations    18837.70 Gflops
NQ=  44    0.1667    0.1667    0.1667, 
|.........|.........|.........|.........|.........|.........|.........|.........
 performed      84832000 updates of chi_q(r,r)
 total number of BLAS operations    19273.13 Gflops
NQ=  45    0.3333    0.1667    0.1667, 
|.........|.........|.........|.........|.........|.........|.........|.........
 performed      86760000 updates of chi_q(r,r)
 total number of BLAS operations    19698.25 Gflops
NQ=  46    0.5000    0.1667    0.1667, 
|.........|.........|.........|.........|.........|.........|.........|.........
 performed      88688000 updates of chi_q(r,r)
 total number of BLAS operations    20133.68 Gflops
NQ=  47   -0.3333    0.1667    0.1667, 
|.........|.........|.........|.........|.........|.........|.........|.........
 performed      90616000 updates of chi_q(r,r)
 total number of BLAS operations    20584.79 Gflops
NQ=  48   -0.1667    0.1667    0.1667, 
|.........|.........|.........|.........|.........|.........|.........|.........
 performed      92544000 updates of chi_q(r,r)
 total number of BLAS operations    20999.73 Gflops
NQ=  49    0.0000    0.3333    0.1667, 
|.........|.........|.........|.........|.........|.........|.........|.........
 performed      94472000 updates of chi_q(r,r)
 total number of BLAS operations    21435.16 Gflops
NQ=  50    0.1667    0.3333    0.1667, 
|.........|.........|.........|.........|.........|.........|.........|.........
 performed      96400000 updates of chi_q(r,r)
 total number of BLAS operations    21860.28 Gflops
NQ=  51    0.3333    0.3333    0.1667, 
|.........|.........|.........|.........|.........|.........|.........|.........
 performed      98328000 updates of chi_q(r,r)
 total number of BLAS operations    22285.41 Gflops
NQ=  52    0.5000    0.3333    0.1667, 
|.........|.........|.........|.........|.........|.........|.........|.........
 performed     100256000 updates of chi_q(r,r)
 total number of BLAS operations    22720.84 Gflops
NQ=  53   -0.3333    0.3333    0.1667, 
|.........|.........|.........|.........|.........|.........|.........|.........
 performed     102184000 updates of chi_q(r,r)
 total number of BLAS operations    23171.95 Gflops
NQ=  54   -0.1667    0.3333    0.1667, 
|.........|.........|.........|.........|.........|.........|.........|.........
 performed     104112000 updates of chi_q(r,r)
 total number of BLAS operations    23623.07 Gflops
NQ=  55    0.0000    0.5000    0.1667, 
|.........|.........|.........|.........|.........|.........|.........|.........
 performed     106040000 updates of chi_q(r,r)
 total number of BLAS operations    24058.50 Gflops
NQ=  56    0.1667    0.5000    0.1667, 
|.........|.........|.........|.........|.........|.........|.........|.........
 performed     107968000 updates of chi_q(r,r)
 total number of BLAS operations    24493.93 Gflops
NQ=  57    0.3333    0.5000    0.1667, 
|.........|.........|.........|.........|.........|.........|.........|.........
 performed     109896000 updates of chi_q(r,r)
 total number of BLAS operations    24929.36 Gflops
NQ=  58    0.5000    0.5000    0.1667, 
|.........|.........|.........|.........|.........|.........|.........|.........
 performed     111824000 updates of chi_q(r,r)
 total number of BLAS operations    25364.78 Gflops
NQ=  59   -0.3333    0.5000    0.1667, 
|.........|.........|.........|.........|.........|.........|.........|.........
 performed     113752000 updates of chi_q(r,r)
 total number of BLAS operations    25805.41 Gflops
NQ=  60   -0.1667    0.5000    0.1667, 
|.........|.........|.........|.........|.........|.........|.........|.........
 performed     115680000 updates of chi_q(r,r)
 total number of BLAS operations    26240.84 Gflops
NQ=  61    0.0000   -0.3333    0.1667, 
|.........|.........|.........|.........|.........|.........|.........|.........
 performed     117608000 updates of chi_q(r,r)
 total number of BLAS operations    26691.96 Gflops
NQ=  62    0.1667   -0.3333    0.1667, 
|.........|.........|.........|.........|.........|.........|.........|.........
 performed     119536000 updates of chi_q(r,r)
 total number of BLAS operations    27143.08 Gflops
NQ=  63    0.3333   -0.3333    0.1667, 
|.........|.........|.........|.........|.........|.........|.........|.........
 performed     121464000 updates of chi_q(r,r)
 total number of BLAS operations    27594.19 Gflops
NQ=  64    0.5000   -0.3333    0.1667, 
|.........|.........|.........|.........|.........|.........|.........|.........
 performed     123392000 updates of chi_q(r,r)
 total number of BLAS operations    28034.82 Gflops
NQ=  65   -0.3333   -0.3333    0.1667, 
|.........|.........|.........|.........|.........|.........|.........|.........
 performed     125320000 updates of chi_q(r,r)
 total number of BLAS operations    28475.45 Gflops
NQ=  66   -0.1667   -0.3333    0.1667, 
|.........|.........|.........|.........|.........|.........|.........|.........
 performed     127248000 updates of chi_q(r,r)
 total number of BLAS operations    28926.57 Gflops
NQ=  67    0.0000   -0.1667    0.1667, 
|.........|.........|.........|.........|.........|.........|.........|.........
 performed     129176000 updates of chi_q(r,r)
 total number of BLAS operations    29341.51 Gflops
NQ=  68    0.1667   -0.1667    0.1667, 
|.........|.........|.........|.........|.........|.........|.........|.........
 performed     131104000 updates of chi_q(r,r)
 total number of BLAS operations    29756.45 Gflops
NQ=  69    0.3333   -0.1667    0.1667, 
|.........|.........|.........|.........|.........|.........|.........|.........
 performed     133032000 updates of chi_q(r,r)
 total number of BLAS operations    30207.56 Gflops
NQ=  70    0.5000   -0.1667    0.1667, 
|.........|.........|.........|.........|.........|.........|.........|.........
 performed     134960000 updates of chi_q(r,r)
 total number of BLAS operations    30642.99 Gflops
NQ=  71   -0.3333   -0.1667    0.1667, 
|.........|.........|.........|.........|.........|.........|.........|.........
 performed     136888000 updates of chi_q(r,r)
 total number of BLAS operations    31094.11 Gflops
NQ=  72   -0.1667   -0.1667    0.1667, 
|.........|.........|.........|.........|.........|.........|.........|.........
 performed     138816000 updates of chi_q(r,r)
 total number of BLAS operations    31509.05 Gflops
NQ=  73    0.0000    0.0000    0.3333, 
|.........|.........|.........|.........|.........|.........|.........|.........
 performed     140744000 updates of chi_q(r,r)
 total number of BLAS operations    31944.48 Gflops
NQ=  74    0.1667    0.0000    0.3333, 
|.........|.........|.........|.........|.........|.........|.........|.........
 performed     142672000 updates of chi_q(r,r)
 total number of BLAS operations    32379.91 Gflops
NQ=  75    0.3333    0.0000    0.3333, 
|.........|.........|.........|.........|.........|.........|.........|.........
 performed     144600000 updates of chi_q(r,r)
 total number of BLAS operations    32779.81 Gflops
NQ=  76    0.5000    0.0000    0.3333, 
|.........|.........|.........|.........|.........|.........|.........|.........
 performed     146528000 updates of chi_q(r,r)
 total number of BLAS operations    33215.23 Gflops
NQ=  77   -0.3333   -0.0000    0.3333, 
|.........|.........|.........|.........|.........|.........|.........|.........
 performed     148456000 updates of chi_q(r,r)
 total number of BLAS operations    33650.66 Gflops
NQ=  78   -0.1667    0.0000    0.3333, 
|.........|.........|.........|.........|.........|.........|.........|.........
 performed     150384000 updates of chi_q(r,r)
 total number of BLAS operations    34101.78 Gflops
NQ=  79    0.0000    0.1667    0.3333, 
|.........|.........|.........|.........|.........|.........|.........|.........
 performed     152312000 updates of chi_q(r,r)
 total number of BLAS operations    34537.21 Gflops
NQ=  80    0.1667    0.1667    0.3333, 
|.........|.........|.........|.........|.........|.........|.........|.........
 performed     154240000 updates of chi_q(r,r)
 total number of BLAS operations    34962.33 Gflops
NQ=  81    0.3333    0.1667    0.3333, 
|.........|.........|.........|.........|.........|.........|.........|.........
 performed     156168000 updates of chi_q(r,r)
 total number of BLAS operations    35387.45 Gflops
NQ=  82    0.5000    0.1667    0.3333, 
|.........|.........|.........|.........|.........|.........|.........|.........
 performed     158096000 updates of chi_q(r,r)
 total number of BLAS operations    35822.88 Gflops
NQ=  83   -0.3333    0.1667    0.3333, 
|.........|.........|.........|.........|.........|.........|.........|.........
 performed     160024000 updates of chi_q(r,r)
 total number of BLAS operations    36274.00 Gflops
NQ=  84   -0.1667    0.1667    0.3333, 
|.........|.........|.........|.........|.........|.........|.........|.........
 performed     161952000 updates of chi_q(r,r)
 total number of BLAS operations    36725.12 Gflops
NQ=  85    0.0000    0.3333    0.3333, 
|.........|.........|.........|.........|.........|.........|.........|.........
 performed     163880000 updates of chi_q(r,r)
 total number of BLAS operations    37125.02 Gflops
NQ=  86    0.1667    0.3333    0.3333, 
|.........|.........|.........|.........|.........|.........|.........|.........
 performed     165808000 updates of chi_q(r,r)
 total number of BLAS operations    37550.14 Gflops
NQ=  87    0.3333    0.3333    0.3333, 
|.........|.........|.........|.........|.........|.........|.........|.........
 performed     167736000 updates of chi_q(r,r)
 total number of BLAS operations    37950.04 Gflops
NQ=  88    0.5000    0.3333    0.3333, 
|.........|.........|.........|.........|.........|.........|.........|.........
 performed     169664000 updates of chi_q(r,r)
 total number of BLAS operations    38390.66 Gflops
NQ=  89   -0.3333    0.3333    0.3333, 
|.........|.........|.........|.........|.........|.........|.........|.........
 performed     171592000 updates of chi_q(r,r)
 total number of BLAS operations    38868.55 Gflops
NQ=  90   -0.1667    0.3333    0.3333, 
|.........|.........|.........|.........|.........|.........|.........|.........
 performed     173520000 updates of chi_q(r,r)
 total number of BLAS operations    39309.18 Gflops
NQ=  91    0.0000    0.5000    0.3333, 
|.........|.........|.........|.........|.........|.........|.........|.........
 performed     175448000 updates of chi_q(r,r)
 total number of BLAS operations    39744.60 Gflops
NQ=  92    0.1667    0.5000    0.3333, 
|.........|.........|.........|.........|.........|.........|.........|.........
 performed     177376000 updates of chi_q(r,r)
 total number of BLAS operations    40180.03 Gflops
NQ=  93    0.3333    0.5000    0.3333, 
|.........|.........|.........|.........|.........|.........|.........|.........
 performed     179304000 updates of chi_q(r,r)
 total number of BLAS operations    40620.66 Gflops
NQ=  94    0.5000    0.5000    0.3333, 
|.........|.........|.........|.........|.........|.........|.........|.........
 performed     181232000 updates of chi_q(r,r)
 total number of BLAS operations    41056.09 Gflops
NQ=  95   -0.3333    0.5000    0.3333, 
|.........|.........|.........|.........|.........|.........|.........|.........
 performed     183160000 updates of chi_q(r,r)
 total number of BLAS operations    41491.52 Gflops
NQ=  96   -0.1667    0.5000    0.3333, 
|.........|.........|.........|.........|.........|.........|.........|.........
 performed     185088000 updates of chi_q(r,r)
 total number of BLAS operations    41932.14 Gflops
NQ=  97    0.0000   -0.3333    0.3333, 
|.........|.........|.........|.........|.........|.........|.........|.........
 performed     187016000 updates of chi_q(r,r)
 total number of BLAS operations    42367.57 Gflops
NQ=  98    0.1667   -0.3333    0.3333, 
|.........|.........|.........|.........|.........|.........|.........|.........
 performed     188944000 updates of chi_q(r,r)
 total number of BLAS operations    42818.69 Gflops
NQ=  99    0.3333   -0.3333    0.3333, 
|.........|.........|.........|.........|.........|.........|.........|.........
 performed     190872000 updates of chi_q(r,r)
 total number of BLAS operations    43296.57 Gflops
NQ= 100    0.5000   -0.3333    0.3333, 
|.........|.........|.........|.........|.........|.........|.........|.........
 performed     192800000 updates of chi_q(r,r)
 total number of BLAS operations    43732.00 Gflops
NQ= 101   -0.3333   -0.3333    0.3333, 
|.........|.........|.........|.........|.........|.........|.........|.........
 performed     194728000 updates of chi_q(r,r)
 total number of BLAS operations    44209.89 Gflops
NQ= 102   -0.1667   -0.3333    0.3333, 
|.........|.........|.........|.........|.........|.........|.........|.........
 performed     196656000 updates of chi_q(r,r)
 total number of BLAS operations    44661.00 Gflops
NQ= 103    0.0000   -0.1667    0.3333, 
|.........|.........|.........|.........|.........|.........|.........|.........
 performed     198584000 updates of chi_q(r,r)
 total number of BLAS operations    45112.12 Gflops
NQ= 104    0.1667   -0.1667    0.3333, 
|.........|.........|.........|.........|.........|.........|.........|.........
 performed     200512000 updates of chi_q(r,r)
 total number of BLAS operations    45563.24 Gflops
NQ= 105    0.3333   -0.1667    0.3333, 
|.........|.........|.........|.........|.........|.........|.........|.........
 performed     202440000 updates of chi_q(r,r)
 total number of BLAS operations    46003.87 Gflops
NQ= 106    0.5000   -0.1667    0.3333, 
|.........|.........|.........|.........|.........|.........|.........|.........
 performed     204368000 updates of chi_q(r,r)
 total number of BLAS operations    46444.49 Gflops
NQ= 107   -0.3333   -0.1667    0.3333, 
|.........|.........|.........|.........|.........|.........|.........|.........
 performed     206296000 updates of chi_q(r,r)
 total number of BLAS operations    46895.61 Gflops
NQ= 108   -0.1667   -0.1667    0.3333, 
|.........|.........|.........|.........|.........|.........|.........|.........
 performed     208224000 updates of chi_q(r,r)
 total number of BLAS operations    47346.73 Gflops
NQ= 109    0.0000    0.0000    0.5000, 
|.........|.........|.........|.........|.........|.........|.........|.........
 performed     210152000 updates of chi_q(r,r)
 total number of BLAS operations    47835.54 Gflops
NQ= 110    0.1667    0.0000    0.5000, 
|.........|.........|.........|.........|.........|.........|.........|.........
 performed     212080000 updates of chi_q(r,r)
 total number of BLAS operations    48270.97 Gflops
NQ= 111    0.3333    0.0000    0.5000, 
|.........|.........|.........|.........|.........|.........|.........|.........
 performed     214008000 updates of chi_q(r,r)
 total number of BLAS operations    48706.39 Gflops
NQ= 112    0.5000    0.0000    0.5000, 
|.........|.........|.........|.........|.........|.........|.........|.........
 performed     215936000 updates of chi_q(r,r)
 total number of BLAS operations    49195.20 Gflops
NQ= 113   -0.3333   -0.0000    0.5000, 
|.........|.........|.........|.........|.........|.........|.........|.........
 performed     217864000 updates of chi_q(r,r)
 total number of BLAS operations    49630.63 Gflops
NQ= 114   -0.1667    0.0000    0.5000, 
|.........|.........|.........|.........|.........|.........|.........|.........
 performed     219792000 updates of chi_q(r,r)
 total number of BLAS operations    50066.06 Gflops
NQ= 115    0.0000    0.1667    0.5000, 
|.........|.........|.........|.........|.........|.........|.........|.........
 performed     221720000 updates of chi_q(r,r)
 total number of BLAS operations    50501.49 Gflops
NQ= 116    0.1667    0.1667    0.5000, 
|.........|.........|.........|.........|.........|.........|.........|.........
 performed     223648000 updates of chi_q(r,r)
 total number of BLAS operations    50936.91 Gflops
NQ= 117    0.3333    0.1667    0.5000, 
|.........|.........|.........|.........|.........|.........|.........|.........
 performed     225576000 updates of chi_q(r,r)
 total number of BLAS operations    51372.34 Gflops
NQ= 118    0.5000    0.1667    0.5000, 
|.........|.........|.........|.........|.........|.........|.........|.........
 performed     227504000 updates of chi_q(r,r)
 total number of BLAS operations    51807.77 Gflops
NQ= 119   -0.3333    0.1667    0.5000, 
|.........|.........|.........|.........|.........|.........|.........|.........
 performed     229432000 updates of chi_q(r,r)
 total number of BLAS operations    52248.40 Gflops
NQ= 120   -0.1667    0.1667    0.5000, 
|.........|.........|.........|.........|.........|.........|.........|.........
 performed     231360000 updates of chi_q(r,r)
 total number of BLAS operations    52683.83 Gflops
NQ= 121    0.0000    0.3333    0.5000, 
|.........|.........|.........|.........|.........|.........|.........|.........
 performed     233288000 updates of chi_q(r,r)
 total number of BLAS operations    53119.25 Gflops
NQ= 122    0.1667    0.3333    0.5000, 
|.........|.........|.........|.........|.........|.........|.........|.........
 performed     235216000 updates of chi_q(r,r)
 total number of BLAS operations    53554.68 Gflops
NQ= 123    0.3333    0.3333    0.5000, 
|.........|.........|.........|.........|.........|.........|.........|.........
 performed     237144000 updates of chi_q(r,r)
 total number of BLAS operations    53995.31 Gflops
NQ= 124    0.5000    0.3333    0.5000, 
|.........|.........|.........|.........|.........|.........|.........|.........
 performed     239072000 updates of chi_q(r,r)
 total number of BLAS operations    54430.74 Gflops
NQ= 125   -0.3333    0.3333    0.5000, 
|.........|.........|.........|.........|.........|.........|.........|.........
 performed     241000000 updates of chi_q(r,r)
 total number of BLAS operations    54866.17 Gflops
NQ= 126   -0.1667    0.3333    0.5000, 
|.........|.........|.........|.........|.........|.........|.........|.........
 performed     242928000 updates of chi_q(r,r)
 total number of BLAS operations    55306.79 Gflops
NQ= 127    0.0000    0.5000    0.5000, 
|.........|.........|.........|.........|.........|.........|.........|.........
 performed     244856000 updates of chi_q(r,r)
 total number of BLAS operations    55795.60 Gflops
NQ= 128    0.1667    0.5000    0.5000, 
|.........|.........|.........|.........|.........|.........|.........|.........
 performed     246784000 updates of chi_q(r,r)
 total number of BLAS operations    56231.03 Gflops
NQ= 129    0.3333    0.5000    0.5000, 
|.........|.........|.........|.........|.........|.........|.........|.........
 performed     248712000 updates of chi_q(r,r)
 total number of BLAS operations    56666.46 Gflops
NQ= 130    0.5000    0.5000    0.5000, 
|.........|.........|.........|.........|.........|.........|.........|.........
 performed     250640000 updates of chi_q(r,r)
 total number of BLAS operations    57081.40 Gflops
NQ= 131   -0.3333    0.5000    0.5000, 
|.........|.........|.........|.........|.........|.........|.........|.........
 performed     252568000 updates of chi_q(r,r)
 total number of BLAS operations    57516.83 Gflops
NQ= 132   -0.1667    0.5000    0.5000, 
|.........|.........|.........|.........|.........|.........|.........|.........
 performed     254496000 updates of chi_q(r,r)
 total number of BLAS operations    57952.25 Gflops
NQ= 133    0.0000   -0.3333    0.5000, 
|.........|.........|.........|.........|.........|.........|.........|.........
 performed     256424000 updates of chi_q(r,r)
 total number of BLAS operations    58387.68 Gflops
NQ= 134    0.1667   -0.3333    0.5000, 
|.........|.........|.........|.........|.........|.........|.........|.........
 performed     258352000 updates of chi_q(r,r)
 total number of BLAS operations    58828.31 Gflops
NQ= 135    0.3333   -0.3333    0.5000, 
|.........|.........|.........|.........|.........|.........|.........|.........
 performed     260280000 updates of chi_q(r,r)
 total number of BLAS operations    59263.74 Gflops
NQ= 136    0.5000   -0.3333    0.5000, 
|.........|.........|.........|.........|.........|.........|.........|.........
 performed     262208000 updates of chi_q(r,r)
 total number of BLAS operations    59699.17 Gflops
NQ= 137   -0.3333   -0.3333    0.5000, 
|.........|.........|.........|.........|.........|.........|.........|.........
 performed     264136000 updates of chi_q(r,r)
 total number of BLAS operations    60139.79 Gflops
NQ= 138   -0.1667   -0.3333    0.5000, 
|.........|.........|.........|.........|.........|.........|.........|.........
 performed     266064000 updates of chi_q(r,r)
 total number of BLAS operations    60575.22 Gflops
NQ= 139    0.0000   -0.1667    0.5000, 
|.........|.........|.........|.........|.........|.........|.........|.........
 performed     267992000 updates of chi_q(r,r)
 total number of BLAS operations    61010.65 Gflops
NQ= 140    0.1667   -0.1667    0.5000, 
|.........|.........|.........|.........|.........|.........|.........|.........
 performed     269920000 updates of chi_q(r,r)
 total number of BLAS operations    61446.08 Gflops
NQ= 141    0.3333   -0.1667    0.5000, 
|.........|.........|.........|.........|.........|.........|.........|.........
 performed     271848000 updates of chi_q(r,r)
 total number of BLAS operations    61886.70 Gflops
NQ= 142    0.5000   -0.1667    0.5000, 
|.........|.........|.........|.........|.........|.........|.........|.........
 performed     273776000 updates of chi_q(r,r)
 total number of BLAS operations    62322.13 Gflops
NQ= 143   -0.3333   -0.1667    0.5000, 
|.........|.........|.........|.........|.........|.........|.........|.........
 performed     275704000 updates of chi_q(r,r)
 total number of BLAS operations    62757.56 Gflops
NQ= 144   -0.1667   -0.1667    0.5000, 
|.........|.........|.........|.........|.........|.........|.........|.........
 performed     277632000 updates of chi_q(r,r)
 total number of BLAS operations    63192.99 Gflops
NQ= 145    0.0000    0.0000   -0.3333, 
|.........|.........|.........|.........|.........|.........|.........|.........
 performed     279560000 updates of chi_q(r,r)
 total number of BLAS operations    63628.42 Gflops
NQ= 146    0.1667    0.0000   -0.3333, 
|.........|.........|.........|.........|.........|.........|.........|.........
 performed     281488000 updates of chi_q(r,r)
 total number of BLAS operations    64079.53 Gflops
NQ= 147    0.3333    0.0000   -0.3333, 
|.........|.........|.........|.........|.........|.........|.........|.........
 performed     283416000 updates of chi_q(r,r)
 total number of BLAS operations    64514.96 Gflops
NQ= 148    0.5000    0.0000   -0.3333, 
|.........|.........|.........|.........|.........|.........|.........|.........
 performed     285344000 updates of chi_q(r,r)
 total number of BLAS operations    64950.39 Gflops
NQ= 149   -0.3333   -0.0000   -0.3333, 
|.........|.........|.........|.........|.........|.........|.........|.........
 performed     287272000 updates of chi_q(r,r)
 total number of BLAS operations    65350.29 Gflops
NQ= 150   -0.1667    0.0000   -0.3333, 
|.........|.........|.........|.........|.........|.........|.........|.........
 performed     289200000 updates of chi_q(r,r)
 total number of BLAS operations    65785.72 Gflops
NQ= 151    0.0000    0.1667   -0.3333, 
|.........|.........|.........|.........|.........|.........|.........|.........
 performed     291128000 updates of chi_q(r,r)
 total number of BLAS operations    66236.84 Gflops
NQ= 152    0.1667    0.1667   -0.3333, 
|.........|.........|.........|.........|.........|.........|.........|.........
 performed     293056000 updates of chi_q(r,r)
 total number of BLAS operations    66687.95 Gflops
NQ= 153    0.3333    0.1667   -0.3333, 
|.........|.........|.........|.........|.........|.........|.........|.........
 performed     294984000 updates of chi_q(r,r)
 total number of BLAS operations    67139.07 Gflops
NQ= 154    0.5000    0.1667   -0.3333, 
|.........|.........|.........|.........|.........|.........|.........|.........
 performed     296912000 updates of chi_q(r,r)
 total number of BLAS operations    67579.70 Gflops
NQ= 155   -0.3333    0.1667   -0.3333, 
|.........|.........|.........|.........|.........|.........|.........|.........
 performed     298840000 updates of chi_q(r,r)
 total number of BLAS operations    68020.33 Gflops
NQ= 156   -0.1667    0.1667   -0.3333, 
|.........|.........|.........|.........|.........|.........|.........|.........
 performed     300768000 updates of chi_q(r,r)
 total number of BLAS operations    68471.44 Gflops
NQ= 157    0.0000    0.3333   -0.3333, 
|.........|.........|.........|.........|.........|.........|.........|.........
 performed     302696000 updates of chi_q(r,r)
 total number of BLAS operations    68906.87 Gflops
NQ= 158    0.1667    0.3333   -0.3333, 
|.........|.........|.........|.........|.........|.........|.........|.........
 performed     304624000 updates of chi_q(r,r)
 total number of BLAS operations    69357.99 Gflops
NQ= 159    0.3333    0.3333   -0.3333, 
|.........|.........|.........|.........|.........|.........|.........|.........
 performed     306552000 updates of chi_q(r,r)
 total number of BLAS operations    69835.87 Gflops
NQ= 160    0.5000    0.3333   -0.3333, 
|.........|.........|.........|.........|.........|.........|.........|.........
 performed     308480000 updates of chi_q(r,r)
 total number of BLAS operations    70271.30 Gflops
NQ= 161   -0.3333    0.3333   -0.3333, 
|.........|.........|.........|.........|.........|.........|.........|.........
 performed     310408000 updates of chi_q(r,r)
 total number of BLAS operations    70749.19 Gflops
NQ= 162   -0.1667    0.3333   -0.3333, 
|.........|.........|.........|.........|.........|.........|.........|.........
 performed     312336000 updates of chi_q(r,r)
 total number of BLAS operations    71200.31 Gflops
NQ= 163    0.0000    0.5000   -0.3333, 
|.........|.........|.........|.........|.........|.........|.........|.........
 performed     314264000 updates of chi_q(r,r)
 total number of BLAS operations    71635.73 Gflops
NQ= 164    0.1667    0.5000   -0.3333, 
|.........|.........|.........|.........|.........|.........|.........|.........
 performed     316192000 updates of chi_q(r,r)
 total number of BLAS operations    72076.36 Gflops
NQ= 165    0.3333    0.5000   -0.3333, 
|.........|.........|.........|.........|.........|.........|.........|.........
 performed     318120000 updates of chi_q(r,r)
 total number of BLAS operations    72511.79 Gflops
NQ= 166    0.5000    0.5000   -0.3333, 
|.........|.........|.........|.........|.........|.........|.........|.........
 performed     320048000 updates of chi_q(r,r)
 total number of BLAS operations    72947.22 Gflops
NQ= 167   -0.3333    0.5000   -0.3333, 
|.........|.........|.........|.........|.........|.........|.........|.........
 performed     321976000 updates of chi_q(r,r)
 total number of BLAS operations    73387.84 Gflops
NQ= 168   -0.1667    0.5000   -0.3333, 
|.........|.........|.........|.........|.........|.........|.........|.........
 performed     323904000 updates of chi_q(r,r)
 total number of BLAS operations    73823.27 Gflops
NQ= 169    0.0000   -0.3333   -0.3333, 
|.........|.........|.........|.........|.........|.........|.........|.........
 performed     325832000 updates of chi_q(r,r)
 total number of BLAS operations    74223.17 Gflops
NQ= 170    0.1667   -0.3333   -0.3333, 
|.........|.........|.........|.........|.........|.........|.........|.........
 performed     327760000 updates of chi_q(r,r)
 total number of BLAS operations    74663.80 Gflops
NQ= 171    0.3333   -0.3333   -0.3333, 
|.........|.........|.........|.........|.........|.........|.........|.........
 performed     329688000 updates of chi_q(r,r)
 total number of BLAS operations    75141.68 Gflops
NQ= 172    0.5000   -0.3333   -0.3333, 
|.........|.........|.........|.........|.........|.........|.........|.........
 performed     331616000 updates of chi_q(r,r)
 total number of BLAS operations    75582.31 Gflops
NQ= 173   -0.3333   -0.3333   -0.3333, 
|.........|.........|.........|.........|.........|.........|.........|.........
 performed     333544000 updates of chi_q(r,r)
 total number of BLAS operations    75982.21 Gflops
NQ= 174   -0.1667   -0.3333   -0.3333, 
|.........|.........|.........|.........|.........|.........|.........|.........
 performed     335472000 updates of chi_q(r,r)
 total number of BLAS operations    76407.33 Gflops
NQ= 175    0.0000   -0.1667   -0.3333, 
|.........|.........|.........|.........|.........|.........|.........|.........
 performed     337400000 updates of chi_q(r,r)
 total number of BLAS operations    76842.76 Gflops
NQ= 176    0.1667   -0.1667   -0.3333, 
|.........|.........|.........|.........|.........|.........|.........|.........
 performed     339328000 updates of chi_q(r,r)
 total number of BLAS operations    77293.88 Gflops
NQ= 177    0.3333   -0.1667   -0.3333, 
|.........|.........|.........|.........|.........|.........|.........|.........
 performed     341256000 updates of chi_q(r,r)
 total number of BLAS operations    77745.00 Gflops
NQ= 178    0.5000   -0.1667   -0.3333, 
|.........|.........|.........|.........|.........|.........|.........|.........
 performed     343184000 updates of chi_q(r,r)
 total number of BLAS operations    78180.42 Gflops
NQ= 179   -0.3333   -0.1667   -0.3333, 
|.........|.........|.........|.........|.........|.........|.........|.........
 performed     345112000 updates of chi_q(r,r)
 total number of BLAS operations    78605.55 Gflops
NQ= 180   -0.1667   -0.1667   -0.3333, 
|.........|.........|.........|.........|.........|.........|.........|.........
 performed     347040000 updates of chi_q(r,r)
 total number of BLAS operations    79030.67 Gflops
NQ= 181    0.0000    0.0000   -0.1667, 
|.........|.........|.........|.........|.........|.........|.........|.........
 performed     348968000 updates of chi_q(r,r)
 total number of BLAS operations    79445.61 Gflops
NQ= 182    0.1667    0.0000   -0.1667, 
|.........|.........|.........|.........|.........|.........|.........|.........
 performed     350896000 updates of chi_q(r,r)
 total number of BLAS operations    79860.55 Gflops
NQ= 183    0.3333    0.0000   -0.1667, 
|.........|.........|.........|.........|.........|.........|.........|.........
 performed     352824000 updates of chi_q(r,r)
 total number of BLAS operations    80311.67 Gflops
NQ= 184    0.5000    0.0000   -0.1667, 
|.........|.........|.........|.........|.........|.........|.........|.........
 performed     354752000 updates of chi_q(r,r)
 total number of BLAS operations    80747.10 Gflops
NQ= 185   -0.3333   -0.0000   -0.1667, 
|.........|.........|.........|.........|.........|.........|.........|.........
 performed     356680000 updates of chi_q(r,r)
 total number of BLAS operations    81182.52 Gflops
NQ= 186   -0.1667    0.0000   -0.1667, 
|.........|.........|.........|.........|.........|.........|.........|.........
 performed     358608000 updates of chi_q(r,r)
 total number of BLAS operations    81633.64 Gflops
NQ= 187    0.0000    0.1667   -0.1667, 
|.........|.........|.........|.........|.........|.........|.........|.........
 performed     360536000 updates of chi_q(r,r)
 total number of BLAS operations    82048.58 Gflops
NQ= 188    0.1667    0.1667   -0.1667, 
|.........|.........|.........|.........|.........|.........|.........|.........
 performed     362464000 updates of chi_q(r,r)
 total number of BLAS operations    82463.52 Gflops
NQ= 189    0.3333    0.1667   -0.1667, 
|.........|.........|.........|.........|.........|.........|.........|.........
 performed     364392000 updates of chi_q(r,r)
 total number of BLAS operations    82914.64 Gflops
NQ= 190    0.5000    0.1667   -0.1667, 
|.........|.........|.........|.........|.........|.........|.........|.........
 performed     366320000 updates of chi_q(r,r)
 total number of BLAS operations    83350.07 Gflops
NQ= 191   -0.3333    0.1667   -0.1667, 
|.........|.........|.........|.........|.........|.........|.........|.........
 performed     368248000 updates of chi_q(r,r)
 total number of BLAS operations    83801.19 Gflops
NQ= 192   -0.1667    0.1667   -0.1667, 
|.........|.........|.........|.........|.........|.........|.........|.........
 performed     370176000 updates of chi_q(r,r)
 total number of BLAS operations    84216.13 Gflops
NQ= 193    0.0000    0.3333   -0.1667, 
|.........|.........|.........|.........|.........|.........|.........|.........
 performed     372104000 updates of chi_q(r,r)
 total number of BLAS operations    84667.24 Gflops
NQ= 194    0.1667    0.3333   -0.1667, 
|.........|.........|.........|.........|.........|.........|.........|.........
 performed     374032000 updates of chi_q(r,r)
 total number of BLAS operations    85118.36 Gflops
NQ= 195    0.3333    0.3333   -0.1667, 
|.........|.........|.........|.........|.........|.........|.........|.........
 performed     375960000 updates of chi_q(r,r)
 total number of BLAS operations    85558.99 Gflops
NQ= 196    0.5000    0.3333   -0.1667, 
|.........|.........|.........|.........|.........|.........|.........|.........
 performed     377888000 updates of chi_q(r,r)
 total number of BLAS operations    85999.62 Gflops
NQ= 197   -0.3333    0.3333   -0.1667, 
|.........|.........|.........|.........|.........|.........|.........|.........
 performed     379816000 updates of chi_q(r,r)
 total number of BLAS operations    86450.73 Gflops
NQ= 198   -0.1667    0.3333   -0.1667, 
|.........|.........|.........|.........|.........|.........|.........|.........
 performed     381744000 updates of chi_q(r,r)
 total number of BLAS operations    86901.85 Gflops
NQ= 199    0.0000    0.5000   -0.1667, 
|.........|.........|.........|.........|.........|.........|.........|.........
 performed     383672000 updates of chi_q(r,r)
 total number of BLAS operations    87337.28 Gflops
NQ= 200    0.1667    0.5000   -0.1667, 
|.........|.........|.........|.........|.........|.........|.........|.........
 performed     385600000 updates of chi_q(r,r)
 total number of BLAS operations    87772.71 Gflops
NQ= 201    0.3333    0.5000   -0.1667, 
|.........|.........|.........|.........|.........|.........|.........|.........
 performed     387528000 updates of chi_q(r,r)
 total number of BLAS operations    88213.34 Gflops
NQ= 202    0.5000    0.5000   -0.1667, 
|.........|.........|.........|.........|.........|.........|.........|.........
 performed     389456000 updates of chi_q(r,r)
 total number of BLAS operations    88648.76 Gflops
NQ= 203   -0.3333    0.5000   -0.1667, 
|.........|.........|.........|.........|.........|.........|.........|.........
 performed     391384000 updates of chi_q(r,r)
 total number of BLAS operations    89084.19 Gflops
NQ= 204   -0.1667    0.5000   -0.1667, 
|.........|.........|.........|.........|.........|.........|.........|.........
 performed     393312000 updates of chi_q(r,r)
 total number of BLAS operations    89519.62 Gflops
NQ= 205    0.0000   -0.3333   -0.1667, 
|.........|.........|.........|.........|.........|.........|.........|.........
 performed     395240000 updates of chi_q(r,r)
 total number of BLAS operations    89955.05 Gflops
NQ= 206    0.1667   -0.3333   -0.1667, 
|.........|.........|.........|.........|.........|.........|.........|.........
 performed     397168000 updates of chi_q(r,r)
 total number of BLAS operations    90406.17 Gflops
NQ= 207    0.3333   -0.3333   -0.1667, 
|.........|.........|.........|.........|.........|.........|.........|.........
 performed     399096000 updates of chi_q(r,r)
 total number of BLAS operations    90857.28 Gflops
NQ= 208    0.5000   -0.3333   -0.1667, 
|.........|.........|.........|.........|.........|.........|.........|.........
 performed     401024000 updates of chi_q(r,r)
 total number of BLAS operations    91292.71 Gflops
NQ= 209   -0.3333   -0.3333   -0.1667, 
|.........|.........|.........|.........|.........|.........|.........|.........
 performed     402952000 updates of chi_q(r,r)
 total number of BLAS operations    91717.84 Gflops
NQ= 210   -0.1667   -0.3333   -0.1667, 
|.........|.........|.........|.........|.........|.........|.........|.........
 performed     404880000 updates of chi_q(r,r)
 total number of BLAS operations    92142.96 Gflops
NQ= 211    0.0000   -0.1667   -0.1667, 
|.........|.........|.........|.........|.........|.........|.........|.........
 performed     406808000 updates of chi_q(r,r)
 total number of BLAS operations    92594.08 Gflops
NQ= 212    0.1667   -0.1667   -0.1667, 
|.........|.........|.........|.........|.........|.........|.........|.........
 performed     408736000 updates of chi_q(r,r)
 total number of BLAS operations    93009.02 Gflops
NQ= 213    0.3333   -0.1667   -0.1667, 
|.........|.........|.........|.........|.........|.........|.........|.........
 performed     410664000 updates of chi_q(r,r)
 total number of BLAS operations    93460.13 Gflops
NQ= 214    0.5000   -0.1667   -0.1667, 
|.........|.........|.........|.........|.........|.........|.........|.........
 performed     412592000 updates of chi_q(r,r)
 total number of BLAS operations    93895.56 Gflops
NQ= 215   -0.3333   -0.1667   -0.1667, 
|.........|.........|.........|.........|.........|.........|.........|.........
 performed     414520000 updates of chi_q(r,r)
 total number of BLAS operations    94320.68 Gflops
NQ= 216   -0.1667   -0.1667   -0.1667, 
|.........|.........|.........|.........|.........|.........|.........|.........
 performed     416448000 updates of chi_q(r,r)
 total number of BLAS operations    94756.11 Gflops
 resolving degeneracies of screened two electron integrals


 calculate QP shifts <psi_nk| G(iteration)W_0 |psi_nk>: iteration 1


 QP shifts <psi_nk| G(iteration)W_0 |psi_nk>: iteration 1
 writing wavefunctions
 entering main loop
