   1   1   0   0
  0.2623385E+02  0.3242103E-09  0.3242103E-09  0.3242103E-09  0.1000000E-15
  1.000000000000000E-004
  CAR 
 Og_FCC                                  
    168.79330192    -13.80444448  301      3.52332083      1.00000000
    -13.804  0.0000E+00  0.0000E+00
    -13.196  0.0000E+00  0.0000E+00
    -12.587  0.0000E+00  0.0000E+00
    -11.978  0.0000E+00  0.0000E+00
    -11.370  0.0000E+00  0.0000E+00
    -10.761  0.0000E+00  0.0000E+00
    -10.152  0.0000E+00  0.0000E+00
     -9.544  0.0000E+00  0.0000E+00
     -8.935  0.0000E+00  0.0000E+00
     -8.327  0.0000E+00  0.0000E+00
     -7.718  0.0000E+00  0.0000E+00
     -7.109  0.0000E+00  0.0000E+00
     -6.501  0.0000E+00  0.0000E+00
     -5.892  0.0000E+00  0.0000E+00
     -5.283  0.0000E+00  0.9259E-02
     -4.675  0.0000E+00  0.1204E+00
     -4.066  0.0000E+00  0.1759E+00
     -3.457  0.0000E+00  0.3981E+00
     -2.849  0.0000E+00  0.5093E+00
     -2.240  0.0000E+00  0.1417E+01
     -1.631  0.0000E+00  0.4102E+01
     -1.023  0.0000E+00  0.4806E+01
     -0.414  0.0000E+00  0.5250E+01
      0.195  0.0000E+00  0.5806E+01
      0.803  0.0000E+00  0.6065E+01
      1.412  0.0000E+00  0.7870E+01
      2.021  0.0000E+00  0.9815E+01
      2.629  0.0000E+00  0.1091E+02
      3.238  0.0000E+00  0.1199E+02
      3.847  0.0000E+00  0.1206E+02
      4.455  0.0000E+00  0.1206E+02
      5.064  0.0000E+00  0.1217E+02
      5.673  0.0000E+00  0.1218E+02
      6.281  0.0000E+00  0.1262E+02
      6.890  0.0000E+00  0.1314E+02
      7.499  0.0000E+00  0.1321E+02
      8.107  0.0000E+00  0.1360E+02
      8.716  0.0000E+00  0.1360E+02
      9.325  0.0000E+00  0.1390E+02
      9.933  0.0000E+00  0.1390E+02
     10.542  0.0000E+00  0.1436E+02
     11.151  0.9127E-01  0.1442E+02
     11.759  0.0000E+00  0.1492E+02
     12.368  0.0000E+00  0.1521E+02
     12.977  0.0000E+00  0.1549E+02
     13.585  0.0000E+00  0.1577E+02
     14.194  0.0000E+00  0.1596E+02
     14.803  0.0000E+00  0.1619E+02
     15.411  0.0000E+00  0.1681E+02
     16.020  0.1755E-10  0.1731E+02
     16.629  0.0000E+00  0.1737E+02
     17.237  0.0000E+00  0.1770E+02
     17.846  0.0000E+00  0.1794E+02
     18.454  0.0000E+00  0.1806E+02
     19.063  0.0000E+00  0.1881E+02
     19.672  0.0000E+00  0.1914E+02
     20.280  0.0000E+00  0.1942E+02
     20.889  0.9128E-01  0.2038E+02
     21.498  0.0000E+00  0.2116E+02
     22.106  0.0000E+00  0.2203E+02
     22.715  0.0000E+00  0.2219E+02
     23.324  0.0000E+00  0.2352E+02
     23.932  0.0000E+00  0.2376E+02
     24.541  0.0000E+00  0.2416E+02
     25.150  0.0000E+00  0.2447E+02
     25.758  0.0000E+00  0.2549E+02
     26.367  0.0000E+00  0.2594E+02
     26.976  0.0000E+00  0.2627E+02
     27.584  0.0000E+00  0.2709E+02
     28.193  0.0000E+00  0.2815E+02
     28.802  0.0000E+00  0.2850E+02
     29.410  0.0000E+00  0.2900E+02
     30.019  0.0000E+00  0.2934E+02
     30.628  0.0000E+00  0.3040E+02
     31.236  0.0000E+00  0.3088E+02
     31.845  0.2753E-01  0.3201E+02
     32.454  0.0000E+00  0.3269E+02
     33.062  0.0000E+00  0.3384E+02
     33.671  0.0000E+00  0.3440E+02
     34.280  0.0000E+00  0.3525E+02
     34.888  0.0000E+00  0.3548E+02
     35.497  0.0000E+00  0.3666E+02
     36.106  0.0000E+00  0.3705E+02
     36.714  0.0000E+00  0.3806E+02
     37.323  0.0000E+00  0.3830E+02
     37.932  0.0000E+00  0.3913E+02
     38.540  0.2378E-03  0.3935E+02
     39.149  0.0000E+00  0.4066E+02
     39.758  0.0000E+00  0.4082E+02
     40.366  0.0000E+00  0.4205E+02
     40.975  0.4773E-01  0.4308E+02
     41.584  0.7250E-08  0.4340E+02
     42.192  0.9128E-01  0.4475E+02
     42.801  0.0000E+00  0.4543E+02
     43.410  0.0000E+00  0.4570E+02
     44.018  0.3002E-03  0.4694E+02
     44.627  0.0000E+00  0.4739E+02
     45.235  0.5192E-01  0.4820E+02
     45.844  0.7302E+00  0.4957E+02
     46.453  0.0000E+00  0.5020E+02
     47.061  0.0000E+00  0.5126E+02
     47.670  0.0000E+00  0.5178E+02
     48.279  0.0000E+00  0.5219E+02
     48.887  0.0000E+00  0.5318E+02
     49.496  0.0000E+00  0.5401E+02
     50.105  0.0000E+00  0.5505E+02
     50.713  0.0000E+00  0.5553E+02
     51.322  0.0000E+00  0.5608E+02
     51.931  0.0000E+00  0.5686E+02
     52.539  0.0000E+00  0.5850E+02
     53.148  0.0000E+00  0.5908E+02
     53.757  0.0000E+00  0.6014E+02
     54.365  0.0000E+00  0.6056E+02
     54.974  0.0000E+00  0.6090E+02
     55.583  0.0000E+00  0.6142E+02
     56.191  0.0000E+00  0.6307E+02
     56.800  0.0000E+00  0.6448E+02
     57.409  0.0000E+00  0.6565E+02
     58.017  0.1521E-01  0.6622E+02
     58.626  0.0000E+00  0.6691E+02
     59.235  0.0000E+00  0.6778E+02
     59.843  0.0000E+00  0.6841E+02
     60.452  0.0000E+00  0.6959E+02
     61.061  0.0000E+00  0.7039E+02
     61.669  0.0000E+00  0.7157E+02
     62.278  0.0000E+00  0.7220E+02
     62.887  0.0000E+00  0.7296E+02
     63.495  0.0000E+00  0.7394E+02
     64.104  0.0000E+00  0.7466E+02
     64.713  0.0000E+00  0.7558E+02
     65.321  0.0000E+00  0.7669E+02
     65.930  0.0000E+00  0.7681E+02
     66.539  0.0000E+00  0.7842E+02
     67.147  0.0000E+00  0.7936E+02
     67.756  0.0000E+00  0.8047E+02
     68.365  0.0000E+00  0.8155E+02
     68.973  0.0000E+00  0.8233E+02
     69.582  0.0000E+00  0.8396E+02
     70.191  0.0000E+00  0.8491E+02
     70.799  0.0000E+00  0.8581E+02
     71.408  0.0000E+00  0.8631E+02
     72.016  0.0000E+00  0.8754E+02
     72.625  0.0000E+00  0.8857E+02
     73.234  0.0000E+00  0.8877E+02
     73.842  0.0000E+00  0.8899E+02
     74.451  0.1217E+00  0.8998E+02
     75.060  0.0000E+00  0.9113E+02
     75.668  0.2947E-03  0.9230E+02
     76.277  0.0000E+00  0.9320E+02
     76.886  0.7788E-01  0.9535E+02
     77.494  0.0000E+00  0.9658E+02
     78.103  0.1317E-15  0.9732E+02
     78.712  0.0000E+00  0.9806E+02
     79.320  0.0000E+00  0.9875E+02
     79.929  0.0000E+00  0.9980E+02
     80.538  0.0000E+00  0.1014E+03
     81.146  0.0000E+00  0.1028E+03
     81.755  0.5067E-17  0.1039E+03
     82.364  0.0000E+00  0.1048E+03
     82.972  0.0000E+00  0.1056E+03
     83.581  0.0000E+00  0.1069E+03
     84.190  0.0000E+00  0.1072E+03
     84.798  0.0000E+00  0.1075E+03
     85.407  0.0000E+00  0.1079E+03
     86.016  0.0000E+00  0.1092E+03
     86.624  0.0000E+00  0.1106E+03
     87.233  0.1750E+00  0.1126E+03
     87.842  0.0000E+00  0.1133E+03
     88.450  0.0000E+00  0.1139E+03
     89.059  0.0000E+00  0.1150E+03
     89.668  0.0000E+00  0.1162E+03
     90.276  0.0000E+00  0.1174E+03
     90.885  0.0000E+00  0.1184E+03
     91.494  0.0000E+00  0.1201E+03
     92.102  0.0000E+00  0.1219E+03
     92.711  0.0000E+00  0.1233E+03
     93.320  0.3651E+00  0.1255E+03
     93.928  0.0000E+00  0.1262E+03
     94.537  0.0000E+00  0.1274E+03
     95.146  0.0000E+00  0.1291E+03
     95.754  0.0000E+00  0.1296E+03
     96.363  0.0000E+00  0.1304E+03
     96.972  0.0000E+00  0.1314E+03
     97.580  0.0000E+00  0.1322E+03
     98.189  0.3484E-04  0.1330E+03
     98.797  0.0000E+00  0.1343E+03
     99.406  0.0000E+00  0.1354E+03
    100.015  0.0000E+00  0.1374E+03
    100.623  0.0000E+00  0.1384E+03
    101.232  0.0000E+00  0.1393E+03
    101.841  0.3200E-04  0.1400E+03
    102.449  0.0000E+00  0.1414E+03
    103.058  0.5962E-02  0.1429E+03
    103.667  0.0000E+00  0.1449E+03
    104.275  0.0000E+00  0.1455E+03
    104.884  0.0000E+00  0.1470E+03
    105.493  0.9738E-04  0.1482E+03
    106.101  0.0000E+00  0.1493E+03
    106.710  0.1823E+00  0.1511E+03
    107.319  0.0000E+00  0.1519E+03
    107.927  0.0000E+00  0.1529E+03
    108.536  0.0000E+00  0.1539E+03
    109.145  0.0000E+00  0.1549E+03
    109.753  0.3636E+00  0.1567E+03
    110.362  0.0000E+00  0.1572E+03
    110.971  0.0000E+00  0.1591E+03
    111.579  0.0000E+00  0.1599E+03
    112.188  0.0000E+00  0.1620E+03
    112.797  0.0000E+00  0.1623E+03
    113.405  0.0000E+00  0.1641E+03
    114.014  0.0000E+00  0.1654E+03
    114.623  0.0000E+00  0.1666E+03
    115.231  0.0000E+00  0.1681E+03
    115.840  0.0000E+00  0.1688E+03
    116.449  0.2599E-07  0.1697E+03
    117.057  0.0000E+00  0.1711E+03
    117.666  0.0000E+00  0.1735E+03
    118.275  0.0000E+00  0.1744E+03
    118.883  0.9128E-01  0.1761E+03
    119.492  0.0000E+00  0.1773E+03
    120.101  0.0000E+00  0.1775E+03
    120.709  0.0000E+00  0.1793E+03
    121.318  0.8474E-01  0.1825E+03
    121.927  0.0000E+00  0.1841E+03
    122.535  0.0000E+00  0.1847E+03
    123.144  0.0000E+00  0.1860E+03
    123.753  0.0000E+00  0.1870E+03
    124.361  0.0000E+00  0.1886E+03
    124.970  0.0000E+00  0.1908E+03
    125.579  0.0000E+00  0.1918E+03
    126.187  0.0000E+00  0.1940E+03
    126.796  0.0000E+00  0.1952E+03
    127.404  0.0000E+00  0.1964E+03
    128.013  0.0000E+00  0.1974E+03
    128.622  0.0000E+00  0.1986E+03
    129.230  0.3651E+00  0.2000E+03
    129.839  0.0000E+00  0.2015E+03
    130.448  0.0000E+00  0.2037E+03
    131.056  0.0000E+00  0.2051E+03
    131.665  0.0000E+00  0.2066E+03
    132.274  0.0000E+00  0.2079E+03
    132.882  0.0000E+00  0.2084E+03
    133.491  0.0000E+00  0.2098E+03
    134.100  0.0000E+00  0.2111E+03
    134.708  0.1795E+00  0.2125E+03
    135.317  0.2676E-11  0.2133E+03
    135.926  0.0000E+00  0.2138E+03
    136.534  0.0000E+00  0.2147E+03
    137.143  0.3768E-03  0.2150E+03
    137.752  0.0000E+00  0.2162E+03
    138.360  0.1798E+00  0.2171E+03
    138.969  0.0000E+00  0.2180E+03
    139.578  0.0000E+00  0.2199E+03
    140.186  0.0000E+00  0.2209E+03
    140.795  0.0000E+00  0.2230E+03
    141.404  0.1771E+00  0.2251E+03
    142.012  0.0000E+00  0.2274E+03
    142.621  0.0000E+00  0.2287E+03
    143.230  0.0000E+00  0.2303E+03
    143.838  0.0000E+00  0.2313E+03
    144.447  0.1134E-04  0.2339E+03
    145.056  0.0000E+00  0.2356E+03
    145.664  0.3023E+00  0.2366E+03
    146.273  0.0000E+00  0.2378E+03
    146.882  0.0000E+00  0.2401E+03
    147.490  0.0000E+00  0.2421E+03
    148.099  0.0000E+00  0.2424E+03
    148.708  0.0000E+00  0.2434E+03
    149.316  0.7232E-01  0.2439E+03
    149.925  0.0000E+00  0.2451E+03
    150.534  0.1217E+00  0.2456E+03
    151.142  0.0000E+00  0.2464E+03
    151.751  0.0000E+00  0.2467E+03
    152.360  0.1397E-02  0.2477E+03
    152.968  0.0000E+00  0.2489E+03
    153.577  0.0000E+00  0.2498E+03
    154.185  0.0000E+00  0.2515E+03
    154.794  0.0000E+00  0.2524E+03
    155.403  0.0000E+00  0.2528E+03
    156.011  0.0000E+00  0.2540E+03
    156.620  0.0000E+00  0.2542E+03
    157.229  0.0000E+00  0.2548E+03
    157.837  0.0000E+00  0.2557E+03
    158.446  0.0000E+00  0.2557E+03
    159.055  0.0000E+00  0.2560E+03
    159.663  0.0000E+00  0.2560E+03
    160.272  0.0000E+00  0.2560E+03
    160.881  0.0000E+00  0.2560E+03
    161.489  0.0000E+00  0.2560E+03
    162.098  0.0000E+00  0.2560E+03
    162.707  0.0000E+00  0.2560E+03
    163.315  0.0000E+00  0.2560E+03
    163.924  0.0000E+00  0.2560E+03
    164.533  0.0000E+00  0.2560E+03
    165.141  0.0000E+00  0.2560E+03
    165.750  0.0000E+00  0.2560E+03
    166.359  0.0000E+00  0.2560E+03
    166.967  0.0000E+00  0.2560E+03
    167.576  0.0000E+00  0.2560E+03
    168.185  0.0000E+00  0.2560E+03
    168.793  0.0000E+00  0.2560E+03
