       N       E                     dE             d eps       ncg     rms          rms(c)
DIA:   1    -0.100212656726E+01   -0.10021E+01    0.00000E+00     0   0.000E+00
DIA:   2    -0.100212656726E+01   -0.90949E-12    0.00000E+00     0   0.000E+00
DIA:   3    -0.100212656727E+01   -0.63665E-11    0.00000E+00     0   0.000E+00
DIA:   4    -0.100212656727E+01    0.38654E-11    0.00000E+00     0   0.000E+00
DIA:   5    -0.100212656726E+01    0.50022E-11    0.00000E+00     0   0.000E+00    0.428E-07
DIA:   6    -0.100212656724E+01    0.20918E-10    0.00000E+00     0   0.000E+00
   1 F= -.14850780E+01 E0= -.14850780E+01  d E =0.000000E+00  mag=    -0.0000    -0.0000    -0.0000
 imaginary and real dielectric function
