Og_FCC                                  
   1.00000000000000     
     2.974221    0.000000    0.000000
     1.487110    2.575751    0.000000
     1.487110    0.858584    2.428441
   Ne
     1
Direct
  0.000000  0.000000  0.000000
 
   28   28   28
 0.19129329164E+03 0.18775987097E+03 0.17510839916E+03 0.15020960164E+03 0.11435080573E+03
 0.74986879070E+02 0.41558991246E+02 0.19578554283E+02 0.81448277688E+01 0.31500533574E+01
 0.13827255657E+01 0.90301120907E+00 0.89092094152E+00 0.10172743070E+01 0.10893845685E+01
 0.10172741003E+01 0.89092056985E+00 0.90301075114E+00 0.13827250876E+01 0.31500529083E+01
 0.81448276464E+01 0.19578555612E+02 0.41558996530E+02 0.74986891426E+02 0.11435082658E+03
 0.15020962838E+03 0.17510842480E+03 0.18775988681E+03 0.18775986401E+03 0.17960783315E+03
 0.16048538772E+03 0.12943597836E+03 0.91199126003E+02 0.54778537918E+02 0.27815580362E+02
 0.12249437292E+02 0.48770250197E+01 0.19536274935E+01 0.10446640775E+01 0.86296430246E+00
 0.94911897396E+00 0.10617380105E+01 0.10620143324E+01 0.94882026127E+00 0.86323237052E+00
 0.10443381791E+01 0.19539032382E+01 0.48766505555E+01 0.12249769738E+02 0.27815436861E+02
 0.54779426181E+02 0.91201321765E+02 0.12943634037E+03 0.16049053904E+03 0.17960565668E+03
 0.18775751102E+03 0.17510837701E+03 0.16048537456E+03 0.13459228664E+03 0.10009209987E+03
 0.64255664544E+02 0.35045495607E+02 0.16430114944E+02 0.68744765921E+01 0.27241723942E+01
 0.12806279004E+01 0.88751887349E+00 0.88624379656E+00 0.98955139571E+00 0.10511191138E+01
 0.98956873138E+00 0.88613088855E+00 0.88758908112E+00 0.12803926700E+01 0.27243728024E+01
 0.68740240626E+01 0.16430207016E+02 0.35045815449E+02 0.64257370101E+02 0.10009514141E+03
 0.13459361165E+03 0.16048904471E+03 0.17510993174E+03 0.17960562503E+03 0.15020956798E+03
 0.12943595685E+03 0.10009209195E+03 0.67683164374E+02 0.39272473964E+02 0.19597023404E+02
 0.86688483290E+01 0.35378805481E+01 0.15640097023E+01 0.95361799699E+00 0.84295494172E+00
 0.90139812591E+00 0.97391998153E+00 0.97358379581E+00 0.90167954177E+00 0.84255809805E+00
 0.95388557547E+00 0.15635283555E+01 0.35381951706E+01 0.86685429872E+01 0.19597757535E+02
 0.39273319995E+02 0.67683897345E+02 0.10009569974E+03 0.12943812835E+03 0.15021048178E+03
 0.16048901250E+03 0.16049048338E+03 0.11435077250E+03 0.91199106312E+02 0.64255656919E+02
 0.39272472664E+02 0.20781632875E+02 0.97391765567E+01 0.41632936037E+01 0.18224970437E+01
 0.10293912622E+01 0.82526227757E+00 0.82464936489E+00 0.86646913165E+00 0.88684497377E+00
 0.86643758017E+00 0.82455791123E+00 0.82520111057E+00 0.10292341259E+01 0.18224687463E+01
 0.41627819344E+01 0.97396022582E+01 0.20780763228E+02 0.39275992099E+02 0.64256617930E+02
 0.91202526390E+02 0.11435662701E+03 0.12943810292E+03 0.13459356238E+03 0.12943628035E+03
 0.74986856979E+02 0.54778527178E+02 0.35045492901E+02 0.19597023968E+02 0.97391772952E+01
 0.43979851815E+01 0.19773206663E+01 0.10870888952E+01 0.82518055644E+00 0.78045905411E+00
 0.77561444154E+00 0.76680468534E+00 0.76665644332E+00 0.77567811790E+00 0.78019697086E+00
 0.82526248028E+00 0.10866306147E+01 0.19777594505E+01 0.43968634630E+01 0.97409655016E+01
 0.19595040530E+02 0.35048261056E+02 0.54779727476E+02 0.74985060154E+02 0.91202510926E+02
 0.10009566604E+03 0.10009509581E+03 0.91201276369E+02 0.41558983087E+02 0.27815578790E+02
 0.16430116677E+02 0.86688505296E+01 0.41632950110E+01 0.19773212061E+01 0.11086666775E+01
 0.82968635468E+00 0.76683183637E+00 0.72739293632E+00 0.66437654026E+00 0.62898106005E+00
 0.66418767979E+00 0.72756332652E+00 0.76626268563E+00 0.83025724221E+00 0.11074157227E+01
 0.19787368895E+01 0.41604881506E+01 0.86717880742E+01 0.16427823328E+02 0.27815459514E+02
 0.41565007532E+02 0.54779720771E+02 0.64256600925E+02 0.67683871518E+02 0.64257341907E+02
 0.54779403220E+02 0.19578555638E+02 0.12249440685E+02 0.68744801107E+01 0.35378831445E+01
 0.18224985768E+01 0.10870896872E+01 0.82968671576E+00 0.76575981884E+00 0.71334468497E+00
 0.60575271728E+00 0.50119625541E+00 0.50167059401E+00 0.60512347195E+00 0.71382379238E+00
 0.76481383100E+00 0.83054546625E+00 0.10855813743E+01 0.18242856669E+01 0.35359749380E+01
 0.68736949401E+01 0.12254500428E+02 0.19570648972E+02 0.27815458093E+02 0.35048255908E+02
 0.39275982713E+02 0.39273308642E+02 0.35045805939E+02 0.27815432013E+02 0.81448325880E+01
 0.48770294403E+01 0.27241757815E+01 0.15640120034E+01 0.10293927903E+01 0.82518165120E+00
 0.76683266185E+00 0.71334519394E+00 0.58813175251E+00 0.42613735494E+00 0.34982645478E+00
 0.42612108714E+00 0.58789096171E+00 0.71348450545E+00 0.76631927959E+00 0.82551401889E+00
 0.10284809106E+01 0.15637360259E+01 0.27269161182E+01 0.48707392978E+01 0.81494686384E+01
 0.12254501060E+02 0.16427823810E+02 0.19595040276E+02 0.20780762568E+02 0.19597757643E+02
 0.16430208977E+02 0.12249773649E+02 0.31500580589E+01 0.19536312085E+01 0.12806306985E+01
 0.95362017490E+00 0.82526412762E+00 0.78046073927E+00 0.72739446171E+00 0.60575394524E+00
 0.42613806560E+00 0.28733329102E+00 0.28719586338E+00 0.42616655374E+00 0.60533488618E+00
 0.72746343252E+00 0.77999174031E+00 0.82554056752E+00 0.95379895777E+00 0.12777295900E+01
 0.19572200756E+01 0.31494127808E+01 0.48707402541E+01 0.68736968669E+01 0.86717908250E+01
 0.97409689848E+01 0.97396065401E+01 0.86685481159E+01 0.68740297901E+01 0.48766563065E+01
 0.13827292590E+01 0.10446671719E+01 0.88752162071E+00 0.84295754816E+00 0.82465192918E+00
 0.77561695615E+00 0.66437890521E+00 0.50119829075E+00 0.34982794251E+00 0.28719663152E+00
 0.34970186525E+00 0.50132520976E+00 0.66406638420E+00 0.77564893079E+00 0.82410260478E+00
 0.84248068762E+00 0.88962248545E+00 0.10422428959E+01 0.13819141107E+01 0.19572208022E+01
 0.27269178130E+01 0.35359777263E+01 0.41604920079E+01 0.43968682381E+01 0.41627873579E+01
 0.35382008473E+01 0.27243782714E+01 0.19539081262E+01 0.90301453332E+00 0.86296756438E+00
 0.88624711390E+00 0.90140151635E+00 0.86647253546E+00 0.76680800315E+00 0.62898415836E+00
 0.50167330091E+00 0.42612321986E+00 0.42616797455E+00 0.50132587908E+00 0.62891919985E+00
 0.76655022687E+00 0.86654129500E+00 0.90149713016E+00 0.88394262812E+00 0.86425201241E+00
 0.90357822314E+00 0.10422433756E+01 0.12777307587E+01 0.15637380672E+01 0.18242886497E+01
 0.19787407247E+01 0.19777639003E+01 0.18224734757E+01 0.15635330228E+01 0.12803970400E+01
 0.10443422005E+01 0.89092467784E+00 0.94912289986E+00 0.98955545996E+00 0.97392407223E+00
 0.88684897320E+00 0.76666024537E+00 0.66419117604E+00 0.60512653795E+00 0.58789346490E+00
 0.60533671912E+00 0.66406750807E+00 0.76655070551E+00 0.88639139882E+00 0.97354409723E+00
 0.99124881389E+00 0.94809467143E+00 0.88990733698E+00 0.86425233779E+00 0.88962329269E+00
 0.95380040528E+00 0.10284830917E+01 0.10855842675E+01 0.11074191897E+01 0.10866344446E+01
 0.10292381059E+01 0.95388956369E+00 0.88759304660E+00 0.86323637086E+00 0.10172786739E+01
 0.10617425091E+01 0.10511236043E+01 0.97358814922E+00 0.86644170538E+00 0.77568195764E+00
 0.72756682867E+00 0.71382688226E+00 0.71348708258E+00 0.72746539882E+00 0.77565024196E+00
 0.86654200377E+00 0.97354435313E+00 0.10489974429E+01 0.10619053163E+01 0.10178083284E+01
 0.94809487521E+00 0.88394318839E+00 0.84248176035E+00 0.82554226314E+00 0.82551635776E+00
 0.83054837475E+00 0.83026058967E+00 0.82526613235E+00 0.82520497364E+00 0.84256213811E+00
 0.88613511526E+00 0.94882468287E+00 0.10893892162E+01 0.10620189082E+01 0.98957311144E+00
 0.90168365854E+00 0.82456175186E+00 0.78020053985E+00 0.76626596187E+00 0.76481674448E+00
 0.76632172135E+00 0.77999360800E+00 0.82410386142E+00 0.90149783819E+00 0.99124911766E+00
 0.10619053885E+01 0.10883478252E+01 0.10619053825E+01 0.99124910950E+00 0.90149783586E+00
 0.82410387819E+00 0.77999366263E+00 0.76632183422E+00 0.76481692824E+00 0.76626621167E+00
 0.78020082974E+00 0.82456204220E+00 0.90168390880E+00 0.98957329133E+00 0.10620190016E+01
 0.10172784688E+01 0.94882440137E+00 0.88613477813E+00 0.84256177710E+00 0.82520462580E+00
 0.82526583149E+00 0.83026035724E+00 0.83054821495E+00 0.82551626054E+00 0.82554221141E+00
 0.84248173738E+00 0.88394318110E+00 0.94809487393E+00 0.10178083258E+01 0.10619053074E+01
 0.10489974266E+01 0.97354433332E+00 0.86654199160E+00 0.77565025570E+00 0.72746545988E+00
 0.71348720549E+00 0.71382706351E+00 0.72756704206E+00 0.77568216186E+00 0.86644185856E+00
 0.97358822207E+00 0.10511235837E+01 0.10617423930E+01 0.89092430873E+00 0.86323596306E+00
 0.88759263191E+00 0.95388917327E+00 0.10292377654E+01 0.10866341699E+01 0.11074189848E+01
 0.10855841264E+01 0.10284830020E+01 0.95380035332E+00 0.88962326623E+00 0.86425232672E+00
 0.88990733223E+00 0.94809466472E+00 0.99124879916E+00 0.97354407327E+00 0.88639137202E+00
 0.76655069061E+00 0.66406752441E+00 0.60533678107E+00 0.58789357076E+00 0.60512666459E+00
 0.66419128524E+00 0.76666029755E+00 0.88684894087E+00 0.97392394399E+00 0.98955523756E+00
 0.94912259521E+00 0.90301407780E+00 0.10443417481E+01 0.12803966127E+01 0.15635326395E+01
 0.18224731509E+01 0.19777636430E+01 0.19787405354E+01 0.18242885207E+01 0.15637379858E+01
 0.12777307124E+01 0.10422433539E+01 0.90357821677E+00 0.86425201177E+00 0.88394262406E+00
 0.90149711687E+00 0.86654127359E+00 0.76655020662E+00 0.62891919501E+00 0.50132590037E+00
 0.42616801946E+00 0.42612326795E+00 0.50167331927E+00 0.62898411352E+00 0.76680787279E+00
 0.86647231199E+00 0.90140120565E+00 0.88624673171E+00 0.86296713197E+00 0.13827287819E+01
 0.19539076682E+01 0.27243778530E+01 0.35382004903E+01 0.41627870791E+01 0.43968680403E+01
 0.41604918776E+01 0.35359776431E+01 0.27269177606E+01 0.19572207737E+01 0.13819141029E+01
 0.10422429028E+01 0.88962249743E+00 0.84248069578E+00 0.82410260650E+00 0.77564893075E+00
 0.66406639058E+00 0.50132522651E+00 0.34970188465E+00 0.28719663158E+00 0.34982789332E+00
 0.50119816588E+00 0.66437869169E+00 0.77561665568E+00 0.82465155478E+00 0.84295711815E+00
 0.88752115528E+00 0.10446666924E+01 0.31500576082E+01 0.48766559349E+01 0.68740295433E+01
 0.86685480151E+01 0.97396065604E+01 0.97409690613E+01 0.86717908906E+01 0.68736968896E+01
 0.48707402454E+01 0.31494127718E+01 0.19572200862E+01 0.12777296186E+01 0.95379899255E+00
 0.82554060203E+00 0.77999177757E+00 0.72746347773E+00 0.60533493651E+00 0.42616659275E+00
 0.28719586206E+00 0.28733321673E+00 0.42613789504E+00 0.60575367504E+00 0.72739410761E+00
 0.78046032664E+00 0.82526367831E+00 0.95361970313E+00 0.12806302143E+01 0.19536307251E+01
 0.81448324614E+01 0.12249773884E+02 0.16430209610E+02 0.19597758548E+02 0.20780763493E+02
 0.19595040979E+02 0.16427824187E+02 0.12254501174E+02 0.81494686296E+01 0.48707392860E+01
 0.27269161482E+01 0.15637360861E+01 0.10284809814E+01 0.82551409851E+00 0.76631937562E+00
 0.71348461398E+00 0.58789105821E+00 0.42612113176E+00 0.34982640622E+00 0.42613718590E+00
 0.58813146326E+00 0.71334481313E+00 0.76683223152E+00 0.82518120140E+00 0.10293923285E+01
 0.15640115277E+01 0.27241753187E+01 0.48770290793E+01 0.19578556964E+02 0.27815434393E+02
 0.35045809061E+02 0.39273311820E+02 0.39275985226E+02 0.35048257378E+02 0.27815458622E+02
 0.19570648967E+02 0.12254500296E+02 0.68736948902E+01 0.35359749929E+01 0.18242857724E+01
 0.10855814970E+01 0.83054561053E+00 0.76481400129E+00 0.71382396384E+00 0.60512359440E+00
 0.50167061361E+00 0.50119613468E+00 0.60575245095E+00 0.71334430594E+00 0.76575938442E+00
 0.82968627067E+00 0.10870892382E+01 0.18224981142E+01 0.35378827255E+01 0.68744799349E+01
 0.12249441084E+02 0.41558988378E+02 0.54779410309E+02 0.64257349418E+02 0.67683877798E+02
 0.64256604881E+02 0.54779722351E+02 0.41565007542E+02 0.27815458981E+02 0.16427822924E+02
 0.86717879724E+01 0.41604882483E+01 0.19787370557E+01 0.11074159122E+01 0.83025746320E+00
 0.76626292709E+00 0.72756353608E+00 0.66418779056E+00 0.62898102077E+00 0.66437633327E+00
 0.72739258697E+00 0.76683140803E+00 0.82968590979E+00 0.11086662337E+01 0.19773207525E+01
 0.41632946372E+01 0.86688505808E+01 0.16430117808E+02 0.27815581796E+02 0.74986869363E+02
 0.91201290207E+02 0.10009510809E+03 0.10009567434E+03 0.91202514535E+02 0.74985060188E+02
 0.54779725927E+02 0.35048259575E+02 0.19595039790E+02 0.97409653833E+01 0.43968636292E+01
 0.19777596891E+01 0.10866308789E+01 0.82526277471E+00 0.78019725781E+00 0.77567832362E+00
 0.76665650110E+00 0.76680456238E+00 0.77561414737E+00 0.78045864488E+00 0.82518010726E+00
 0.10870884455E+01 0.19773202121E+01 0.43979848264E+01 0.97391775050E+01 0.19597025764E+02
 0.35045497708E+02 0.54778535988E+02 0.11435079341E+03 0.12943630011E+03 0.13459357665E+03
 0.12943810961E+03 0.11435662708E+03 0.91202522867E+02 0.64256614000E+02 0.39275989564E+02
 0.20780762260E+02 0.97396021988E+01 0.41627821887E+01 0.18224690592E+01 0.10292344613E+01
 0.82520145670E+00 0.82455820298E+00 0.86643773809E+00 0.88684494817E+00 0.86646891447E+00
 0.82464899435E+00 0.82526182924E+00 0.10293907995E+01 0.18224965797E+01 0.41632932286E+01
 0.97391767653E+01 0.20781634940E+02 0.39272478651E+02 0.64255668671E+02 0.91199123909E+02
 0.15020959480E+03 0.16049050409E+03 0.16048902292E+03 0.15021048187E+03 0.12943812180E+03
 0.10009569152E+03 0.67683891080E+02 0.39273316790E+02 0.19597756592E+02 0.86685430594E+01
 0.35381955131E+01 0.15635287340E+01 0.95388596545E+00 0.84255846086E+00 0.90167979596E+00
 0.97358387409E+00 0.97391985854E+00 0.90139781862E+00 0.84295451271E+00 0.95361752453E+00
 0.15640092254E+01 0.35378801278E+01 0.86688483777E+01 0.19597025195E+02 0.39272479946E+02
 0.67683177273E+02 0.10009211281E+03 0.12943598341E+03 0.17510840274E+03 0.17960563887E+03
 0.17510993183E+03 0.16048903447E+03 0.13459359750E+03 0.10009512919E+03 0.64257362596E+02
 0.35045812305E+02 0.16430206358E+02 0.68740242935E+01 0.27243732151E+01 0.12803930972E+01
 0.88758949813E+00 0.88613122926E+00 0.98956891556E+00 0.10511190970E+01 0.98955117569E+00
 0.88624341482E+00 0.88751840724E+00 0.12806274153E+01 0.27241719309E+01 0.68744764151E+01
 0.16430116070E+02 0.35045500403E+02 0.64255676281E+02 0.10009212072E+03 0.13459231535E+03
 0.16048540569E+03 0.18775987991E+03 0.18775751108E+03 0.17960564298E+03 0.16049051847E+03
 0.12943632070E+03 0.91201307969E+02 0.54779419097E+02 0.27815434469E+02 0.12249769491E+02
 0.48766509207E+01 0.19539036955E+01 0.10443386335E+01 0.86323278156E+00 0.94882054621E+00
 0.10620144285E+01 0.10617378956E+01 0.94911866878E+00 0.86296386851E+00 0.10446635966E+01
 0.19536270098E+01 0.48770246595E+01 0.12249437690E+02 0.27815583361E+02 0.54778546709E+02
 0.91199143567E+02 0.12943600488E+03 0.16048541882E+03 0.17960786075E+03 0.18775984695E+03
 0.17960781837E+03 0.16048537674E+03 0.12943597145E+03 0.91199122392E+02 0.54778536374E+02
 0.27815579789E+02 0.12249437028E+02 0.48770248067E+01 0.19536272771E+01 0.10446638571E+01
 0.86296407799E+00 0.94911874063E+00 0.10617377690E+01 0.10620140900E+01 0.94882002536E+00
 0.86323214126E+00 0.10443379514E+01 0.19539030104E+01 0.48766503264E+01 0.12249769455E+02
 0.27815436282E+02 0.54779424667E+02 0.91201318243E+02 0.12943633362E+03 0.16049052825E+03
 0.17960564205E+03 0.18775749401E+03 0.17960780128E+03 0.16548856628E+03 0.13977096397E+03
 0.10471300707E+03 0.67676592107E+02 0.37098098764E+02 0.17415919857E+02 0.72771320198E+01
 0.28635748487E+01 0.13200323068E+01 0.89825552181E+00 0.89334752200E+00 0.10034397359E+01
 0.10689048052E+01 0.10034935621E+01 0.89315970994E+00 0.89844405973E+00 0.13196277829E+01
 0.28639570700E+01 0.72765810315E+01 0.17417226371E+02 0.37097067407E+02 0.67678030009E+02
 0.10471332479E+03 0.13977251069E+03 0.16549289435E+03 0.17960885305E+03 0.18384753554E+03
 0.16048534296E+03 0.13977094857E+03 0.10944975731E+03 0.74936212400E+02 0.43932690376E+02
 0.22019351138E+02 0.97270520800E+01 0.39403557755E+01 0.16912455660E+01 0.99270939067E+00
 0.85987527792E+00 0.92669496901E+00 0.10126213471E+01 0.10123702794E+01 0.92689605519E+00
 0.85954853798E+00 0.99292484852E+00 0.16908014534E+01 0.39406472464E+01 0.97264589958E+01
 0.22020157933E+02 0.43933298631E+02 0.74938529404E+02 0.10945469194E+03 0.13977228531E+03
 0.16049219922E+03 0.17040580608E+03 0.17040150004E+03 0.12943593238E+03 0.10471298677E+03
 0.74936206349E+02 0.46442247771E+02 0.24747120741E+02 0.11584371800E+02 0.49164818137E+01
 0.20810108556E+01 0.11125826638E+01 0.85354267252E+00 0.85378780546E+00 0.91553067739E+00
 0.95009557592E+00 0.91542822644E+00 0.85384397726E+00 0.85324399854E+00 0.11127517066E+01
 0.20805172228E+01 0.49170143310E+01 0.11583518852E+02 0.24748147038E+02 0.46443147147E+02
 0.74937399417E+02 0.10471883037E+03 0.12943750683E+03 0.14502050994E+03 0.15023016126E+03
 0.14502010692E+03 0.91199091733E+02 0.67676577445E+02 0.43932686235E+02 0.24747120597E+02
 0.12279987293E+02 0.54994188639E+01 0.23804903421E+01 0.12188491776E+01 0.86491132584E+00
 0.80358858800E+00 0.82060358143E+00 0.83850549118E+00 0.83883063868E+00 0.82017232564E+00
 0.80386558417E+00 0.86438222780E+00 0.12191295305E+01 0.23797617814E+01 0.54998013012E+01
 0.12279564048E+02 0.24746699966E+02 0.43935358028E+02 0.67675963313E+02 0.91204424321E+02
 0.10951112167E+03 0.11932505412E+03 0.11932298858E+03 0.10950757682E+03 0.54778520999E+02
 0.37098093668E+02 0.22019351362E+02 0.11584373212E+02 0.54994196513E+01 0.24923952746E+01
 0.12814089194E+01 0.87824344071E+00 0.78347320856E+00 0.75930013368E+00 0.73238146802E+00
 0.71346647934E+00 0.73236620720E+00 0.75910779358E+00 0.78346837271E+00 0.87793420933E+00
 0.12814938589E+01 0.24922188131E+01 0.54990409802E+01 0.11585628582E+02 0.22017302247E+02
 0.37102270796E+02 0.54778560236E+02 0.71281921783E+02 0.82834697437E+02 0.86960570679E+02
 0.82835078144E+02 0.71283241459E+02 0.27815577503E+02 0.17415921738E+02 0.97270550368E+01
 0.49164840889E+01 0.23804915453E+01 0.12814093501E+01 0.88453440021E+00 0.77971922967E+00
 0.73786415268E+00 0.66479395135E+00 0.58914228895E+00 0.58922821557E+00 0.66456835455E+00
 0.73789714383E+00 0.77934983962E+00 0.88465324345E+00 0.12804436363E+01 0.23815289070E+01
 0.49135106529E+01 0.97310724065E+01 0.17412310013E+02 0.27815556681E+02 0.39288718656E+02
 0.49131140946E+02 0.54792190638E+02 0.54791535751E+02 0.49128320591E+02 0.39282160158E+02
 0.12249441187E+02 0.72771364360E+01 0.39403592535E+01 0.20810130807E+01 0.12188504291E+01
 0.87824412922E+00 0.77971958325E+00 0.73475276585E+00 0.63861272934E+00 0.50269314433E+00
 0.43614698628E+00 0.50272924070E+00 0.63825549069E+00 0.73495682848E+00 0.77902389768E+00
 0.87924522701E+00 0.12171290669E+01 0.20837887916E+01 0.39370172496E+01 0.72777549223E+01
 0.12254796593E+02 0.18460720329E+02 0.24760025387E+02 0.29492499396E+02 0.31251347510E+02
 0.29493384078E+02 0.24763324871E+02 0.18466737652E+02 0.48770301463E+01 0.28635790494E+01
 0.16912485046E+01 0.11125846304E+01 0.86491271784E+00 0.78347429812E+00 0.73786501240E+00
 0.63861325385E+00 0.47260283331E+00 0.33597919288E+00 0.33575039226E+00 0.47271296766E+00
 0.63824079432E+00 0.73797831869E+00 0.78248857631E+00 0.86548571985E+00 0.11106491365E+01
 0.16919605590E+01 0.28656928627E+01 0.48706440945E+01 0.76955887016E+01 0.10914990234E+02
 0.13794428120E+02 0.15513376441E+02 0.15513314592E+02 0.13792988878E+02 0.10909365375E+02
 0.76930918146E+01 0.19536316647E+01 0.13200356401E+01 0.99271195182E+00 0.85354478414E+00
 0.80359047389E+00 0.75930187923E+00 0.66479550456E+00 0.50269434722E+00 0.33597985460E+00
 0.26368280903E+00 0.33585091119E+00 0.50263043789E+00 0.66449665067E+00 0.75981586766E+00
 0.80300611089E+00 0.85469990446E+00 0.99219644554E+00 0.13174879298E+01 0.19571355362E+01
 0.29952278126E+01 0.43641989291E+01 0.57964644669E+01 0.68920475177E+01 0.73023882394E+01
 0.68919426234E+01 0.57998093400E+01 0.43694751130E+01 0.29944141203E+01 0.10446673913E+01
 0.89825859586E+00 0.85987810669E+00 0.85379051822E+00 0.82060621308E+00 0.73238397504E+00
 0.58914455972E+00 0.43614885607E+00 0.33575169552E+00 0.33585155235E+00 0.43596962333E+00
 0.58911174945E+00 0.73151578585E+00 0.82057183370E+00 0.85245530488E+00 0.85975869087E+00
 0.90020981835E+00 0.10421811444E+01 0.13411375424E+01 0.18041306014E+01 0.23623201590E+01
 0.28746524447E+01 0.31841909903E+01 0.31843651566E+01 0.28738602485E+01 0.23583297419E+01
 0.18017323350E+01 0.13427502846E+01 0.86296763981E+00 0.89335103438E+00 0.92669846331E+00
 0.91553411425E+00 0.83850879978E+00 0.71346957533E+00 0.58923099203E+00 0.50273157031E+00
 0.47271472991E+00 0.50263156210E+00 0.58911225210E+00 0.71398694175E+00 0.83839586621E+00
 0.91638966727E+00 0.92650650549E+00 0.89123396791E+00 0.86419950025E+00 0.89619435746E+00
 0.10062472070E+01 0.11754801874E+01 0.13572408542E+01 0.14974583746E+01 0.15499838732E+01
 0.14979670136E+01 0.13589947088E+01 0.11785733827E+01 0.10078523049E+01 0.89489891355E+00
 0.94912285560E+00 0.10034438742E+01 0.10126254052E+01 0.95009945046E+00 0.83883425348E+00
 0.73236950716E+00 0.66457128432E+00 0.63825797735E+00 0.63824275395E+00 0.66449802075E+00
 0.73151657091E+00 0.83839616735E+00 0.94885098046E+00 0.10123088575E+01 0.10050235099E+01
 0.94804647991E+00 0.88681947141E+00 0.85615423799E+00 0.86378083912E+00 0.89590681181E+00
 0.93238694181E+00 0.95476210008E+00 0.95448758716E+00 0.93126287748E+00 0.89490231952E+00
 0.86142084170E+00 0.85548712550E+00 0.88835084497E+00 0.10617423307E+01 0.10689092266E+01
 0.10123744372E+01 0.91543204890E+00 0.82017579609E+00 0.75911092228E+00 0.73789992596E+00
 0.73495921777E+00 0.73798023435E+00 0.75981723900E+00 0.82057265847E+00 0.91639004161E+00
 0.10123089516E+01 0.10669686082E+01 0.10618588889E+01 0.10084828001E+01 0.93375307503E+00
 0.86412939125E+00 0.81644773793E+00 0.79524246949E+00 0.79190803957E+00 0.79362952863E+00
 0.79268735042E+00 0.79616799238E+00 0.81733522168E+00 0.86637773957E+00 0.93442500882E+00
 0.10073772580E+01 0.10620185873E+01 0.10034977235E+01 0.92689982289E+00 0.85384737256E+00
 0.80386866757E+00 0.78347118815E+00 0.77935237434E+00 0.77902607509E+00 0.78249029123E+00
 0.80300729240E+00 0.85245596972E+00 0.92650676445E+00 0.10050235252E+01 0.10618588229E+01
 0.10748674057E+01 0.10340057752E+01 0.95043917583E+00 0.85598484738E+00 0.78633536429E+00
 0.75546124167E+00 0.75010105242E+00 0.74966993514E+00 0.75505932677E+00 0.78562054358E+00
 0.85568665125E+00 0.94864977248E+00 0.10340749216E+01 0.10763642621E+01 0.94882395741E+00
 0.89316325801E+00 0.85955176833E+00 0.85324701214E+00 0.86438508815E+00 0.87793689648E+00
 0.88465565364E+00 0.87924721658E+00 0.86548717162E+00 0.85470078639E+00 0.85975907370E+00
 0.89123399047E+00 0.94804629129E+00 0.10084825301E+01 0.10340055550E+01 0.99522722102E+00
 0.89948197825E+00 0.79088476674E+00 0.71432863268E+00 0.68177527451E+00 0.67504784919E+00
 0.68207792795E+00 0.71480834232E+00 0.79168904069E+00 0.89988303678E+00 0.99727739520E+00
 0.10341430848E+01 0.10073767803E+01 0.86323541014E+00 0.89844717399E+00 0.99292794579E+00
 0.11127548495E+01 0.12191326490E+01 0.12814967684E+01 0.12804461101E+01 0.12171309203E+01
 0.11106502937E+01 0.99219696172E+00 0.90020984318E+00 0.86419920005E+00 0.88681896949E+00
 0.93375245899E+00 0.95043855890E+00 0.89948154776E+00 0.78996135147E+00 0.66704077871E+00
 0.57495843380E+00 0.53005904198E+00 0.53019745877E+00 0.57475841509E+00 0.66693247426E+00
 0.78944871627E+00 0.89973638955E+00 0.94872500531E+00 0.93437119555E+00 0.88834997074E+00
 0.10443410532E+01 0.13196311671E+01 0.16908051523E+01 0.20805210774E+01 0.23797654938E+01
 0.24922220534E+01 0.23815314057E+01 0.20837904038E+01 0.16919613010E+01 0.13174879656E+01
 0.10421807034E+01 0.89619362280E+00 0.85615329498E+00 0.86412827949E+00 0.85598366125E+00
 0.79088370801E+00 0.66704012062E+00 0.51979767510E+00 0.40127149171E+00 0.35614972565E+00
 0.40129190022E+00 0.52009036071E+00 0.66738960499E+00 0.79163272242E+00 0.85590167169E+00
 0.86629615778E+00 0.85558268406E+00 0.89489771946E+00 0.19539067407E+01 0.28639613421E+01
 0.39406517555E+01 0.49170186641E+01 0.54998050953E+01 0.54990439836E+01 0.49135127016E+01
 0.39370182683E+01 0.28656929233E+01 0.19571348735E+01 0.13411364489E+01 0.10062458776E+01
 0.86377931786E+00 0.81644601145E+00 0.78633349877E+00 0.71432682954E+00 0.57495698185E+00
 0.40127067297E+00 0.27761233549E+00 0.27757955614E+00 0.40145578940E+00 0.57487484556E+00
 0.71441835001E+00 0.78588704190E+00 0.81719570369E+00 0.86165342870E+00 0.10077866902E+01
 0.13427487099E+01 0.48766547733E+01 0.72765855138E+01 0.97264629246E+01 0.11583521942E+02
 0.12279566365E+02 0.11585630258E+02 0.97310733753E+01 0.72777549856E+01 0.48706432001E+01
 0.29952261962E+01 0.18041286307E+01 0.11754780985E+01 0.89590461698E+00 0.79524009022E+00
 0.75545869051E+00 0.68177272639E+00 0.53005678677E+00 0.35614806854E+00 0.27757870956E+00
 0.35621210034E+00 0.53014838585E+00 0.68204228114E+00 0.75566470915E+00 0.79593667344E+00
 0.89522666381E+00 0.11783571607E+01 0.18018815798E+01 0.29944120383E+01 0.12249772862E+02
 0.17417228198E+02 0.22020157930E+02 0.24748146006E+02 0.24746699080E+02 0.22017302027E+02
 0.17412309966E+02 0.12254795846E+02 0.76955868381E+01 0.43641962104E+01 0.23623171495E+01
 0.13572379165E+01 0.93238407271E+00 0.79190506887E+00 0.75009790406E+00 0.67504465159E+00
 0.53019450330E+00 0.40128952387E+00 0.40145423250E+00 0.53014768688E+00 0.67531354981E+00
 0.74999719645E+00 0.79219273759E+00 0.93185343586E+00 0.13587305199E+01 0.23588158050E+01
 0.43693350852E+01 0.76930897693E+01 0.27815434626E+02 0.37097061902E+02 0.43933290910E+02
 0.46443140320E+02 0.43935354456E+02 0.37102270400E+02 0.27815557323E+02 0.18460719780E+02
 0.10914987747E+02 0.57964606751E+01 0.28746483770E+01 0.14974546357E+01 0.95475866563E+00
 0.79362609814E+00 0.74966632105E+00 0.68207422046E+00 0.57475492825E+00 0.52008747326E+00
 0.57487281372E+00 0.68204112545E+00 0.74999673313E+00 0.79351982716E+00 0.95530882333E+00
 0.14974251541E+01 0.28744291937E+01 0.57993249050E+01 0.10909520709E+02 0.18466738240E+02
 0.54779413592E+02 0.67678014296E+02 0.74938514221E+02 0.74937390291E+02 0.67675962276E+02
 0.54778564546E+02 0.39288723214E+02 0.24760026524E+02 0.13794425458E+02 0.68920427867E+01
 0.31841860085E+01 0.15499795274E+01 0.95448377447E+00 0.79268360444E+00 0.75505536478E+00
 0.71480425902E+00 0.66692863600E+00 0.66738642793E+00 0.71441607578E+00 0.75566330531E+00
 0.79219196651E+00 0.95530844784E+00 0.15492028842E+01 0.31853976124E+01 0.68913832778E+01
 0.13793565167E+02 0.24762697957E+02 0.39282169501E+02 0.91201297802E+02 0.10471330268E+03
 0.10945467696E+03 0.10471882856E+03 0.91204434548E+02 0.71281936637E+02 0.49131152147E+02
 0.29492502972E+02 0.15513373698E+02 0.73023827092E+01 0.31843595512E+01 0.14979623610E+01
 0.93125888873E+00 0.79616403621E+00 0.78561630895E+00 0.79168468820E+00 0.78944468246E+00
 0.79162943505E+00 0.78588468246E+00 0.79593510480E+00 0.93185232371E+00 0.14974242452E+01
 0.31853969917E+01 0.73011580277E+01 0.15514339867E+02 0.29491938338E+02 0.49128823293E+02
 0.71283267695E+02 0.12943631089E+03 0.13977249293E+03 0.13977228297E+03 0.12943752317E+03
 0.10951114992E+03 0.82834725211E+02 0.54792208131E+02 0.31251352542E+02 0.15513311335E+02
 0.68919364668E+01 0.28738544247E+01 0.13589900743E+01 0.89489830403E+00 0.81733110060E+00
 0.85568218579E+00 0.89987850684E+00 0.89973229313E+00 0.85589840290E+00 0.81719331892E+00
 0.89522485415E+00 0.13587288307E+01 0.28744274461E+01 0.68913818562E+01 0.15514339353E+02
 0.31250152375E+02 0.54792025857E+02 0.82834892720E+02 0.10950762443E+03 0.16049051359E+03
 0.16549289210E+03 0.16049221836E+03 0.14502054845E+03 0.11932509929E+03 0.86960607319E+02
 0.54791555445E+02 0.29493388236E+02 0.13792984564E+02 0.57998028861E+01 0.23583241512E+01
 0.11785690136E+01 0.86141685513E+00 0.86637345536E+00 0.94864512169E+00 0.99727279649E+00
 0.94872097837E+00 0.86629299472E+00 0.86165097412E+00 0.11783548887E+01 0.23588132352E+01
 0.57993222490E+01 0.13793563519E+02 0.29491938920E+02 0.54792028059E+02 0.86957246579E+02
 0.11932264976E+03 0.14502017036E+03 0.17960564065E+03 0.17960886875E+03 0.17040584433E+03
 0.15023021460E+03 0.11932304077E+03 0.82835114699E+02 0.49128336900E+02 0.24763326088E+02
 0.10909359974E+02 0.43694688805E+01 0.18017273495E+01 0.10078482924E+01 0.85548314028E+00
 0.93442056282E+00 0.10340701745E+01 0.10341385609E+01 0.93436737079E+00 0.85557964897E+00
 0.10077840125E+01 0.18018785733E+01 0.43693315774E+01 0.10909517805E+02 0.24762698039E+02
 0.49128828403E+02 0.82834901500E+02 0.11932265678E+03 0.15023007896E+03 0.17040156228E+03
 0.18775750010E+03 0.18384755962E+03 0.17040154400E+03 0.14502015997E+03 0.10950762274E+03
 0.71283269252E+02 0.39282169419E+02 0.18466735537E+02 0.76930859824E+01 0.29944086506E+01
 0.13427460662E+01 0.89489519394E+00 0.88834680483E+00 0.10073726985E+01 0.10763595594E+01
 0.10073724915E+01 0.88834643274E+00 0.89489473470E+00 0.13427455850E+01 0.29944081886E+01
 0.76930858072E+01 0.18466736681E+02 0.39282174212E+02 0.71283280638E+02 0.10950764211E+03
 0.14502018491E+03 0.17040156798E+03 0.18384757446E+03 0.17510832206E+03 0.16048533061E+03
 0.13459225670E+03 0.10009208278E+03 0.64255656520E+02 0.35045492463E+02 0.16430113684E+02
 0.68744757886E+01 0.27241716341E+01 0.12806271278E+01 0.88751808954E+00 0.88624297934E+00
 0.98955053566E+00 0.10511182320E+01 0.98956786795E+00 0.88613006426E+00 0.88758828585E+00
 0.12803918802E+01 0.27243720161E+01 0.68740232237E+01 0.16430205723E+02 0.35045812308E+02
 0.64257362164E+02 0.10009512453E+03 0.13459358200E+03 0.16048900105E+03 0.17510987697E+03
 0.17960556595E+03 0.16048531007E+03 0.13977092430E+03 0.10944974218E+03 0.74936204569E+02
 0.43932687038E+02 0.22019349863E+02 0.97270514582E+01 0.39403552804E+01 0.16912450785E+01
 0.99270889903E+00 0.85987476730E+00 0.92669442323E+00 0.10126207719E+01 0.10123697035E+01
 0.92689550679E+00 0.85954802305E+00 0.99292434998E+00 0.16908009558E+01 0.39406467364E+01
 0.97264583568E+01 0.22020156647E+02 0.43933295308E+02 0.74938521635E+02 0.10945467693E+03
 0.13977226119E+03 0.16049216645E+03 0.17040576798E+03 0.17040146190E+03 0.13459222363E+03
 0.10944972957E+03 0.78766685357E+02 0.49067236794E+02 0.26222945515E+02 0.12274378785E+02