   1   1   0   0
  0.1860393E+02  0.2974221E-09  0.2974221E-09  0.2974221E-09  0.1000000E-15
  1.000000000000000E-004
  CAR 
 Og_FCC                                  
     45.88784272    -49.36946790  301     -4.51915082      1.00000000
    -49.369  0.0000E+00  0.0000E+00
    -49.052  0.0000E+00  0.0000E+00
    -48.734  0.0000E+00  0.0000E+00
    -48.417  0.0000E+00  0.0000E+00
    -48.099  0.0000E+00  0.0000E+00
    -47.782  0.0000E+00  0.0000E+00
    -47.464  0.0000E+00  0.0000E+00
    -47.147  0.0000E+00  0.0000E+00
    -46.829  0.0000E+00  0.0000E+00
    -46.512  0.0000E+00  0.0000E+00
    -46.194  0.0000E+00  0.0000E+00
    -45.877  0.0000E+00  0.0000E+00
    -45.559  0.0000E+00  0.0000E+00
    -45.242  0.0000E+00  0.0000E+00
    -44.924  0.4921E-01  0.2969E+00
    -44.607  0.4921E-01  0.1063E+01
    -44.289  0.0000E+00  0.1688E+01
    -43.972  0.0000E+00  0.2000E+01
    -43.654  0.0000E+00  0.2000E+01
    -43.337  0.0000E+00  0.2000E+01
    -43.019  0.0000E+00  0.2000E+01
    -42.701  0.0000E+00  0.2000E+01
    -42.384  0.0000E+00  0.2000E+01
    -42.066  0.0000E+00  0.2000E+01
    -41.749  0.0000E+00  0.2000E+01
    -41.431  0.0000E+00  0.2000E+01
    -41.114  0.0000E+00  0.2000E+01
    -40.796  0.0000E+00  0.2000E+01
    -40.479  0.0000E+00  0.2000E+01
    -40.161  0.0000E+00  0.2000E+01
    -39.844  0.0000E+00  0.2000E+01
    -39.526  0.0000E+00  0.2000E+01
    -39.209  0.0000E+00  0.2000E+01
    -38.891  0.0000E+00  0.2000E+01
    -38.574  0.0000E+00  0.2000E+01
    -38.256  0.0000E+00  0.2000E+01
    -37.939  0.0000E+00  0.2000E+01
    -37.621  0.0000E+00  0.2000E+01
    -37.304  0.0000E+00  0.2000E+01
    -36.986  0.0000E+00  0.2000E+01
    -36.668  0.0000E+00  0.2000E+01
    -36.351  0.0000E+00  0.2000E+01
    -36.033  0.0000E+00  0.2000E+01
    -35.716  0.0000E+00  0.2000E+01
    -35.398  0.0000E+00  0.2000E+01
    -35.081  0.0000E+00  0.2000E+01
    -34.763  0.0000E+00  0.2000E+01
    -34.446  0.0000E+00  0.2000E+01
    -34.128  0.0000E+00  0.2000E+01
    -33.811  0.0000E+00  0.2000E+01
    -33.493  0.0000E+00  0.2000E+01
    -33.176  0.0000E+00  0.2000E+01
    -32.858  0.0000E+00  0.2000E+01
    -32.541  0.0000E+00  0.2000E+01
    -32.223  0.0000E+00  0.2000E+01
    -31.906  0.0000E+00  0.2000E+01
    -31.588  0.0000E+00  0.2000E+01
    -31.271  0.0000E+00  0.2000E+01
    -30.953  0.0000E+00  0.2000E+01
    -30.636  0.0000E+00  0.2000E+01
    -30.318  0.0000E+00  0.2000E+01
    -30.000  0.0000E+00  0.2000E+01
    -29.683  0.0000E+00  0.2000E+01
    -29.365  0.0000E+00  0.2000E+01
    -29.048  0.0000E+00  0.2000E+01
    -28.730  0.0000E+00  0.2000E+01
    -28.413  0.0000E+00  0.2000E+01
    -28.095  0.0000E+00  0.2000E+01
    -27.778  0.0000E+00  0.2000E+01
    -27.460  0.0000E+00  0.2000E+01
    -27.143  0.0000E+00  0.2000E+01
    -26.825  0.0000E+00  0.2000E+01
    -26.508  0.0000E+00  0.2000E+01
    -26.190  0.0000E+00  0.2000E+01
    -25.873  0.0000E+00  0.2000E+01
    -25.555  0.0000E+00  0.2000E+01
    -25.238  0.0000E+00  0.2000E+01
    -24.920  0.0000E+00  0.2000E+01
    -24.603  0.0000E+00  0.2000E+01
    -24.285  0.0000E+00  0.2000E+01
    -23.968  0.0000E+00  0.2000E+01
    -23.650  0.0000E+00  0.2000E+01
    -23.332  0.0000E+00  0.2000E+01
    -23.015  0.0000E+00  0.2000E+01
    -22.697  0.0000E+00  0.2000E+01
    -22.380  0.0000E+00  0.2000E+01
    -22.062  0.0000E+00  0.2000E+01
    -21.745  0.0000E+00  0.2000E+01
    -21.427  0.0000E+00  0.2000E+01
    -21.110  0.0000E+00  0.2000E+01
    -20.792  0.0000E+00  0.2000E+01
    -20.475  0.0000E+00  0.2000E+01
    -20.157  0.0000E+00  0.2000E+01
    -19.840  0.0000E+00  0.2000E+01
    -19.522  0.0000E+00  0.2000E+01
    -19.205  0.0000E+00  0.2000E+01
    -18.887  0.0000E+00  0.2000E+01
    -18.570  0.0000E+00  0.2000E+01
    -18.252  0.0000E+00  0.2000E+01
    -17.935  0.0000E+00  0.2000E+01
    -17.617  0.0000E+00  0.2000E+01
    -17.300  0.0000E+00  0.2000E+01
    -16.982  0.0000E+00  0.2000E+01
    -16.664  0.0000E+00  0.2000E+01
    -16.347  0.0000E+00  0.2000E+01
    -16.029  0.0000E+00  0.2000E+01
    -15.712  0.0000E+00  0.2000E+01
    -15.394  0.0000E+00  0.2000E+01
    -15.077  0.0000E+00  0.2000E+01
    -14.759  0.0000E+00  0.2000E+01
    -14.442  0.0000E+00  0.2000E+01
    -14.124  0.0000E+00  0.2000E+01
    -13.807  0.0000E+00  0.2016E+01
    -13.489  0.0000E+00  0.2031E+01
    -13.172  0.0000E+00  0.2125E+01
    -12.854  0.0000E+00  0.2250E+01
    -12.537  0.0000E+00  0.2297E+01
    -12.219  0.9835E-01  0.2641E+01
    -11.902  0.8687E-15  0.3375E+01
    -11.584  0.9424E-01  0.4171E+01
    -11.267  0.0000E+00  0.4609E+01
    -10.949  0.4921E-01  0.5141E+01
    -10.631  0.0000E+00  0.5500E+01
    -10.314  0.0000E+00  0.5766E+01
     -9.996  0.0000E+00  0.5906E+01
     -9.679  0.1564E+00  0.6550E+01
     -9.361  0.4624E-01  0.6905E+01
     -9.044  0.0000E+00  0.7156E+01
     -8.726  0.2357E-02  0.7204E+01
     -8.409  0.0000E+00  0.7312E+01
     -8.091  0.0000E+00  0.7609E+01
     -7.774  0.0000E+00  0.7641E+01
     -7.456  0.9445E-07  0.7672E+01
     -7.139  0.2565E-09  0.7859E+01
     -6.821  0.0000E+00  0.7953E+01
     -6.504  0.0000E+00  0.7953E+01
     -6.186  0.0000E+00  0.7969E+01
     -5.869  0.0000E+00  0.7969E+01
     -5.551  0.0000E+00  0.7984E+01
     -5.234  0.0000E+00  0.7984E+01
     -4.916  0.0000E+00  0.7984E+01
     -4.599  0.0000E+00  0.8000E+01
     -4.281  0.0000E+00  0.8000E+01
     -3.963  0.0000E+00  0.8000E+01
     -3.646  0.0000E+00  0.8000E+01
     -3.328  0.0000E+00  0.8000E+01
     -3.011  0.0000E+00  0.8000E+01
     -2.693  0.0000E+00  0.8000E+01
     -2.376  0.0000E+00  0.8000E+01
     -2.058  0.0000E+00  0.8000E+01
     -1.741  0.0000E+00  0.8000E+01
     -1.423  0.0000E+00  0.8000E+01
     -1.106  0.0000E+00  0.8000E+01
     -0.788  0.0000E+00  0.8000E+01
     -0.471  0.0000E+00  0.8000E+01
     -0.153  0.0000E+00  0.8000E+01
      0.164  0.0000E+00  0.8000E+01
      0.482  0.4921E-01  0.8016E+01
      0.799  0.0000E+00  0.8203E+01
      1.117  0.0000E+00  0.8328E+01
      1.434  0.0000E+00  0.8438E+01
      1.752  0.0000E+00  0.8484E+01
      2.069  0.0000E+00  0.8531E+01
      2.387  0.0000E+00  0.8609E+01
      2.705  0.0000E+00  0.8641E+01
      3.022  0.0000E+00  0.8656E+01
      3.340  0.0000E+00  0.8719E+01
      3.657  0.0000E+00  0.8750E+01
      3.975  0.8128E-07  0.8781E+01
      4.292  0.0000E+00  0.8812E+01
      4.610  0.0000E+00  0.8859E+01
      4.927  0.0000E+00  0.8906E+01
      5.245  0.0000E+00  0.8938E+01
      5.562  0.0000E+00  0.8984E+01
      5.880  0.0000E+00  0.9000E+01
      6.197  0.0000E+00  0.9031E+01
      6.515  0.0000E+00  0.9078E+01
      6.832  0.0000E+00  0.9109E+01
      7.150  0.0000E+00  0.9172E+01
      7.467  0.0000E+00  0.9203E+01
      7.785  0.0000E+00  0.9234E+01
      8.102  0.0000E+00  0.9234E+01
      8.420  0.0000E+00  0.9266E+01
      8.737  0.1432E-02  0.9438E+01
      9.055  0.0000E+00  0.9547E+01
      9.373  0.0000E+00  0.9594E+01
      9.690  0.0000E+00  0.9641E+01
     10.008  0.0000E+00  0.9703E+01
     10.325  0.0000E+00  0.9734E+01
     10.643  0.0000E+00  0.9781E+01
     10.960  0.0000E+00  0.9891E+01
     11.278  0.0000E+00  0.9938E+01
     11.595  0.4921E-01  0.1003E+02
     11.913  0.0000E+00  0.1019E+02
     12.230  0.0000E+00  0.1020E+02
     12.548  0.0000E+00  0.1023E+02
     12.865  0.0000E+00  0.1028E+02
     13.183  0.0000E+00  0.1038E+02
     13.500  0.3494E-07  0.1066E+02
     13.818  0.0000E+00  0.1086E+02
     14.135  0.0000E+00  0.1089E+02
     14.453  0.0000E+00  0.1089E+02
     14.770  0.0000E+00  0.1092E+02
     15.088  0.0000E+00  0.1094E+02
     15.406  0.0000E+00  0.1098E+02
     15.723  0.0000E+00  0.1103E+02
     16.041  0.0000E+00  0.1108E+02
     16.358  0.0000E+00  0.1112E+02
     16.676  0.0000E+00  0.1120E+02
     16.993  0.0000E+00  0.1123E+02
     17.311  0.0000E+00  0.1125E+02
     17.628  0.0000E+00  0.1127E+02
     17.946  0.0000E+00  0.1131E+02
     18.263  0.0000E+00  0.1134E+02
     18.581  0.0000E+00  0.1138E+02
     18.898  0.0000E+00  0.1142E+02
     19.216  0.0000E+00  0.1152E+02
     19.533  0.0000E+00  0.1155E+02
     19.851  0.0000E+00  0.1166E+02
     20.168  0.0000E+00  0.1167E+02
     20.486  0.0000E+00  0.1172E+02
     20.803  0.0000E+00  0.1173E+02
     21.121  0.0000E+00  0.1180E+02
     21.438  0.7874E-04  0.1183E+02
     21.756  0.0000E+00  0.1188E+02
     22.074  0.0000E+00  0.1189E+02
     22.391  0.0000E+00  0.1194E+02
     22.709  0.0000E+00  0.1197E+02
     23.026  0.0000E+00  0.1197E+02
     23.344  0.0000E+00  0.1197E+02
     23.661  0.0000E+00  0.1197E+02
     23.979  0.0000E+00  0.1197E+02
     24.296  0.0000E+00  0.1197E+02
     24.614  0.0000E+00  0.1197E+02
     24.931  0.0000E+00  0.1197E+02
     25.249  0.0000E+00  0.1197E+02
     25.566  0.0000E+00  0.1197E+02
     25.884  0.0000E+00  0.1197E+02
     26.201  0.0000E+00  0.1197E+02
     26.519  0.0000E+00  0.1197E+02
     26.836  0.0000E+00  0.1197E+02
     27.154  0.0000E+00  0.1197E+02
     27.471  0.0000E+00  0.1197E+02
     27.789  0.0000E+00  0.1198E+02
     28.106  0.0000E+00  0.1198E+02
     28.424  0.0000E+00  0.1198E+02
     28.742  0.0000E+00  0.1198E+02
     29.059  0.0000E+00  0.1198E+02
     29.377  0.0000E+00  0.1198E+02
     29.694  0.0000E+00  0.1198E+02
     30.012  0.0000E+00  0.1198E+02
     30.329  0.0000E+00  0.1198E+02
     30.647  0.0000E+00  0.1198E+02
     30.964  0.0000E+00  0.1198E+02
     31.282  0.0000E+00  0.1198E+02
     31.599  0.0000E+00  0.1198E+02
     31.917  0.0000E+00  0.1198E+02
     32.234  0.0000E+00  0.1198E+02
     32.552  0.0000E+00  0.1198E+02
     32.869  0.0000E+00  0.1198E+02
     33.187  0.0000E+00  0.1198E+02
     33.504  0.0000E+00  0.1198E+02
     33.822  0.0000E+00  0.1198E+02
     34.139  0.0000E+00  0.1198E+02
     34.457  0.0000E+00  0.1198E+02
     34.774  0.0000E+00  0.1198E+02
     35.092  0.0000E+00  0.1198E+02
     35.410  0.0000E+00  0.1198E+02
     35.727  0.0000E+00  0.1198E+02
     36.045  0.0000E+00  0.1198E+02
     36.362  0.0000E+00  0.1198E+02
     36.680  0.0000E+00  0.1198E+02
     36.997  0.0000E+00  0.1198E+02
     37.315  0.0000E+00  0.1198E+02
     37.632  0.0000E+00  0.1198E+02
     37.950  0.0000E+00  0.1198E+02
     38.267  0.0000E+00  0.1198E+02
     38.585  0.0000E+00  0.1198E+02
     38.902  0.0000E+00  0.1198E+02
     39.220  0.0000E+00  0.1198E+02
     39.537  0.0000E+00  0.1198E+02
     39.855  0.0000E+00  0.1198E+02
     40.172  0.0000E+00  0.1198E+02
     40.490  0.0000E+00  0.1198E+02
     40.807  0.0000E+00  0.1198E+02
     41.125  0.0000E+00  0.1198E+02
     41.443  0.0000E+00  0.1198E+02
     41.760  0.0000E+00  0.1200E+02
     42.078  0.0000E+00  0.1200E+02
     42.395  0.0000E+00  0.1200E+02
     42.713  0.0000E+00  0.1200E+02
     43.030  0.0000E+00  0.1200E+02
     43.348  0.0000E+00  0.1200E+02
     43.665  0.0000E+00  0.1200E+02
     43.983  0.0000E+00  0.1200E+02
     44.300  0.0000E+00  0.1200E+02
     44.618  0.0000E+00  0.1200E+02
     44.935  0.0000E+00  0.1200E+02
     45.253  0.0000E+00  0.1200E+02
     45.570  0.0000E+00  0.1200E+02
     45.888  0.0000E+00  0.1200E+02
