    1    1    1    1
  0.1860393E+02  0.2974221E-09  0.2974221E-09  0.2974221E-09  0.1000000E-15
  1.000000000000000E-004
  CAR 
 Og_FCC                                  
      8    128     12
 
  0.5000000E+00  0.5000000E+00  0.5000000E+00  0.7812500E-02
    1      -44.713039   1.000000
    2      -44.713032   1.000000
    3      -12.001022   1.000000
    4      -12.001021   1.000000
    5      -11.762167   1.000000
    6      -11.762141   1.000000
    7      -10.094124   1.000000
    8      -10.094082   1.000000
    9        7.262036   0.000000
   10        7.262036   0.000000
   11       10.121463   0.000000
   12       10.121496   0.000000
 
  0.4838710E+00  0.4838710E+00  0.4838710E+00  0.7812500E-02
    1      -44.760676   1.000000
    2      -44.760676   1.000000
    3      -12.008265   1.000000
    4      -12.008265   1.000000
    5      -11.895731   1.000000
    6      -11.895731   1.000000
    7      -10.185834   1.000000
    8      -10.185834   1.000000
    9        7.167799   0.000000
   10        7.167799   0.000000
   11        9.888959   0.000000
   12        9.888960   0.000000
 
  0.4677419E+00  0.4677419E+00  0.4677419E+00  0.7812500E-02
    1      -44.746589   1.000000
    2      -44.746589   1.000000
    3      -11.964635   1.000000
    4      -11.964635   1.000000
    5      -11.499236   1.000000
    6      -11.499235   1.000000
    7       -9.702774   1.000000
    8       -9.702774   1.000000
    9        7.061586   0.000000
   10        7.061586   0.000000
   11        9.973979   0.000000
   12        9.973980   0.000000
 
  0.4516129E+00  0.4516129E+00  0.4516129E+00  0.7812500E-02
    1      -44.763310   1.000000
    2      -44.763310   1.000000
    3      -11.945512   1.000000
    4      -11.945512   1.000000
    5      -10.912577   1.000000
    6      -10.912576   1.000000
    7       -9.830666   1.000000
    8       -9.830666   1.000000
    9        6.942410   0.000000
   10        6.942410   0.000000
   11       10.219425   0.000000
   12       10.219425   0.000000
 
  0.4354839E+00  0.4354839E+00  0.4354839E+00  0.7812500E-02
    1      -44.780891   1.000000
    2      -44.780891   1.000000
    3      -11.990294   1.000000
    4      -11.990294   1.000000
    5      -11.883802   1.000000
    6      -11.883802   1.000000
    7      -10.273193   1.000000
    8      -10.273193   1.000000
    9        6.646530   0.000000
   10        6.646530   0.000000
   11       10.445751   0.000000
   12       10.445752   0.000000
 
  0.4193548E+00  0.4193548E+00  0.4193548E+00  0.7812500E-02
    1      -44.791008   1.000000
    2      -44.791008   1.000000
    3      -11.969668   1.000000
    4      -11.969668   1.000000
    5      -11.843775   1.000000
    6      -11.843775   1.000000
    7      -10.497682   1.000000
    8      -10.497682   1.000000
    9        6.467970   0.000000
   10        6.467970   0.000000
   11       10.941904   0.000000
   12       10.941905   0.000000
 
  0.4032258E+00  0.4032258E+00  0.4032258E+00  0.7812500E-02
    1      -44.863568   1.000000
    2      -44.863568   1.000000
    3      -12.171523   1.000000
    4      -12.171523   1.000000
    5      -11.817912   1.000000
    6      -11.817912   1.000000
    7      -10.813727   1.000000
    8      -10.813726   1.000000
    9        6.060673   0.000000
   10        6.060673   0.000000
   11       10.938386   0.000000
   12       10.938387   0.000000
 
  0.3870968E+00  0.3870968E+00  0.3870968E+00  0.7812500E-02
    1      -44.531014   1.000000
    2      -44.531014   1.000000
    3      -11.009002   1.000000
    4      -11.009002   1.000000
    5      -10.756531   1.000000
    6      -10.756530   1.000000
    7       -8.972066   1.000000
    8       -8.972066   1.000000
    9        6.118196   0.000000
   10        6.118196   0.000000
   11       11.735514   0.000000
   12       11.735515   0.000000
 
  0.3709677E+00  0.3709677E+00  0.3709677E+00  0.7812500E-02
    1      -44.628583   1.000000
    2      -44.628583   1.000000
    3      -10.922270   1.000000
    4      -10.922270   1.000000
    5      -10.807404   1.000000
    6      -10.807404   1.000000
    7       -9.750947   1.000000
    8       -9.750947   1.000000
    9        5.367699   0.000000
   10        5.367699   0.000000
   11       11.792473   0.000000
   12       11.792473   0.000000
 
  0.3548387E+00  0.3548387E+00  0.3548387E+00  0.7812500E-02
    1      -44.659183   1.000000
    2      -44.659183   1.000000
    3      -11.023294   1.000000
    4      -11.023294   1.000000
    5      -10.768514   1.000000
    6      -10.768513   1.000000
    7       -9.602755   1.000000
    8       -9.602755   1.000000
    9        5.164959   0.000000
   10        5.164959   0.000000
   11       12.251281   0.000000
   12       12.251281   0.000000
 
  0.3387097E+00  0.3387097E+00  0.3387097E+00  0.7812500E-02
    1      -44.577765   1.000000
    2      -44.577765   1.000000
    3      -10.919682   1.000000
    4      -10.919682   1.000000
    5      -10.844232   1.000000
    6      -10.844232   1.000000
    7       -9.249815   1.000000
    8       -9.249815   1.000000
    9        4.836214   0.000000
   10        4.836215   0.000000
   11       12.773243   0.000000
   12       12.773244   0.000000
 
  0.3225806E+00  0.3225806E+00  0.3225806E+00  0.7812500E-02
    1      -44.578321   1.000000
    2      -44.578321   1.000000
    3      -10.811976   1.000000
    4      -10.811976   1.000000
    5      -10.673948   1.000000
    6      -10.673948   1.000000
    7      -10.412656   1.000000
    8      -10.412656   1.000000
    9        4.779722   0.000000
   10        4.779722   0.000000
   11       19.792168   0.000000
   12       19.792169   0.000000
 
  0.3064516E+00  0.3064516E+00  0.3064516E+00  0.7812500E-02
    1      -44.680313   1.000000
    2      -44.680313   1.000000
    3      -10.927638   1.000000
    4      -10.927638   1.000000
    5      -10.761530   1.000000
    6      -10.761530   1.000000
    7       -9.534046   1.000000
    8       -9.534046   1.000000
    9        4.360179   0.000000
   10        4.360180   0.000000
   11       15.863661   0.000000
   12       15.863663   0.000000
 
  0.2903226E+00  0.2903226E+00  0.2903226E+00  0.7812500E-02
    1      -44.679085   1.000000
    2      -44.679085   1.000000
    3      -11.822698   1.000000
    4      -11.822698   1.000000
    5      -10.858610   1.000000
    6      -10.858610   1.000000
    7       -9.439658   1.000000
    8       -9.439658   1.000000
    9        3.977915   0.000000
   10        3.977915   0.000000
   11       13.892472   0.000000
   12       13.892472   0.000000
 
  0.2741935E+00  0.2741935E+00  0.2741935E+00  0.7812500E-02
    1      -44.879157   1.000000
    2      -44.879157   1.000000
    3      -13.755468   1.000000
    4      -13.755468   1.000000
    5      -11.344252   1.000000
    6      -11.344252   1.000000
    7      -11.276787   1.000000
    8      -11.276787   1.000000
    9        3.143952   0.000000
   10        3.143952   0.000000
   11       19.739905   0.000000
   12       19.739907   0.000000
 
  0.2580645E+00  0.2580645E+00  0.2580645E+00  0.7812500E-02
    1      -44.870302   1.000000
    2      -44.870302   1.000000
    3      -12.959505   1.000000
    4      -12.959505   1.000000
    5      -11.209946   1.000000
    6      -11.209946   1.000000
    7      -11.042908   1.000000
    8      -11.042908   1.000000
    9        3.062035   0.000000
   10        3.062036   0.000000
   11       21.297491   0.000000
   12       21.297491   0.000000
 
  0.2419355E+00  0.2419355E+00  0.2419355E+00  0.7812500E-02
    1      -44.948491   1.000000
    2      -44.948491   1.000000
    3      -12.811001   1.000000
    4      -12.811000   1.000000
    5      -11.231459   1.000000
    6      -11.231459   1.000000
    7      -11.078400   1.000000
    8      -11.078400   1.000000
    9        2.469958   0.000000
   10        2.469958   0.000000
   11       14.469068   0.000000
   12       14.469069   0.000000
 
  0.2258065E+00  0.2258065E+00  0.2258065E+00  0.7812500E-02
    1      -44.945418   1.000000
    2      -44.945418   1.000000
    3      -12.941153   1.000000
    4      -12.941152   1.000000
    5      -11.235740   1.000000
    6      -11.235740   1.000000
    7      -11.134943   1.000000
    8      -11.134943   1.000000
    9        2.282972   0.000000
   10        2.282973   0.000000
   11       15.098627   0.000000
   12       15.098627   0.000000
 
  0.2096774E+00  0.2096774E+00  0.2096774E+00  0.7812500E-02
    1      -44.887132   1.000000
    2      -44.887132   1.000000
    3      -12.980175   1.000000
    4      -12.980175   1.000000
    5      -11.094167   1.000000
    6      -11.094167   1.000000
    7      -10.863124   1.000000
    8      -10.863124   1.000000
    9        2.171964   0.000000
   10        2.171964   0.000000
   11       20.270423   0.000000
   12       20.270424   0.000000
 
  0.1935484E+00  0.1935484E+00  0.1935484E+00  0.7812500E-02
    1      -44.841164   1.000000
    2      -44.841163   1.000000
    3      -12.118992   1.000000
    4      -12.118992   1.000000
    5      -11.052019   1.000000
    6      -11.052018   1.000000
    7       -9.893968   1.000000
    8       -9.893968   1.000000
    9        2.007323   0.000000
   10        2.007323   0.000000
   11       16.327065   0.000000
   12       16.327066   0.000000
 
  0.1774194E+00  0.1774194E+00  0.1774194E+00  0.7812500E-02
    1      -44.933898   1.000000
    2      -44.933898   1.000000
    3      -12.254623   1.000000
    4      -12.254623   1.000000
    5      -11.231977   1.000000
    6      -11.231977   1.000000
    7      -11.144730   1.000000
    8      -11.144730   1.000000
    9        1.656692   0.000000
   10        1.656692   0.000000
   11       16.315070   0.000000
   12       16.315070   0.000000
 
  0.1612903E+00  0.1612903E+00  0.1612903E+00  0.7812500E-02
    1      -44.959977   1.000000
    2      -44.959977   1.000000
    3      -12.279450   1.000000
    4      -12.279450   1.000000
    5      -11.246154   1.000000
    6      -11.246154   1.000000
    7      -11.213287   1.000000
    8      -11.213287   1.000000
    9        1.419484   0.000000
   10        1.419484   0.000000
   11       16.717241   0.000000
   12       16.717241   0.000000
 
  0.1451613E+00  0.1451613E+00  0.1451613E+00  0.7812500E-02
    1      -44.921149   1.000000
    2      -44.921149   1.000000
    3      -12.187256   1.000000
    4      -12.187256   1.000000
    5      -11.214591   1.000000
    6      -11.214591   1.000000
    7      -11.095137   1.000000
    8      -11.095137   1.000000
    9        1.299206   0.000000
   10        1.299207   0.000000
   11       17.789335   0.000000
   12       17.789335   0.000000
 
  0.1290323E+00  0.1290323E+00  0.1290323E+00  0.7812500E-02
    1      -44.786468   1.000000
    2      -44.786468   1.000000
    3      -11.394701   1.000000
    4      -11.394700   1.000000
    5      -11.179974   1.000000
    6      -11.179974   1.000000
    7      -10.141650   1.000000
    8      -10.141650   1.000000
    9        1.360923   0.000000
   10        1.360923   0.000000
   11       19.282519   0.000000
   12       19.282519   0.000000
 
  0.1129032E+00  0.1129032E+00  0.1129032E+00  0.7812500E-02
    1      -44.872061   1.000000
    2      -44.872061   1.000000
    3      -12.116041   1.000000
    4      -12.116041   1.000000
    5      -11.083824   1.000000
    6      -11.083823   1.000000
    7      -10.802658   1.000000
    8      -10.802658   1.000000
    9        1.096172   0.000000
   10        1.096172   0.000000
   11       21.130882   0.000000
   12       21.130883   0.000000
 
  0.9677419E-01  0.9677419E-01  0.9677419E-01  0.7812500E-02
    1      -44.919677   1.000000
    2      -44.919677   1.000000
    3      -12.048410   1.000000
    4      -12.048410   1.000000
    5      -11.191841   1.000000
    6      -11.191841   1.000000
    7      -11.078335   1.000000
    8      -11.078335   1.000000
    9        0.880826   0.000000
   10        0.880827   0.000000
   11       19.148328   0.000000
   12       19.148328   0.000000
 
  0.8064516E-01  0.8064516E-01  0.8064516E-01  0.7812500E-02
    1      -44.893781   1.000000
    2      -44.893781   1.000000
    3      -11.912745   1.000000
    4      -11.912745   1.000000
    5      -11.163376   1.000000
    6      -11.163376   1.000000
    7      -10.960311   1.000000
    8      -10.960310   1.000000
    9        0.815658   0.000000
   10        0.815658   0.000000
   11       19.618262   0.000000
   12       19.618262   0.000000
 
  0.6451613E-01  0.6451613E-01  0.6451613E-01  0.7812500E-02
    1      -44.824478   1.000000
    2      -44.824478   1.000000
    3      -11.232496   1.000000
    4      -11.232496   1.000000
    5      -10.953929   1.000000
    6      -10.953929   1.000000
    7      -10.374036   1.000000
    8      -10.374036   1.000000
    9        0.908255   0.000000
   10        0.908256   0.000000
   11       22.332599   0.000000
   12       22.332600   0.000000
 
  0.4838710E-01  0.4838710E-01  0.4838710E-01  0.7812500E-02
    1      -44.675525   1.000000
    2      -44.675525   1.000000
    3      -11.223693   1.000000
    4      -11.223693   1.000000
    5       -9.646316   1.000000
    6       -9.646315   1.000000
    7       -9.588191   1.000000
    8       -9.588191   1.000000
    9        0.640989   0.000000
   10        0.640990   0.000000
   11       21.582087   0.000000
   12       21.582088   0.000000
 
  0.3225806E-01  0.3225806E-01  0.3225806E-01  0.7812500E-02
    1      -44.626830   1.000000
    2      -44.626830   1.000000
    3      -10.801642   1.000000
    4      -10.801642   1.000000
    5       -9.722197   1.000000
    6       -9.722197   1.000000
    7       -9.496816   1.000000
    8       -9.496816   1.000000
    9        0.657916   0.000000
   10        0.657916   0.000000
   11       22.653258   0.000000
   12       22.653258   0.000000
 
  0.1612903E-01  0.1612903E-01  0.1612903E-01  0.7812500E-02
    1      -44.483906   1.000000
    2      -44.483906   1.000000
    3       -9.461242   1.000000
    4       -9.461242   1.000000
    5       -9.307381   1.000000
    6       -9.307381   1.000000
    7       -8.326130   1.000000
    8       -8.326130   1.000000
    9        0.735906   0.000000
   10        0.735906   0.000000
   11       22.490272   0.000000
   12       22.490273   0.000000
 
  0.0000000E+00  0.0000000E+00  0.0000000E+00  0.7812500E-02
    1      -44.537470   1.000000
    2      -44.537470   1.000000
    3       -9.620389   1.000000
    4       -9.620389   1.000000
    5       -9.505923   1.000000
    6       -9.505923   1.000000
    7       -9.128901   1.000000
    8       -9.128901   1.000000
    9        0.609805   0.000000
   10        0.609805   0.000000
   11       22.274099   0.000000
   12       22.274099   0.000000
 
  0.0000000E+00  0.0000000E+00  0.0000000E+00  0.7812500E-02
    1      -44.453169   1.000000
    2      -44.453169   1.000000
    3       -9.646525   1.000000
    4       -9.646525   1.000000
    5       -9.616654   1.000000
    6       -9.616654   1.000000
    7       -8.998639   1.000000
    8       -8.998639   1.000000
    9        0.585456   0.000000
   10        0.585457   0.000000
   11       20.916273   0.000000
   12       20.916274   0.000000
 
  0.0000000E+00  0.1612903E-01  0.1612903E-01  0.7812500E-02
    1      -44.540296   1.000000
    2      -44.540296   1.000000
    3       -9.623621   1.000000
    4       -9.623621   1.000000
    5       -9.506257   1.000000
    6       -9.506257   1.000000
    7       -9.169716   1.000000
    8       -9.169716   1.000000
    9        0.617364   0.000000
   10        0.617364   0.000000
   11       21.917946   0.000000
   12       21.917946   0.000000
 
  0.0000000E+00  0.3225806E-01  0.3225806E-01  0.7812500E-02
    1      -44.455163   1.000000
    2      -44.455163   1.000000
    3      -11.157887   1.000000
    4      -11.157887   1.000000
    5       -9.976635   1.000000
    6       -9.976635   1.000000
    7       -9.128482   1.000000
    8       -9.128482   1.000000
    9        0.669120   0.000000
   10        0.669121   0.000000
   11       27.710461   0.000000
   12       27.710462   0.000000
 
  0.0000000E+00  0.4838710E-01  0.4838710E-01  0.7812500E-02
    1      -44.658431   1.000000
    2      -44.658431   1.000000
    3      -11.154620   1.000000
    4      -11.154620   1.000000
    5       -9.935604   1.000000
    6       -9.935604   1.000000
    7       -9.678272   1.000000
    8       -9.678272   1.000000
    9        0.719468   0.000000
   10        0.719468   0.000000
   11       21.645381   0.000000
   12       21.645382   0.000000
 
  0.0000000E+00  0.6451613E-01  0.6451613E-01  0.7812500E-02
    1      -44.988357   1.000000
    2      -44.988357   1.000000
    3      -12.071896   1.000000
    4      -12.071896   1.000000
    5      -11.918467   1.000000
    6      -11.918467   1.000000
    7      -11.714390   1.000000
    8      -11.714390   1.000000
    9        0.787586   0.000000
   10        0.787586   0.000000
   11       20.812711   0.000000
   12       20.812711   0.000000
 
  0.0000000E+00  0.8064516E-01  0.8064516E-01  0.7812500E-02
    1      -45.021589   1.000000
    2      -45.021588   1.000000
    3      -12.073704   1.000000
    4      -12.073704   1.000000
    5      -12.014471   1.000000
    6      -12.014471   1.000000
    7      -11.950841   1.000000
    8      -11.950841   1.000000
    9        0.871258   0.000000
   10        0.871259   0.000000
   11       19.712039   0.000000
   12       19.712039   0.000000
 
  0.0000000E+00  0.9677419E-01  0.9677419E-01  0.7812500E-02
    1      -44.977372   1.000000
    2      -44.977372   1.000000
    3      -12.064300   1.000000
    4      -12.064300   1.000000
    5      -11.983140   1.000000
    6      -11.983140   1.000000
    7      -11.697703   1.000000
    8      -11.697703   1.000000
    9        1.096677   0.000000
   10        1.096678   0.000000
   11       20.260232   0.000000
   12       20.260232   0.000000
 
  0.0000000E+00  0.1129032E+00  0.1129032E+00  0.7812500E-02
    1      -44.990433   1.000000
    2      -44.990433   1.000000
    3      -12.027371   1.000000
    4      -12.027371   1.000000
    5      -11.882147   1.000000
    6      -11.882146   1.000000
    7      -11.197982   1.000000
    8      -11.197981   1.000000
    9        1.394637   0.000000
   10        1.394637   0.000000
   11       19.647985   0.000000
   12       19.647986   0.000000
 
  0.0000000E+00  0.1290323E+00  0.1290323E+00  0.7812500E-02
    1      -44.958377   1.000000
    2      -44.958377   1.000000
    3      -12.167621   1.000000
    4      -12.167621   1.000000
    5      -12.130191   1.000000
    6      -12.130191   1.000000
    7      -11.658947   1.000000
    8      -11.658947   1.000000
    9        1.413771   0.000000
   10        1.413772   0.000000
   11       21.440550   0.000000
   12       21.440551   0.000000
 
  0.0000000E+00  0.1451613E+00  0.1451613E+00  0.7812500E-02
    1      -45.008471   1.000000
    2      -45.008471   1.000000
    3      -12.200269   1.000000
    4      -12.200269   1.000000
    5      -12.059648   1.000000
    6      -12.059648   1.000000
    7      -11.962119   1.000000
    8      -11.962119   1.000000
    9        1.580190   0.000000
   10        1.580191   0.000000
   11       18.970649   0.000000
   12       18.970649   0.000000
 
  0.0000000E+00  0.1612903E+00  0.1612903E+00  0.7812500E-02
    1      -44.968776   1.000000
    2      -44.968776   1.000000
    3      -12.221229   1.000000
    4      -12.221229   1.000000
    5      -12.125230   1.000000
    6      -12.125230   1.000000
    7      -11.854178   1.000000
    8      -11.854178   1.000000
    9        1.886853   0.000000
   10        1.886854   0.000000
   11       18.661888   0.000000
   12       18.661888   0.000000
 
  0.0000000E+00  0.1774194E+00  0.1774194E+00  0.7812500E-02
    1      -44.971416   1.000000
    2      -44.971416   1.000000
    3      -12.203863   1.000000
    4      -12.203863   1.000000
    5      -11.995289   1.000000
    6      -11.995289   1.000000
    7      -11.655122   1.000000
    8      -11.655122   1.000000
    9        2.339355   0.000000
   10        2.339355   0.000000
   11       18.807471   0.000000
   12       18.807472   0.000000
 
  0.0000000E+00  0.1935484E+00  0.1935484E+00  0.7812500E-02
    1      -45.039590   1.000000
    2      -45.039590   1.000000
    3      -13.926595   1.000000
    4      -13.926595   1.000000
    5      -12.325743   1.000000
    6      -12.325743   1.000000
    7      -12.079434   1.000000
    8      -12.079434   1.000000
    9        2.317186   0.000000
   10        2.317186   0.000000
   11       18.209934   0.000000
   12       18.209934   0.000000
 
  0.0000000E+00  0.2096774E+00  0.2096774E+00  0.7812500E-02
    1      -44.812024   1.000000
    2      -44.812024   1.000000
    3      -12.213194   1.000000
    4      -12.213193   1.000000
    5      -11.790418   1.000000
    6      -11.790418   1.000000
    7       -9.927031   1.000000
    8       -9.927030   1.000000
    9        3.136743   0.000000
   10        3.136744   0.000000
   11       19.176280   0.000000
   12       19.176281   0.000000
 
  0.0000000E+00  0.2258065E+00  0.2258065E+00  0.7812500E-02
    1      -44.787298   1.000000
    2      -44.787298   1.000000
    3      -12.152065   1.000000
    4      -12.152065   1.000000
    5      -11.704634   1.000000
    6      -11.704633   1.000000
    7       -7.129301   1.000000
    8       -7.129301   1.000000
    9        3.924906   0.000000
   10        3.924907   0.000000
   11       22.160701   0.000000
   12       22.160703   0.000000
 
  0.0000000E+00  0.2419355E+00  0.2419355E+00  0.7812500E-02
    1      -44.919728   1.000000
    2      -44.919727   1.000000
    3      -12.462655   1.000000
    4      -12.462655   1.000000
    5      -12.008752   1.000000
    6      -12.008752   1.000000
    7      -11.676481   1.000000
    8      -11.676481   1.000000
    9        3.580222   0.000000
   10        3.580223   0.000000
   11       17.665796   0.000000
   12       17.665797   0.000000
 
  0.0000000E+00  0.2580645E+00  0.2580645E+00  0.7812500E-02
    1      -44.940594   1.000000
    2      -44.940594   1.000000
    3      -12.564474   1.000000
    4      -12.564474   1.000000
    5      -12.224374   1.000000
    6      -12.224374   1.000000
    7      -10.767003   1.000000
    8      -10.767003   1.000000
    9        3.898929   0.000000
   10        3.898930   0.000000
   11       19.157489   0.000000
   12       19.157490   0.000000
 
  0.0000000E+00  0.2741935E+00  0.2741935E+00  0.7812500E-02
    1      -44.841394   1.000000
    2      -44.841394   1.000000
    3      -12.454987   1.000000
    4      -12.454987   1.000000
    5      -12.048644   1.000000
    6      -12.048644   1.000000
    7       -8.545654   1.000000
    8       -8.545654   1.000000
    9        4.408301   0.000000
   10        4.408301   0.000000
   11       19.701780   0.000000
   12       19.701780   0.000000
 
  0.0000000E+00  0.2903226E+00  0.2903226E+00  0.7812500E-02
    1      -44.757903   1.000000
    2      -44.757903   1.000000
    3      -12.393376   1.000000
    4      -12.393375   1.000000
    5      -11.989060   1.000000
    6      -11.989060   1.000000
    7       -9.235065   1.000000
    8       -9.235065   1.000000
    9        4.561654   0.000000
   10        4.561655   0.000000
   11       18.435381   0.000000
   12       18.435385   0.000000
 
  0.0000000E+00  0.3064516E+00  0.3064516E+00  0.7812500E-02
    1      -44.961655   1.000000
    2      -44.961655   1.000000
    3      -12.733874   1.000000
    4      -12.733874   1.000000
    5      -12.167057   1.000000
    6      -12.167057   1.000000
    7      -11.896234   1.000000
    8      -11.896234   1.000000
    9        4.993940   0.000000
   10        4.993940   0.000000
   11       16.598406   0.000000
   12       16.598407   0.000000
 
  0.0000000E+00  0.3225806E+00  0.3225806E+00  0.7812500E-02
    1      -44.781963   1.000000
    2      -44.781962   1.000000
    3      -12.513311   1.000000
    4      -12.513310   1.000000
    5      -12.261827   1.000000
    6      -12.261827   1.000000
    7      -11.715003   1.000000
    8      -11.715003   1.000000
    9        5.472785   0.000000
   10        5.472786   0.000000
   11       16.546192   0.000000
   12       16.546192   0.000000
 
  0.0000000E+00  0.3387097E+00  0.3387097E+00  0.7812500E-02
    1      -44.698092   1.000000
    2      -44.698092   1.000000
    3      -13.184702   1.000000
    4      -13.184702   1.000000
    5      -12.923150   1.000000
    6      -12.923150   1.000000
    7       -9.362494   1.000000
    8       -9.362494   1.000000
    9        6.287561   0.000000
   10        6.287561   0.000000
   11       16.582457   0.000000
   12       16.582459   0.000000
 
  0.0000000E+00  0.3548387E+00  0.3548387E+00  0.7812500E-02
    1      -44.613324   1.000000
    2      -44.613324   1.000000
    3      -11.923931   1.000000
    4      -11.923931   1.000000
    5      -10.471822   1.000000
    6      -10.471822   1.000000
    7       -7.568772   1.000000
    8       -7.568771   1.000000
    9        6.852428   0.000000
   10        6.852428   0.000000
   11       19.117459   0.000000
   12       19.117460   0.000000
 
  0.0000000E+00  0.3709677E+00  0.3709677E+00  0.7812500E-02
    1      -44.753749   1.000000
    2      -44.753749   1.000000
    3      -12.166164   1.000000
    4      -12.166163   1.000000
    5      -12.072429   1.000000
    6      -12.072429   1.000000
    7      -10.934934   1.000000
    8      -10.934933   1.000000
    9        6.926900   0.000000
   10        6.926900   0.000000
   11       15.620169   0.000000
   12       15.620169   0.000000
 
  0.0000000E+00  0.3870968E+00  0.3870968E+00  0.7812500E-02
    1      -44.561890   1.000000
    2      -44.561890   1.000000
    3      -11.543060   1.000000
    4      -11.543060   1.000000
    5      -11.303410   1.000000
    6      -11.303410   1.000000
    7      -10.224327   1.000000
    8      -10.224327   1.000000
    9        7.614695   0.000000
   10        7.614695   0.000000
   11       15.550512   0.000000
   12       15.550512   0.000000
 
  0.0000000E+00  0.4032258E+00  0.4032258E+00  0.7812500E-02
    1      -44.353404   1.000000
    2      -44.353404   1.000000
    3      -11.351819   1.000000
    4      -11.351819   1.000000
    5      -10.461918   1.000000
    6      -10.461918   1.000000
    7       -7.804303   1.000000
    8       -7.804303   1.000000
    9        8.183279   0.000000
   10        8.183280   0.000000
   11       15.078772   0.000000
   12       15.078773   0.000000
 
  0.0000000E+00  0.4193548E+00  0.4193548E+00  0.7812500E-02
    1      -44.543356   1.000000
    2      -44.543355   1.000000
    3      -10.855983   1.000000
    4      -10.855983   1.000000
    5      -10.297401   1.000000
    6      -10.297401   1.000000
    7       -4.632274   1.000000
    8       -4.632273   1.000000
    9        9.224146   0.000000
   10        9.224146   0.000000
   11       18.236151   0.000000
   12       18.236154   0.000000
 
  0.0000000E+00  0.4354839E+00  0.4354839E+00  0.7812500E-02
    1      -44.559121   1.000000
    2      -44.559121   1.000000
    3      -11.461645   1.000000
    4      -11.461645   1.000000
    5      -11.191779   1.000000
    6      -11.191779   1.000000
    7       -9.424665   1.000000
    8       -9.424665   1.000000
    9        8.841140   0.000000
   10        8.841141   0.000000
   11       15.386911   0.000000
   12       15.386911   0.000000
 
  0.0000000E+00  0.4516129E+00  0.4516129E+00  0.7812500E-02
    1      -44.550771   1.000000
    2      -44.550770   1.000000
    3      -11.585899   1.000000
    4      -11.585899   1.000000
    5      -11.553180   1.000000
    6      -11.553180   1.000000
    7       -9.264280   1.000000
    8       -9.264280   1.000000
    9        8.540370   0.000000
   10        8.540370   0.000000
   11       13.785621   0.000000
   12       13.785622   0.000000
 
  0.0000000E+00  0.4677419E+00  0.4677419E+00  0.7812500E-02
    1      -44.367172   1.000000
    2      -44.367172   1.000000
    3      -11.453560   1.000000
    4      -11.453559   1.000000
    5       -9.651926   1.000000
    6       -9.651925   1.000000
    7       -5.603334   1.000000
    8       -5.603334   1.000000
    9        8.476087   0.000000
   10        8.476087   0.000000
   11       13.526900   0.000000
   12       13.526900   0.000000
 
  0.0000000E+00  0.4838710E+00  0.4838710E+00  0.7812500E-02
    1      -44.329883   1.000000
    2      -44.329883   1.000000
    3      -11.194443   1.000000
    4      -11.194443   1.000000
    5       -9.707877   1.000000
    6       -9.707876   1.000000
    7       -8.400364   1.000000
    8       -8.400364   1.000000
    9       10.784908   0.000000
   10       10.784909   0.000000
   11       41.557961   0.000000
   12       41.557965   0.000000
 
  0.0000000E+00  0.5000000E+00  0.5000000E+00  0.7812500E-02
    1      -44.488407   1.000000
    2      -44.488407   1.000000
    3      -11.643302   1.000000
    4      -11.643302   1.000000
    5       -9.806012   1.000000
    6       -9.806012   1.000000
    7       -8.155379   1.000000
    8       -8.155379   1.000000
    9        8.521438   0.000000
   10        8.521439   0.000000
   11       13.318977   0.000000
   12       13.318977   0.000000
 
  0.0000000E+00  0.5000000E+00  0.5000000E+00  0.7812500E-02
    1      -44.488407   1.000000
    2      -44.488407   1.000000
    3      -11.643302   1.000000
    4      -11.643302   1.000000
    5       -9.806012   1.000000
    6       -9.806012   1.000000
    7       -8.155379   1.000000
    8       -8.155379   1.000000
    9        8.521438   0.000000
   10        8.521439   0.000000
   11       13.318977   0.000000