   1   1   0   0
  0.6008441E+02  0.4396350E-09  0.4396350E-09  0.4396350E-09  0.1000000E-15
  1.000000000000000E-004
  CAR 
 Og_FCC                                  
     16.87565231    -33.02819525  301      3.55692693      1.00000000
    -33.028  0.0000E+00  0.0000E+00
    -32.862  0.0000E+00  0.0000E+00
    -32.696  0.0000E+00  0.0000E+00
    -32.529  0.0000E+00  0.0000E+00
    -32.363  0.0000E+00  0.0000E+00
    -32.196  0.0000E+00  0.0000E+00
    -32.030  0.0000E+00  0.0000E+00
    -31.864  0.0000E+00  0.0000E+00
    -31.697  0.0000E+00  0.0000E+00
    -31.531  0.0000E+00  0.0000E+00
    -31.365  0.0000E+00  0.0000E+00
    -31.198  0.0000E+00  0.0000E+00
    -31.032  0.0000E+00  0.0000E+00
    -30.866  0.0000E+00  0.0000E+00
    -30.699  0.0000E+00  0.4000E+01
    -30.533  0.0000E+00  0.4000E+01
    -30.367  0.0000E+00  0.4000E+01
    -30.200  0.0000E+00  0.4000E+01
    -30.034  0.0000E+00  0.4000E+01
    -29.868  0.0000E+00  0.4000E+01
    -29.701  0.0000E+00  0.4000E+01
    -29.535  0.0000E+00  0.4000E+01
    -29.369  0.0000E+00  0.4000E+01
    -29.202  0.0000E+00  0.4000E+01
    -29.036  0.0000E+00  0.4000E+01
    -28.870  0.0000E+00  0.4000E+01
    -28.703  0.0000E+00  0.4000E+01
    -28.537  0.0000E+00  0.4000E+01
    -28.371  0.0000E+00  0.4000E+01
    -28.204  0.0000E+00  0.4000E+01
    -28.038  0.0000E+00  0.4000E+01
    -27.871  0.0000E+00  0.4000E+01
    -27.705  0.0000E+00  0.4000E+01
    -27.539  0.0000E+00  0.4000E+01
    -27.372  0.0000E+00  0.4000E+01
    -27.206  0.0000E+00  0.4000E+01
    -27.040  0.0000E+00  0.4000E+01
    -26.873  0.0000E+00  0.4000E+01
    -26.707  0.0000E+00  0.4000E+01
    -26.541  0.0000E+00  0.4000E+01
    -26.374  0.0000E+00  0.4000E+01
    -26.208  0.0000E+00  0.4000E+01
    -26.042  0.0000E+00  0.4000E+01
    -25.875  0.0000E+00  0.4000E+01
    -25.709  0.0000E+00  0.4000E+01
    -25.543  0.0000E+00  0.4000E+01
    -25.376  0.0000E+00  0.4000E+01
    -25.210  0.0000E+00  0.4000E+01
    -25.044  0.0000E+00  0.4000E+01
    -24.877  0.0000E+00  0.4000E+01
    -24.711  0.0000E+00  0.4000E+01
    -24.545  0.0000E+00  0.4000E+01
    -24.378  0.0000E+00  0.4000E+01
    -24.212  0.0000E+00  0.4000E+01
    -24.046  0.0000E+00  0.1000E+02
    -23.879  0.0000E+00  0.1000E+02
    -23.713  0.0000E+00  0.1000E+02
    -23.546  0.0000E+00  0.1000E+02
    -23.380  0.0000E+00  0.1000E+02
    -23.214  0.0000E+00  0.1000E+02
    -23.047  0.0000E+00  0.1000E+02
    -22.881  0.0000E+00  0.1000E+02
    -22.715  0.0000E+00  0.1000E+02
    -22.548  0.0000E+00  0.1000E+02
    -22.382  0.0000E+00  0.1000E+02
    -22.216  0.0000E+00  0.1000E+02
    -22.049  0.0000E+00  0.1000E+02
    -21.883  0.0000E+00  0.1000E+02
    -21.717  0.0000E+00  0.1000E+02
    -21.550  0.0000E+00  0.1000E+02
    -21.384  0.0000E+00  0.1000E+02
    -21.218  0.0000E+00  0.1000E+02
    -21.051  0.0000E+00  0.1000E+02
    -20.885  0.0000E+00  0.1000E+02
    -20.719  0.0000E+00  0.1000E+02
    -20.552  0.0000E+00  0.1000E+02
    -20.386  0.0000E+00  0.1055E+02
    -20.220  0.0000E+00  0.1200E+02
    -20.053  0.0000E+00  0.1200E+02
    -19.887  0.0000E+00  0.1200E+02
    -19.721  0.0000E+00  0.1200E+02
    -19.554  0.0000E+00  0.1200E+02
    -19.388  0.0000E+00  0.1200E+02
    -19.221  0.0000E+00  0.1200E+02
    -19.055  0.0000E+00  0.1200E+02
    -18.889  0.0000E+00  0.1200E+02
    -18.722  0.0000E+00  0.1200E+02
    -18.556  0.0000E+00  0.1200E+02
    -18.390  0.0000E+00  0.1200E+02
    -18.223  0.0000E+00  0.1200E+02
    -18.057  0.0000E+00  0.1200E+02
    -17.891  0.0000E+00  0.1200E+02
    -17.724  0.0000E+00  0.1200E+02
    -17.558  0.0000E+00  0.1200E+02
    -17.392  0.0000E+00  0.1200E+02
    -17.225  0.0000E+00  0.1200E+02
    -17.059  0.0000E+00  0.1200E+02
    -16.893  0.0000E+00  0.1200E+02
    -16.726  0.0000E+00  0.1200E+02
    -16.560  0.0000E+00  0.1200E+02
    -16.394  0.0000E+00  0.1200E+02
    -16.227  0.0000E+00  0.1200E+02
    -16.061  0.0000E+00  0.1200E+02
    -15.895  0.0000E+00  0.1200E+02
    -15.728  0.0000E+00  0.1200E+02
    -15.562  0.0000E+00  0.1200E+02
    -15.396  0.0000E+00  0.1200E+02
    -15.229  0.0000E+00  0.1200E+02
    -15.063  0.0000E+00  0.1200E+02
    -14.896  0.0000E+00  0.1200E+02
    -14.730  0.0000E+00  0.1200E+02
    -14.564  0.0000E+00  0.1200E+02
    -14.397  0.0000E+00  0.1200E+02
    -14.231  0.0000E+00  0.1200E+02
    -14.065  0.0000E+00  0.1200E+02
    -13.898  0.0000E+00  0.1200E+02
    -13.732  0.0000E+00  0.1200E+02
    -13.566  0.0000E+00  0.1200E+02
    -13.399  0.0000E+00  0.1200E+02
    -13.233  0.0000E+00  0.1200E+02
    -13.067  0.0000E+00  0.1200E+02
    -12.900  0.0000E+00  0.1200E+02
    -12.734  0.0000E+00  0.1200E+02
    -12.568  0.0000E+00  0.1200E+02
    -12.401  0.0000E+00  0.1200E+02
    -12.235  0.0000E+00  0.1200E+02
    -12.069  0.0000E+00  0.1200E+02
    -11.902  0.0000E+00  0.1200E+02
    -11.736  0.0000E+00  0.1200E+02
    -11.570  0.0000E+00  0.1200E+02
    -11.403  0.0000E+00  0.1200E+02
    -11.237  0.0000E+00  0.1200E+02
    -11.071  0.0000E+00  0.1200E+02
    -10.904  0.0000E+00  0.1200E+02
    -10.738  0.0000E+00  0.1200E+02
    -10.571  0.0000E+00  0.1200E+02
    -10.405  0.0000E+00  0.1200E+02
    -10.239  0.0000E+00  0.1200E+02
    -10.072  0.0000E+00  0.1200E+02
     -9.906  0.0000E+00  0.1200E+02
     -9.740  0.0000E+00  0.1200E+02
     -9.573  0.0000E+00  0.1200E+02
     -9.407  0.0000E+00  0.1200E+02
     -9.241  0.0000E+00  0.1200E+02
     -9.074  0.0000E+00  0.1200E+02
     -8.908  0.0000E+00  0.1200E+02
     -8.742  0.0000E+00  0.1200E+02
     -8.575  0.0000E+00  0.1200E+02
     -8.409  0.0000E+00  0.1200E+02
     -8.243  0.0000E+00  0.1200E+02
     -8.076  0.0000E+00  0.1200E+02
     -7.910  0.0000E+00  0.1200E+02
     -7.744  0.0000E+00  0.1200E+02
     -7.577  0.0000E+00  0.1269E+02
     -7.411  0.5367E+00  0.1384E+02
     -7.245  0.0000E+00  0.1399E+02
     -7.078  0.0000E+00  0.1400E+02
     -6.912  0.0000E+00  0.1400E+02
     -6.746  0.0000E+00  0.1400E+02
     -6.579  0.0000E+00  0.1400E+02
     -6.413  0.0000E+00  0.1400E+02
     -6.246  0.0000E+00  0.1400E+02
     -6.080  0.0000E+00  0.1400E+02
     -5.914  0.0000E+00  0.1400E+02
     -5.747  0.0000E+00  0.1400E+02
     -5.581  0.0000E+00  0.1400E+02
     -5.415  0.0000E+00  0.1400E+02
     -5.248  0.0000E+00  0.1400E+02
     -5.082  0.0000E+00  0.1400E+02
     -4.916  0.0000E+00  0.1400E+02
     -4.749  0.0000E+00  0.1400E+02
     -4.583  0.0000E+00  0.1400E+02
     -4.417  0.0000E+00  0.1400E+02
     -4.250  0.0000E+00  0.1400E+02
     -4.084  0.0000E+00  0.1400E+02
     -3.918  0.0000E+00  0.1400E+02
     -3.751  0.0000E+00  0.1400E+02
     -3.585  0.0000E+00  0.1400E+02
     -3.419  0.0000E+00  0.1400E+02
     -3.252  0.0000E+00  0.1400E+02
     -3.086  0.0000E+00  0.1400E+02
     -2.920  0.0000E+00  0.1400E+02
     -2.753  0.0000E+00  0.1400E+02
     -2.587  0.0000E+00  0.1400E+02
     -2.421  0.0000E+00  0.1400E+02
     -2.254  0.0000E+00  0.1400E+02
     -2.088  0.0000E+00  0.1400E+02
     -1.921  0.0000E+00  0.1400E+02
     -1.755  0.0000E+00  0.1400E+02
     -1.589  0.0000E+00  0.1400E+02
     -1.422  0.0000E+00  0.1400E+02
     -1.256  0.0000E+00  0.1400E+02
     -1.090  0.0000E+00  0.1400E+02
     -0.923  0.0000E+00  0.1400E+02
     -0.757  0.0000E+00  0.1400E+02
     -0.591  0.0000E+00  0.1400E+02
     -0.424  0.0000E+00  0.1400E+02
     -0.258  0.0000E+00  0.1400E+02
     -0.092  0.0000E+00  0.1400E+02
      0.075  0.0000E+00  0.1400E+02
      0.241  0.0000E+00  0.1400E+02
      0.407  0.0000E+00  0.1400E+02
      0.574  0.1415E-05  0.1406E+02
      0.740  0.1307E+01  0.1539E+02
      0.906  0.0000E+00  0.1553E+02
      1.073  0.0000E+00  0.1575E+02
      1.239  0.0000E+00  0.1575E+02
      1.405  0.0000E+00  0.1586E+02
      1.572  0.0000E+00  0.1597E+02
      1.738  0.0000E+00  0.1619E+02
      1.904  0.4016E+00  0.1643E+02
      2.071  0.0000E+00  0.1669E+02
      2.237  0.0000E+00  0.1691E+02
      2.404  0.0000E+00  0.1719E+02
      2.570  0.0000E+00  0.1741E+02
      2.736  0.0000E+00  0.1763E+02
      2.903  0.0000E+00  0.1763E+02
      3.069  0.0000E+00  0.1778E+02
      3.235  0.0000E+00  0.1791E+02
      3.402  0.0000E+00  0.1791E+02
      3.568  0.0000E+00  0.1801E+02
      3.734  0.0000E+00  0.1801E+02
      3.901  0.0000E+00  0.1801E+02
      4.067  0.0000E+00  0.1801E+02
      4.233  0.0000E+00  0.1801E+02
      4.400  0.0000E+00  0.1801E+02
      4.566  0.0000E+00  0.1801E+02
      4.732  0.0000E+00  0.1801E+02
      4.899  0.0000E+00  0.1801E+02
      5.065  0.0000E+00  0.1801E+02
      5.231  0.0000E+00  0.1808E+02
      5.398  0.0000E+00  0.1808E+02
      5.564  0.0000E+00  0.1808E+02
      5.730  0.0000E+00  0.1814E+02
      5.897  0.4327E+00  0.1821E+02
      6.063  0.0000E+00  0.1825E+02
      6.229  0.0000E+00  0.1828E+02
      6.396  0.0000E+00  0.1839E+02
      6.562  0.1308E+01  0.1866E+02
      6.729  0.0000E+00  0.1889E+02
      6.895  0.1336E+01  0.1933E+02
      7.061  0.0000E+00  0.1944E+02
      7.228  0.0000E+00  0.1956E+02
      7.394  0.0000E+00  0.1978E+02
      7.560  0.0000E+00  0.2003E+02
      7.727  0.0000E+00  0.2003E+02
      7.893  0.0000E+00  0.2008E+02
      8.059  0.0000E+00  0.2008E+02
      8.226  0.0000E+00  0.2031E+02
      8.392  0.0000E+00  0.2031E+02
      8.558  0.0000E+00  0.2097E+02
      8.725  0.0000E+00  0.2119E+02
      8.891  0.0000E+00  0.2164E+02
      9.057  0.0000E+00  0.2169E+02
      9.224  0.0000E+00  0.2203E+02
      9.390  0.0000E+00  0.2225E+02
      9.556  0.0000E+00  0.2232E+02
      9.723  0.0000E+00  0.2238E+02
      9.889  0.0000E+00  0.2249E+02
     10.055  0.0000E+00  0.2294E+02
     10.222  0.0000E+00  0.2342E+02
     10.388  0.1336E+01  0.2381E+02
     10.554  0.0000E+00  0.2385E+02
     10.721  0.0000E+00  0.2400E+02
     10.887  0.0000E+00  0.2423E+02
     11.054  0.0000E+00  0.2478E+02
     11.220  0.0000E+00  0.2500E+02
     11.386  0.0000E+00  0.2556E+02
     11.553  0.0000E+00  0.2567E+02
     11.719  0.0000E+00  0.2598E+02
     11.885  0.0000E+00  0.2606E+02
     12.052  0.0000E+00  0.2606E+02
     12.218  0.0000E+00  0.2617E+02
     12.384  0.0000E+00  0.2644E+02
     12.551  0.0000E+00  0.2689E+02
     12.717  0.0000E+00  0.2733E+02
     12.883  0.0000E+00  0.2733E+02
     13.050  0.0000E+00  0.2756E+02
     13.216  0.0000E+00  0.2756E+02
     13.382  0.0000E+00  0.2756E+02
     13.549  0.1113E+00  0.2794E+02
     13.715  0.0000E+00  0.2794E+02
     13.881  0.0000E+00  0.2794E+02
     14.048  0.0000E+00  0.2794E+02
     14.214  0.0000E+00  0.2794E+02
     14.380  0.0000E+00  0.2794E+02
     14.547  0.0000E+00  0.2794E+02
     14.713  0.0000E+00  0.2800E+02
     14.879  0.0000E+00  0.2800E+02
     15.046  0.0000E+00  0.2800E+02
     15.212  0.0000E+00  0.2800E+02
     15.379  0.0000E+00  0.2800E+02
     15.545  0.0000E+00  0.2800E+02
     15.711  0.0000E+00  0.2800E+02
     15.878  0.0000E+00  0.2800E+02
     16.044  0.0000E+00  0.2800E+02
     16.210  0.0000E+00  0.2800E+02
     16.377  0.0000E+00  0.2800E+02
     16.543  0.0000E+00  0.2800E+02
     16.709  0.0000E+00  0.2800E+02
     16.876  0.0000E+00  0.2800E+02
