       N       E                     dE             d eps       ncg     rms          rms(c)
DAV:   1     0.155000731980E+03    0.15500E+03   -0.81827E+03 18264   0.739E+02
DAV:   2    -0.827043879821E+01   -0.16327E+03   -0.16006E+03 15748   0.340E+02
DAV:   3    -0.130856107177E+02   -0.48152E+01   -0.47951E+01 14784   0.674E+01
DAV:   4    -0.132533290405E+02   -0.16772E+00   -0.16764E+00 18488   0.123E+01
DAV:   5    -0.132586408650E+02   -0.53118E-02   -0.53114E-02 15548   0.208E+00    0.634E+00
DAV:   6    -0.131750707019E+02    0.83570E-01   -0.84788E-01 14036   0.130E+01    0.216E+00
DAV:   7    -0.131864924447E+02   -0.11422E-01   -0.13999E-01 13040   0.483E+00    0.902E-01
DAV:   8    -0.131990001012E+02   -0.12508E-01   -0.32239E-02 14564   0.211E+00    0.497E-01
DAV:   9    -0.132049594435E+02   -0.59593E-02   -0.28190E-03 13672   0.549E-01    0.307E-01
DAV:  10    -0.132059850789E+02   -0.10256E-02   -0.14882E-03 15360   0.335E-01    0.516E-02
DAV:  11    -0.132060389406E+02   -0.53862E-04   -0.12428E-04 13940   0.100E-01    0.165E-02
DAV:  12    -0.132060918654E+02   -0.52925E-04   -0.37898E-05 14168   0.455E-02    0.102E-02
DAV:  13    -0.132061006781E+02   -0.88127E-05   -0.10035E-05 14564   0.254E-02    0.295E-03
DAV:  14    -0.132061012678E+02   -0.58976E-06   -0.23812E-06 18404   0.941E-03    0.144E-03
DAV:  15    -0.132061008228E+02    0.44504E-06   -0.17217E-06 13512   0.537E-03    0.129E-03
DAV:  16    -0.132061001257E+02    0.69708E-06   -0.48895E-06 13372   0.684E-03    0.964E-04
DAV:  17    -0.132061001782E+02   -0.52529E-07   -0.10707E-06 13240   0.431E-03    0.711E-04
DAV:  18    -0.132061005004E+02   -0.32215E-06   -0.65521E-07 13232   0.325E-03    0.500E-04
DAV:  19    -0.132061007172E+02   -0.21678E-06   -0.81408E-07 12892   0.349E-03    0.377E-04
DAV:  20    -0.132061007982E+02   -0.81052E-07   -0.42385E-07 11288   0.278E-03    0.227E-04
DAV:  21    -0.132061008163E+02   -0.18057E-07   -0.22486E-07 11296   0.202E-03    0.150E-04
DAV:  22    -0.132061007631E+02    0.53214E-07   -0.20616E-07 11008   0.210E-03    0.122E-04
DAV:  23    -0.132061006923E+02    0.70786E-07   -0.93047E-08 11068   0.161E-03    0.664E-05
DAV:  24    -0.132061006760E+02    0.16326E-07   -0.33212E-08 10980   0.987E-04    0.371E-05
DAV:  25    -0.132061006759E+02    0.72305E-10   -0.16993E-08 11428   0.721E-04
   1 F= -.13629583E+02 E0= -.13629583E+02  d E =-.167858E-07  mag=    -0.0016    -0.0006    -0.0007
 imaginary and real dielectric function
