 vasp.5.4.4.18Apr17-6-g9f103f2a35 (build Jul 09 2018 16:43:14) complex          
  
 executed on             LinuxIFC date 2018.11.29  02:02:06
 running on   64 total cores
 distrk:  each k-point on    4 cores,   16 groups
 distr:  one band on NCORES_PER_BAND=   4 cores,    1 groups


--------------------------------------------------------------------------------------------------------


 INCAR:
 POTCAR:    PAW Og, JanMewes Oct 18               

 ----------------------------------------------------------------------------- 
|                                                                             |
|           W    W    AA    RRRRR   N    N  II  N    N   GGGG   !!!           |
|           W    W   A  A   R    R  NN   N  II  NN   N  G    G  !!!           |
|           W    W  A    A  R    R  N N  N  II  N N  N  G       !!!           |
|           W WW W  AAAAAA  RRRRR   N  N N  II  N  N N  G  GGG   !            |
|           WW  WW  A    A  R   R   N   NN  II  N   NN  G    G                |
|           W    W  A    A  R    R  N    N  II  N    N   GGGG   !!!           |
|                                                                             |
|      You have enabled k-point parallelism (KPAR>1).                         |
|      This developmental code was originally  written by Paul Kent at ORNL,  |
|      and carefully double checked in Vienna.                                |
|      GW as well as linear response parallelism added by Martijn Marsman     |
|      and Georg Kresse.                                                      |
|      Carefully verify results versus KPAR=1.                                |
|      Report problems to Paul Kent and Vienna.                               |
|                                                                             |
 ----------------------------------------------------------------------------- 

 POTCAR:    PAW Og, JanMewes Oct 18               
   VRHFIN =Og : 10d 2s 6p, PE                                                   
   LEXCH  = PE                                                                  
   EATOM  =  2640.5573 eV,  194.0755 Ry                                         
                                                                                
   TITEL  = PAW Og, JanMewes Oct 18                                             
   LULTRA =        F    use ultrasoft PP ?                                      
   IUNSCR =        1    unscreen: 0-lin 1-nonlin 2-no                           
   RPACOR =    1.700    partial core radius                                     
   POMASS =    0.010; ZVAL   =   18.000    mass and valenz                      
   RCORE  =    2.600    outmost cutoff radius                                   
   RWIGS  =    3.500; RWIGS  =    1.852    wigner-seitz radius (au A)           
   ENMAX  =  339.336; ENMIN  =  254.502 eV                                      
   ICORE  =        3    local potential                                         
   LCOR   =        T    correct aug charges                                     
   LPAW   =        T    paw PP                                                  
   EAUG   =  361.025                                                            
   DEXC   =   -0.000                                                            
   RAUG   =    1.300    factor for augmentation sphere                          
   RDEP   =    2.775    radius for radial grids                                 
   RDEPT  =    2.135    core radius for aug-charge                              
   QCUT   =   -4.994; QGAM   =    9.988    optimization parameters              
                                                                                
   Atomic configuration                                                         
   22 entries                                                                   
     n  l   j            E        occ.                                          
     1  0  0.50   -225781.4217   2.0000                                         
     2  0  0.50    -47342.3774   2.0000                                         
     2  1  1.50    -33463.4058   6.0000                                         
     3  0  0.50    -12845.8060   2.0000                                         
     3  1  1.50     -9184.5562   6.0000                                         
     3  2  2.50     -7322.6146  10.0000                                         
     4  0  0.50     -3781.9433   2.0000                                         
     4  1  1.50     -2605.9204   6.0000                                         
     4  2  2.50     -1899.4626  10.0000                                         
     4  3  3.50     -1273.6890  14.0000                                         
     5  0  0.50     -1046.0643   2.0000                                         
     5  1  1.50      -650.9265   6.0000                                         
     5  2  2.50      -388.1490  10.0000                                         
     5  3  3.50      -152.1121  14.0000                                         
     6  0  0.50      -224.6639   2.0000                                         
     6  1  0.50      -184.3267   2.0000                                         
     6  1  1.50       -97.8537   4.0000                                         
     6  2  2.50       -35.6667  10.0000                                         
     7  0  0.50       -28.5889   2.0000                                         
     8  0  0.50        -1.3606   0.0000                                         
     7  1  1.50        -7.0827   6.0000                                         
     6  3  3.50        -0.0136   0.0000                                         
   Description                                                                  
     l       E           TYP  RCUT    TYP  RCUT                                 
     2    -35.6666962     23  2.100                                             
     2     34.0145650     23  2.300                                             
     0    -28.5889381     23  1.600                                             
     0     40.8174780     23  2.200                                             
     1     -7.0826811     23  2.200                                             
     1    148.3035034     23  1.900                                             
     3      6.8029130      7  2.600                                             
  local pseudopotential read in
  partial core-charges read in
  partial kinetic energy density read in
  kinetic energy density of atom read in
  atomic valenz-charges read in
  non local Contribution for L=           2  read in
    real space projection operators read in
  non local Contribution for L=           2  read in
    real space projection operators read in
  non local Contribution for L=           0  read in
    real space projection operators read in
  non local Contribution for L=           0  read in
    real space projection operators read in
  non local Contribution for L=           1  read in
    real space projection operators read in
  non local Contribution for L=           1  read in
    real space projection operators read in
    PAW grid and wavefunctions read in
 
   number of l-projection  operators is LMAX  =           6
   number of lm-projection operators is LMMAX =          18
 
  PAW Og, JanMewes Oct 18               :
 energy of atom  1       EATOM=-2640.5573
 kinetic energy error for atom=    0.6524 (will be added to EATOM!!)
 
 
 POSCAR: Og_FCC                                  
  positions in direct lattice
  velocities in cartesian coordinates
 exchange correlation table for  LEXCH =        8
   RHO(1)=    0.500       N(1)  =     2000
   RHO(2)=  100.500       N(2)  =     4000
 


--------------------------------------------------------------------------------------------------------


 ion  position               nearest neighbor table
   1  0.000  0.000  0.000-
 

IMPORTANT INFORMATION: All symmetrisations will be switched off!
NOSYMM: (Re-)initialisation of all symmetry stuff for point group C_1.

 
 
 KPOINTS: k-points                                

Automatic generation of k-mesh.
Space group operators:
 irot       det(A)        alpha          n_x          n_y          n_z        tau_x        tau_y        tau_z
    1     1.000000     0.000000     1.000000     0.000000     0.000000     0.000000     0.000000     0.000000
 
 Subroutine IBZKPT returns following result:
 ===========================================
 
 Found    216 irreducible k-points:
 
 Following reciprocal coordinates:
            Coordinates               Weight
  0.000000  0.000000  0.000000      1.000000
  0.166667  0.000000  0.000000      1.000000
  0.333333  0.000000  0.000000      1.000000
  0.500000  0.000000  0.000000      1.000000
 -0.333333 -0.000000  0.000000      1.000000
 -0.166667 -0.000000 -0.000000      1.000000
 -0.000000  0.166667 -0.000000      1.000000
  0.166667  0.166667  0.000000      1.000000
  0.333333  0.166667 -0.000000      1.000000
  0.500000  0.166667  0.000000      1.000000
 -0.333333  0.166667 -0.000000      1.000000
 -0.166667  0.166667 -0.000000      1.000000
  0.000000  0.333333 -0.000000      1.000000
  0.166667  0.333333  0.000000      1.000000
  0.333333  0.333333  0.000000      1.000000
  0.500000  0.333333  0.000000      1.000000
 -0.333333  0.333333 -0.000000      1.000000
 -0.166667  0.333333 -0.000000      1.000000
  0.000000  0.500000 -0.000000      1.000000
  0.166667  0.500000  0.000000      1.000000
  0.333333  0.500000  0.000000      1.000000
  0.500000  0.500000  0.000000      1.000000
 -0.333333  0.500000 -0.000000      1.000000
 -0.166667  0.500000 -0.000000      1.000000
 -0.000000 -0.333333  0.000000      1.000000
  0.166667 -0.333333  0.000000      1.000000
  0.333333 -0.333333  0.000000      1.000000
  0.500000 -0.333333  0.000000      1.000000
 -0.333333 -0.333333 -0.000000      1.000000
 -0.166667 -0.333333  0.000000      1.000000
  0.000000 -0.166667  0.000000      1.000000
  0.166667 -0.166667  0.000000      1.000000
  0.333333 -0.166667  0.000000      1.000000
  0.500000 -0.166667  0.000000      1.000000
 -0.333333 -0.166667  0.000000      1.000000
 -0.166667 -0.166667  0.000000      1.000000
  0.000000  0.000000  0.166667      1.000000
  0.166667  0.000000  0.166667      1.000000
  0.333333 -0.000000  0.166667      1.000000
  0.500000 -0.000000  0.166667      1.000000
 -0.333333 -0.000000  0.166667      1.000000
 -0.166667  0.000000  0.166667      1.000000
 -0.000000  0.166667  0.166667      1.000000
  0.166667  0.166667  0.166667      1.000000
  0.333333  0.166667  0.166667      1.000000
  0.500000  0.166667  0.166667      1.000000
 -0.333333  0.166667  0.166667      1.000000
 -0.166667  0.166667  0.166667      1.000000
 -0.000000  0.333333  0.166667      1.000000
  0.166667  0.333333  0.166667      1.000000
  0.333333  0.333333  0.166667      1.000000
  0.500000  0.333333  0.166667      1.000000
 -0.333333  0.333333  0.166667      1.000000
 -0.166667  0.333333  0.166667      1.000000
 -0.000000  0.500000  0.166667      1.000000
  0.166667  0.500000  0.166667      1.000000
  0.333333  0.500000  0.166667      1.000000
  0.500000  0.500000  0.166667      1.000000
 -0.333333  0.500000  0.166667      1.000000
 -0.166667  0.500000  0.166667      1.000000
 -0.000000 -0.333333  0.166667      1.000000
  0.166667 -0.333333  0.166667      1.000000
  0.333333 -0.333333  0.166667      1.000000
  0.500000 -0.333333  0.166667      1.000000
 -0.333333 -0.333333  0.166667      1.000000
 -0.166667 -0.333333  0.166667      1.000000
  0.000000 -0.166667  0.166667      1.000000
  0.166667 -0.166667  0.166667      1.000000
  0.333333 -0.166667  0.166667      1.000000
  0.500000 -0.166667  0.166667      1.000000
 -0.333333 -0.166667  0.166667      1.000000
 -0.166667 -0.166667  0.166667      1.000000
  0.000000  0.000000  0.333333      1.000000
  0.166667  0.000000  0.333333      1.000000
  0.333333  0.000000  0.333333      1.000000
  0.500000 -0.000000  0.333333      1.000000
 -0.333333  0.000000  0.333333      1.000000
 -0.166667  0.000000  0.333333      1.000000
 -0.000000  0.166667  0.333333      1.000000
  0.166667  0.166667  0.333333      1.000000
  0.333333  0.166667  0.333333      1.000000
  0.500000  0.166667  0.333333      1.000000
 -0.333333  0.166667  0.333333      1.000000
 -0.166667  0.166667  0.333333      1.000000
 -0.000000  0.333333  0.333333      1.000000
  0.166667  0.333333  0.333333      1.000000
  0.333333  0.333333  0.333333      1.000000
  0.500000  0.333333  0.333333      1.000000
 -0.333333  0.333333  0.333333      1.000000
 -0.166667  0.333333  0.333333      1.000000
  0.000000  0.500000  0.333333      1.000000
  0.166667  0.500000  0.333333      1.000000
  0.333333  0.500000  0.333333      1.000000
  0.500000  0.500000  0.333333      1.000000
 -0.333333  0.500000  0.333333      1.000000
 -0.166667  0.500000  0.333333      1.000000
  0.000000 -0.333333  0.333333      1.000000
  0.166667 -0.333333  0.333333      1.000000
  0.333333 -0.333333  0.333333      1.000000
  0.500000 -0.333333  0.333333      1.000000
 -0.333333 -0.333333  0.333333      1.000000
 -0.166667 -0.333333  0.333333      1.000000
  0.000000 -0.166667  0.333333      1.000000
  0.166667 -0.166667  0.333333      1.000000
  0.333333 -0.166667  0.333333      1.000000
  0.500000 -0.166667  0.333333      1.000000
 -0.333333 -0.166667  0.333333      1.000000
 -0.166667 -0.166667  0.333333      1.000000
  0.000000  0.000000  0.500000      1.000000
  0.166667  0.000000  0.500000      1.000000
  0.333333  0.000000  0.500000      1.000000
  0.500000 -0.000000  0.500000      1.000000
 -0.333333  0.000000  0.500000      1.000000
 -0.166667  0.000000  0.500000      1.000000
 -0.000000  0.166667  0.500000      1.000000
  0.166667  0.166667  0.500000      1.000000
  0.333333  0.166667  0.500000      1.000000
  0.500000  0.166667  0.500000      1.000000
 -0.333333  0.166667  0.500000      1.000000
 -0.166667  0.166667  0.500000      1.000000
  0.000000  0.333333  0.500000      1.000000
  0.166667  0.333333  0.500000      1.000000
  0.333333  0.333333  0.500000      1.000000
  0.500000  0.333333  0.500000      1.000000
 -0.333333  0.333333  0.500000      1.000000
 -0.166667  0.333333  0.500000      1.000000
 -0.000000  0.500000  0.500000      1.000000
  0.166667  0.500000  0.500000      1.000000
  0.333333  0.500000  0.500000      1.000000
  0.500000  0.500000  0.500000      1.000000
 -0.333333  0.500000  0.500000      1.000000
 -0.166667  0.500000  0.500000      1.000000
  0.000000 -0.333333  0.500000      1.000000
  0.166667 -0.333333  0.500000      1.000000
  0.333333 -0.333333  0.500000      1.000000
  0.500000 -0.333333  0.500000      1.000000
 -0.333333 -0.333333  0.500000      1.000000
 -0.166667 -0.333333  0.500000      1.000000
  0.000000 -0.166667  0.500000      1.000000
  0.166667 -0.166667  0.500000      1.000000
  0.333333 -0.166667  0.500000      1.000000
  0.500000 -0.166667  0.500000      1.000000
 -0.333333 -0.166667  0.500000      1.000000
 -0.166667 -0.166667  0.500000      1.000000
  0.000000  0.000000 -0.333333      1.000000
  0.166667 -0.000000 -0.333333      1.000000
  0.333333 -0.000000 -0.333333      1.000000
  0.500000  0.000000 -0.333333      1.000000
 -0.333333 -0.000000 -0.333333      1.000000
 -0.166667 -0.000000 -0.333333      1.000000
 -0.000000  0.166667 -0.333333      1.000000
  0.166667  0.166667 -0.333333      1.000000
  0.333333  0.166667 -0.333333      1.000000
  0.500000  0.166667 -0.333333      1.000000
 -0.333333  0.166667 -0.333333      1.000000
 -0.166667  0.166667 -0.333333      1.000000
  0.000000  0.333333 -0.333333      1.000000
  0.166667  0.333333 -0.333333      1.000000
  0.333333  0.333333 -0.333333      1.000000
  0.500000  0.333333 -0.333333      1.000000
 -0.333333  0.333333 -0.333333      1.000000
 -0.166667  0.333333 -0.333333      1.000000
 -0.000000  0.500000 -0.333333      1.000000
  0.166667  0.500000 -0.333333      1.000000
  0.333333  0.500000 -0.333333      1.000000
  0.500000  0.500000 -0.333333      1.000000
 -0.333333  0.500000 -0.333333      1.000000
 -0.166667  0.500000 -0.333333      1.000000
  0.000000 -0.333333 -0.333333      1.000000
  0.166667 -0.333333 -0.333333      1.000000
  0.333333 -0.333333 -0.333333      1.000000
  0.500000 -0.333333 -0.333333      1.000000
 -0.333333 -0.333333 -0.333333      1.000000
 -0.166667 -0.333333 -0.333333      1.000000
  0.000000 -0.166667 -0.333333      1.000000
  0.166667 -0.166667 -0.333333      1.000000
  0.333333 -0.166667 -0.333333      1.000000
  0.500000 -0.166667 -0.333333      1.000000
 -0.333333 -0.166667 -0.333333      1.000000
 -0.166667 -0.166667 -0.333333      1.000000
 -0.000000 -0.000000 -0.166667      1.000000
  0.166667 -0.000000 -0.166667      1.000000
  0.333333  0.000000 -0.166667      1.000000
  0.500000  0.000000 -0.166667      1.000000
 -0.333333  0.000000 -0.166667      1.000000
 -0.166667 -0.000000 -0.166667      1.000000
 -0.000000  0.166667 -0.166667      1.000000
  0.166667  0.166667 -0.166667      1.000000
  0.333333  0.166667 -0.166667      1.000000
  0.500000  0.166667 -0.166667      1.000000
 -0.333333  0.166667 -0.166667      1.000000
 -0.166667  0.166667 -0.166667      1.000000
  0.000000  0.333333 -0.166667      1.000000
  0.166667  0.333333 -0.166667      1.000000
  0.333333  0.333333 -0.166667      1.000000
  0.500000  0.333333 -0.166667      1.000000
 -0.333333  0.333333 -0.166667      1.000000
 -0.166667  0.333333 -0.166667      1.000000
 -0.000000  0.500000 -0.166667      1.000000
  0.166667  0.500000 -0.166667      1.000000
  0.333333  0.500000 -0.166667      1.000000
  0.500000  0.500000 -0.166667      1.000000
 -0.333333  0.500000 -0.166667      1.000000
 -0.166667  0.500000 -0.166667      1.000000
  0.000000 -0.333333 -0.166667      1.000000
  0.166667 -0.333333 -0.166667      1.000000
  0.333333 -0.333333 -0.166667      1.000000
  0.500000 -0.333333 -0.166667      1.000000
 -0.333333 -0.333333 -0.166667      1.000000
 -0.166667 -0.333333 -0.166667      1.000000
  0.000000 -0.166667 -0.166667      1.000000
  0.166667 -0.166667 -0.166667      1.000000
  0.333333 -0.166667 -0.166667      1.000000
  0.500000 -0.166667 -0.166667      1.000000
 -0.333333 -0.166667 -0.166667      1.000000
 -0.166667 -0.166667 -0.166667      1.000000
 
 Following cartesian coordinates:
            Coordinates               Weight
  0.000000  0.000000  0.000000      1.000000
  0.038382 -0.022160 -0.015669      1.000000
  0.076763 -0.044319 -0.031339      1.000000
  0.115145 -0.066479 -0.047008      1.000000
 -0.076763  0.044319  0.031339      1.000000
 -0.038382  0.022160  0.015669      1.000000
  0.000000  0.044319 -0.015669      1.000000
  0.038382  0.022160 -0.031339      1.000000
  0.076763  0.000000 -0.047008      1.000000
  0.115145 -0.022160 -0.062677      1.000000
 -0.076763  0.088639  0.015669      1.000000
 -0.038382  0.066479 -0.000000      1.000000
  0.000000  0.088639 -0.031339      1.000000
  0.038382  0.066479 -0.047008      1.000000
  0.076763  0.044319 -0.062677      1.000000
  0.115145  0.022160 -0.078346      1.000000
 -0.076763  0.132958  0.000000      1.000000
 -0.038382  0.110798 -0.015669      1.000000
  0.000000  0.132958 -0.047008      1.000000
  0.038382  0.110798 -0.062677      1.000000
  0.076763  0.088639 -0.078346      1.000000
  0.115145  0.066479 -0.094016      1.000000
 -0.076763  0.177278 -0.015669      1.000000
 -0.038382  0.155118 -0.031339      1.000000
 -0.000000 -0.088639  0.031339      1.000000
  0.038382 -0.110798  0.015669      1.000000
  0.076763 -0.132958 -0.000000      1.000000
  0.115145 -0.155118 -0.015669      1.000000
 -0.076763 -0.044319  0.062677      1.000000
 -0.038382 -0.066479  0.047008      1.000000
 -0.000000 -0.044319  0.015669      1.000000
  0.038382 -0.066479 -0.000000      1.000000
  0.076763 -0.088639 -0.015669      1.000000
  0.115145 -0.110798 -0.031339      1.000000
 -0.076763  0.000000  0.047008      1.000000
 -0.038382 -0.022160  0.031339      1.000000
 -0.000000  0.000000  0.047008      1.000000
  0.038382 -0.022160  0.031339      1.000000
  0.076763 -0.044319  0.015669      1.000000
  0.115145 -0.066479  0.000000      1.000000
 -0.076763  0.044319  0.078346      1.000000
 -0.038382  0.022160  0.062677      1.000000
 -0.000000  0.044319  0.031339      1.000000
  0.038382  0.022160  0.015669      1.000000
  0.076763  0.000000  0.000000      1.000000
  0.115145 -0.022160 -0.015669      1.000000
 -0.076763  0.088639  0.062677      1.000000
 -0.038382  0.066479  0.047008      1.000000
 -0.000000  0.088639  0.015669      1.000000
  0.038382  0.066479  0.000000      1.000000
  0.076763  0.044319 -0.015669      1.000000
  0.115145  0.022160 -0.031339      1.000000
 -0.076763  0.132958  0.047008      1.000000
 -0.038382  0.110798  0.031339      1.000000
 -0.000000  0.132958  0.000000      1.000000
  0.038382  0.110798 -0.015669      1.000000
  0.076763  0.088639 -0.031339      1.000000
  0.115145  0.066479 -0.047008      1.000000
 -0.076763  0.177278  0.031339      1.000000
 -0.038382  0.155118  0.015669      1.000000
 -0.000000 -0.088639  0.078346      1.000000
  0.038382 -0.110798  0.062677      1.000000
  0.076763 -0.132958  0.047008      1.000000
  0.115145 -0.155118  0.031339      1.000000
 -0.076763 -0.044319  0.109685      1.000000
 -0.038382 -0.066479  0.094016      1.000000
 -0.000000 -0.044319  0.062677      1.000000
  0.038382 -0.066479  0.047008      1.000000
  0.076763 -0.088639  0.031339      1.000000
  0.115145 -0.110798  0.015669      1.000000
 -0.076763  0.000000  0.094016      1.000000
 -0.038382 -0.022160  0.078346      1.000000
 -0.000000  0.000000  0.094016      1.000000
  0.038382 -0.022160  0.078346      1.000000
  0.076763 -0.044319  0.062677      1.000000
  0.115145 -0.066479  0.047008      1.000000
 -0.076763  0.044319  0.125354      1.000000
 -0.038382  0.022160  0.109685      1.000000
 -0.000000  0.044319  0.078346      1.000000
  0.038382  0.022160  0.062677      1.000000
  0.076763  0.000000  0.047008      1.000000
  0.115145 -0.022160  0.031339      1.000000
 -0.076763  0.088639  0.109685      1.000000
 -0.038382  0.066479  0.094016      1.000000
 -0.000000  0.088639  0.062677      1.000000
  0.038382  0.066479  0.047008      1.000000
  0.076763  0.044319  0.031339      1.000000
  0.115145  0.022160  0.015669      1.000000
 -0.076763  0.132958  0.094016      1.000000
 -0.038382  0.110798  0.078346      1.000000
 -0.000000  0.132958  0.047008      1.000000
  0.038382  0.110798  0.031339      1.000000
  0.076763  0.088639  0.015669      1.000000
  0.115145  0.066479 -0.000000      1.000000
 -0.076763  0.177278  0.078346      1.000000
 -0.038382  0.155118  0.062677      1.000000
 -0.000000 -0.088639  0.125354      1.000000
  0.038382 -0.110798  0.109685      1.000000
  0.076763 -0.132958  0.094016      1.000000
  0.115145 -0.155118  0.078346      1.000000
 -0.076763 -0.044319  0.156693      1.000000
 -0.038382 -0.066479  0.141023      1.000000
 -0.000000 -0.044319  0.109685      1.000000
  0.038382 -0.066479  0.094016      1.000000
  0.076763 -0.088639  0.078346      1.000000
  0.115145 -0.110798  0.062677      1.000000
 -0.076763  0.000000  0.141023      1.000000
 -0.038382 -0.022160  0.125354      1.000000
 -0.000000  0.000000  0.141023      1.000000
  0.038382 -0.022160  0.125354      1.000000
  0.076763 -0.044319  0.109685      1.000000
  0.115145 -0.066479  0.094016      1.000000
 -0.076763  0.044319  0.172362      1.000000
 -0.038382  0.022160  0.156693      1.000000
 -0.000000  0.044319  0.125354      1.000000
  0.038382  0.022160  0.109685      1.000000
  0.076763  0.000000  0.094016      1.000000
  0.115145 -0.022160  0.078346      1.000000
 -0.076763  0.088639  0.156693      1.000000
 -0.038382  0.066479  0.141023      1.000000
 -0.000000  0.088639  0.109685      1.000000
  0.038382  0.066479  0.094016      1.000000
  0.076763  0.044319  0.078346      1.000000
  0.115145  0.022160  0.062677      1.000000
 -0.076763  0.132958  0.141023      1.000000
 -0.038382  0.110798  0.125354      1.000000
 -0.000000  0.132958  0.094016      1.000000
  0.038382  0.110798  0.078346      1.000000
  0.076763  0.088639  0.062677      1.000000
  0.115145  0.066479  0.047008      1.000000
 -0.076763  0.177278  0.125354      1.000000
 -0.038382  0.155118  0.109685      1.000000
 -0.000000 -0.088639  0.172362      1.000000
  0.038382 -0.110798  0.156693      1.000000
  0.076763 -0.132958  0.141023      1.000000
  0.115145 -0.155118  0.125354      1.000000
 -0.076763 -0.044319  0.203700      1.000000
 -0.038382 -0.066479  0.188031      1.000000
 -0.000000 -0.044319  0.156693      1.000000
  0.038382 -0.066479  0.141023      1.000000
  0.076763 -0.088639  0.125354      1.000000
  0.115145 -0.110798  0.109685      1.000000
 -0.076763  0.000000  0.188031      1.000000
 -0.038382 -0.022160  0.172362      1.000000
  0.000000 -0.000000 -0.094016      1.000000
  0.038382 -0.022160 -0.109685      1.000000
  0.076763 -0.044319 -0.125354      1.000000
  0.115145 -0.066479 -0.141023      1.000000
 -0.076763  0.044319 -0.062677      1.000000
 -0.038382  0.022160 -0.078346      1.000000
  0.000000  0.044319 -0.109685      1.000000
  0.038382  0.022160 -0.125354      1.000000
  0.076763  0.000000 -0.141023      1.000000
  0.115145 -0.022160 -0.156693      1.000000
 -0.076763  0.088639 -0.078346      1.000000
 -0.038382  0.066479 -0.094016      1.000000
  0.000000  0.088639 -0.125354      1.000000
  0.038382  0.066479 -0.141023      1.000000
  0.076763  0.044319 -0.156693      1.000000
  0.115145  0.022160 -0.172362      1.000000
 -0.076763  0.132958 -0.094016      1.000000
 -0.038382  0.110798 -0.109685      1.000000
  0.000000  0.132958 -0.141023      1.000000
  0.038382  0.110798 -0.156693      1.000000
  0.076763  0.088639 -0.172362      1.000000
  0.115145  0.066479 -0.188031      1.000000
 -0.076763  0.177278 -0.109685      1.000000
 -0.038382  0.155118 -0.125354      1.000000
  0.000000 -0.088639 -0.062677      1.000000
  0.038382 -0.110798 -0.078346      1.000000
  0.076763 -0.132958 -0.094016      1.000000
  0.115145 -0.155118 -0.109685      1.000000
 -0.076763 -0.044319 -0.031339      1.000000
 -0.038382 -0.066479 -0.047008      1.000000
  0.000000 -0.044319 -0.078346      1.000000
  0.038382 -0.066479 -0.094016      1.000000
  0.076763 -0.088639 -0.109685      1.000000
  0.115145 -0.110798 -0.125354      1.000000
 -0.076763  0.000000 -0.047008      1.000000
 -0.038382 -0.022160 -0.062677      1.000000
  0.000000 -0.000000 -0.047008      1.000000
  0.038382 -0.022160 -0.062677      1.000000
  0.076763 -0.044319 -0.078346      1.000000
  0.115145 -0.066479 -0.094016      1.000000
 -0.076763  0.044319 -0.015669      1.000000
 -0.038382  0.022160 -0.031339      1.000000
  0.000000  0.044319 -0.062677      1.000000
  0.038382  0.022160 -0.078346      1.000000
  0.076763  0.000000 -0.094016      1.000000
  0.115145 -0.022160 -0.109685      1.000000
 -0.076763  0.088639 -0.031339      1.000000
 -0.038382  0.066479 -0.047008      1.000000
  0.000000  0.088639 -0.078346      1.000000
  0.038382  0.066479 -0.094016      1.000000
  0.076763  0.044319 -0.109685      1.000000
  0.115145  0.022160 -0.125354      1.000000
 -0.076763  0.132958 -0.047008      1.000000
 -0.038382  0.110798 -0.062677      1.000000
  0.000000  0.132958 -0.094016      1.000000
  0.038382  0.110798 -0.109685      1.000000
  0.076763  0.088639 -0.125354      1.000000
  0.115145  0.066479 -0.141023      1.000000
 -0.076763  0.177278 -0.062677      1.000000
 -0.038382  0.155118 -0.078346      1.000000
  0.000000 -0.088639 -0.015669      1.000000
  0.038382 -0.110798 -0.031339      1.000000
  0.076763 -0.132958 -0.047008      1.000000
  0.115145 -0.155118 -0.062677      1.000000
 -0.076763 -0.044319  0.015669      1.000000
 -0.038382 -0.066479  0.000000      1.000000
  0.000000 -0.044319 -0.031339      1.000000
  0.038382 -0.066479 -0.047008      1.000000
  0.076763 -0.088639 -0.062677      1.000000
  0.115145 -0.110798 -0.078346      1.000000
 -0.076763  0.000000  0.000000      1.000000
 -0.038382 -0.022160 -0.015669      1.000000
 


--------------------------------------------------------------------------------------------------------




 Dimension of arrays:
   k-points           NKPTS =    216   k-points in BZ     NKDIM =    216   number of bands    NBANDS=     28
   number of dos      NEDOS =    301   number of ions     NIONS =      1
   non local maximal  LDIM  =      6   non local SUM 2l+1 LMDIM =     18
   total plane-waves  NPLWV =  21952
   max r-space proj   IRMAX =      1   max aug-charges    IRDMAX= 182324
   dimension x,y,z NGX =    28 NGY =   28 NGZ =   28
   dimension x,y,z NGXF=    56 NGYF=   56 NGZF=   56
   support grid    NGXF=   112 NGYF=  112 NGZF=  112
   ions per type =               1
   NGX,Y,Z   is equivalent  to a cutoff of  10.72, 10.72, 10.72 a.u.
   NGXF,Y,Z  is equivalent  to a cutoff of  21.44, 21.44, 21.44 a.u.

 SYSTEM =  Og_FCC                                  
 POSCAR =  Og_FCC                                  

 Startparameter for this run:
   NWRITE =      2    write-flag & timer
   PREC   = accura    normal or accurate (medium, high low for compatibility)
   ISTART =      0    job   : 0-new  1-cont  2-samecut
   ICHARG =      2    charge: 1-file 2-atom 10-const
   ISPIN  =      1    spin polarized calculation?
   LNONCOLLINEAR =      T non collinear calculations
   LSORBIT =      T    spin-orbit coupling
   INIWAV =      1    electr: 0-lowe 1-rand  2-diag
   LASPH  =      F    aspherical Exc in radial PAW
   METAGGA=      F    non-selfconsistent MetaGGA calc.

 Electronic Relaxation 1
   ENCUT  =  300.0 eV  22.05 Ry    4.70 a.u.   6.13  6.13  6.13*2*pi/ulx,y,z
   ENINI  =  300.0     initial cutoff
   ENAUG  =  361.0 eV  augmentation charge cutoff
   NELM   =     50;   NELMIN=  2; NELMDL= -5     # of ELM steps 
   EDIFF  = 0.1E-07   stopping-criterion for ELM
   LREAL  =      F    real-space projection
   NLSPLINE    = F    spline interpolate recip. space projectors
   LCOMPAT=      F    compatible to vasp.4.4
   GGA_COMPAT  = F    GGA compatible to vasp.4.4-vasp.4.6
   LMAXPAW     = -100 max onsite density
   LMAXMIX     =    2 max onsite mixed and CHGCAR
   VOSKOWN=      0    Vosko Wilk Nusair interpolation
   ROPT   =    0.00000
 Ionic relaxation
   EDIFFG = 0.1E-04   stopping-criterion for IOM
   NSW    =      1    number of steps for IOM
   NBLOCK =      1;   KBLOCK =      1    inner block; outer block 
   IBRION =     -1    ionic relax: 0-MD 1-quasi-New 2-CG
   NFREE  =      5    steps in history (QN), initial steepest desc. (CG)
   ISIF   =      3    stress and relaxation
   IWAVPR =     10    prediction:  0-non 1-charg 2-wave 3-comb
   ISYM   =      0    0-nonsym 1-usesym 2-fastsym
   LCORR  =      T    Harris-Foulkes like correction to forces

   POTIM  = 0.1000    time-step for ionic-motion
   TEIN   =    0.0    initial temperature
   TEBEG  =    0.0;   TEEND  =   0.0 temperature during run
   SMASS  =  -3.00    Nose mass-parameter (am)
   estimated Nose-frequenzy (Omega)   =  0.10E-29 period in steps =****** mass=  -0.431E-27a.u.
   SCALEE = 1.0000    scale energy and forces
   NPACO  =    256;   APACO  = 16.0  distance and # of slots for P.C.
   PSTRESS=    0.0 pullay stress

  Mass of Ions in am
   POMASS =   0.01
  Ionic Valenz
   ZVAL   =  18.00
  Atomic Wigner-Seitz radii
   RWIGS  =  -1.00
  virtual crystal weights 
   VCA    =   1.00
   NELECT =      18.0000    total number of electrons
   NUPDOWN=      -1.0000    fix difference up-down

 DOS related values:
   EMIN   =  10.00;   EMAX   =-10.00  energy-range for DOS
   EFERMI =   0.00
   ISMEAR =     0;   SIGMA  =   0.00  broadening in eV -4-tet -1-fermi 0-gaus

 Electronic relaxation 2 (details)
   IALGO  =     38    algorithm
   LDIAG  =      T    sub-space diagonalisation (order eigenvalues)
   LSUBROT=      F    optimize rotation matrix (better conditioning)
   TURBO    =      0    0=normal 1=particle mesh
   IRESTART =      0    0=no restart 2=restart with 2 vectors
   NREBOOT  =      0    no. of reboots
   NMIN     =      0    reboot dimension
   EREF     =   0.00    reference energy to select bands
   IMIX   =      4    mixing-type and parameters
     AMIX     =   0.40;   BMIX     =  1.00
     AMIX_MAG =   1.60;   BMIX_MAG =  1.00
     AMIN     =   0.10
     WC   =   100.;   INIMIX=   1;  MIXPRE=   1;  MAXMIX=  50

 Intra band minimization:
   WEIMIN = 0.0000     energy-eigenvalue tresh-hold
   EBREAK =  0.89E-10  absolut break condition
   DEPER  =   0.30     relativ break condition  

   TIME   =   0.40     timestep for ELM

  volume/ion in A,a.u.               =      57.90       390.71
  Fermi-wavevector in a.u.,A,eV,Ry     =   1.109038  2.095777 16.734680  1.229964
  Thomas-Fermi vector in A             =   2.245572
 
 Write flags
   LWAVE        =      T    write WAVECAR
   LDOWNSAMPLE  =      F    k-point downsampling of WAVECAR
   LCHARG       =      F    write CHGCAR
   LVTOT        =      F    write LOCPOT, total local potential
   LVHAR        =      F    write LOCPOT, Hartree potential only
   LELF         =      F    write electronic localiz. function (ELF)
   LORBIT       =      0    0 simple, 1 ext, 2 COOP (PROOUT), +10 PAW based schemes


 Dipole corrections
   LMONO  =      F    monopole corrections only (constant potential shift)
   LDIPOL =      F    correct potential (dipole corrections)
   IDIPOL =      0    1-x, 2-y, 3-z, 4-all directions 
   EPSILON=  1.0000000 bulk dielectric constant

 Exchange correlation treatment:
   GGA     =    PE    GGA type
   LEXCH   =     8    internal setting for exchange type
   VOSKOWN=      0    Vosko Wilk Nusair interpolation
   LHFCALC =     F    Hartree Fock is set to
   LHFONE  =     F    Hartree Fock one center treatment
   AEXX    =    0.0000 exact exchange contribution

 Linear response parameters
   LEPSILON=     F    determine dielectric tensor
   LRPA    =     F    only Hartree local field effects (RPA)
   LNABLA  =     F    use nabla operator in PAW spheres
   LVEL    =     F    velocity operator in full k-point grid
   LINTERFAST=   F  fast interpolation
   KINTER  =     0    interpolate to denser k-point grid
   CSHIFT  =0.1000    complex shift for real part using Kramers Kronig
   OMEGAMAX=  -1.0    maximum frequency
   DEG_THRESHOLD= 0.2000000E-02 threshold for treating states as degnerate
   RTIME   =   -0.100 relaxation time in fs
  (WPLASMAI=    0.000 imaginary part of plasma frequency in eV, 0.658/RTIME)
   DFIELD  = 0.0000000 0.0000000 0.0000000 field for delta impulse in time
 
 Orbital magnetization related:
   ORBITALMAG=     F  switch on orbital magnetization
   LCHIMAG   =     F  perturbation theory with respect to B field
   DQ        =  0.001000  dq finite difference perturbation B field
   LLRAUG    =     F  two centre corrections for induced B field



--------------------------------------------------------------------------------------------------------


 Static calculation
 charge density and potential will be updated during run
 non collinear spin polarized calculation
 Variant of blocked Davidson
 Davidson routine will perform the subspace rotation
 perform sub-space diagonalisation
    after iterative eigenvector-optimisation
 modified Broyden-mixing scheme, WC =      100.0
 initial mixing is a Kerker type mixing with AMIX =  0.4000 and BMIX =      1.0000
 Hartree-type preconditioning will be used
 using additional bands           19
 reciprocal scheme for non local part
 use partial core corrections
 calculate Harris-corrections to forces 
   (improved forces if not selfconsistent)
 use gradient corrections 
 use of overlap-Matrix (Vanderbilt PP)
 Gauss-broadening in eV      SIGMA  =   0.00


--------------------------------------------------------------------------------------------------------


  energy-cutoff  :      300.00
  volume of cell :       57.90
      direct lattice vectors                 reciprocal lattice vectors
     4.342345876  0.000000000  0.000000000     0.230290269 -0.132958149 -0.094015609
     2.171172938  3.760581840 -0.000000000     0.000000000  0.265916298 -0.094015609
     2.171172938  1.253527280  3.545510561    -0.000000000  0.000000000  0.282046826

  length of vectors
     4.342345876  4.342345876  4.342345876     0.282046826  0.282046826  0.282046826


 
 k-points in units of 2pi/SCALE and weight: k-points                                
   0.00000000  0.00000000  0.00000000       0.005
   0.03838171 -0.02215969 -0.01566927       0.005
   0.07676342 -0.04431938 -0.03133854       0.005
   0.11514513 -0.06647907 -0.04700780       0.005
  -0.07676342  0.04431938  0.03133854       0.005
  -0.03838171  0.02215969  0.01566927       0.005
   0.00000000  0.04431938 -0.01566927       0.005
   0.03838171  0.02215969 -0.03133854       0.005
   0.07676342  0.00000000 -0.04700780       0.005
   0.11514513 -0.02215969 -0.06267707       0.005
  -0.07676342  0.08863877  0.01566927       0.005
  -0.03838171  0.06647907 -0.00000000       0.005
   0.00000000  0.08863877 -0.03133854       0.005
   0.03838171  0.06647907 -0.04700780       0.005
   0.07676342  0.04431938 -0.06267707       0.005
   0.11514513  0.02215969 -0.07834634       0.005
  -0.07676342  0.13295815  0.00000000       0.005
  -0.03838171  0.11079846 -0.01566927       0.005
   0.00000000  0.13295815 -0.04700780       0.005
   0.03838171  0.11079846 -0.06267707       0.005
   0.07676342  0.08863877 -0.07834634       0.005
   0.11514513  0.06647907 -0.09401561       0.005
  -0.07676342  0.17727753 -0.01566927       0.005
  -0.03838171  0.15511784 -0.03133854       0.005
  -0.00000000 -0.08863877  0.03133854       0.005
   0.03838171 -0.11079846  0.01566927       0.005
   0.07676342 -0.13295815 -0.00000000       0.005
   0.11514513 -0.15511784 -0.01566927       0.005
  -0.07676342 -0.04431938  0.06267707       0.005
  -0.03838171 -0.06647907  0.04700780       0.005
  -0.00000000 -0.04431938  0.01566927       0.005
   0.03838171 -0.06647907 -0.00000000       0.005
   0.07676342 -0.08863877 -0.01566927       0.005
   0.11514513 -0.11079846 -0.03133854       0.005
  -0.07676342  0.00000000  0.04700780       0.005
  -0.03838171 -0.02215969  0.03133854       0.005
  -0.00000000  0.00000000  0.04700780       0.005
   0.03838171 -0.02215969  0.03133854       0.005
   0.07676342 -0.04431938  0.01566927       0.005
   0.11514513 -0.06647907  0.00000000       0.005
  -0.07676342  0.04431938  0.07834634       0.005
  -0.03838171  0.02215969  0.06267707       0.005
  -0.00000000  0.04431938  0.03133854       0.005
   0.03838171  0.02215969  0.01566927       0.005
   0.07676342  0.00000000  0.00000000       0.005
   0.11514513 -0.02215969 -0.01566927       0.005
  -0.07676342  0.08863877  0.06267707       0.005
  -0.03838171  0.06647907  0.04700780       0.005
  -0.00000000  0.08863877  0.01566927       0.005
   0.03838171  0.06647907  0.00000000       0.005
   0.07676342  0.04431938 -0.01566927       0.005
   0.11514513  0.02215969 -0.03133854       0.005
  -0.07676342  0.13295815  0.04700780       0.005
  -0.03838171  0.11079846  0.03133854       0.005
  -0.00000000  0.13295815  0.00000000       0.005
   0.03838171  0.11079846 -0.01566927       0.005
   0.07676342  0.08863877 -0.03133854       0.005
   0.11514513  0.06647907 -0.04700780       0.005
  -0.07676342  0.17727753  0.03133854       0.005
  -0.03838171  0.15511784  0.01566927       0.005
  -0.00000000 -0.08863877  0.07834634       0.005
   0.03838171 -0.11079846  0.06267707       0.005
   0.07676342 -0.13295815  0.04700780       0.005
   0.11514513 -0.15511784  0.03133854       0.005
  -0.07676342 -0.04431938  0.10968488       0.005
  -0.03838171 -0.06647907  0.09401561       0.005
  -0.00000000 -0.04431938  0.06267707       0.005
   0.03838171 -0.06647907  0.04700780       0.005
   0.07676342 -0.08863877  0.03133854       0.005
   0.11514513 -0.11079846  0.01566927       0.005
  -0.07676342  0.00000000  0.09401561       0.005
  -0.03838171 -0.02215969  0.07834634       0.005
  -0.00000000  0.00000000  0.09401561       0.005
   0.03838171 -0.02215969  0.07834634       0.005
   0.07676342 -0.04431938  0.06267707       0.005
   0.11514513 -0.06647907  0.04700780       0.005
  -0.07676342  0.04431938  0.12535414       0.005
  -0.03838171  0.02215969  0.10968488       0.005
  -0.00000000  0.04431938  0.07834634       0.005
   0.03838171  0.02215969  0.06267707       0.005
   0.07676342  0.00000000  0.04700780       0.005
   0.11514513 -0.02215969  0.03133854       0.005
  -0.07676342  0.08863877  0.10968488       0.005
  -0.03838171  0.06647907  0.09401561       0.005
  -0.00000000  0.08863877  0.06267707       0.005
   0.03838171  0.06647907  0.04700780       0.005
   0.07676342  0.04431938  0.03133854       0.005
   0.11514513  0.02215969  0.01566927       0.005
  -0.07676342  0.13295815  0.09401561       0.005
  -0.03838171  0.11079846  0.07834634       0.005
  -0.00000000  0.13295815  0.04700780       0.005
   0.03838171  0.11079846  0.03133854       0.005
   0.07676342  0.08863877  0.01566927       0.005
   0.11514513  0.06647907 -0.00000000       0.005
  -0.07676342  0.17727753  0.07834634       0.005
  -0.03838171  0.15511784  0.06267707       0.005
  -0.00000000 -0.08863877  0.12535414       0.005
   0.03838171 -0.11079846  0.10968488       0.005
   0.07676342 -0.13295815  0.09401561       0.005
   0.11514513 -0.15511784  0.07834634       0.005
  -0.07676342 -0.04431938  0.15669268       0.005
  -0.03838171 -0.06647907  0.14102341       0.005
  -0.00000000 -0.04431938  0.10968488       0.005
   0.03838171 -0.06647907  0.09401561       0.005
   0.07676342 -0.08863877  0.07834634       0.005
   0.11514513 -0.11079846  0.06267707       0.005
  -0.07676342  0.00000000  0.14102341       0.005
  -0.03838171 -0.02215969  0.12535414       0.005
  -0.00000000  0.00000000  0.14102341       0.005
   0.03838171 -0.02215969  0.12535414       0.005
   0.07676342 -0.04431938  0.10968488       0.005
   0.11514513 -0.06647907  0.09401561       0.005
  -0.07676342  0.04431938  0.17236195       0.005
  -0.03838171  0.02215969  0.15669268       0.005
  -0.00000000  0.04431938  0.12535414       0.005
   0.03838171  0.02215969  0.10968488       0.005
   0.07676342  0.00000000  0.09401561       0.005
   0.11514513 -0.02215969  0.07834634       0.005
  -0.07676342  0.08863877  0.15669268       0.005
  -0.03838171  0.06647907  0.14102341       0.005
  -0.00000000  0.08863877  0.10968488       0.005
   0.03838171  0.06647907  0.09401561       0.005
   0.07676342  0.04431938  0.07834634       0.005
   0.11514513  0.02215969  0.06267707       0.005
  -0.07676342  0.13295815  0.14102341       0.005
  -0.03838171  0.11079846  0.12535414       0.005
  -0.00000000  0.13295815  0.09401561       0.005
   0.03838171  0.11079846  0.07834634       0.005
   0.07676342  0.08863877  0.06267707       0.005
   0.11514513  0.06647907  0.04700780       0.005
  -0.07676342  0.17727753  0.12535414       0.005
  -0.03838171  0.15511784  0.10968488       0.005
  -0.00000000 -0.08863877  0.17236195       0.005
   0.03838171 -0.11079846  0.15669268       0.005
   0.07676342 -0.13295815  0.14102341       0.005
   0.11514513 -0.15511784  0.12535414       0.005
  -0.07676342 -0.04431938  0.20370049       0.005
  -0.03838171 -0.06647907  0.18803122       0.005
  -0.00000000 -0.04431938  0.15669268       0.005
   0.03838171 -0.06647907  0.14102341       0.005
   0.07676342 -0.08863877  0.12535414       0.005
   0.11514513 -0.11079846  0.10968488       0.005
  -0.07676342  0.00000000  0.18803122       0.005
  -0.03838171 -0.02215969  0.17236195       0.005
   0.00000000 -0.00000000 -0.09401561       0.005
   0.03838171 -0.02215969 -0.10968488       0.005
   0.07676342 -0.04431938 -0.12535414       0.005
   0.11514513 -0.06647907 -0.14102341       0.005
  -0.07676342  0.04431938 -0.06267707       0.005
  -0.03838171  0.02215969 -0.07834634       0.005
   0.00000000  0.04431938 -0.10968488       0.005
   0.03838171  0.02215969 -0.12535414       0.005
   0.07676342  0.00000000 -0.14102341       0.005
   0.11514513 -0.02215969 -0.15669268       0.005
  -0.07676342  0.08863877 -0.07834634       0.005
  -0.03838171  0.06647907 -0.09401561       0.005
   0.00000000  0.08863877 -0.12535414       0.005
   0.03838171  0.06647907 -0.14102341       0.005
   0.07676342  0.04431938 -0.15669268       0.005
   0.11514513  0.02215969 -0.17236195       0.005
  -0.07676342  0.13295815 -0.09401561       0.005
  -0.03838171  0.11079846 -0.10968488       0.005
   0.00000000  0.13295815 -0.14102341       0.005
   0.03838171  0.11079846 -0.15669268       0.005
   0.07676342  0.08863877 -0.17236195       0.005
   0.11514513  0.06647907 -0.18803122       0.005
  -0.07676342  0.17727753 -0.10968488       0.005
  -0.03838171  0.15511784 -0.12535414       0.005
   0.00000000 -0.08863877 -0.06267707       0.005
   0.03838171 -0.11079846 -0.07834634       0.005
   0.07676342 -0.13295815 -0.09401561       0.005
   0.11514513 -0.15511784 -0.10968488       0.005
  -0.07676342 -0.04431938 -0.03133854       0.005
  -0.03838171 -0.06647907 -0.04700780       0.005
   0.00000000 -0.04431938 -0.07834634       0.005
   0.03838171 -0.06647907 -0.09401561       0.005
   0.07676342 -0.08863877 -0.10968488       0.005
   0.11514513 -0.11079846 -0.12535414       0.005
  -0.07676342  0.00000000 -0.04700780       0.005
  -0.03838171 -0.02215969 -0.06267707       0.005
   0.00000000 -0.00000000 -0.04700780       0.005
   0.03838171 -0.02215969 -0.06267707       0.005
   0.07676342 -0.04431938 -0.07834634       0.005
   0.11514513 -0.06647907 -0.09401561       0.005
  -0.07676342  0.04431938 -0.01566927       0.005
  -0.03838171  0.02215969 -0.03133854       0.005
   0.00000000  0.04431938 -0.06267707       0.005
   0.03838171  0.02215969 -0.07834634       0.005
   0.07676342  0.00000000 -0.09401561       0.005
   0.11514513 -0.02215969 -0.10968488       0.005
  -0.07676342  0.08863877 -0.03133854       0.005
  -0.03838171  0.06647907 -0.04700780       0.005
   0.00000000  0.08863877 -0.07834634       0.005
   0.03838171  0.06647907 -0.09401561       0.005
   0.07676342  0.04431938 -0.10968488       0.005
   0.11514513  0.02215969 -0.12535414       0.005
  -0.07676342  0.13295815 -0.04700780       0.005
  -0.03838171  0.11079846 -0.06267707       0.005
   0.00000000  0.13295815 -0.09401561       0.005
   0.03838171  0.11079846 -0.10968488       0.005
   0.07676342  0.08863877 -0.12535414       0.005
   0.11514513  0.06647907 -0.14102341       0.005
  -0.07676342  0.17727753 -0.06267707       0.005
  -0.03838171  0.15511784 -0.07834634       0.005
   0.00000000 -0.08863877 -0.01566927       0.005
   0.03838171 -0.11079846 -0.03133854       0.005
   0.07676342 -0.13295815 -0.04700780       0.005
   0.11514513 -0.15511784 -0.06267707       0.005
  -0.07676342 -0.04431938  0.01566927       0.005
  -0.03838171 -0.06647907  0.00000000       0.005
   0.00000000 -0.04431938 -0.03133854       0.005
   0.03838171 -0.06647907 -0.04700780       0.005
   0.07676342 -0.08863877 -0.06267707       0.005
   0.11514513 -0.11079846 -0.07834634       0.005
  -0.07676342  0.00000000  0.00000000       0.005
  -0.03838171 -0.02215969 -0.01566927       0.005
 
 k-points in reciprocal lattice and weights: k-points                                
   0.00000000  0.00000000  0.00000000       0.005
   0.16666667  0.00000000  0.00000000       0.005
   0.33333333  0.00000000  0.00000000       0.005
   0.50000000  0.00000000  0.00000000       0.005
  -0.33333333 -0.00000000  0.00000000       0.005
  -0.16666667 -0.00000000 -0.00000000       0.005
  -0.00000000  0.16666667 -0.00000000       0.005
   0.16666667  0.16666667  0.00000000       0.005
   0.33333333  0.16666667 -0.00000000       0.005
   0.50000000  0.16666667  0.00000000       0.005
  -0.33333333  0.16666667 -0.00000000       0.005
  -0.16666667  0.16666667 -0.00000000       0.005
   0.00000000  0.33333333 -0.00000000       0.005
   0.16666667  0.33333333  0.00000000       0.005
   0.33333333  0.33333333  0.00000000       0.005
   0.50000000  0.33333333  0.00000000       0.005
  -0.33333333  0.33333333 -0.00000000       0.005
  -0.16666667  0.33333333 -0.00000000       0.005
   0.00000000  0.50000000 -0.00000000       0.005
   0.16666667  0.50000000  0.00000000       0.005
   0.33333333  0.50000000  0.00000000       0.005
   0.50000000  0.50000000  0.00000000       0.005
  -0.33333333  0.50000000 -0.00000000       0.005
  -0.16666667  0.50000000 -0.00000000       0.005
  -0.00000000 -0.33333333  0.00000000       0.005
   0.16666667 -0.33333333  0.00000000       0.005
   0.33333333 -0.33333333  0.00000000       0.005
   0.50000000 -0.33333333  0.00000000       0.005
  -0.33333333 -0.33333333 -0.00000000       0.005
  -0.16666667 -0.33333333  0.00000000       0.005
   0.00000000 -0.16666667  0.00000000       0.005
   0.16666667 -0.16666667  0.00000000       0.005
   0.33333333 -0.16666667  0.00000000       0.005
   0.50000000 -0.16666667  0.00000000       0.005
  -0.33333333 -0.16666667  0.00000000       0.005
  -0.16666667 -0.16666667  0.00000000       0.005
   0.00000000  0.00000000  0.16666667       0.005
   0.16666667  0.00000000  0.16666667       0.005
   0.33333333 -0.00000000  0.16666667       0.005
   0.50000000 -0.00000000  0.16666667       0.005
  -0.33333333 -0.00000000  0.16666667       0.005
  -0.16666667  0.00000000  0.16666667       0.005
  -0.00000000  0.16666667  0.16666667       0.005
   0.16666667  0.16666667  0.16666667       0.005
   0.33333333  0.16666667  0.16666667       0.005
   0.50000000  0.16666667  0.16666667       0.005
  -0.33333333  0.16666667  0.16666667       0.005
  -0.16666667  0.16666667  0.16666667       0.005
  -0.00000000  0.33333333  0.16666667       0.005
   0.16666667  0.33333333  0.16666667       0.005
   0.33333333  0.33333333  0.16666667       0.005
   0.50000000  0.33333333  0.16666667       0.005
  -0.33333333  0.33333333  0.16666667       0.005
  -0.16666667  0.33333333  0.16666667       0.005
  -0.00000000  0.50000000  0.16666667       0.005
   0.16666667  0.50000000  0.16666667       0.005
   0.33333333  0.50000000  0.16666667       0.005
   0.50000000  0.50000000  0.16666667       0.005
  -0.33333333  0.50000000  0.16666667       0.005
  -0.16666667  0.50000000  0.16666667       0.005
  -0.00000000 -0.33333333  0.16666667       0.005
   0.16666667 -0.33333333  0.16666667       0.005
   0.33333333 -0.33333333  0.16666667       0.005
   0.50000000 -0.33333333  0.16666667       0.005
  -0.33333333 -0.33333333  0.16666667       0.005
  -0.16666667 -0.33333333  0.16666667       0.005
   0.00000000 -0.16666667  0.16666667       0.005
   0.16666667 -0.16666667  0.16666667       0.005
   0.33333333 -0.16666667  0.16666667       0.005
   0.50000000 -0.16666667  0.16666667       0.005
  -0.33333333 -0.16666667  0.16666667       0.005
  -0.16666667 -0.16666667  0.16666667       0.005
   0.00000000  0.00000000  0.33333333       0.005
   0.16666667  0.00000000  0.33333333       0.005
   0.33333333  0.00000000  0.33333333       0.005
   0.50000000 -0.00000000  0.33333333       0.005
  -0.33333333  0.00000000  0.33333333       0.005
  -0.16666667  0.00000000  0.33333333       0.005
  -0.00000000  0.16666667  0.33333333       0.005
   0.16666667  0.16666667  0.33333333       0.005
   0.33333333  0.16666667  0.33333333       0.005
   0.50000000  0.16666667  0.33333333       0.005
  -0.33333333  0.16666667  0.33333333       0.005
  -0.16666667  0.16666667  0.33333333       0.005
  -0.00000000  0.33333333  0.33333333       0.005
   0.16666667  0.33333333  0.33333333       0.005
   0.33333333  0.33333333  0.33333333       0.005
   0.50000000  0.33333333  0.33333333       0.005
  -0.33333333  0.33333333  0.33333333       0.005
  -0.16666667  0.33333333  0.33333333       0.005
   0.00000000  0.50000000  0.33333333       0.005
   0.16666667  0.50000000  0.33333333       0.005
   0.33333333  0.50000000  0.33333333       0.005
   0.50000000  0.50000000  0.33333333       0.005
  -0.33333333  0.50000000  0.33333333       0.005
  -0.16666667  0.50000000  0.33333333       0.005
   0.00000000 -0.33333333  0.33333333       0.005
   0.16666667 -0.33333333  0.33333333       0.005
   0.33333333 -0.33333333  0.33333333       0.005
   0.50000000 -0.33333333  0.33333333       0.005
  -0.33333333 -0.33333333  0.33333333       0.005
  -0.16666667 -0.33333333  0.33333333       0.005
   0.00000000 -0.16666667  0.33333333       0.005
   0.16666667 -0.16666667  0.33333333       0.005
   0.33333333 -0.16666667  0.33333333       0.005
   0.50000000 -0.16666667  0.33333333       0.005
  -0.33333333 -0.16666667  0.33333333       0.005
  -0.16666667 -0.16666667  0.33333333       0.005
   0.00000000  0.00000000  0.50000000       0.005
   0.16666667  0.00000000  0.50000000       0.005
   0.33333333  0.00000000  0.50000000       0.005
   0.50000000 -0.00000000  0.50000000       0.005
  -0.33333333  0.00000000  0.50000000       0.005
  -0.16666667  0.00000000  0.50000000       0.005
  -0.00000000  0.16666667  0.50000000       0.005
   0.16666667  0.16666667  0.50000000       0.005
   0.33333333  0.16666667  0.50000000       0.005
   0.50000000  0.16666667  0.50000000       0.005
  -0.33333333  0.16666667  0.50000000       0.005
  -0.16666667  0.16666667  0.50000000       0.005
   0.00000000  0.33333333  0.50000000       0.005
   0.16666667  0.33333333  0.50000000       0.005
   0.33333333  0.33333333  0.50000000       0.005
   0.50000000  0.33333333  0.50000000       0.005
  -0.33333333  0.33333333  0.50000000       0.005
  -0.16666667  0.33333333  0.50000000       0.005
  -0.00000000  0.50000000  0.50000000       0.005
   0.16666667  0.50000000  0.50000000       0.005
   0.33333333  0.50000000  0.50000000       0.005
   0.50000000  0.50000000  0.50000000       0.005
  -0.33333333  0.50000000  0.50000000       0.005
  -0.16666667  0.50000000  0.50000000       0.005
   0.00000000 -0.33333333  0.50000000       0.005
   0.16666667 -0.33333333  0.50000000       0.005
   0.33333333 -0.33333333  0.50000000       0.005
   0.50000000 -0.33333333  0.50000000       0.005
  -0.33333333 -0.33333333  0.50000000       0.005
  -0.16666667 -0.33333333  0.50000000       0.005
   0.00000000 -0.16666667  0.50000000       0.005
   0.16666667 -0.16666667  0.50000000       0.005
   0.33333333 -0.16666667  0.50000000       0.005
   0.50000000 -0.16666667  0.50000000       0.005
  -0.33333333 -0.16666667  0.50000000       0.005
  -0.16666667 -0.16666667  0.50000000       0.005
   0.00000000  0.00000000 -0.33333333       0.005
   0.16666667 -0.00000000 -0.33333333       0.005
   0.33333333 -0.00000000 -0.33333333       0.005
   0.50000000  0.00000000 -0.33333333       0.005
  -0.33333333 -0.00000000 -0.33333333       0.005
  -0.16666667 -0.00000000 -0.33333333       0.005
  -0.00000000  0.16666667 -0.33333333       0.005
   0.16666667  0.16666667 -0.33333333       0.005
   0.33333333  0.16666667 -0.33333333       0.005
   0.50000000  0.16666667 -0.33333333       0.005
  -0.33333333  0.16666667 -0.33333333       0.005
  -0.16666667  0.16666667 -0.33333333       0.005
   0.00000000  0.33333333 -0.33333333       0.005
   0.16666667  0.33333333 -0.33333333       0.005
   0.33333333  0.33333333 -0.33333333       0.005
   0.50000000  0.33333333 -0.33333333       0.005
  -0.33333333  0.33333333 -0.33333333       0.005
  -0.16666667  0.33333333 -0.33333333       0.005
  -0.00000000  0.50000000 -0.33333333       0.005
   0.16666667  0.50000000 -0.33333333       0.005
   0.33333333  0.50000000 -0.33333333       0.005
   0.50000000  0.50000000 -0.33333333       0.005
  -0.33333333  0.50000000 -0.33333333       0.005
  -0.16666667  0.50000000 -0.33333333       0.005
   0.00000000 -0.33333333 -0.33333333       0.005
   0.16666667 -0.33333333 -0.33333333       0.005
   0.33333333 -0.33333333 -0.33333333       0.005
   0.50000000 -0.33333333 -0.33333333       0.005
  -0.33333333 -0.33333333 -0.33333333       0.005
  -0.16666667 -0.33333333 -0.33333333       0.005
   0.00000000 -0.16666667 -0.33333333       0.005
   0.16666667 -0.16666667 -0.33333333       0.005
   0.33333333 -0.16666667 -0.33333333       0.005
   0.50000000 -0.16666667 -0.33333333       0.005
  -0.33333333 -0.16666667 -0.33333333       0.005
  -0.16666667 -0.16666667 -0.33333333       0.005
  -0.00000000 -0.00000000 -0.16666667       0.005
   0.16666667 -0.00000000 -0.16666667       0.005
   0.33333333  0.00000000 -0.16666667       0.005
   0.50000000  0.00000000 -0.16666667       0.005
  -0.33333333  0.00000000 -0.16666667       0.005
  -0.16666667 -0.00000000 -0.16666667       0.005
  -0.00000000  0.16666667 -0.16666667       0.005
   0.16666667  0.16666667 -0.16666667       0.005
   0.33333333  0.16666667 -0.16666667       0.005
   0.50000000  0.16666667 -0.16666667       0.005
  -0.33333333  0.16666667 -0.16666667       0.005
  -0.16666667  0.16666667 -0.16666667       0.005
   0.00000000  0.33333333 -0.16666667       0.005
   0.16666667  0.33333333 -0.16666667       0.005
   0.33333333  0.33333333 -0.16666667       0.005
   0.50000000  0.33333333 -0.16666667       0.005
  -0.33333333  0.33333333 -0.16666667       0.005
  -0.16666667  0.33333333 -0.16666667       0.005
  -0.00000000  0.50000000 -0.16666667       0.005
   0.16666667  0.50000000 -0.16666667       0.005
   0.33333333  0.50000000 -0.16666667       0.005
   0.50000000  0.50000000 -0.16666667       0.005
  -0.33333333  0.50000000 -0.16666667       0.005
  -0.16666667  0.50000000 -0.16666667       0.005
   0.00000000 -0.33333333 -0.16666667       0.005
   0.16666667 -0.33333333 -0.16666667       0.005
   0.33333333 -0.33333333 -0.16666667       0.005
   0.50000000 -0.33333333 -0.16666667       0.005
  -0.33333333 -0.33333333 -0.16666667       0.005
  -0.16666667 -0.33333333 -0.16666667       0.005
   0.00000000 -0.16666667 -0.16666667       0.005
   0.16666667 -0.16666667 -0.16666667       0.005
   0.33333333 -0.16666667 -0.16666667       0.005
   0.50000000 -0.16666667 -0.16666667       0.005
  -0.33333333 -0.16666667 -0.16666667       0.005
  -0.16666667 -0.16666667 -0.16666667       0.005
 
 position of ions in fractional coordinates (direct lattice) 
   0.00000000  0.00000000  0.00000000
 
 position of ions in cartesian coordinates  (Angst):
   0.00000000  0.00000000  0.00000000
 
 Euler angles ALPHA=     0.0000000  BETA=     0.0000000

 transformation matrix from SAXIS to cartesian coordinates
 ---------------------------------------------------------
     1.0000000 m_x     0.0000000 m_y     0.0000000 m_z
     0.0000000 m_x     1.0000000 m_y     0.0000000 m_z
     0.0000000 m_x     0.0000000 m_y     1.0000000 m_z

 transformation matrix from cartesian coordinates to SAXIS
 ---------------------------------------------------------
     1.0000000 m_x     0.0000000 m_y     0.0000000 m_z
     0.0000000 m_x     1.0000000 m_y     0.0000000 m_z
     0.0000000 m_x     0.0000000 m_y     1.0000000 m_z




--------------------------------------------------------------------------------------------------------


 k-point  1 :   0.0000 0.0000 0.0000  plane waves:    1402
 k-point  2 :   0.1667 0.0000 0.0000  plane waves:    1346
 k-point  3 :   0.3333 0.0000 0.0000  plane waves:    1370
 k-point  4 :   0.5000 0.0000 0.0000  plane waves:    1400
 k-point  5 :  -0.3333-0.0000 0.0000  plane waves:    1370
 k-point  6 :  -0.1667-0.0000-0.0000  plane waves:    1346
 k-point  7 :  -0.0000 0.1667-0.0000  plane waves:    1346
 k-point  8 :   0.1667 0.1667 0.0000  plane waves:    1362
 k-point  9 :   0.3333 0.1667-0.0000  plane waves:    1360
 k-point 10 :   0.5000 0.1667 0.0000  plane waves:    1356
 k-point 11 :  -0.3333 0.1667-0.0000  plane waves:    1368
 k-point 12 :  -0.1667 0.1667-0.0000  plane waves:    1348
 k-point 13 :   0.0000 0.3333-0.0000  plane waves:    1370
 k-point 14 :   0.1667 0.3333 0.0000  plane waves:    1360
 k-point 15 :   0.3333 0.3333 0.0000  plane waves:    1386
 k-point 16 :   0.5000 0.3333 0.0000  plane waves:    1372
 k-point 17 :  -0.3333 0.3333-0.0000  plane waves:    1360
 k-point 18 :  -0.1667 0.3333-0.0000  plane waves:    1368
 k-point 19 :   0.0000 0.5000-0.0000  plane waves:    1400
 k-point 20 :   0.1667 0.5000 0.0000  plane waves:    1356
 k-point 21 :   0.3333 0.5000 0.0000  plane waves:    1372
 k-point 22 :   0.5000 0.5000 0.0000  plane waves:    1384
 k-point 23 :  -0.3333 0.5000-0.0000  plane waves:    1372
 k-point 24 :  -0.1667 0.5000-0.0000  plane waves:    1356
 k-point 25 :  -0.0000-0.3333 0.0000  plane waves:    1370
 k-point 26 :   0.1667-0.3333 0.0000  plane waves:    1368
 k-point 27 :   0.3333-0.3333 0.0000  plane waves:    1360
 k-point 28 :   0.5000-0.3333 0.0000  plane waves:    1372
 k-point 29 :  -0.3333-0.3333-0.0000  plane waves:    1386
 k-point 30 :  -0.1667-0.3333 0.0000  plane waves:    1360
 k-point 31 :   0.0000-0.1667 0.0000  plane waves:    1346
 k-point 32 :   0.1667-0.1667 0.0000  plane waves:    1348
 k-point 33 :   0.3333-0.1667 0.0000  plane waves:    1368
 k-point 34 :   0.5000-0.1667 0.0000  plane waves:    1356
 k-point 35 :  -0.3333-0.1667 0.0000  plane waves:    1360
 k-point 36 :  -0.1667-0.1667 0.0000  plane waves:    1362
 k-point 37 :   0.0000 0.0000 0.1667  plane waves:    1346
 k-point 38 :   0.1667 0.0000 0.1667  plane waves:    1362
 k-point 39 :   0.3333-0.0000 0.1667  plane waves:    1360
 k-point 40 :   0.5000-0.0000 0.1667  plane waves:    1356
 k-point 41 :  -0.3333-0.0000 0.1667  plane waves:    1368
 k-point 42 :  -0.1667 0.0000 0.1667  plane waves:    1348
 k-point 43 :  -0.0000 0.1667 0.1667  plane waves:    1362
 k-point 44 :   0.1667 0.1667 0.1667  plane waves:    1346
 k-point 45 :   0.3333 0.1667 0.1667  plane waves:    1348
 k-point 46 :   0.5000 0.1667 0.1667  plane waves:    1368
 k-point 47 :  -0.3333 0.1667 0.1667  plane waves:    1356
 k-point 48 :  -0.1667 0.1667 0.1667  plane waves:    1360
 k-point 49 :  -0.0000 0.3333 0.1667  plane waves:    1360
 k-point 50 :   0.1667 0.3333 0.1667  plane waves:    1348
 k-point 51 :   0.3333 0.3333 0.1667  plane waves:    1360
 k-point 52 :   0.5000 0.3333 0.1667  plane waves:    1352
 k-point 53 :  -0.3333 0.3333 0.1667  plane waves:    1384
 k-point 54 :  -0.1667 0.3333 0.1667  plane waves:    1352
 k-point 55 :  -0.0000 0.5000 0.1667  plane waves:    1356
 k-point 56 :   0.1667 0.5000 0.1667  plane waves:    1368
 k-point 57 :   0.3333 0.5000 0.1667  plane waves:    1352
 k-point 58 :   0.5000 0.5000 0.1667  plane waves:    1372
 k-point 59 :  -0.3333 0.5000 0.1667  plane waves:    1380
 k-point 60 :  -0.1667 0.5000 0.1667  plane waves:    1384
 k-point 61 :  -0.0000-0.3333 0.1667  plane waves:    1368
 k-point 62 :   0.1667-0.3333 0.1667  plane waves:    1356
 k-point 63 :   0.3333-0.3333 0.1667  plane waves:    1384
 k-point 64 :   0.5000-0.3333 0.1667  plane waves:    1380
 k-point 65 :  -0.3333-0.3333 0.1667  plane waves:    1372
 k-point 66 :  -0.1667-0.3333 0.1667  plane waves:    1352
 k-point 67 :   0.0000-0.1667 0.1667  plane waves:    1348
 k-point 68 :   0.1667-0.1667 0.1667  plane waves:    1360
 k-point 69 :   0.3333-0.1667 0.1667  plane waves:    1352
 k-point 70 :   0.5000-0.1667 0.1667  plane waves:    1384
 k-point 71 :  -0.3333-0.1667 0.1667  plane waves:    1352
 k-point 72 :  -0.1667-0.1667 0.1667  plane waves:    1360
 k-point 73 :   0.0000 0.0000 0.3333  plane waves:    1370
 k-point 74 :   0.1667 0.0000 0.3333  plane waves:    1360
 k-point 75 :   0.3333 0.0000 0.3333  plane waves:    1386
 k-point 76 :   0.5000-0.0000 0.3333  plane waves:    1372
 k-point 77 :  -0.3333 0.0000 0.3333  plane waves:    1360
 k-point 78 :  -0.1667 0.0000 0.3333  plane waves:    1368
 k-point 79 :  -0.0000 0.1667 0.3333  plane waves:    1360
 k-point 80 :   0.1667 0.1667 0.3333  plane waves:    1348
 k-point 81 :   0.3333 0.1667 0.3333  plane waves:    1360
 k-point 82 :   0.5000 0.1667 0.3333  plane waves:    1352
 k-point 83 :  -0.3333 0.1667 0.3333  plane waves:    1384
 k-point 84 :  -0.1667 0.1667 0.3333  plane waves:    1352
 k-point 85 :  -0.0000 0.3333 0.3333  plane waves:    1386
 k-point 86 :   0.1667 0.3333 0.3333  plane waves:    1360
 k-point 87 :   0.3333 0.3333 0.3333  plane waves:    1370
 k-point 88 :   0.5000 0.3333 0.3333  plane waves:    1368
 k-point 89 :  -0.3333 0.3333 0.3333  plane waves:    1360
 k-point 90 :  -0.1667 0.3333 0.3333  plane waves:    1372
 k-point 91 :   0.0000 0.5000 0.3333  plane waves:    1372
 k-point 92 :   0.1667 0.5000 0.3333  plane waves:    1352
 k-point 93 :   0.3333 0.5000 0.3333  plane waves:    1368
 k-point 94 :   0.5000 0.5000 0.3333  plane waves:    1356
 k-point 95 :  -0.3333 0.5000 0.3333  plane waves:    1384
 k-point 96 :  -0.1667 0.5000 0.3333  plane waves:    1380
 k-point 97 :   0.0000-0.3333 0.3333  plane waves:    1360
 k-point 98 :   0.1667-0.3333 0.3333  plane waves:    1384
 k-point 99 :   0.3333-0.3333 0.3333  plane waves:    1360
 k-point ** :   0.5000-0.3333 0.3333  plane waves:    1384
 k-point ** :  -0.3333-0.3333 0.3333  plane waves:    1360
 k-point ** :  -0.1667-0.3333 0.3333  plane waves:    1384
 k-point ** :   0.0000-0.1667 0.3333  plane waves:    1368
 k-point ** :   0.1667-0.1667 0.3333  plane waves:    1352
 k-point ** :   0.3333-0.1667 0.3333  plane waves:    1372
 k-point ** :   0.5000-0.1667 0.3333  plane waves:    1380
 k-point ** :  -0.3333-0.1667 0.3333  plane waves:    1384
 k-point ** :  -0.1667-0.1667 0.3333  plane waves:    1356
 k-point ** :   0.0000 0.0000 0.5000  plane waves:    1400
 k-point ** :   0.1667 0.0000 0.5000  plane waves:    1356
 k-point ** :   0.3333 0.0000 0.5000  plane waves:    1372
 k-point ** :   0.5000-0.0000 0.5000  plane waves:    1384
 k-point ** :  -0.3333 0.0000 0.5000  plane waves:    1372
 k-point ** :  -0.1667 0.0000 0.5000  plane waves:    1356
 k-point ** :  -0.0000 0.1667 0.5000  plane waves:    1356
 k-point ** :   0.1667 0.1667 0.5000  plane waves:    1368
 k-point ** :   0.3333 0.1667 0.5000  plane waves:    1352
 k-point ** :   0.5000 0.1667 0.5000  plane waves:    1372
 k-point ** :  -0.3333 0.1667 0.5000  plane waves:    1380
 k-point ** :  -0.1667 0.1667 0.5000  plane waves:    1384
 k-point ** :   0.0000 0.3333 0.5000  plane waves:    1372
 k-point ** :   0.1667 0.3333 0.5000  plane waves:    1352
 k-point ** :   0.3333 0.3333 0.5000  plane waves:    1368
 k-point ** :   0.5000 0.3333 0.5000  plane waves:    1356
 k-point ** :  -0.3333 0.3333 0.5000  plane waves:    1384
 k-point ** :  -0.1667 0.3333 0.5000  plane waves:    1380
 k-point ** :  -0.0000 0.5000 0.5000  plane waves:    1384
 k-point ** :   0.1667 0.5000 0.5000  plane waves:    1372
 k-point ** :   0.3333 0.5000 0.5000  plane waves:    1356
 k-point ** :   0.5000 0.5000 0.5000  plane waves:    1400
 k-point ** :  -0.3333 0.5000 0.5000  plane waves:    1356
 k-point ** :  -0.1667 0.5000 0.5000  plane waves:    1372
 k-point ** :   0.0000-0.3333 0.5000  plane waves:    1372
 k-point ** :   0.1667-0.3333 0.5000  plane waves:    1380
 k-point ** :   0.3333-0.3333 0.5000  plane waves:    1384
 k-point ** :   0.5000-0.3333 0.5000  plane waves:    1356
 k-point ** :  -0.3333-0.3333 0.5000  plane waves:    1368
 k-point ** :  -0.1667-0.3333 0.5000  plane waves:    1352
 k-point ** :   0.0000-0.1667 0.5000  plane waves:    1356
 k-point ** :   0.1667-0.1667 0.5000  plane waves:    1384
 k-point ** :   0.3333-0.1667 0.5000  plane waves:    1380
 k-point ** :   0.5000-0.1667 0.5000  plane waves:    1372
 k-point ** :  -0.3333-0.1667 0.5000  plane waves:    1352
 k-point ** :  -0.1667-0.1667 0.5000  plane waves:    1368
 k-point ** :   0.0000 0.0000-0.3333  plane waves:    1370
 k-point ** :   0.1667-0.0000-0.3333  plane waves:    1368
 k-point ** :   0.3333-0.0000-0.3333  plane waves:    1360
 k-point ** :   0.5000 0.0000-0.3333  plane waves:    1372
 k-point ** :  -0.3333-0.0000-0.3333  plane waves:    1386
 k-point ** :  -0.1667-0.0000-0.3333  plane waves:    1360
 k-point ** :  -0.0000 0.1667-0.3333  plane waves:    1368
 k-point ** :   0.1667 0.1667-0.3333  plane waves:    1356
 k-point ** :   0.3333 0.1667-0.3333  plane waves:    1384
 k-point ** :   0.5000 0.1667-0.3333  plane waves:    1380
 k-point ** :  -0.3333 0.1667-0.3333  plane waves:    1372
 k-point ** :  -0.1667 0.1667-0.3333  plane waves:    1352
 k-point ** :   0.0000 0.3333-0.3333  plane waves:    1360
 k-point ** :   0.1667 0.3333-0.3333  plane waves:    1384
 k-point ** :   0.3333 0.3333-0.3333  plane waves:    1360
 k-point ** :   0.5000 0.3333-0.3333  plane waves:    1384
 k-point ** :  -0.3333 0.3333-0.3333  plane waves:    1360
 k-point ** :  -0.1667 0.3333-0.3333  plane waves:    1384
 k-point ** :  -0.0000 0.5000-0.3333  plane waves:    1372
 k-point ** :   0.1667 0.5000-0.3333  plane waves:    1380
 k-point ** :   0.3333 0.5000-0.3333  plane waves:    1384
 k-point ** :   0.5000 0.5000-0.3333  plane waves:    1356
 k-point ** :  -0.3333 0.5000-0.3333  plane waves:    1368
 k-point ** :  -0.1667 0.5000-0.3333  plane waves:    1352
 k-point ** :   0.0000-0.3333-0.3333  plane waves:    1386
 k-point ** :   0.1667-0.3333-0.3333  plane waves:    1372
 k-point ** :   0.3333-0.3333-0.3333  plane waves:    1360
 k-point ** :   0.5000-0.3333-0.3333  plane waves:    1368
 k-point ** :  -0.3333-0.3333-0.3333  plane waves:    1370
 k-point ** :  -0.1667-0.3333-0.3333  plane waves:    1360
 k-point ** :   0.0000-0.1667-0.3333  plane waves:    1360
 k-point ** :   0.1667-0.1667-0.3333  plane waves:    1352
 k-point ** :   0.3333-0.1667-0.3333  plane waves:    1384
 k-point ** :   0.5000-0.1667-0.3333  plane waves:    1352
 k-point ** :  -0.3333-0.1667-0.3333  plane waves:    1360
 k-point ** :  -0.1667-0.1667-0.3333  plane waves:    1348
 k-point ** :  -0.0000-0.0000-0.1667  plane waves:    1346
 k-point ** :   0.1667-0.0000-0.1667  plane waves:    1348
 k-point ** :   0.3333 0.0000-0.1667  plane waves:    1368
 k-point ** :   0.5000 0.0000-0.1667  plane waves:    1356
 k-point ** :  -0.3333 0.0000-0.1667  plane waves:    1360
 k-point ** :  -0.1667-0.0000-0.1667  plane waves:    1362
 k-point ** :  -0.0000 0.1667-0.1667  plane waves:    1348
 k-point ** :   0.1667 0.1667-0.1667  plane waves:    1360
 k-point ** :   0.3333 0.1667-0.1667  plane waves:    1352
 k-point ** :   0.5000 0.1667-0.1667  plane waves:    1384
 k-point ** :  -0.3333 0.1667-0.1667  plane waves:    1352
 k-point ** :  -0.1667 0.1667-0.1667  plane waves:    1360
 k-point ** :   0.0000 0.3333-0.1667  plane waves:    1368
 k-point ** :   0.1667 0.3333-0.1667  plane waves:    1352
 k-point ** :   0.3333 0.3333-0.1667  plane waves:    1372
 k-point ** :   0.5000 0.3333-0.1667  plane waves:    1380
 k-point ** :  -0.3333 0.3333-0.1667  plane waves:    1384
 k-point ** :  -0.1667 0.3333-0.1667  plane waves:    1356
 k-point ** :  -0.0000 0.5000-0.1667  plane waves:    1356
 k-point ** :   0.1667 0.5000-0.1667  plane waves:    1384
 k-point ** :   0.3333 0.5000-0.1667  plane waves:    1380
 k-point ** :   0.5000 0.5000-0.1667  plane waves:    1372
 k-point ** :  -0.3333 0.5000-0.1667  plane waves:    1352
 k-point ** :  -0.1667 0.5000-0.1667  plane waves:    1368
 k-point ** :   0.0000-0.3333-0.1667  plane waves:    1360
 k-point ** :   0.1667-0.3333-0.1667  plane waves:    1352
 k-point ** :   0.3333-0.3333-0.1667  plane waves:    1384
 k-point ** :   0.5000-0.3333-0.1667  plane waves:    1352
 k-point ** :  -0.3333-0.3333-0.1667  plane waves:    1360
 k-point ** :  -0.1667-0.3333-0.1667  plane waves:    1348
 k-point ** :   0.0000-0.1667-0.1667  plane waves:    1362
 k-point ** :   0.1667-0.1667-0.1667  plane waves:    1360
 k-point ** :   0.3333-0.1667-0.1667  plane waves:    1356
 k-point ** :   0.5000-0.1667-0.1667  plane waves:    1368
 k-point ** :  -0.3333-0.1667-0.1667  plane waves:    1348
 k-point ** :  -0.1667-0.1667-0.1667  plane waves:    1346

 maximum and minimum number of plane-waves per node :       374      314

 maximum number of plane-waves:      1402
 maximum index in each direction: 
   IXMAX=    6   IYMAX=    6   IZMAX=    6
   IXMIN=   -6   IYMIN=   -6   IZMIN=   -6


 parallel 3D FFT for wavefunctions:
    minimum data exchange during FFTs selected (reduces bandwidth)
 parallel 3D FFT for charge:
    minimum data exchange during FFTs selected (reduces bandwidth)


 total amount of memory used by VASP MPI-rank0    97698. kBytes
=======================================================================

   base      :      30000. kBytes
   nonl-proj :       5632. kBytes
   fftplans  :      12955. kBytes
   grid      :      10536. kBytes
   one-center:         62. kBytes
   wavefun   :      38513. kBytes
 
     INWAV:  cpu time    0.0000: real time    0.0000
 Broyden mixing: mesh for mixing (old mesh)
   NGX = 13   NGY = 13   NGZ = 13
  (NGX  = 56   NGY  = 56   NGZ  = 56)
  gives a total of   2197 points

 initial charge density was supplied:
 charge density of overlapping atoms calculated
 number of electron      18.0000000 magnetization       1.0000000      1.0000000      1.0000000
 keeping initial charge density in first step


--------------------------------------------------------------------------------------------------------


 Maximum index for augmentation-charges        44167 (set IRDMAX)


--------------------------------------------------------------------------------------------------------


 First call to EWALD:  gamma=   0.458
 Maximum number of real-space cells 3x 3x 3
 Maximum number of reciprocal cells 3x 3x 3

    FEWALD:  cpu time    0.0026: real time    0.0026


--------------------------------------- Iteration      1(   1)  ---------------------------------------


    POTLOK:  cpu time    0.0955: real time    0.0963
    SETDIJ:  cpu time    0.3898: real time    0.3900
     EDDAV:  cpu time    1.3979: real time    1.4082
       DOS:  cpu time    0.0011: real time    0.0011
    --------------------------------------------
      LOOP:  cpu time    1.8843: real time    1.8956

 eigenvalue-minimisations  : 18492
 total energy-change (2. order) : 0.1517629E+03  (-0.8251846E+03)
 number of electron      18.0000000 magnetization       1.0000000      1.0000000      1.0000000
 augmentation part       18.0000000 magnetization       1.0000000      1.0000000      1.0000000

 Free energy of the ion-electron system (eV)
  ---------------------------------------------------
  alpha Z        PSCENC =        65.89697999
  Ewald energy   TEWEN  =     -1741.63824267
  -Hartree energ DENC   =      -659.90666889
  -exchange      EXHF   =         0.00000000
  -V(xc)+E(xc)   XCENC  =       -69.15713524
  PAW double counting   =      2268.28454800    -2184.08492831
  entropy T*S    EENTRO =        -0.00000000
  eigenvalues    EBANDS =      -167.53658521
  atomic energy  EATOM  =      2639.90492407
  Solvation  Ediel_sol  =         0.00000000
  ---------------------------------------------------
  free energy    TOTEN  =       151.76289174 eV

  energy without entropy =      151.76289174  energy(sigma->0) =      151.76289174


--------------------------------------------------------------------------------------------------------




--------------------------------------- Iteration      1(   2)  ---------------------------------------


     EDDAV:  cpu time    1.1976: real time    1.1979
       DOS:  cpu time    0.0008: real time    0.0008
    --------------------------------------------
      LOOP:  cpu time    1.1983: real time    1.1986

 eigenvalue-minimisations  : 15644
 total energy-change (2. order) :-0.1602743E+03  (-0.1571705E+03)
 number of electron      18.0000000 magnetization       1.0000000      1.0000000      1.0000000
 augmentation part       18.0000000 magnetization       1.0000000      1.0000000      1.0000000

 Free energy of the ion-electron system (eV)
  ---------------------------------------------------
  alpha Z        PSCENC =        65.89697999
  Ewald energy   TEWEN  =     -1741.63824267
  -Hartree energ DENC   =      -659.90666889
  -exchange      EXHF   =         0.00000000
  -V(xc)+E(xc)   XCENC  =       -69.15713524
  PAW double counting   =      2268.28454800    -2184.08492831
  entropy T*S    EENTRO =         0.00000000
  eigenvalues    EBANDS =      -327.81088814
  atomic energy  EATOM  =      2639.90492407
  Solvation  Ediel_sol  =         0.00000000
  ---------------------------------------------------
  free energy    TOTEN  =        -8.51141119 eV

  energy without entropy =       -8.51141119  energy(sigma->0) =       -8.51141119


--------------------------------------------------------------------------------------------------------




--------------------------------------- Iteration      1(   3)  ---------------------------------------


     EDDAV:  cpu time    1.1458: real time    1.1471
       DOS:  cpu time    0.0010: real time    0.0010
    --------------------------------------------
      LOOP:  cpu time    1.1468: real time    1.1481

 eigenvalue-minimisations  : 14748
 total energy-change (2. order) :-0.4555607E+01  (-0.4538166E+01)
 number of electron      18.0000000 magnetization       1.0000000      1.0000000      1.0000000
 augmentation part       18.0000000 magnetization       1.0000000      1.0000000      1.0000000

 Free energy of the ion-electron system (eV)
  ---------------------------------------------------
  alpha Z        PSCENC =        65.89697999
  Ewald energy   TEWEN  =     -1741.63824267
  -Hartree energ DENC   =      -659.90666889
  -exchange      EXHF   =         0.00000000
  -V(xc)+E(xc)   XCENC  =       -69.15713524
  PAW double counting   =      2268.28454800    -2184.08492831
  entropy T*S    EENTRO =         0.00000000
  eigenvalues    EBANDS =      -332.36649546
  atomic energy  EATOM  =      2639.90492407
  Solvation  Ediel_sol  =         0.00000000
  ---------------------------------------------------
  free energy    TOTEN  =       -13.06701851 eV

  energy without entropy =      -13.06701851  energy(sigma->0) =      -13.06701851


--------------------------------------------------------------------------------------------------------




--------------------------------------- Iteration      1(   4)  ---------------------------------------


     EDDAV:  cpu time    1.3999: real time    1.4004
       DOS:  cpu time    0.0012: real time    0.0012
    --------------------------------------------
      LOOP:  cpu time    1.4010: real time    1.4015

 eigenvalue-minimisations  : 18536
 total energy-change (2. order) :-0.1614756E+00  (-0.1613940E+00)
 number of electron      18.0000000 magnetization       1.0000000      1.0000000      1.0000000
 augmentation part       18.0000000 magnetization       1.0000000      1.0000000      1.0000000

 Free energy of the ion-electron system (eV)
  ---------------------------------------------------
  alpha Z        PSCENC =        65.89697999
  Ewald energy   TEWEN  =     -1741.63824267
  -Hartree energ DENC   =      -659.90666889
  -exchange      EXHF   =         0.00000000
  -V(xc)+E(xc)   XCENC  =       -69.15713524
  PAW double counting   =      2268.28454800    -2184.08492831
  entropy T*S    EENTRO =         0.00000000
  eigenvalues    EBANDS =      -332.52797104
  atomic energy  EATOM  =      2639.90492407
  Solvation  Ediel_sol  =         0.00000000
  ---------------------------------------------------
  free energy    TOTEN  =       -13.22849409 eV

  energy without entropy =      -13.22849409  energy(sigma->0) =      -13.22849409


--------------------------------------------------------------------------------------------------------




--------------------------------------- Iteration      1(   5)  ---------------------------------------


     EDDAV:  cpu time    1.2015: real time    1.2020
       DOS:  cpu time    0.0009: real time    0.0009
    CHARGE:  cpu time    0.1575: real time    0.1576
    MIXING:  cpu time    0.2337: real time    0.2337
    --------------------------------------------
      LOOP:  cpu time    1.5936: real time    1.5943

[...]
    0.000000  181.608954  181.607675  181.602826   14.001075  -48.328704   19.417885
    0.547591    4.199759    4.198438    4.197983   -0.632786    2.186008   -0.876309
    1.095182    1.703150    1.700523    1.699735   -0.075060    0.257898   -0.102528
    1.642773    9.193690    9.102851    9.075506   -0.073657    0.047717   -0.056238
    2.190364    1.582048    1.583735    1.584246   -0.009837    0.039365   -0.014415
    2.737956    9.960610    9.960808    9.960874   -0.004978    0.017946   -0.006972
    3.285547    4.172679    4.172879    4.172939   -0.002958    0.010675   -0.004186
    3.833138    6.526300    6.525384    6.524177   -0.002898    0.008991   -0.003422
    4.380729    9.221902    9.279766    9.302052    0.045317   -0.025698    0.031106
    4.928320    2.562289    2.560843    2.560291   -0.003138    0.007407   -0.003546
    5.475911    7.575173    7.575045    7.574998   -0.001991    0.006428   -0.002684
    6.023502    5.440549    5.440411    5.440395   -0.002858    0.009107   -0.003907
    6.571093    5.014090    5.014067    5.014063   -0.006622    0.020867   -0.009248
    7.118684    3.260630    3.260572    3.260573    0.022468   -0.067392    0.031597
    7.666275    2.252056    2.249841    2.249645   -0.003820    0.007702   -0.004670
    8.213867    3.062917    3.061047    3.060036   -0.007250    0.019601   -0.008641
    8.761458    1.888458    1.888436    1.888415   -0.000004   -0.000278    0.000024
    9.309049    0.660117    0.660182    0.659986   -0.000459    0.000788   -0.000500
    9.856640    0.955373    0.955422    0.955427   -0.000101    0.000342   -0.000135
   10.404231    0.934313    0.933448    0.933137   -0.000936    0.001259   -0.000911
   10.951822    0.457951    0.457965    0.457972    0.000037   -0.000082    0.000019
   11.499413    0.155703    0.155702    0.155703   -0.000010    0.000016   -0.000017
   12.047004    0.291759    0.291751    0.291771   -0.000051    0.000136   -0.000027
   12.594595    0.186108    0.186098    0.186104    0.000021   -0.000129    0.000001
   13.142186    0.165581    0.165578    0.165580    0.000028   -0.000090    0.000027
   13.689778    0.186254    0.186255    0.186254    0.000028   -0.000093    0.000027
   14.237369    0.554456    0.554495    0.554476    0.000040   -0.000093    0.000036
   14.784960    0.311150    0.311154    0.311152    0.000029   -0.000127    0.000053
   15.332551    0.169164    0.169165    0.169165    0.000042   -0.000160    0.000064
   15.880142    0.247388    0.247388    0.247388    0.000046   -0.000175    0.000069
   16.427733    0.461119    0.461120    0.461120   -0.000012    0.000027   -0.000009
   16.975324    0.242722    0.242725    0.242724    0.000026   -0.000102    0.000044
   17.522915    0.363181    0.363239    0.363243    0.000031   -0.000061    0.000039
   18.070506    0.456834    0.456392    0.456242   -0.000147   -0.000433    0.000029
   18.618097    0.564401    0.564526    0.564542    0.000046    0.000001    0.000045
   19.165689    0.227476    0.227480    0.227464    0.000019   -0.000148    0.000055
   19.713280    0.066631    0.066626    0.066627    0.000018   -0.000127    0.000049
   20.260871    0.284542    0.284527    0.284551   -0.000012   -0.000123    0.000098
   20.808462    0.066347    0.066347    0.066349    0.000053   -0.000123    0.000040
   21.356053    0.088540    0.088548    0.088552    0.000189   -0.000579    0.000241
   21.903644    0.008156    0.008159    0.008158    0.000074   -0.000238    0.000101
   22.451235    0.004741    0.004819    0.004782    0.000100   -0.000293    0.000138
   22.998826    0.003682    0.003685    0.003684    0.000157   -0.000526    0.000198
   23.546417    0.003683    0.003684    0.003684    0.000294   -0.001001    0.000393
   24.094009    0.021415    0.021415    0.021415    0.000762   -0.002619    0.001044
   24.641600    0.004170    0.004169    0.004169   -0.000374    0.001301   -0.000528
   25.189191    0.005435    0.005430    0.005431   -0.000193    0.000675   -0.000276
   25.736782    0.060478    0.060655    0.060620   -0.000102    0.000434   -0.000176
   26.284373    0.052871    0.052877    0.052880   -0.000124    0.000453   -0.000182
   26.831964    0.088614    0.088542    0.088440   -0.000137    0.000153   -0.000120
   27.379555    0.064706    0.064705    0.064703   -0.000223    0.000767   -0.000315
   27.927146    0.022298    0.022298    0.022297    0.000250   -0.000843    0.000340
   28.474737    0.031181    0.031181    0.031181    0.000054   -0.000174    0.000068
   29.022328    0.090320    0.090320    0.090319    0.000020   -0.000060    0.000021
   29.569920    0.063433    0.063438    0.063441    0.000012   -0.000021    0.000006
   30.117511    0.039497    0.039497    0.039497    0.000005   -0.000006   -0.000000
   30.665102    0.157617    0.157616    0.157616    0.000004   -0.000003   -0.000001
   31.212693    0.063026    0.063015    0.063015    0.000000   -0.000014   -0.000003
   31.760284    0.078620    0.078623    0.078624    0.000001    0.000018   -0.000009
   32.307875    0.050829    0.050830    0.050833    0.000009   -0.000010    0.000002
   32.855466    0.163049    0.163046    0.163046    0.000015   -0.000032    0.000011
   33.403057    0.078673    0.078672    0.078672    0.000004    0.000001   -0.000004
   33.950648    0.088055    0.088043    0.088041    0.000001    0.000002   -0.000007
   34.498239    0.084846    0.084850    0.084853   -0.000028    0.000132   -0.000060
   35.045831    0.118327    0.118345    0.118470   -0.000014    0.000040    0.000025
   35.593422    0.074287    0.074278    0.074275    0.000007   -0.000059    0.000021
   36.141013    0.037190    0.037241    0.037247    0.000065   -0.000142    0.000058
   36.688604    0.158005    0.157983    0.157987   -0.000013   -0.000002   -0.000020
   37.236195    0.075880    0.075865    0.075849    0.000024   -0.000087    0.000014
   37.783786    0.112379    0.112450    0.112478    0.000083   -0.000142    0.000041
   38.331377    0.014306    0.014309    0.014311    0.000018    0.000015   -0.000059
   38.878968    0.031927    0.031900    0.031832    0.000204    0.000147    0.000017
   39.426559    0.021692    0.021700    0.021698   -0.000048    0.000002    0.000057
   39.974150    0.013010    0.013012    0.013012   -0.000023    0.000004    0.000027
   40.521742    0.008349    0.008350    0.008349   -0.000023    0.000027    0.000009
   41.069333    0.025751    0.025751    0.025751   -0.000017    0.000015    0.000009
   41.616924    0.018416    0.018418    0.018419   -0.000005   -0.000010    0.000021
   42.164515    0.035725    0.035725    0.035725   -0.000011    0.000007    0.000009
   42.712106    0.018010    0.018009    0.018011   -0.000014    0.000015    0.000008
   43.259697    0.067830    0.067838    0.067837   -0.000005    0.000003    0.000011
   43.807288    0.029484    0.029481    0.029481   -0.000022    0.000001    0.000015
   44.354879    0.042488    0.042489    0.042488   -0.000020    0.000003    0.000020
   44.902470    0.003994    0.003994    0.003994   -0.000029   -0.000004    0.000035
   45.450062    0.010326    0.010364    0.010369   -0.000048   -0.000103    0.000080
   45.997653    0.001276    0.001272    0.001274    0.000025    0.000015   -0.000044
   46.545244    0.000587    0.000586    0.000586    0.000009    0.000012   -0.000021
   47.092835    0.000393    0.000393    0.000393    0.000004    0.000010   -0.000014
   47.640426    0.000295    0.000295    0.000295    0.000002    0.000009   -0.000010
   48.188017    0.000235    0.000234    0.000235    0.000001    0.000008   -0.000008
   48.735608    0.000193    0.000193    0.000193    0.000000    0.000008   -0.000007
   49.283199    0.000162    0.000162    0.000162   -0.000000    0.000007   -0.000006
   49.830790    0.000139    0.000139    0.000139   -0.000000    0.000007   -0.000005
   50.378381    0.000121    0.000121    0.000121   -0.000001    0.000006   -0.000005
   50.925973    0.000106    0.000106    0.000106   -0.000001    0.000006   -0.000004
   51.473564    0.000094    0.000094    0.000094   -0.000001    0.000006   -0.000004
   52.021155    0.000084    0.000084    0.000084   -0.000001    0.000006   -0.000004
   52.568746    0.000075    0.000075    0.000075   -0.000001    0.000005   -0.000003
   53.116337    0.000068    0.000068    0.000068   -0.000001    0.000005   -0.000003
   53.663928    0.000061    0.000061    0.000061   -0.000001    0.000005   -0.000003
   54.211519    0.000056    0.000056    0.000056   -0.000001    0.000005   -0.000003

  frequency dependent      REAL DIELECTRIC FUNCTION (independent particle, no local field effects) current-current (2nd set in vasprun.xml)
     E(ev)        X           Y           Z          XY          YZ          ZX
  --------------------------------------------------------------------------------------------------------------
    0.000000   28.485963   28.484170   28.482924   -3.099185   10.694163   -4.295080
    0.547591   -8.421310   -8.424931   -8.425497    0.144415   -0.504999    0.201549
    1.095182    4.892688    4.886454    4.884700    0.073154   -0.266882    0.104434
    1.642773    9.887715    9.911081    9.918185    0.103037   -0.354026    0.129306
    2.190364    5.209763    5.207105    5.206359    0.017543   -0.065210    0.025657
    2.737956    1.860859    1.861250    1.861420    0.013056   -0.043998    0.017863
    3.285547    6.332942    6.334017    6.334394    0.010086   -0.032200    0.013384
    3.833138    7.530032    7.533566    7.535141    0.009161   -0.023494    0.010735
    4.380729    7.770441    7.756252    7.750752   -0.003656   -0.017838    0.002688
    4.928320    1.160077    1.163264    1.164487    0.006590   -0.015537    0.007378
    5.475911    1.057438    1.058034    1.058270    0.003819   -0.011749    0.004956
    6.023502    3.109863    3.110084    3.110175    0.003459   -0.011235    0.004659
    6.571093   -1.886636   -1.886607   -1.886562    0.005213   -0.016788    0.007217
    7.118684   -2.744251   -2.744301   -2.744262    0.002618   -0.009379    0.003589
    7.666275   -2.027331   -2.028669   -2.028719   -0.000830    0.000002   -0.000830
    8.213867   -1.686387   -1.691256   -1.693261   -0.000406   -0.011015    0.002358
    8.761458   -3.165331   -3.165269   -3.165255    0.001434   -0.004757    0.001923
    9.309049   -0.773639   -0.773721   -0.773374    0.001444   -0.004407    0.001713
    9.856640   -0.884707   -0.884601   -0.884630    0.001215   -0.003914    0.001578
   10.404231   -0.938060   -0.937922   -0.937828    0.000115   -0.000372    0.000111
   10.951822   -0.736491   -0.736480   -0.736460    0.000785   -0.002743    0.001112
   11.499413   -0.234521   -0.234506   -0.234484    0.000744   -0.002568    0.001042
   12.047004   -0.146295   -0.146290   -0.146256    0.000691   -0.002410    0.000945
   12.594595   -0.055875   -0.055873   -0.055866    0.000652   -0.002228    0.000896
   13.142186    0.290024    0.290056    0.290049    0.000585   -0.001997    0.000815
   13.689778    0.457660    0.457689    0.457683    0.000537   -0.001838    0.000750
   14.237369    0.483344    0.483395    0.483378    0.000476   -0.001661    0.000699
   14.784960    0.398406    0.398402    0.398412    0.000459   -0.001586    0.000636
   15.332551    0.541546    0.541550    0.541556    0.000422   -0.001454    0.000585
   15.880142    0.825679    0.825687    0.825691    0.000385   -0.001325    0.000535
   16.427733    0.202786    0.202798    0.202801    0.000355   -0.001209    0.000493
   16.975324    0.209946    0.209968    0.209972    0.000349   -0.001188    0.000482
   17.522915    0.770523    0.770618    0.770625    0.000371   -0.001172    0.000495
   18.070506    0.312985    0.313504    0.313746    0.000792   -0.001563    0.000786
   18.618097    0.519168    0.519157    0.519151    0.000167   -0.000671    0.000244
   19.165689    0.160495    0.160511    0.160517    0.000304   -0.001012    0.000379
   19.713280    0.429494    0.429491    0.429504    0.000260   -0.000880    0.000360
   20.260871    0.372496    0.372453    0.372460    0.000220   -0.000607    0.000205
   20.808462    0.400199    0.400212    0.400200    0.000229   -0.000776    0.000305
   21.356053    0.499138    0.499165    0.499164    0.000164   -0.000549    0.000215
   21.903644    0.554938    0.554956    0.554948    0.000203   -0.000691    0.000280
   22.451235    0.608081    0.608080    0.608081    0.000209   -0.000699    0.000223
   22.998826    0.648351    0.648340    0.648346    0.000177   -0.000612    0.000238
   23.546417    0.683550    0.683546    0.683550    0.000130   -0.000449    0.000177
   24.094009    0.719664    0.719661    0.719665   -0.001260    0.004351   -0.001749
   24.641600    0.734003    0.733999    0.734002    0.000096   -0.000331    0.000131
   25.189191    0.768611    0.768597    0.768603    0.000142   -0.000501    0.000196
   25.736782    0.788650    0.788975    0.788914    0.000193   -0.000327    0.000239
   26.284373    0.790982    0.790977    0.790989    0.000152   -0.000510    0.000204
   26.831964    0.848361    0.848226    0.848041   -0.000151    0.000012   -0.000049
   27.379555    0.751127    0.751131    0.751139    0.000177   -0.000594    0.000240
   27.927146    0.790702    0.790703    0.790706    0.000305   -0.001042    0.000422
   28.474737    0.852311    0.852312    0.852314    0.000135   -0.000466    0.000187
   29.022328    0.834525    0.834525    0.834527    0.000123   -0.000425    0.000170
   29.569920    0.836311    0.836320    0.836328    0.000125   -0.000408    0.000167
   30.117511    0.876630    0.876630    0.876632    0.000110   -0.000381    0.000153
   30.665102    0.872431    0.872431    0.872433    0.000109   -0.000381    0.000152
   31.212693    0.847165    0.847158    0.847159    0.000097   -0.000352    0.000139
   31.760284    0.826211    0.826208    0.826209    0.000086   -0.000315    0.000124
   32.307875    0.870782    0.870783    0.870785    0.000090   -0.000317    0.000127
   32.855466    0.853267    0.853267    0.853270    0.000133   -0.000448    0.000188
   33.403057    0.837849    0.837850    0.837854    0.000089   -0.000314    0.000127
   33.950648    0.917041    0.917035    0.917039    0.000087   -0.000323    0.000129
   34.498239    0.796793    0.796790    0.796800    0.000023   -0.000117    0.000043
   35.045831    0.891886    0.891906    0.891909    0.000016   -0.000222    0.000102
   35.593422    0.800868    0.800862    0.800857    0.000058   -0.000232    0.000089
   36.141013    0.829352    0.829328    0.829330    0.000146   -0.000493    0.000198
   36.688604    0.843988    0.843990    0.843996    0.000100   -0.000275    0.000123
   37.236195    0.801591    0.801583    0.801547    0.000014   -0.000130    0.000047
   37.783786    0.824678    0.824824    0.824872    0.000147   -0.000264    0.000150
   38.331377    0.806749    0.806763    0.806760    0.000062   -0.000228    0.000100
   38.878968    0.835425    0.835687    0.835549   -0.000097    0.000014    0.000513
   39.426559    0.842024    0.841989    0.841999    0.000068   -0.000250    0.000087
   39.974150    0.854020    0.854006    0.854010    0.000064   -0.000218    0.000080
   40.521742    0.871988    0.871980    0.871982    0.000091   -0.000301    0.000118
   41.069333    0.870970    0.870964    0.870966    0.000060   -0.000201    0.000077
   41.616924    0.891584    0.891579    0.891580    0.000082   -0.000255    0.000110
   42.164515    0.870704    0.870699    0.870702    0.000056   -0.000188    0.000072
   42.712106    0.873337    0.873337    0.873335    0.000053   -0.000188    0.000073
   43.259697    0.913721    0.913727    0.913726    0.000057   -0.000184    0.000077
   43.807288    0.868816    0.868815    0.868817    0.000055   -0.000183    0.000067
   44.354879    0.889043    0.889038    0.889041    0.000057   -0.000185    0.000066
   44.902470    0.867217    0.867211    0.867216    0.000062   -0.000187    0.000059
   45.450062    0.885133    0.885097    0.885114    0.000167   -0.000147   -0.000093
   45.997653    0.883569    0.883581    0.883574    0.000043   -0.000143    0.000058
   46.545244    0.890711    0.890715    0.890712    0.000043   -0.000150    0.000063
   47.092835    0.895807    0.895809    0.895808    0.000043   -0.000150    0.000062
   47.640426    0.900025    0.900026    0.900025    0.000043   -0.000148    0.000061
   48.188017    0.903705    0.903706    0.903705    0.000042   -0.000146    0.000059
   48.735608    0.907006    0.907007    0.907006    0.000041   -0.000143    0.000058
   49.283199    0.910018    0.910018    0.910018    0.000041   -0.000140    0.000057
   49.830790    0.912797    0.912797    0.912797    0.000040   -0.000137    0.000056
   50.378381    0.915383    0.915384    0.915383    0.000039   -0.000134    0.000054
   50.925973    0.917805    0.917806    0.917805    0.000038   -0.000132    0.000053
   51.473564    0.920084    0.920085    0.920084    0.000037   -0.000129    0.000052
   52.021155    0.922237    0.922238    0.922237    0.000037   -0.000126    0.000051
   52.568746    0.924278    0.924278    0.924278    0.000036   -0.000124    0.000050
   53.116337    0.926217    0.926218    0.926217    0.000035   -0.000121    0.000049
   53.663928    0.928065    0.928065    0.928065    0.000035   -0.000119    0.000048
   54.211519    0.929828    0.929828    0.929828    0.000034   -0.000117    0.000047
 
 The outermost node in the dielectric function lies at epsilon=  12.7


--------------------------------------------------------------------------------------------------------


    OPTICS:  cpu time    0.4126: real time    0.4207
    4ORBIT:  cpu time    0.0000: real time    0.0000

 Spin-Orbit-Coupling matrix elements

 Ion:    1  E_soc:    -33.0180584
 l=   1
     0.0000000    -5.0847677    -5.0847673
    -5.0847677     0.0000000    -5.0847673
    -5.0847673    -5.0847673     0.0000000
 l=   2
     0.0000000    -0.0836554     0.0000000    -0.0836554    -0.3345753
    -0.0836554     0.0000000    -0.2509315    -0.0836670    -0.0836554
     0.0000000    -0.2509315     0.0000000    -0.2509315     0.0000000
    -0.0836554    -0.0836670    -0.2509315     0.0000000    -0.0836554
    -0.3345753    -0.0836554     0.0000000    -0.0836554     0.0000000
 l=   3
     0.0000000     0.0000000     0.0000000     0.0000000     0.0000000     0.0000000     0.0000000
     0.0000000     0.0000000     0.0000000     0.0000000     0.0000000     0.0000000     0.0000000
     0.0000000     0.0000000     0.0000000     0.0000000     0.0000000     0.0000000     0.0000000
     0.0000000     0.0000000     0.0000000     0.0000000     0.0000000     0.0000000     0.0000000
     0.0000000     0.0000000     0.0000000     0.0000000     0.0000000     0.0000000     0.0000000
     0.0000000     0.0000000     0.0000000     0.0000000     0.0000000     0.0000000     0.0000000
     0.0000000     0.0000000     0.0000000     0.0000000     0.0000000     0.0000000     0.0000000

 total amount of memory used by VASP MPI-rank0    97698. kBytes
=======================================================================

   base      :      30000. kBytes
   nonl-proj :       5632. kBytes
   fftplans  :      12955. kBytes
   grid      :      10536. kBytes
   one-center:         62. kBytes
   wavefun   :      38513. kBytes
 
  
  
 General timing and accounting informations for this job:
 ========================================================
  
                  Total CPU time used (sec):       60.582
                            User time (sec):       58.151
                          System time (sec):        2.431
                         Elapsed time (sec):       61.855
  
                   Maximum memory used (kb):      267740.
                   Average memory used (kb):           0.
  
                          Minor page faults:       229274
                          Major page faults:            0
                 Voluntary context switches:         5940
