<?xml version="1.0" encoding="ISO-8859-1"?>
<modeling>
 <generator>
  <i name="program" type="string">vasp </i>
  <i name="version" type="string">5.4.4.18Apr17-6-g9f103f2a35  </i>
  <i name="subversion" type="string">(build Nov 03 2018 10:20:46) complex            parallel </i>
  <i name="platform" type="string">LinuxIFC </i>
  <i name="date" type="string">2018 12 06 </i>
  <i name="time" type="string">14:34:56 </i>
 </generator>
 <incar>
  <i type="string" name="SYSTEM">   Og_FCC</i>
  <i type="string" name="PREC">accurate</i>
  <i type="string" name="ALGO">   Normal</i>
  <i type="logical" name="ADDGRID"> T  </i>
  <i type="logical" name="LSORBIT"> T  </i>
  <i type="int" name="ISPIN">     1</i>
  <i type="int" name="MAXMIX">    50</i>
  <i type="int" name="NELM">    50</i>
  <i type="int" name="NELMDL">    -5</i>
  <i type="int" name="NELMIN">     2</i>
  <i type="int" name="IBRION">    -1</i>
  <i type="int" name="NFREE">     5</i>
  <i name="EDIFF">      0.00000001</i>
  <i name="EDIFFG">      0.00001000</i>
  <i type="int" name="NSW">     1</i>
  <i type="int" name="ISIF">     3</i>
  <i type="int" name="ISYM">     0</i>
  <i name="SYMPREC">      0.00000010</i>
  <i name="ENCUT">    300.00000000</i>
  <i name="POTIM">      0.10000000</i>
  <i type="logical" name="LREAL"> F  </i>
  <i type="int" name="ISMEAR">     0</i>
  <i name="SIGMA">      0.00100000</i>
  <i type="int" name="NWRITE">     2</i>
  <i type="logical" name="LWAVE"> T  </i>
  <i type="logical" name="LCHARG"> F  </i>
  <i type="logical" name="LVTOT"> F  </i>
  <i type="logical" name="LOPTICS"> T  </i>
  <i type="logical" name="GGA_COMPAT"> F  </i>
  <v type="int" name="KPOINT_BSE">    -1     0     0     0</v>
  <i type="int" name="NELM">    50</i>
  <i type="string" name="GGA"> PE</i>
 </incar>
 <structure name="primitive_cell" >
  <crystal>
   <varray name="basis" >
    <v>       4.39635018       0.00000000       0.00000000 </v>
    <v>       2.19817509       3.80735094      -0.00000000 </v>
    <v>       2.19817509       1.26911698       3.58960489 </v>
   </varray>
   <i name="volume">     60.08441465 </i>
   <varray name="rec_basis" >
    <v>       0.22746141      -0.13132490      -0.09286073 </v>
    <v>       0.00000000       0.26264981      -0.09286073 </v>
    <v>      -0.00000000       0.00000000       0.27858219 </v>
   </varray>
  </crystal>
  <varray name="positions" >
   <v>       0.00000000       0.00000000       0.00000000 </v>
  </varray>
 </structure>
 <varray name="primitive_index" >
  <v type="int" >        1 </v>
 </varray>
 <kpoints>
  <generation param="Gamma">
   <v type="int" name="divisions">       6        6        6 </v>
   <v name="usershift">      0.00000000       0.00000000       0.00000000 </v>
   <v name="genvec1">      0.16666667       0.00000000       0.00000000 </v>
   <v name="genvec2">      0.00000000       0.16666667       0.00000000 </v>
   <v name="genvec3">      0.00000000      -0.00000000       0.16666667 </v>
   <v name="shift">      0.00000000       0.00000000       0.00000000 </v>
  </generation>
  <varray name="kpointlist" >
   <v>       0.00000000       0.00000000       0.00000000 </v>
   <v>       0.16666667      -0.00000000      -0.00000000 </v>
   <v>       0.33333333      -0.00000000       0.00000000 </v>
   <v>       0.50000000      -0.00000000       0.00000000 </v>
   <v>      -0.33333333       0.00000000      -0.00000000 </v>
   <v>      -0.16666667       0.00000000       0.00000000 </v>
   <v>      -0.00000000       0.16666667       0.00000000 </v>
   <v>       0.16666667       0.16666667       0.00000000 </v>
   <v>       0.33333333       0.16666667       0.00000000 </v>
   <v>       0.50000000       0.16666667       0.00000000 </v>
   <v>      -0.33333333       0.16666667      -0.00000000 </v>
   <v>      -0.16666667       0.16666667      -0.00000000 </v>
   <v>      -0.00000000       0.33333333      -0.00000000 </v>
   <v>       0.16666667       0.33333333      -0.00000000 </v>
   <v>       0.33333333       0.33333333       0.00000000 </v>
   <v>       0.50000000       0.33333333      -0.00000000 </v>
   <v>      -0.33333333       0.33333333      -0.00000000 </v>
   <v>      -0.16666667       0.33333333      -0.00000000 </v>
   <v>       0.00000000       0.50000000      -0.00000000 </v>
   <v>       0.16666667       0.50000000      -0.00000000 </v>
   <v>       0.33333333       0.50000000       0.00000000 </v>
   <v>       0.50000000       0.50000000       0.00000000 </v>
   <v>      -0.33333333       0.50000000      -0.00000000 </v>
   <v>      -0.16666667       0.50000000      -0.00000000 </v>
   <v>       0.00000000      -0.33333333       0.00000000 </v>
   <v>       0.16666667      -0.33333333       0.00000000 </v>
   <v>       0.33333333      -0.33333333       0.00000000 </v>
   <v>       0.50000000      -0.33333333       0.00000000 </v>
   <v>      -0.33333333      -0.33333333      -0.00000000 </v>
   <v>      -0.16666667      -0.33333333       0.00000000 </v>
   <v>       0.00000000      -0.16666667       0.00000000 </v>
   <v>       0.16666667      -0.16666667       0.00000000 </v>
   <v>       0.33333333      -0.16666667       0.00000000 </v>
   <v>       0.50000000      -0.16666667       0.00000000 </v>
   <v>      -0.33333333      -0.16666667       0.00000000 </v>
   <v>      -0.16666667      -0.16666667       0.00000000 </v>
   <v>       0.00000000       0.00000000       0.16666667 </v>
   <v>       0.16666667      -0.00000000       0.16666667 </v>
   <v>       0.33333333      -0.00000000       0.16666667 </v>
   <v>       0.50000000      -0.00000000       0.16666667 </v>
   <v>      -0.33333333       0.00000000       0.16666667 </v>
   <v>      -0.16666667       0.00000000       0.16666667 </v>
   <v>      -0.00000000       0.16666667       0.16666667 </v>
   <v>       0.16666667       0.16666667       0.16666667 </v>
   <v>       0.33333333       0.16666667       0.16666667 </v>
   <v>       0.50000000       0.16666667       0.16666667 </v>
   <v>      -0.33333333       0.16666667       0.16666667 </v>
   <v>      -0.16666667       0.16666667       0.16666667 </v>
   <v>       0.00000000       0.33333333       0.16666667 </v>
   <v>       0.16666667       0.33333333       0.16666667 </v>
   <v>       0.33333333       0.33333333       0.16666667 </v>
   <v>       0.50000000       0.33333333       0.16666667 </v>
   <v>      -0.33333333       0.33333333       0.16666667 </v>
   <v>      -0.16666667       0.33333333       0.16666667 </v>
   <v>       0.00000000       0.50000000       0.16666667 </v>
   <v>       0.16666667       0.50000000       0.16666667 </v>
   <v>       0.33333333       0.50000000       0.16666667 </v>
   <v>       0.50000000       0.50000000       0.16666667 </v>
   <v>      -0.33333333       0.50000000       0.16666667 </v>
   <v>      -0.16666667       0.50000000       0.16666667 </v>
   <v>       0.00000000      -0.33333333       0.16666667 </v>
   <v>       0.16666667      -0.33333333       0.16666667 </v>
   <v>       0.33333333      -0.33333333       0.16666667 </v>
   <v>       0.50000000      -0.33333333       0.16666667 </v>
   <v>      -0.33333333      -0.33333333       0.16666667 </v>
   <v>      -0.16666667      -0.33333333       0.16666667 </v>
   <v>       0.00000000      -0.16666667       0.16666667 </v>
   <v>       0.16666667      -0.16666667       0.16666667 </v>
   <v>       0.33333333      -0.16666667       0.16666667 </v>
   <v>       0.50000000      -0.16666667       0.16666667 </v>
   <v>      -0.33333333      -0.16666667       0.16666667 </v>
   <v>      -0.16666667      -0.16666667       0.16666667 </v>
   <v>       0.00000000       0.00000000       0.33333333 </v>
   <v>       0.16666667      -0.00000000       0.33333333 </v>
   <v>       0.33333333      -0.00000000       0.33333333 </v>
   <v>       0.50000000      -0.00000000       0.33333333 </v>
   <v>      -0.33333333       0.00000000       0.33333333 </v>
   <v>      -0.16666667       0.00000000       0.33333333 </v>
   <v>      -0.00000000       0.16666667       0.33333333 </v>
   <v>       0.16666667       0.16666667       0.33333333 </v>
   <v>       0.33333333       0.16666667       0.33333333 </v>
   <v>       0.50000000       0.16666667       0.33333333 </v>
   <v>      -0.33333333       0.16666667       0.33333333 </v>
   <v>      -0.16666667       0.16666667       0.33333333 </v>
   <v>       0.00000000       0.33333333       0.33333333 </v>
   <v>       0.16666667       0.33333333       0.33333333 </v>
   <v>       0.33333333       0.33333333       0.33333333 </v>
   <v>       0.50000000       0.33333333       0.33333333 </v>
   <v>      -0.33333333       0.33333333       0.33333333 </v>
   <v>      -0.16666667       0.33333333       0.33333333 </v>
   <v>       0.00000000       0.50000000       0.33333333 </v>
   <v>       0.16666667       0.50000000       0.33333333 </v>
   <v>       0.33333333       0.50000000       0.33333333 </v>
   <v>       0.50000000       0.50000000       0.33333333 </v>
   <v>      -0.33333333       0.50000000       0.33333333 </v>
   <v>      -0.16666667       0.50000000       0.33333333 </v>
   <v>      -0.00000000      -0.33333333       0.33333333 </v>
   <v>       0.16666667      -0.33333333       0.33333333 </v>
   <v>       0.33333333      -0.33333333       0.33333333 </v>
   <v>       0.50000000      -0.33333333       0.33333333 </v>
   <v>      -0.33333333      -0.33333333       0.33333333 </v>
   <v>      -0.16666667      -0.33333333       0.33333333 </v>
   <v>       0.00000000      -0.16666667       0.33333333 </v>
   <v>       0.16666667      -0.16666667       0.33333333 </v>
   <v>       0.33333333      -0.16666667       0.33333333 </v>
   <v>       0.50000000      -0.16666667       0.33333333 </v>
   <v>      -0.33333333      -0.16666667       0.33333333 </v>
   <v>      -0.16666667      -0.16666667       0.33333333 </v>
   <v>       0.00000000       0.00000000       0.50000000 </v>
   <v>       0.16666667       0.00000000       0.50000000 </v>
   <v>       0.33333333      -0.00000000       0.50000000 </v>
   <v>       0.50000000      -0.00000000       0.50000000 </v>
   <v>      -0.33333333       0.00000000       0.50000000 </v>
   <v>      -0.16666667       0.00000000       0.50000000 </v>
   <v>      -0.00000000       0.16666667       0.50000000 </v>
   <v>       0.16666667       0.16666667       0.50000000 </v>
   <v>       0.33333333       0.16666667       0.50000000 </v>
   <v>       0.50000000       0.16666667       0.50000000 </v>
   <v>      -0.33333333       0.16666667       0.50000000 </v>
   <v>      -0.16666667       0.16666667       0.50000000 </v>
   <v>       0.00000000       0.33333333       0.50000000 </v>
   <v>       0.16666667       0.33333333       0.50000000 </v>
   <v>       0.33333333       0.33333333       0.50000000 </v>
   <v>       0.50000000       0.33333333       0.50000000 </v>
   <v>      -0.33333333       0.33333333       0.50000000 </v>
   <v>      -0.16666667       0.33333333       0.50000000 </v>
   <v>       0.00000000       0.50000000       0.50000000 </v>
   <v>       0.16666667       0.50000000       0.50000000 </v>
   <v>       0.33333333       0.50000000       0.50000000 </v>
   <v>       0.50000000       0.50000000       0.50000000 </v>
   <v>      -0.33333333       0.50000000       0.50000000 </v>
   <v>      -0.16666667       0.50000000       0.50000000 </v>
   <v>       0.00000000      -0.33333333       0.50000000 </v>
   <v>       0.16666667      -0.33333333       0.50000000 </v>
   <v>       0.33333333      -0.33333333       0.50000000 </v>
   <v>       0.50000000      -0.33333333       0.50000000 </v>
   <v>      -0.33333333      -0.33333333       0.50000000 </v>
   <v>      -0.16666667      -0.33333333       0.50000000 </v>
   <v>       0.00000000      -0.16666667       0.50000000 </v>
   <v>       0.16666667      -0.16666667       0.50000000 </v>
   <v>       0.33333333      -0.16666667       0.50000000 </v>
   <v>       0.50000000      -0.16666667       0.50000000 </v>
   <v>      -0.33333333      -0.16666667       0.50000000 </v>
   <v>      -0.16666667      -0.16666667       0.50000000 </v>
   <v>       0.00000000      -0.00000000      -0.33333333 </v>
   <v>       0.16666667      -0.00000000      -0.33333333 </v>
   <v>       0.33333333      -0.00000000      -0.33333333 </v>
   <v>       0.50000000      -0.00000000      -0.33333333 </v>
   <v>      -0.33333333       0.00000000      -0.33333333 </v>
   <v>      -0.16666667       0.00000000      -0.33333333 </v>
   <v>      -0.00000000       0.16666667      -0.33333333 </v>
   <v>       0.16666667       0.16666667      -0.33333333 </v>
   <v>       0.33333333       0.16666667      -0.33333333 </v>
   <v>       0.50000000       0.16666667      -0.33333333 </v>
   <v>      -0.33333333       0.16666667      -0.33333333 </v>
   <v>      -0.16666667       0.16666667      -0.33333333 </v>
   <v>       0.00000000       0.33333333      -0.33333333 </v>
   <v>       0.16666667       0.33333333      -0.33333333 </v>
   <v>       0.33333333       0.33333333      -0.33333333 </v>
   <v>       0.50000000       0.33333333      -0.33333333 </v>
   <v>      -0.33333333       0.33333333      -0.33333333 </v>
   <v>      -0.16666667       0.33333333      -0.33333333 </v>
   <v>       0.00000000       0.50000000      -0.33333333 </v>
   <v>       0.16666667       0.50000000      -0.33333333 </v>
   <v>       0.33333333       0.50000000      -0.33333333 </v>
   <v>       0.50000000       0.50000000      -0.33333333 </v>
   <v>      -0.33333333       0.50000000      -0.33333333 </v>
   <v>      -0.16666667       0.50000000      -0.33333333 </v>
   <v>       0.00000000      -0.33333333      -0.33333333 </v>
   <v>       0.16666667      -0.33333333      -0.33333333 </v>
   <v>       0.33333333      -0.33333333      -0.33333333 </v>
   <v>       0.50000000      -0.33333333      -0.33333333 </v>
   <v>      -0.33333333      -0.33333333      -0.33333333 </v>
   <v>      -0.16666667      -0.33333333      -0.33333333 </v>
   <v>       0.00000000      -0.16666667      -0.33333333 </v>
   <v>       0.16666667      -0.16666667      -0.33333333 </v>
   <v>       0.33333333      -0.16666667      -0.33333333 </v>
   <v>       0.50000000      -0.16666667      -0.33333333 </v>
   <v>      -0.33333333      -0.16666667      -0.33333333 </v>
   <v>      -0.16666667      -0.16666667      -0.33333333 </v>
   <v>       0.00000000      -0.00000000      -0.16666667 </v>
   <v>       0.16666667      -0.00000000      -0.16666667 </v>
   <v>       0.33333333      -0.00000000      -0.16666667 </v>
   <v>       0.50000000      -0.00000000      -0.16666667 </v>
   <v>      -0.33333333       0.00000000      -0.16666667 </v>
   <v>      -0.16666667       0.00000000      -0.16666667 </v>
   <v>       0.00000000       0.16666667      -0.16666667 </v>
   <v>       0.16666667       0.16666667      -0.16666667 </v>
   <v>       0.33333333       0.16666667      -0.16666667 </v>
   <v>       0.50000000       0.16666667      -0.16666667 </v>
   <v>      -0.33333333       0.16666667      -0.16666667 </v>
   <v>      -0.16666667       0.16666667      -0.16666667 </v>
   <v>       0.00000000       0.33333333      -0.16666667 </v>
   <v>       0.16666667       0.33333333      -0.16666667 </v>
   <v>       0.33333333       0.33333333      -0.16666667 </v>
   <v>       0.50000000       0.33333333      -0.16666667 </v>
   <v>      -0.33333333       0.33333333      -0.16666667 </v>
   <v>      -0.16666667       0.33333333      -0.16666667 </v>
   <v>       0.00000000       0.50000000      -0.16666667 </v>
   <v>       0.16666667       0.50000000      -0.16666667 </v>
   <v>       0.33333333       0.50000000      -0.16666667 </v>
   <v>       0.50000000       0.50000000      -0.16666667 </v>
   <v>      -0.33333333       0.50000000      -0.16666667 </v>
   <v>      -0.16666667       0.50000000      -0.16666667 </v>
   <v>      -0.00000000      -0.33333333      -0.16666667 </v>
   <v>       0.16666667      -0.33333333      -0.16666667 </v>
   <v>       0.33333333      -0.33333333      -0.16666667 </v>
   <v>       0.50000000      -0.33333333      -0.16666667 </v>
   <v>      -0.33333333      -0.33333333      -0.16666667 </v>
   <v>      -0.16666667      -0.33333333      -0.16666667 </v>
   <v>       0.00000000      -0.16666667      -0.16666667 </v>
   <v>       0.16666667      -0.16666667      -0.16666667 </v>
   <v>       0.33333333      -0.16666667      -0.16666667 </v>
   <v>       0.50000000      -0.16666667      -0.16666667 </v>
   <v>      -0.33333333      -0.16666667      -0.16666667 </v>
   <v>      -0.16666667      -0.16666667      -0.16666667 </v>
  </varray>
  <varray name="weights" >
   <v>       0.00462963 </v>
   <v>       0.00462963 </v>
   <v>       0.00462963 </v>
   <v>       0.00462963 </v>
   <v>       0.00462963 </v>
   <v>       0.00462963 </v>
   <v>       0.00462963 </v>
   <v>       0.00462963 </v>
   <v>       0.00462963 </v>
   <v>       0.00462963 </v>
   <v>       0.00462963 </v>
   <v>       0.00462963 </v>
   <v>       0.00462963 </v>
   <v>       0.00462963 </v>
   <v>       0.00462963 </v>
   <v>       0.00462963 </v>
   <v>       0.00462963 </v>
   <v>       0.00462963 </v>
   <v>       0.00462963 </v>
   <v>       0.00462963 </v>
   <v>       0.00462963 </v>
   <v>       0.00462963 </v>
   <v>       0.00462963 </v>
   <v>       0.00462963 </v>
   <v>       0.00462963 </v>
   <v>       0.00462963 </v>
   <v>       0.00462963 </v>
   <v>       0.00462963 </v>
   <v>       0.00462963 </v>
   <v>       0.00462963 </v>
   <v>       0.00462963 </v>
   <v>       0.00462963 </v>
   <v>       0.00462963 </v>
   <v>       0.00462963 </v>
   <v>       0.00462963 </v>
   <v>       0.00462963 </v>
   <v>       0.00462963 </v>
   <v>       0.00462963 </v>
   <v>       0.00462963 </v>
   <v>       0.00462963 </v>
   <v>       0.00462963 </v>
   <v>       0.00462963 </v>
   <v>       0.00462963 </v>
   <v>       0.00462963 </v>
   <v>       0.00462963 </v>
   <v>       0.00462963 </v>
   <v>       0.00462963 </v>
   <v>       0.00462963 </v>
   <v>       0.00462963 </v>
   <v>       0.00462963 </v>
   <v>       0.00462963 </v>
   <v>       0.00462963 </v>
   <v>       0.00462963 </v>
   <v>       0.00462963 </v>
   <v>       0.00462963 </v>
   <v>       0.00462963 </v>
   <v>       0.00462963 </v>
   <v>       0.00462963 </v>
   <v>       0.00462963 </v>
   <v>       0.00462963 </v>
   <v>       0.00462963 </v>
   <v>       0.00462963 </v>
   <v>       0.00462963 </v>
   <v>       0.00462963 </v>
   <v>       0.00462963 </v>
   <v>       0.00462963 </v>
   <v>       0.00462963 </v>
   <v>       0.00462963 </v>
   <v>       0.00462963 </v>
   <v>       0.00462963 </v>
   <v>       0.00462963 </v>
   <v>       0.00462963 </v>
   <v>       0.00462963 </v>
   <v>       0.00462963 </v>
   <v>       0.00462963 </v>
   <v>       0.00462963 </v>
   <v>       0.00462963 </v>
   <v>       0.00462963 </v>
   <v>       0.00462963 </v>
   <v>       0.00462963 </v>
   <v>       0.00462963 </v>
   <v>       0.00462963 </v>
   <v>       0.00462963 </v>
   <v>       0.00462963 </v>
   <v>       0.00462963 </v>
   <v>       0.00462963 </v>
   <v>       0.00462963 </v>
   <v>       0.00462963 </v>
   <v>       0.00462963 </v>
   <v>       0.00462963 </v>
   <v>       0.00462963 </v>
   <v>       0.00462963 </v>
   <v>       0.00462963 </v>
   <v>       0.00462963 </v>
   <v>       0.00462963 </v>
   <v>       0.00462963 </v>
   <v>       0.00462963 </v>
   <v>       0.00462963 </v>
   <v>       0.00462963 </v>
   <v>       0.00462963 </v>
   <v>       0.00462963 </v>
   <v>       0.00462963 </v>
   <v>       0.00462963 </v>
   <v>       0.00462963 </v>
   <v>       0.00462963 </v>
   <v>       0.00462963 </v>
   <v>       0.00462963 </v>
   <v>       0.00462963 </v>
   <v>       0.00462963 </v>
   <v>       0.00462963 </v>
   <v>       0.00462963 </v>
   <v>       0.00462963 </v>
   <v>       0.00462963 </v>
   <v>       0.00462963 </v>
   <v>       0.00462963 </v>
   <v>       0.00462963 </v>
   <v>       0.00462963 </v>
   <v>       0.00462963 </v>
   <v>       0.00462963 </v>
   <v>       0.00462963 </v>
   <v>       0.00462963 </v>
   <v>       0.00462963 </v>
   <v>       0.00462963 </v>
   <v>       0.00462963 </v>
   <v>       0.00462963 </v>
   <v>       0.00462963 </v>
   <v>       0.00462963 </v>
   <v>       0.00462963 </v>
   <v>       0.00462963 </v>
   <v>       0.00462963 </v>
   <v>       0.00462963 </v>
   <v>       0.00462963 </v>
   <v>       0.00462963 </v>
   <v>       0.00462963 </v>
   <v>       0.00462963 </v>
   <v>       0.00462963 </v>
   <v>       0.00462963 </v>
   <v>       0.00462963 </v>
   <v>       0.00462963 </v>
   <v>       0.00462963 </v>
   <v>       0.00462963 </v>
   <v>       0.00462963 </v>
   <v>       0.00462963 </v>
   <v>       0.00462963 </v>
   <v>       0.00462963 </v>
   <v>       0.00462963 </v>
   <v>       0.00462963 </v>
   <v>       0.00462963 </v>
   <v>       0.00462963 </v>
   <v>       0.00462963 </v>
   <v>       0.00462963 </v>
   <v>       0.00462963 </v>
   <v>       0.00462963 </v>
   <v>       0.00462963 </v>
   <v>       0.00462963 </v>
   <v>       0.00462963 </v>
   <v>       0.00462963 </v>
   <v>       0.00462963 </v>
   <v>       0.00462963 </v>
   <v>       0.00462963 </v>
   <v>       0.00462963 </v>
   <v>       0.00462963 </v>
   <v>       0.00462963 </v>
   <v>       0.00462963 </v>
   <v>       0.00462963 </v>
   <v>       0.00462963 </v>
   <v>       0.00462963 </v>
   <v>       0.00462963 </v>
   <v>       0.00462963 </v>
   <v>       0.00462963 </v>
   <v>       0.00462963 </v>
   <v>       0.00462963 </v>
   <v>       0.00462963 </v>
   <v>       0.00462963 </v>
   <v>       0.00462963 </v>
   <v>       0.00462963 </v>
   <v>       0.00462963 </v>
   <v>       0.00462963 </v>
   <v>       0.00462963 </v>
   <v>       0.00462963 </v>
   <v>       0.00462963 </v>
   <v>       0.00462963 </v>
   <v>       0.00462963 </v>
   <v>       0.00462963 </v>
   <v>       0.00462963 </v>
   <v>       0.00462963 </v>
   <v>       0.00462963 </v>
   <v>       0.00462963 </v>
   <v>       0.00462963 </v>
   <v>       0.00462963 </v>
   <v>       0.00462963 </v>
   <v>       0.00462963 </v>
   <v>       0.00462963 </v>
   <v>       0.00462963 </v>
   <v>       0.00462963 </v>
   <v>       0.00462963 </v>
   <v>       0.00462963 </v>
   <v>       0.00462963 </v>
   <v>       0.00462963 </v>
   <v>       0.00462963 </v>
   <v>       0.00462963 </v>
   <v>       0.00462963 </v>
   <v>       0.00462963 </v>
   <v>       0.00462963 </v>
   <v>       0.00462963 </v>
   <v>       0.00462963 </v>
   <v>       0.00462963 </v>
   <v>       0.00462963 </v>
   <v>       0.00462963 </v>
   <v>       0.00462963 </v>
   <v>       0.00462963 </v>
   <v>       0.00462963 </v>
   <v>       0.00462963 </v>
   <v>       0.00462963 </v>
   <v>       0.00462963 </v>
   <v>       0.00462963 </v>
  </varray>
 </kpoints>
 <parameters>
  <separator name="general" >
   <i type="string" name="SYSTEM">Og_FCC</i>
   <i type="logical" name="LCOMPAT"> F  </i>
  </separator>
  <separator name="electronic" >
   <i type="string" name="PREC">accura</i>
   <i name="ENMAX">    300.00000000</i>
   <i name="ENAUG">    361.02500000</i>
   <i name="EDIFF">      0.00000001</i>
   <i type="int" name="IALGO">    38</i>
   <i type="int" name="IWAVPR">    10</i>
   <i type="int" name="NBANDS">    28</i>
   <i name="NELECT">     18.00000000</i>
   <i type="int" name="TURBO">     0</i>
   <i type="int" name="IRESTART">     0</i>
   <i type="int" name="NREBOOT">     0</i>
   <i type="int" name="NMIN">     0</i>
   <i name="EREF">      0.00000000</i>
   <separator name="electronic smearing" >
    <i type="int" name="ISMEAR">     0</i>
    <i name="SIGMA">      0.00100000</i>
    <i name="KSPACING">      0.50000000</i>
    <i type="logical" name="KGAMMA"> T  </i>
   </separator>
   <separator name="electronic projectors" >
    <i type="logical" name="LREAL"> F  </i>
    <v name="ROPT">      0.00000000</v>
    <i type="int" name="LMAXPAW">  -100</i>
    <i type="int" name="LMAXMIX">     2</i>
    <i type="logical" name="NLSPLINE"> F  </i>
   </separator>
   <separator name="electronic startup" >
    <i type="int" name="ISTART">     0</i>
    <i type="int" name="ICHARG">     2</i>
    <i type="int" name="INIWAV">     1</i>
   </separator>
   <separator name="electronic spin" >
    <i type="int" name="ISPIN">     1</i>
    <i type="logical" name="LNONCOLLINEAR"> T  </i>
    <v name="MAGMOM">      1.00000000      1.00000000      1.00000000</v>
    <i name="NUPDOWN">     -1.00000000</i>
    <i type="logical" name="LSORBIT"> T  </i>
    <v name="SAXIS">      0.00000000      0.00000000      1.00000000</v>
    <i type="logical" name="LSPIRAL"> F  </i>
    <v name="QSPIRAL">      0.00000000      0.00000000      0.00000000</v>
    <i type="logical" name="LZEROZ"> F  </i>
   </separator>
   <separator name="electronic exchange-correlation" >
    <i type="logical" name="LASPH"> F  </i>
    <i type="logical" name="LMETAGGA"> F  </i>
   </separator>
   <separator name="electronic convergence" >
    <i type="int" name="NELM">    50</i>
    <i type="int" name="NELMDL">    -5</i>
    <i type="int" name="NELMIN">     2</i>
    <i name="ENINI">    300.00000000</i>
    <separator name="electronic convergence detail" >
     <i type="logical" name="LDIAG"> T  </i>
     <i type="logical" name="LSUBROT"> F  </i>
     <i name="WEIMIN">      0.00000000</i>
     <i name="EBREAK">      0.00000000</i>
     <i name="DEPER">      0.30000000</i>
     <i type="int" name="NRMM">     4</i>
     <i name="TIME">      0.40000000</i>
    </separator>
   </separator>
   <separator name="electronic mixer" >
    <i name="AMIX">      0.40000000</i>
    <i name="BMIX">      1.00000000</i>
    <i name="AMIN">      0.10000000</i>
    <i name="AMIX_MAG">      1.60000000</i>
    <i name="BMIX_MAG">      1.00000000</i>
    <separator name="electronic mixer details" >
     <i type="int" name="IMIX">     4</i>
     <i type="logical" name="MIXFIRST"> F  </i>
     <i type="int" name="MAXMIX">    50</i>
     <i name="WC">    100.00000000</i>
     <i type="int" name="INIMIX">     1</i>
     <i type="int" name="MIXPRE">     1</i>
     <i type="int" name="MREMOVE">     5</i>
    </separator>
   </separator>
   <separator name="electronic dipolcorrection" >
    <i type="logical" name="LDIPOL"> F  </i>
    <i type="logical" name="LMONO"> F  </i>
    <i type="int" name="IDIPOL">     0</i>
    <i name="EPSILON">      1.00000000</i>
    <v name="DIPOL">   -100.00000000   -100.00000000   -100.00000000</v>
    <i name="EFIELD">      0.00000000</i>
   </separator>
  </separator>
  <separator name="grids" >
   <i type="int" name="NGX">    28</i>
   <i type="int" name="NGY">    28</i>
   <i type="int" name="NGZ">    28</i>
   <i type="int" name="NGXF">    56</i>
   <i type="int" name="NGYF">    56</i>
   <i type="int" name="NGZF">    56</i>
   <i type="logical" name="ADDGRID"> T  </i>
  </separator>
  <separator name="ionic" >
   <i type="int" name="NSW">     1</i>
   <i type="int" name="IBRION">    -1</i>
   <i type="int" name="MDALGO">     0</i>
   <i type="int" name="ISIF">     3</i>
   <i name="PSTRESS">      0.00000000</i>
   <i name="EDIFFG">      0.00001000</i>
   <i type="int" name="NFREE">     5</i>
   <i name="POTIM">      0.10000000</i>
   <i name="SMASS">     -3.00000000</i>
   <i name="SCALEE">      1.00000000</i>
  </separator>
  <separator name="ionic md" >
   <i name="TEBEG">      0.00010000</i>
   <i name="TEEND">      0.00010000</i>
   <i type="int" name="NBLOCK">     1</i>
   <i type="int" name="KBLOCK">     1</i>
   <i type="int" name="NPACO">   256</i>
   <i name="APACO">     16.00000000</i>
  </separator>
  <separator name="symmetry" >
   <i type="int" name="ISYM">     0</i>
   <i name="SYMPREC">      0.00000010</i>
  </separator>
  <separator name="dos" >
   <i type="int" name="LORBIT">     0</i>
   <v name="RWIGS">     -1.00000000</v>
   <i type="int" name="NEDOS">   301</i>
   <i name="EMIN">     10.00000000</i>
   <i name="EMAX">    -10.00000000</i>
   <i name="EFERMI">      0.00000000</i>
  </separator>
  <separator name="writing" >
   <i type="int" name="NWRITE">     2</i>
   <i type="logical" name="LWAVE"> T  </i>
   <i type="logical" name="LDOWNSAMPLE"> F  </i>
   <i type="logical" name="LCHARG"> F  </i>
   <i type="logical" name="LPARD"> F  </i>
   <i type="logical" name="LVTOT"> F  </i>
   <i type="logical" name="LVHAR"> F  </i>
   <i type="logical" name="LELF"> F  </i>
   <i type="logical" name="LOPTICS"> T  </i>
   <v name="STM">      0.00000000      0.00000000      0.00000000      0.00000000      0.00000000      0.00000000      0.00000000</v>
  </separator>
  <separator name="performance" >
   <i type="int" name="NPAR">     2</i>
   <i type="int" name="NSIM">     4</i>
   <i type="int" name="NBLK">    -1</i>
   <i type="logical" name="LPLANE"> T  </i>
   <i type="logical" name="LSCALAPACK"> T  </i>
   <i type="logical" name="LSCAAWARE"> F  </i>
   <i type="logical" name="LSCALU"> F  </i>
   <i type="logical" name="LASYNC"> F  </i>
   <i type="logical" name="LORBITALREAL"> F  </i>
  </separator>
  <separator name="miscellaneous" >
   <i type="int" name="IDIOT">     3</i>
   <i type="int" name="ISPECIAL">     0</i>
   <i type="logical" name="LMUSIC"> F  </i>
   <v name="POMASS">      0.01000000</v>
   <v name="DARWINR">      0.00000000</v>
   <v name="DARWINV">      1.00000000</v>
   <i type="logical" name="LCORR"> T  </i>
  </separator>
  <i type="logical" name="GGA_COMPAT"> F  </i>
  <i type="logical" name="LBERRY"> F  </i>
  <i type="int" name="ICORELEVEL">     0</i>
  <i type="logical" name="LDAU"> F  </i>
  <i type="int" name="I_CONSTRAINED_M">     0</i>
  <separator name="electronic exchange-correlation" >
   <i type="string" name="GGA">PE</i>
   <i type="int" name="VOSKOWN">     0</i>
   <i type="logical" name="LHFCALC"> F  </i>
   <i type="string" name="PRECFOCK"></i>
   <i type="logical" name="LSYMGRAD"> F  </i>
   <i type="logical" name="LHFONE"> F  </i>
   <i type="logical" name="LRHFCALC"> F  </i>
   <i type="logical" name="LTHOMAS"> F  </i>
   <i type="logical" name="LMODELHF"> F  </i>
   <i name="ENCUT4O">     -1.00000000</i>
   <i type="int" name="EXXOEP">     0</i>
   <i type="int" name="FOURORBIT">     0</i>
   <i name="AEXX">      0.00000000</i>
   <i name="HFALPHA">      0.00000000</i>
   <i name="MCALPHA">      0.00000000</i>
   <i name="ALDAX">      1.00000000</i>
   <i name="AGGAX">      1.00000000</i>
   <i name="ALDAC">      1.00000000</i>
   <i name="AGGAC">      1.00000000</i>
   <i type="int" name="NKREDX">     1</i>
   <i type="int" name="NKREDY">     1</i>
   <i type="int" name="NKREDZ">     1</i>
   <i type="logical" name="SHIFTRED"> F  </i>
   <i type="logical" name="ODDONLY"> F  </i>
   <i type="logical" name="EVENONLY"> F  </i>
   <i type="int" name="LMAXFOCK">     0</i>
   <i type="int" name="NMAXFOCKAE">     0</i>
   <i type="logical" name="LFOCKAEDFT"> F  </i>
   <i name="HFSCREEN">      0.00000000</i>
   <i name="HFSCREENC">      0.00000000</i>
   <i type="int" name="NBANDSGWLOW">     0</i>
  </separator>
  <separator name="vdW DFT" >
   <i type="logical" name="LUSE_VDW"> F  </i>
   <i name="Zab_VDW">     -0.84910000</i>
   <i name="PARAM1">      0.12340000</i>
   <i name="PARAM2">      1.00000000</i>
   <i name="PARAM3">      0.00000000</i>
  </separator>
  <separator name="model GW" >
   <i type="int" name="MODEL_GW">     0</i>
   <i name="MODEL_EPS0">     36.05064879</i>
   <i name="MODEL_ALPHA">      1.00000000</i>
  </separator>
  <separator name="linear response parameters" >
   <i type="logical" name="LEPSILON"> F  </i>
   <i type="logical" name="LRPA"> F  </i>
   <i type="logical" name="LNABLA"> F  </i>
   <i type="logical" name="LVEL"> F  </i>
   <i type="int" name="KINTER">     0</i>
   <i name="CSHIFT">      0.10000000</i>
   <i name="OMEGAMAX">     -1.00000000</i>
   <i name="DEG_THRESHOLD">      0.00200000</i>
   <i name="RTIME">     -0.10000000</i>
   <i name="WPLASMAI">      0.00000000</i>
   <v name="DFIELD">      0.00000000      0.00000000      0.00000000</v>
   <v name="WPLASMA">      0.00000000      0.00000000      0.00000000      0.00000000      0.00000000      0.00000000      0.00000000      0.00000000      0.00000000</v>
  </separator>
  <separator name="orbital magnetization" >
   <i type="logical" name="NUCIND"> F  </i>
   <v name="MAGPOS">      0.00000000      0.00000000      0.00000000</v>
   <i type="logical" name="LNICSALL"> T  </i>
   <i type="logical" name="ORBITALMAG"> F  </i>
   <i type="logical" name="LMAGBLOCH"> F  </i>
   <i type="logical" name="LCHIMAG"> F  </i>
   <i type="logical" name="LGAUGE"> T  </i>
   <i type="int" name="MAGATOM">     0</i>
   <v name="MAGDIPOL">      0.00000000      0.00000000      0.00000000</v>
   <v name="AVECCONST">      0.00000000      0.00000000      0.00000000</v>
  </separator>
  <separator name="response functions" >
   <i type="logical" name="LADDER"> F  </i>
   <i type="logical" name="LRPAFORCE"> F  </i>
   <i type="logical" name="LFXC"> F  </i>
   <i type="logical" name="LHARTREE"> T  </i>
   <i type="int" name="IBSE">     0</i>
   <v type="int" name="KPOINT">    -1     0     0     0</v>
   <i type="logical" name="LTCTE"> F  </i>
   <i type="logical" name="LTETE"> F  </i>
   <i type="logical" name="LTRIPLET"> F  </i>
   <i type="logical" name="LFXCEPS"> F  </i>
   <i type="logical" name="LFXHEG"> F  </i>
   <i type="int" name="NATURALO">     2</i>
   <i type="logical" name="L2ORDER"> F  </i>
   <i type="logical" name="LMP2LT"> F  </i>
   <i type="logical" name="LUSEW"> F  </i>
   <i name="ENCUTGW">     -2.00000000</i>
   <i name="ENCUTGWSOFT">     -2.00000000</i>
   <i name="ENCUTLF">     -1.00000000</i>
   <i type="int" name="LMAXMP2">    -1</i>
   <i name="SCISSOR">      0.00000000</i>
   <i type="int" name="NOMEGA">     0</i>
   <i type="int" name="NOMEGAR">     0</i>
   <i type="int" name="NBANDSGW">    -1</i>
   <i type="int" name="NBANDSO">    -1</i>
   <i type="int" name="NBANDSV">    -1</i>
   <i type="int" name="NELM">    50</i>
   <i type="int" name="NELMHF">     1</i>
   <i type="int" name="DIM">     3</i>
   <i type="int" name="ANTIRES">     0</i>
   <i name="OMEGAMAX">    -30.00000000</i>
   <i name="OMEGAMIN">    -30.00000000</i>
   <i name="OMEGATL">   -200.00000000</i>
   <i type="int" name="OMEGAGRID">   140</i>
   <i name="CSHIFT">     -0.10000000</i>
   <i type="logical" name="SELFENERGY"> F  </i>
   <i type="logical" name="LSPECTRAL"> F  </i>
   <i type="logical" name="LSPECTRALGW"> F  </i>
   <i type="logical" name="LSINGLES"> F  </i>
   <i type="logical" name="LFERMIGW"> F  </i>
   <i type="logical" name="ODDONLYGW"> F  </i>
   <i type="logical" name="EVENONLYGW"> F  </i>
   <i type="int" name="NKREDLFX">     1</i>
   <i type="int" name="NKREDLFY">     1</i>
   <i type="int" name="NKREDLFZ">     1</i>
   <i type="int" name="MAXMEM">  2800</i>
   <i type="int" name="TELESCOPE">     0</i>
   <i type="int" name="TAUPAR">     1</i>
   <i type="int" name="OMEGAPAR">    -1</i>
   <i name="LAMBDA">      1.00000000</i>
  </separator>
  <separator name="External order field" >
   <i name="OFIELD_KAPPA">      0.00000000</i>
   <v name="OFIELD_K">      0.00000000      0.00000000      0.00000000</v>
   <i name="OFIELD_Q6_NEAR">      0.00000000</i>
   <i name="OFIELD_Q6_FAR">      0.00000000</i>
   <i name="OFIELD_A">      0.00000000</i>
  </separator>
 </parameters>
 <atominfo>
  <atoms>       1 </atoms>
  <types>       1 </types>
  <array name="atoms" >
   <dimension dim="1">ion</dimension>
   <field type="string">element</field>
   <field type="int">atomtype</field>
   <set>
    <rc><c>Og</c><c>   1</c></rc>
   </set>
  </array>
  <array name="atomtypes" >
   <dimension dim="1">type</dimension>
   <field type="int">atomspertype</field>
   <field type="string">element</field>
   <field>mass</field>
   <field>valence</field>
   <field type="string">pseudopotential</field>
   <set>
    <rc><c>   1</c><c>Og</c><c>      0.01000000</c><c>     18.00000000</c><c>  PAW Og, JanMewes Oct 18               </c></rc>
   </set>
  </array>
 </atominfo>
 <structure name="initialpos" >
  <crystal>
   <varray name="basis" >
    <v>       4.39635018       0.00000000       0.00000000 </v>
    <v>       2.19817509       3.80735094      -0.00000000 </v>
    <v>       2.19817509       1.26911698       3.58960489 </v>
   </varray>
   <i name="volume">     60.08441465 </i>
   <varray name="rec_basis" >
    <v>       0.22746141      -0.13132490      -0.09286073 </v>
    <v>       0.00000000       0.26264981      -0.09286073 </v>
    <v>      -0.00000000       0.00000000       0.27858219 </v>
   </varray>
  </crystal>
  <varray name="positions" >
   <v>       0.00000000       0.00000000       0.00000000 </v>
  </varray>
  <varray name="velocities" >
   <v>       0.00000000       0.00000000       0.00000000 </v>
  </varray>
 </structure>
 <calculation>
  <scstep>
   <time name="dav">    0.94    0.94</time>
   <time name="total">    1.09    1.09</time>
   <energy>
    <i name="alphaZ">     63.49827359 </i>
    <i name="ewald">  -1720.24414233 </i>
    <i name="hartreedc">   -673.98211291 </i>
    <i name="XCdc">    -69.19792477 </i>
    <i name="pawpsdc">   2268.28454800 </i>
    <i name="pawaedc">  -2184.08492831 </i>
    <i name="eentropy">     -0.00000014 </i>
    <i name="bandstr">   -169.17790522 </i>
    <i name="atom">   2639.90492407 </i>
    <i name="e_fr_energy">    155.00073198 </i>
    <i name="e_wo_entrp">    155.00073212 </i>
    <i name="e_0_energy">    155.00073205 </i>
   </energy>
  </scstep>
  <scstep>
   <time name="dav">    0.81    0.81</time>
   <time name="total">    0.81    0.82</time>
   <energy>
    <i name="e_fr_energy">     -8.27043880 </i>
    <i name="e_wo_entrp">     -8.27043880 </i>
    <i name="e_0_energy">     -8.27043880 </i>
   </energy>
  </scstep>
  <scstep>
   <time name="dav">    0.79    0.79</time>
   <time name="total">    0.79    0.79</time>
   <energy>
    <i name="e_fr_energy">    -13.08561072 </i>
    <i name="e_wo_entrp">    -13.08561072 </i>
    <i name="e_0_energy">    -13.08561072 </i>
   </energy>
  </scstep>
  <scstep>
   <time name="dav">    0.93    0.93</time>
   <time name="total">    0.93    0.93</time>
   <energy>
    <i name="e_fr_energy">    -13.25332904 </i>
    <i name="e_wo_entrp">    -13.25332904 </i>
    <i name="e_0_energy">    -13.25332904 </i>
   </energy>
  </scstep>
  <scstep>
   <time name="dav">    0.82    0.82</time>
   <time name="total">    0.98    0.98</time>
   <energy>
    <i name="e_fr_energy">    -13.25864086 </i>
    <i name="e_wo_entrp">    -13.25864086 </i>
    <i name="e_0_energy">    -13.25864086 </i>
   </energy>
  </scstep>
  <scstep>
   <time name="dav">    0.74    0.74</time>
   <time name="total">    1.05    1.05</time>
   <energy>
    <i name="e_fr_energy">    -13.17507070 </i>
    <i name="e_wo_entrp">    -13.17507070 </i>
    <i name="e_0_energy">    -13.17507070 </i>
   </energy>
  </scstep>
  <scstep>
   <time name="dav">    0.72    0.72</time>
   <time name="total">    1.03    1.03</time>
   <energy>
    <i name="e_fr_energy">    -13.18649244 </i>
    <i name="e_wo_entrp">    -13.18649244 </i>
    <i name="e_0_energy">    -13.18649244 </i>
   </energy>
  </scstep>
  <scstep>
   <time name="dav">    0.81    0.81</time>
   <time name="total">    1.11    1.11</time>
   <energy>
    <i name="e_fr_energy">    -13.19900010 </i>
    <i name="e_wo_entrp">    -13.19900010 </i>
    <i name="e_0_energy">    -13.19900010 </i>
   </energy>
  </scstep>
  <scstep>
   <time name="dav">    0.75    0.75</time>
   <time name="total">    1.06    1.06</time>
   <energy>
    <i name="e_fr_energy">    -13.20495944 </i>
    <i name="e_wo_entrp">    -13.20495687 </i>
    <i name="e_0_energy">    -13.20495816 </i>
   </energy>
  </scstep>
  <scstep>
   <time name="dav">    0.80    0.80</time>
   <time name="total">    1.10    1.10</time>
   <energy>
    <i name="e_fr_energy">    -13.20598508 </i>
    <i name="e_wo_entrp">    -13.20598482 </i>
    <i name="e_0_energy">    -13.20598495 </i>
   </energy>
  </scstep>
  <scstep>
   <time name="dav">    0.74    0.73</time>
   <time name="total">    1.04    1.04</time>
   <energy>
    <i name="e_fr_energy">    -13.20603894 </i>
    <i name="e_wo_entrp">    -13.20603866 </i>
    <i name="e_0_energy">    -13.20603880 </i>
   </energy>
  </scstep>
  <scstep>
   <time name="dav">    0.79    0.79</time>
   <time name="total">    1.10    1.10</time>
   <energy>
    <i name="e_fr_energy">    -13.20609187 </i>
    <i name="e_wo_entrp">    -13.20609176 </i>
    <i name="e_0_energy">    -13.20609181 </i>
   </energy>
  </scstep>
  <scstep>
   <time name="dav">    0.77    0.77</time>
   <time name="total">    1.08    1.08</time>
   <energy>
    <i name="e_fr_energy">    -13.20610068 </i>
    <i name="e_wo_entrp">    -13.20610065 </i>
    <i name="e_0_energy">    -13.20610066 </i>
   </energy>
  </scstep>
  <scstep>
   <time name="dav">    0.91    0.91</time>
   <time name="total">    1.22    1.22</time>
   <energy>
    <i name="e_fr_energy">    -13.20610127 </i>
    <i name="e_wo_entrp">    -13.20610123 </i>
    <i name="e_0_energy">    -13.20610125 </i>
   </energy>
  </scstep>
  <scstep>
   <time name="dav">    0.73    0.73</time>
   <time name="total">    1.04    1.04</time>
   <energy>
    <i name="e_fr_energy">    -13.20610082 </i>
    <i name="e_wo_entrp">    -13.20610079 </i>
    <i name="e_0_energy">    -13.20610081 </i>
   </energy>
  </scstep>
  <scstep>
   <time name="dav">    0.72    0.72</time>
   <time name="total">    1.02    1.02</time>
   <energy>
    <i name="e_fr_energy">    -13.20610013 </i>
    <i name="e_wo_entrp">    -13.20610011 </i>
    <i name="e_0_energy">    -13.20610012 </i>
   </energy>
  </scstep>
  <scstep>
   <time name="dav">    0.72    0.72</time>
   <time name="total">    1.02    1.02</time>
   <energy>
    <i name="e_fr_energy">    -13.20610018 </i>
    <i name="e_wo_entrp">    -13.20610016 </i>
    <i name="e_0_energy">    -13.20610017 </i>
   </energy>
  </scstep>
  <scstep>
   <time name="dav">    0.72    0.72</time>
   <time name="total">    1.03    1.03</time>
   <energy>
    <i name="e_fr_energy">    -13.20610050 </i>
    <i name="e_wo_entrp">    -13.20610048 </i>
    <i name="e_0_energy">    -13.20610049 </i>
   </energy>
  </scstep>
  <scstep>
   <time name="dav">    0.71    0.71</time>
   <time name="total">    1.02    1.02</time>
   <energy>
    <i name="e_fr_energy">    -13.20610072 </i>
    <i name="e_wo_entrp">    -13.20610070 </i>
    <i name="e_0_energy">    -13.20610071 </i>
   </energy>
  </scstep>
  <scstep>
   <time name="dav">    0.66    0.66</time>
   <time name="total">    0.97    0.97</time>
   <energy>
    <i name="e_fr_energy">    -13.20610080 </i>
    <i name="e_wo_entrp">    -13.20610078 </i>
    <i name="e_0_energy">    -13.20610079 </i>
   </energy>
  </scstep>
  <scstep>
   <time name="dav">    0.67    0.67</time>
   <time name="total">    0.98    0.98</time>
   <energy>
    <i name="e_fr_energy">    -13.20610082 </i>
    <i name="e_wo_entrp">    -13.20610080 </i>
    <i name="e_0_energy">    -13.20610081 </i>
   </energy>
  </scstep>
  <scstep>
   <time name="dav">    0.65    0.65</time>
   <time name="total">    0.96    0.96</time>
   <energy>
    <i name="e_fr_energy">    -13.20610076 </i>
    <i name="e_wo_entrp">    -13.20610075 </i>
    <i name="e_0_energy">    -13.20610075 </i>
   </energy>
  </scstep>
  <scstep>
   <time name="dav">    0.65    0.65</time>
   <time name="total">    0.96    0.96</time>
   <energy>
    <i name="e_fr_energy">    -13.20610069 </i>
    <i name="e_wo_entrp">    -13.20610068 </i>
    <i name="e_0_energy">    -13.20610068 </i>
   </energy>
  </scstep>
  <scstep>
   <time name="dav">    0.65    0.65</time>
   <time name="total">    0.95    0.95</time>
   <energy>
    <i name="e_fr_energy">    -13.20610068 </i>
    <i name="e_wo_entrp">    -13.20610066 </i>
    <i name="e_0_energy">    -13.20610067 </i>
   </energy>
  </scstep>
  <scstep>
   <time name="dav">    0.66    0.66</time>
   <time name="total">    0.80    0.80</time>
   <energy>
    <i name="alphaZ">     63.49827359 </i>
    <i name="ewald">  -1720.24414233 </i>
    <i name="hartreedc">   -686.03325077 </i>
    <i name="XCdc">    -68.78166418 </i>
    <i name="pawpsdc">   2335.77577381 </i>
    <i name="pawaedc">  -2260.37148985 </i>
    <i name="eentropy">     -0.00000002 </i>
    <i name="bandstr">   -316.95452501 </i>
    <i name="atom">   2639.90492407 </i>
    <i name="e_fr_energy">    -13.20610068 </i>
    <i name="e_wo_entrp">    -13.20610066 </i>
    <i name="e_0_energy">    -13.20610067 </i>
   </energy>
  </scstep>
  <structure>
   <crystal>
    <varray name="basis" >
     <v>       4.39635018       0.00000000       0.00000000 </v>
     <v>       2.19817509       3.80735094      -0.00000000 </v>
     <v>       2.19817509       1.26911698       3.58960489 </v>
    </varray>
    <i name="volume">     60.08441465 </i>
    <varray name="rec_basis" >
     <v>       0.22746141      -0.13132490      -0.09286073 </v>
     <v>       0.00000000       0.26264981      -0.09286073 </v>
     <v>      -0.00000000       0.00000000       0.27858219 </v>
    </varray>
   </crystal>
   <varray name="positions" >
    <v>       0.00000000       0.00000000       0.00000000 </v>
   </varray>
  </structure>
  <varray name="forces" >
   <v>       0.00000975       0.00000959       0.00001249 </v>
  </varray>
  <varray name="stress" >
   <v>    -142.33567893      -0.00010884      -0.00016499 </v>
   <v>      -0.00010863    -142.33571235      -0.00009579 </v>
   <v>      -0.00016536      -0.00009642    -142.33587076 </v>
  </varray>
  <energy>
   <i name="e_fr_energy">    -13.62958309 </i>
   <i name="e_wo_entrp">    -13.62958308 </i>
   <i name="e_0_energy">     -0.00000002 </i>
  </energy>
  <time name="totalsc">   28.34   28.47</time>
  <eigenvalues>
   <array>
    <dimension dim="1">band</dimension>
    <dimension dim="2">kpoint</dimension>
    <dimension dim="3">spin</dimension>
    <field>eigene</field>
    <field>occ</field>
    <set>
     <set comment="spin 1">
      <set comment="kpoint 1">
       <r>  -30.7553    1.0000 </r>
       <r>  -30.7553    1.0000 </r>
       <r>  -30.7551    1.0000 </r>
       <r>  -30.7551    1.0000 </r>
       <r>  -24.0916    1.0000 </r>
       <r>  -24.0908    1.0000 </r>
       <r>  -24.0847    1.0000 </r>
       <r>  -24.0843    1.0000 </r>
       <r>  -24.0841    1.0000 </r>
       <r>  -24.0836    1.0000 </r>
       <r>  -20.4728    1.0000 </r>
       <r>  -20.4721    1.0000 </r>
       <r>   -7.2252    1.0000 </r>
       <r>   -7.2242    1.0000 </r>
       <r>    3.4468    1.0000 </r>
       <r>    3.4472    1.0000 </r>
       <r>    3.5545    0.9997 </r>
       <r>    3.5546    0.9996 </r>
       <r>    3.5593    0.0004 </r>
       <r>    3.5594    0.0003 </r>
       <r>   10.5127    0.0000 </r>
       <r>   10.5129    0.0000 </r>
       <r>   10.5135    0.0000 </r>
       <r>   10.5137    0.0000 </r>
       <r>   10.8436    0.0000 </r>
       <r>   10.8442    0.0000 </r>
       <r>   10.9213    0.0000 </r>
       <r>   10.9228    0.0000 </r>
      </set>
      <set comment="kpoint 2">
       <r>  -30.7481    1.0000 </r>
       <r>  -30.7480    1.0000 </r>
       <r>  -30.7355    1.0000 </r>
       <r>  -30.7353    1.0000 </r>
       <r>  -24.0842    1.0000 </r>
       <r>  -24.0841    1.0000 </r>
       <r>  -24.0740    1.0000 </r>
       <r>  -24.0736    1.0000 </r>
       <r>  -24.0727    1.0000 </r>
       <r>  -24.0725    1.0000 </r>
       <r>  -20.4492    1.0000 </r>
       <r>  -20.4484    1.0000 </r>
       <r>   -7.3064    1.0000 </r>
       <r>   -7.3054    1.0000 </r>
       <r>    1.9223    1.0000 </r>
       <r>    1.9235    1.0000 </r>
       <r>    3.4108    1.0000 </r>
       <r>    3.4127    1.0000 </r>
       <r>    5.1576    0.0000 </r>
       <r>    5.1582    0.0000 </r>
       <r>    9.4862    0.0000 </r>
       <r>    9.4865    0.0000 </r>
       <r>   10.6805    0.0000 </r>
       <r>   10.6807    0.0000 </r>
       <r>   10.9990    0.0000 </r>
       <r>   10.9994    0.0000 </r>
       <r>   11.8379    0.0000 </r>
       <r>   11.8389    0.0000 </r>
      </set>
      <set comment="kpoint 3">
       <r>  -30.7286    1.0000 </r>
       <r>  -30.7284    1.0000 </r>
       <r>  -30.7203    1.0000 </r>
       <r>  -30.7202    1.0000 </r>
       <r>  -24.0680    1.0000 </r>
       <r>  -24.0676    1.0000 </r>
       <r>  -24.0624    1.0000 </r>
       <r>  -24.0619    1.0000 </r>
       <r>  -24.0615    1.0000 </r>
       <r>  -24.0611    1.0000 </r>
       <r>  -20.4012    1.0000 </r>
       <r>  -20.4005    1.0000 </r>
       <r>   -7.4695    1.0000 </r>
       <r>   -7.4685    1.0000 </r>
       <r>    0.8710    1.0000 </r>
       <r>    0.8724    1.0000 </r>
       <r>    3.1501    1.0000 </r>
       <r>    3.1519    1.0000 </r>
       <r>    5.8951    0.0000 </r>
       <r>    5.8957    0.0000 </r>
       <r>    9.9897    0.0000 </r>
       <r>    9.9900    0.0000 </r>
       <r>   10.2550    0.0000 </r>
       <r>   10.2553    0.0000 </r>
       <r>   10.6701    0.0000 </r>
       <r>   10.6717    0.0000 </r>
       <r>   10.9783    0.0000 </r>
       <r>   10.9791    0.0000 </r>
      </set>
      <set comment="kpoint 4">
       <r>  -30.7480    1.0000 </r>
       <r>  -30.7479    1.0000 </r>
       <r>  -30.7463    1.0000 </r>
       <r>  -30.7462    1.0000 </r>
       <r>  -24.0818    1.0000 </r>
       <r>  -24.0812    1.0000 </r>
       <r>  -24.0782    1.0000 </r>
       <r>  -24.0776    1.0000 </r>
       <r>  -24.0754    1.0000 </r>
       <r>  -24.0749    1.0000 </r>
       <r>  -20.3770    1.0000 </r>
       <r>  -20.3763    1.0000 </r>
       <r>   -7.5513    1.0000 </r>
       <r>   -7.5504    1.0000 </r>
       <r>    0.5066    1.0000 </r>
       <r>    0.5080    1.0000 </r>
       <r>    3.0310    1.0000 </r>
       <r>    3.0328    1.0000 </r>
       <r>    5.9210    0.0000 </r>
       <r>    5.9217    0.0000 </r>
       <r>    9.9732    0.0000 </r>
       <r>    9.9735    0.0000 </r>
       <r>   10.1956    0.0000 </r>
       <r>   10.1963    0.0000 </r>
       <r>   10.3611    0.0000 </r>
       <r>   10.3629    0.0000 </r>
       <r>   11.6602    0.0000 </r>
       <r>   11.6606    0.0000 </r>
      </set>
      <set comment="kpoint 5">
       <r>  -30.7286    1.0000 </r>
       <r>  -30.7284    1.0000 </r>
       <r>  -30.7203    1.0000 </r>
       <r>  -30.7202    1.0000 </r>
       <r>  -24.0680    1.0000 </r>
       <r>  -24.0676    1.0000 </r>
       <r>  -24.0624    1.0000 </r>
       <r>  -24.0619    1.0000 </r>
       <r>  -24.0615    1.0000 </r>
       <r>  -24.0611    1.0000 </r>
       <r>  -20.4012    1.0000 </r>
       <r>  -20.4005    1.0000 </r>
       <r>   -7.4695    1.0000 </r>
       <r>   -7.4685    1.0000 </r>
       <r>    0.8710    1.0000 </r>
       <r>    0.8724    1.0000 </r>
       <r>    3.1501    1.0000 </r>
       <r>    3.1519    1.0000 </r>
       <r>    5.8951    0.0000 </r>
       <r>    5.8957    0.0000 </r>
       <r>    9.9897    0.0000 </r>
       <r>    9.9900    0.0000 </r>
       <r>   10.2550    0.0000 </r>
       <r>   10.2553    0.0000 </r>
       <r>   10.6701    0.0000 </r>
       <r>   10.6717    0.0000 </r>
       <r>   10.9783    0.0000 </r>
       <r>   10.9791    0.0000 </r>
      </set>
      <set comment="kpoint 6">
       <r>  -30.7481    1.0000 </r>
       <r>  -30.7480    1.0000 </r>
       <r>  -30.7355    1.0000 </r>
       <r>  -30.7353    1.0000 </r>
       <r>  -24.0842    1.0000 </r>
       <r>  -24.0841    1.0000 </r>
       <r>  -24.0740    1.0000 </r>
       <r>  -24.0736    1.0000 </r>
       <r>  -24.0727    1.0000 </r>
       <r>  -24.0725    1.0000 </r>
       <r>  -20.4492    1.0000 </r>
       <r>  -20.4484    1.0000 </r>
       <r>   -7.3064    1.0000 </r>
       <r>   -7.3054    1.0000 </r>
       <r>    1.9223    1.0000 </r>
       <r>    1.9235    1.0000 </r>
       <r>    3.4108    1.0000 </r>
       <r>    3.4127    1.0000 </r>
       <r>    5.1576    0.0000 </r>
       <r>    5.1582    0.0000 </r>
       <r>    9.4862    0.0000 </r>
       <r>    9.4865    0.0000 </r>
       <r>   10.6805    0.0000 </r>
       <r>   10.6807    0.0000 </r>
       <r>   10.9990    0.0000 </r>
       <r>   10.9994    0.0000 </r>
       <r>   11.8379    0.0000 </r>
       <r>   11.8388    0.0000 </r>
      </set>
      <set comment="kpoint 7">
       <r>  -30.7480    1.0000 </r>
       <r>  -30.7480    1.0000 </r>
       <r>  -30.7355    1.0000 </r>
       <r>  -30.7354    1.0000 </r>
       <r>  -24.0842    1.0000 </r>
       <r>  -24.0841    1.0000 </r>
       <r>  -24.0739    1.0000 </r>
       <r>  -24.0737    1.0000 </r>
       <r>  -24.0726    1.0000 </r>
       <r>  -24.0725    1.0000 </r>
       <r>  -20.4492    1.0000 </r>
       <r>  -20.4484    1.0000 </r>
       <r>   -7.3064    1.0000 </r>
       <r>   -7.3054    1.0000 </r>
       <r>    1.9225    1.0000 </r>
       <r>    1.9233    1.0000 </r>
       <r>    3.4111    1.0000 </r>
       <r>    3.4124    1.0000 </r>
       <r>    5.1577    0.0000 </r>
       <r>    5.1581    0.0000 </r>
       <r>    9.4862    0.0000 </r>
       <r>    9.4865    0.0000 </r>
       <r>   10.6806    0.0000 </r>
       <r>   10.6806    0.0000 </r>
       <r>   10.9989    0.0000 </r>
       <r>   10.9995    0.0000 </r>
       <r>   11.8378    0.0000 </r>
       <r>   11.8389    0.0000 </r>
      </set>
      <set comment="kpoint 8">
       <r>  -30.7307    1.0000 </r>
       <r>  -30.7305    1.0000 </r>
       <r>  -30.7179    1.0000 </r>
       <r>  -30.7176    1.0000 </r>
       <r>  -24.0726    1.0000 </r>
       <r>  -24.0720    1.0000 </r>
       <r>  -24.0624    1.0000 </r>
       <r>  -24.0618    1.0000 </r>
       <r>  -24.0607    1.0000 </r>
       <r>  -24.0600    1.0000 </r>
       <r>  -20.4412    1.0000 </r>
       <r>  -20.4404    1.0000 </r>
       <r>   -7.3315    1.0000 </r>
       <r>   -7.3305    1.0000 </r>
       <r>    1.8140    1.0000 </r>
       <r>    1.8170    1.0000 </r>
       <r>    3.0800    1.0000 </r>
       <r>    3.0844    1.0000 </r>
       <r>    5.6571    0.0000 </r>
       <r>    5.6584    0.0000 </r>
       <r>    8.9238    0.0000 </r>
       <r>    8.9245    0.0000 </r>
       <r>   10.2796    0.0000 </r>
       <r>   10.2807    0.0000 </r>
       <r>   11.0027    0.0000 </r>
       <r>   11.0040    0.0000 </r>
       <r>   11.6652    0.0000 </r>
       <r>   11.6666    0.0000 </r>
      </set>
      <set comment="kpoint 9">
       <r>  -30.7484    1.0000 </r>
       <r>  -30.7482    1.0000 </r>
       <r>  -30.7386    1.0000 </r>
       <r>  -30.7385    1.0000 </r>
       <r>  -24.0804    1.0000 </r>
       <r>  -24.0801    1.0000 </r>
       <r>  -24.0768    1.0000 </r>
       <r>  -24.0764    1.0000 </r>
       <r>  -24.0728    1.0000 </r>
       <r>  -24.0724    1.0000 </r>
       <r>  -20.4016    1.0000 </r>
       <r>  -20.4009    1.0000 </r>
       <r>   -7.4626    1.0000 </r>
       <r>   -7.4617    1.0000 </r>
       <r>    1.0414    1.0000 </r>
       <r>    1.0433    1.0000 </r>
       <r>    2.6889    1.0000 </r>
       <r>    2.6916    1.0000 </r>
       <r>    6.5602    0.0000 </r>
       <r>    6.5610    0.0000 </r>
       <r>    8.8068    0.0000 </r>
       <r>    8.8075    0.0000 </r>
       <r>    9.3287    0.0000 </r>
       <r>    9.3301    0.0000 </r>
       <r>   11.2544    0.0000 </r>
       <r>   11.2552    0.0000 </r>
       <r>   12.4889    0.0000 </r>
       <r>   12.4893    0.0000 </r>
      </set>
      <set comment="kpoint 10">
       <r>  -30.7495    1.0000 </r>
       <r>  -30.7494    1.0000 </r>
       <r>  -30.7413    1.0000 </r>
       <r>  -30.7412    1.0000 </r>
       <r>  -24.0786    1.0000 </r>
       <r>  -24.0785    1.0000 </r>
       <r>  -24.0777    1.0000 </r>
       <r>  -24.0774    1.0000 </r>
       <r>  -24.0745    1.0000 </r>
       <r>  -24.0741    1.0000 </r>
       <r>  -20.3693    1.0000 </r>
       <r>  -20.3685    1.0000 </r>
       <r>   -7.5674    1.0000 </r>
       <r>   -7.5664    1.0000 </r>
       <r>    0.5778    1.0000 </r>
       <r>    0.5792    1.0000 </r>
       <r>    2.3902    1.0000 </r>
       <r>    2.3920    1.0000 </r>
       <r>    6.8065    0.0000 </r>
       <r>    6.8073    0.0000 </r>
       <r>    8.6158    0.0000 </r>
       <r>    8.6167    0.0000 </r>
       <r>   10.3848    0.0000 </r>
       <r>   10.3854    0.0000 </r>
       <r>   11.0047    0.0000 </r>
       <r>   11.0056    0.0000 </r>
       <r>   12.6063    0.0000 </r>
       <r>   12.6070    0.0000 </r>
      </set>
      <set comment="kpoint 11">
       <r>  -30.7388    1.0000 </r>
       <r>  -30.7386    1.0000 </r>
       <r>  -30.7290    1.0000 </r>
       <r>  -30.7288    1.0000 </r>
       <r>  -24.0744    1.0000 </r>
       <r>  -24.0740    1.0000 </r>
       <r>  -24.0691    1.0000 </r>
       <r>  -24.0687    1.0000 </r>
       <r>  -24.0652    1.0000 </r>
       <r>  -24.0648    1.0000 </r>
       <r>  -20.3773    1.0000 </r>
       <r>  -20.3765    1.0000 </r>
       <r>   -7.5419    1.0000 </r>
       <r>   -7.5410    1.0000 </r>
       <r>    0.6673    1.0000 </r>
       <r>    0.6691    1.0000 </r>
       <r>    2.4577    1.0000 </r>
       <r>    2.4600    1.0000 </r>
       <r>    6.8877    0.0000 </r>
       <r>    6.8883    0.0000 </r>
       <r>    8.7528    0.0000 </r>
       <r>    8.7535    0.0000 </r>
       <r>   10.1989    0.0000 </r>
       <r>   10.1993    0.0000 </r>
       <r>   10.8539    0.0000 </r>
       <r>   10.8547    0.0000 </r>
       <r>   12.6491    0.0000 </r>
       <r>   12.6499    0.0000 </r>
      </set>
      <set comment="kpoint 12">
       <r>  -30.7432    1.0000 </r>
       <r>  -30.7430    1.0000 </r>
       <r>  -30.7338    1.0000 </r>
       <r>  -30.7336    1.0000 </r>
       <r>  -24.0789    1.0000 </r>
       <r>  -24.0784    1.0000 </r>
       <r>  -24.0719    1.0000 </r>
       <r>  -24.0713    1.0000 </r>
       <r>  -24.0709    1.0000 </r>
       <r>  -24.0703    1.0000 </r>
       <r>  -20.4175    1.0000 </r>
       <r>  -20.4168    1.0000 </r>
       <r>   -7.4121    1.0000 </r>
       <r>   -7.4112    1.0000 </r>
       <r>    1.2498    1.0000 </r>
       <r>    1.2520    1.0000 </r>
       <r>    2.9213    1.0000 </r>
       <r>    2.9244    1.0000 </r>
       <r>    6.2674    0.0000 </r>
       <r>    6.2681    0.0000 </r>
       <r>    9.1275    0.0000 </r>
       <r>    9.1278    0.0000 </r>
       <r>    9.8774    0.0000 </r>
       <r>    9.8783    0.0000 </r>
       <r>   11.0675    0.0000 </r>
       <r>   11.0687    0.0000 </r>
       <r>   11.3420    0.0000 </r>
       <r>   11.3431    0.0000 </r>
      </set>
      <set comment="kpoint 13">
       <r>  -30.7286    1.0000 </r>
       <r>  -30.7285    1.0000 </r>
       <r>  -30.7202    1.0000 </r>
       <r>  -30.7202    1.0000 </r>
       <r>  -24.0680    1.0000 </r>
       <r>  -24.0676    1.0000 </r>
       <r>  -24.0624    1.0000 </r>
       <r>  -24.0619    1.0000 </r>
       <r>  -24.0614    1.0000 </r>
       <r>  -24.0612    1.0000 </r>
       <r>  -20.4012    1.0000 </r>
       <r>  -20.4005    1.0000 </r>
       <r>   -7.4695    1.0000 </r>
       <r>   -7.4685    1.0000 </r>
       <r>    0.8713    1.0000 </r>
       <r>    0.8722    1.0000 </r>
       <r>    3.1504    1.0000 </r>
       <r>    3.1516    1.0000 </r>
       <r>    5.8950    0.0000 </r>
       <r>    5.8957    0.0000 </r>
       <r>    9.9898    0.0000 </r>
       <r>    9.9899    0.0000 </r>
       <r>   10.2551    0.0000 </r>
       <r>   10.2552    0.0000 </r>
       <r>   10.6701    0.0000 </r>
       <r>   10.6718    0.0000 </r>
       <r>   10.9783    0.0000 </r>
       <r>   10.9791    0.0000 </r>
      </set>
      <set comment="kpoint 14">
       <r>  -30.7484    1.0000 </r>
       <r>  -30.7482    1.0000 </r>
       <r>  -30.7386    1.0000 </r>
       <r>  -30.7385    1.0000 </r>
       <r>  -24.0804    1.0000 </r>
       <r>  -24.0801    1.0000 </r>
       <r>  -24.0768    1.0000 </r>
       <r>  -24.0764    1.0000 </r>
       <r>  -24.0727    1.0000 </r>
       <r>  -24.0724    1.0000 </r>
       <r>  -20.4016    1.0000 </r>
       <r>  -20.4009    1.0000 </r>
       <r>   -7.4626    1.0000 </r>
       <r>   -7.4617    1.0000 </r>
       <r>    1.0414    1.0000 </r>
       <r>    1.0433    1.0000 </r>
       <r>    2.6889    1.0000 </r>
       <r>    2.6916    1.0000 </r>
       <r>    6.5602    0.0000 </r>
       <r>    6.5610    0.0000 </r>
       <r>    8.8069    0.0000 </r>
       <r>    8.8074    0.0000 </r>
       <r>    9.3287    0.0000 </r>
       <r>    9.3301    0.0000 </r>
       <r>   11.2544    0.0000 </r>
       <r>   11.2553    0.0000 </r>
       <r>   12.4890    0.0000 </r>
       <r>   12.4892    0.0000 </r>
      </set>
      <set comment="kpoint 15">
       <r>  -30.7487    1.0000 </r>
       <r>  -30.7485    1.0000 </r>
       <r>  -30.7484    1.0000 </r>
       <r>  -30.7482    1.0000 </r>
       <r>  -24.0820    1.0000 </r>
       <r>  -24.0814    1.0000 </r>
       <r>  -24.0784    1.0000 </r>
       <r>  -24.0780    1.0000 </r>
       <r>  -24.0777    1.0000 </r>
       <r>  -24.0773    1.0000 </r>
       <r>  -20.3778    1.0000 </r>
       <r>  -20.3771    1.0000 </r>
       <r>   -7.5337    1.0000 </r>
       <r>   -7.5327    1.0000 </r>
       <r>    0.8443    1.0000 </r>
       <r>    0.8477    1.0000 </r>
       <r>    2.3292    1.0000 </r>
       <r>    2.3334    1.0000 </r>
       <r>    6.5485    0.0000 </r>
       <r>    6.5491    0.0000 </r>
       <r>    7.8348    0.0000 </r>
       <r>    7.8356    0.0000 </r>
       <r>    9.5786    0.0000 </r>
       <r>    9.5801    0.0000 </r>
       <r>   12.3059    0.0000 </r>
       <r>   12.3077    0.0000 </r>
       <r>   13.3902    0.0000 </r>
       <r>   13.3911    0.0000 </r>
      </set>
      <set comment="kpoint 16">
       <r>  -30.7447    1.0000 </r>
       <r>  -30.7445    1.0000 </r>
       <r>  -30.7399    1.0000 </r>
       <r>  -30.7397    1.0000 </r>
       <r>  -24.0767    1.0000 </r>
       <r>  -24.0763    1.0000 </r>
       <r>  -24.0744    1.0000 </r>
       <r>  -24.0739    1.0000 </r>
       <r>  -24.0722    1.0000 </r>
       <r>  -24.0719    1.0000 </r>
       <r>  -20.3536    1.0000 </r>
       <r>  -20.3528    1.0000 </r>
       <r>   -7.6067    1.0000 </r>
       <r>   -7.6058    1.0000 </r>
       <r>    0.6332    1.0000 </r>
       <r>    0.6362    1.0000 </r>
       <r>    1.9044    1.0000 </r>
       <r>    1.9078    1.0000 </r>
       <r>    6.6458    0.0000 </r>
       <r>    6.6465    0.0000 </r>
       <r>    8.0748    0.0000 </r>
       <r>    8.0755    0.0000 </r>
       <r>    9.9413    0.0000 </r>
       <r>    9.9423    0.0000 </r>
       <r>   12.3191    0.0000 </r>
       <r>   12.3200    0.0000 </r>
       <r>   13.5399    0.0000 </r>
       <r>   13.5400    0.0000 </r>
      </set>
      <set comment="kpoint 17">
       <r>  -30.7532    1.0000 </r>
       <r>  -30.7530    1.0000 </r>
       <r>  -30.7472    1.0000 </r>
       <r>  -30.7470    1.0000 </r>
       <r>  -24.0826    1.0000 </r>
       <r>  -24.0819    1.0000 </r>
       <r>  -24.0800    1.0000 </r>
       <r>  -24.0793    1.0000 </r>
       <r>  -24.0769    1.0000 </r>
       <r>  -24.0764    1.0000 </r>
       <r>  -20.3534    1.0000 </r>
       <r>  -20.3527    1.0000 </r>
       <r>   -7.6082    1.0000 </r>
       <r>   -7.6073    1.0000 </r>
       <r>    0.6150    1.0000 </r>
       <r>    0.6170    1.0000 </r>
       <r>    1.7747    1.0000 </r>
       <r>    1.7769    1.0000 </r>
       <r>    7.2023    0.0000 </r>
       <r>    7.2033    0.0000 </r>
       <r>    8.4906    0.0000 </r>
       <r>    8.4909    0.0000 </r>
       <r>   10.9324    0.0000 </r>
       <r>   10.9331    0.0000 </r>
       <r>   11.1545    0.0000 </r>
       <r>   11.1552    0.0000 </r>
       <r>   12.0981    0.0000 </r>
       <r>   12.0997    0.0000 </r>
      </set>
      <set comment="kpoint 18">
       <r>  -30.7388    1.0000 </r>
       <r>  -30.7386    1.0000 </r>
       <r>  -30.7289    1.0000 </r>
       <r>  -30.7289    1.0000 </r>
       <r>  -24.0744    1.0000 </r>
       <r>  -24.0740    1.0000 </r>
       <r>  -24.0691    1.0000 </r>
       <r>  -24.0687    1.0000 </r>
       <r>  -24.0652    1.0000 </r>
       <r>  -24.0648    1.0000 </r>
       <r>  -20.3773    1.0000 </r>
       <r>  -20.3765    1.0000 </r>
       <r>   -7.5419    1.0000 </r>
       <r>   -7.5410    1.0000 </r>
       <r>    0.6675    1.0000 </r>
       <r>    0.6690    1.0000 </r>
       <r>    2.4579    1.0000 </r>
       <r>    2.4598    1.0000 </r>
       <r>    6.8877    0.0000 </r>
       <r>    6.8883    0.0000 </r>
       <r>    8.7527    0.0000 </r>
       <r>    8.7535    0.0000 </r>
       <r>   10.1990    0.0000 </r>
       <r>   10.1993    0.0000 </r>
       <r>   10.8538    0.0000 </r>
       <r>   10.8548    0.0000 </r>
       <r>   12.6491    0.0000 </r>
       <r>   12.6499    0.0000 </r>
      </set>
      <set comment="kpoint 19">
       <r>  -30.7480    1.0000 </r>
       <r>  -30.7479    1.0000 </r>
       <r>  -30.7463    1.0000 </r>
       <r>  -30.7463    1.0000 </r>
       <r>  -24.0818    1.0000 </r>
       <r>  -24.0812    1.0000 </r>
       <r>  -24.0782    1.0000 </r>
       <r>  -24.0776    1.0000 </r>
       <r>  -24.0753    1.0000 </r>
       <r>  -24.0750    1.0000 </r>
       <r>  -20.3770    1.0000 </r>
       <r>  -20.3763    1.0000 </r>
       <r>   -7.5513    1.0000 </r>
       <r>   -7.5504    1.0000 </r>
       <r>    0.5068    1.0000 </r>
       <r>    0.5078    1.0000 </r>
       <r>    3.0313    1.0000 </r>
       <r>    3.0325    1.0000 </r>
       <r>    5.9210    0.0000 </r>
       <r>    5.9217    0.0000 </r>
       <r>    9.9733    0.0000 </r>
       <r>    9.9735    0.0000 </r>
       <r>   10.1956    0.0000 </r>
       <r>   10.1963    0.0000 </r>
       <r>   10.3611    0.0000 </r>
       <r>   10.3630    0.0000 </r>
       <r>   11.6602    0.0000 </r>
       <r>   11.6606    0.0000 </r>
      </set>
      <set comment="kpoint 20">
       <r>  -30.7495    1.0000 </r>
       <r>  -30.7494    1.0000 </r>
       <r>  -30.7412    1.0000 </r>
       <r>  -30.7412    1.0000 </r>
       <r>  -24.0786    1.0000 </r>
       <r>  -24.0784    1.0000 </r>
       <r>  -24.0777    1.0000 </r>
       <r>  -24.0774    1.0000 </r>
       <r>  -24.0745    1.0000 </r>
       <r>  -24.0741    1.0000 </r>
       <r>  -20.3693    1.0000 </r>
       <r>  -20.3685    1.0000 </r>
       <r>   -7.5674    1.0000 </r>
       <r>   -7.5664    1.0000 </r>
       <r>    0.5780    1.0000 </r>
       <r>    0.5790    1.0000 </r>
       <r>    2.3904    1.0000 </r>
       <r>    2.3918    1.0000 </r>
       <r>    6.8065    0.0000 </r>
       <r>    6.8073    0.0000 </r>
       <r>    8.6158    0.0000 </r>
       <r>    8.6167    0.0000 </r>
       <r>   10.3848    0.0000 </r>
       <r>   10.3853    0.0000 </r>
       <r>   11.0046    0.0000 </r>
       <r>   11.0057    0.0000 </r>
       <r>   12.6063    0.0000 </r>
       <r>   12.6070    0.0000 </r>
      </set>
      <set comment="kpoint 21">
       <r>  -30.7447    1.0000 </r>
       <r>  -30.7445    1.0000 </r>
       <r>  -30.7399    1.0000 </r>
       <r>  -30.7397    1.0000 </r>
       <r>  -24.0766    1.0000 </r>
       <r>  -24.0763    1.0000 </r>
       <r>  -24.0744    1.0000 </r>
       <r>  -24.0739    1.0000 </r>
       <r>  -24.0723    1.0000 </r>
       <r>  -24.0718    1.0000 </r>
       <r>  -20.3536    1.0000 </r>
       <r>  -20.3528    1.0000 </r>
       <r>   -7.6067    1.0000 </r>
       <r>   -7.6058    1.0000 </r>
       <r>    0.6332    1.0000 </r>
       <r>    0.6362    1.0000 </r>
       <r>    1.9044    1.0000 </r>
       <r>    1.9078    1.0000 </r>
       <r>    6.6458    0.0000 </r>
       <r>    6.6465    0.0000 </r>
       <r>    8.0748    0.0000 </r>
       <r>    8.0755    0.0000 </r>
       <r>    9.9413    0.0000 </r>
       <r>    9.9423    0.0000 </r>
       <r>   12.3192    0.0000 </r>
       <r>   12.3199    0.0000 </r>
       <r>   13.5399    0.0000 </r>
       <r>   13.5400    0.0000 </r>
      </set>
      <set comment="kpoint 22">
       <r>  -30.7598    1.0000 </r>
       <r>  -30.7596    1.0000 </r>
       <r>  -30.7502    1.0000 </r>
       <r>  -30.7500    1.0000 </r>
       <r>  -24.0849    1.0000 </r>
       <r>  -24.0844    1.0000 </r>
       <r>  -24.0840    1.0000 </r>
       <r>  -24.0835    1.0000 </r>
       <r>  -24.0791    1.0000 </r>
       <r>  -24.0786    1.0000 </r>
       <r>  -20.3458    1.0000 </r>
       <r>  -20.3451    1.0000 </r>
       <r>   -7.6299    1.0000 </r>
       <r>   -7.6290    1.0000 </r>
       <r>    0.5436    1.0000 </r>
       <r>    0.5472    1.0000 </r>
       <r>    2.0161    1.0000 </r>
       <r>    2.0201    1.0000 </r>
       <r>    6.0820    0.0000 </r>
       <r>    6.0824    0.0000 </r>
       <r>    7.4712    0.0000 </r>
       <r>    7.4720    0.0000 </r>
       <r>   10.4506    0.0000 </r>
       <r>   10.4516    0.0000 </r>
       <r>   14.5722    0.0000 </r>
       <r>   14.5732    0.0000 </r>
       <r>   14.5746    0.0000 </r>
       <r>   14.5860    0.0000 </r>
      </set>
      <set comment="kpoint 23">
       <r>  -30.7447    1.0000 </r>
       <r>  -30.7445    1.0000 </r>
       <r>  -30.7399    1.0000 </r>
       <r>  -30.7397    1.0000 </r>
       <r>  -24.0766    1.0000 </r>
       <r>  -24.0763    1.0000 </r>
       <r>  -24.0744    1.0000 </r>
       <r>  -24.0739    1.0000 </r>
       <r>  -24.0723    1.0000 </r>
       <r>  -24.0718    1.0000 </r>
       <r>  -20.3536    1.0000 </r>
       <r>  -20.3528    1.0000 </r>
       <r>   -7.6067    1.0000 </r>
       <r>   -7.6058    1.0000 </r>
       <r>    0.6332    1.0000 </r>
       <r>    0.6362    1.0000 </r>
       <r>    1.9044    1.0000 </r>
       <r>    1.9078    1.0000 </r>
       <r>    6.6458    0.0000 </r>
       <r>    6.6465    0.0000 </r>
       <r>    8.0748    0.0000 </r>
       <r>    8.0755    0.0000 </r>
       <r>    9.9412    0.0000 </r>
       <r>    9.9423    0.0000 </r>
       <r>   12.3192    0.0000 </r>
       <r>   12.3199    0.0000 </r>
       <r>   13.5399    0.0000 </r>
       <r>   13.5400    0.0000 </r>
      </set>
      <set comment="kpoint 24">
       <r>  -30.7495    1.0000 </r>
       <r>  -30.7494    1.0000 </r>
       <r>  -30.7412    1.0000 </r>
       <r>  -30.7412    1.0000 </r>
       <r>  -24.0786    1.0000 </r>
       <r>  -24.0784    1.0000 </r>
       <r>  -24.0777    1.0000 </r>
       <r>  -24.0774    1.0000 </r>
       <r>  -24.0745    1.0000 </r>
       <r>  -24.0741    1.0000 </r>
       <r>  -20.3693    1.0000 </r>
       <r>  -20.3685    1.0000 </r>
       <r>   -7.5674    1.0000 </r>
       <r>   -7.5664    1.0000 </r>
       <r>    0.5780    1.0000 </r>
       <r>    0.5790    1.0000 </r>
       <r>    2.3904    1.0000 </r>
       <r>    2.3918    1.0000 </r>
       <r>    6.8065    0.0000 </r>
       <r>    6.8073    0.0000 </r>
       <r>    8.6158    0.0000 </r>
       <r>    8.6167    0.0000 </r>
       <r>   10.3848    0.0000 </r>
       <r>   10.3853    0.0000 </r>
       <r>   11.0046    0.0000 </r>
       <r>   11.0057    0.0000 </r>
       <r>   12.6063    0.0000 </r>
       <r>   12.6070    0.0000 </r>
      </set>
      <set comment="kpoint 25">
       <r>  -30.7286    1.0000 </r>
       <r>  -30.7285    1.0000 </r>
       <r>  -30.7202    1.0000 </r>
       <r>  -30.7202    1.0000 </r>
       <r>  -24.0680    1.0000 </r>
       <r>  -24.0676    1.0000 </r>
       <r>  -24.0624    1.0000 </r>
       <r>  -24.0619    1.0000 </r>
       <r>  -24.0614    1.0000 </r>
       <r>  -24.0612    1.0000 </r>
       <r>  -20.4012    1.0000 </r>
       <r>  -20.4005    1.0000 </r>
       <r>   -7.4695    1.0000 </r>
       <r>   -7.4685    1.0000 </r>
       <r>    0.8713    1.0000 </r>
       <r>    0.8722    1.0000 </r>
       <r>    3.1504    1.0000 </r>
       <r>    3.1516    1.0000 </r>
       <r>    5.8950    0.0000 </r>
       <r>    5.8957    0.0000 </r>
       <r>    9.9898    0.0000 </r>
       <r>    9.9899    0.0000 </r>
       <r>   10.2551    0.0000 </r>
       <r>   10.2552    0.0000 </r>
       <r>   10.6701    0.0000 </r>
       <r>   10.6718    0.0000 </r>
       <r>   10.9783    0.0000 </r>
       <r>   10.9791    0.0000 </r>
      </set>
      <set comment="kpoint 26">
       <r>  -30.7388    1.0000 </r>
       <r>  -30.7386    1.0000 </r>
       <r>  -30.7289    1.0000 </r>
       <r>  -30.7289    1.0000 </r>
       <r>  -24.0744    1.0000 </r>
       <r>  -24.0740    1.0000 </r>
       <r>  -24.0691    1.0000 </r>
       <r>  -24.0687    1.0000 </r>
       <r>  -24.0652    1.0000 </r>
       <r>  -24.0648    1.0000 </r>
       <r>  -20.3773    1.0000 </r>
       <r>  -20.3765    1.0000 </r>
       <r>   -7.5419    1.0000 </r>
       <r>   -7.5410    1.0000 </r>
       <r>    0.6675    1.0000 </r>
       <r>    0.6690    1.0000 </r>
       <r>    2.4579    1.0000 </r>
       <r>    2.4598    1.0000 </r>
       <r>    6.8876    0.0000 </r>
       <r>    6.8883    0.0000 </r>
       <r>    8.7527    0.0000 </r>
       <r>    8.7535    0.0000 </r>
       <r>   10.1990    0.0000 </r>
       <r>   10.1993    0.0000 </r>
       <r>   10.8538    0.0000 </r>
       <r>   10.8548    0.0000 </r>
       <r>   12.6491    0.0000 </r>
       <r>   12.6499    0.0000 </r>
      </set>
      <set comment="kpoint 27">
       <r>  -30.7532    1.0000 </r>
       <r>  -30.7530    1.0000 </r>
       <r>  -30.7472    1.0000 </r>
       <r>  -30.7470    1.0000 </r>
       <r>  -24.0826    1.0000 </r>
       <r>  -24.0819    1.0000 </r>
       <r>  -24.0800    1.0000 </r>
       <r>  -24.0793    1.0000 </r>
       <r>  -24.0769    1.0000 </r>
       <r>  -24.0764    1.0000 </r>
       <r>  -20.3534    1.0000 </r>
       <r>  -20.3527    1.0000 </r>
       <r>   -7.6082    1.0000 </r>
       <r>   -7.6073    1.0000 </r>
       <r>    0.6150    1.0000 </r>
       <r>    0.6170    1.0000 </r>
       <r>    1.7747    1.0000 </r>
       <r>    1.7769    1.0000 </r>
       <r>    7.2023    0.0000 </r>
       <r>    7.2033    0.0000 </r>
       <r>    8.4905    0.0000 </r>
       <r>    8.4909    0.0000 </r>
       <r>   10.9324    0.0000 </r>
       <r>   10.9331    0.0000 </r>
       <r>   11.1545    0.0000 </r>
       <r>   11.1552    0.0000 </r>
       <r>   12.0981    0.0000 </r>
       <r>   12.0997    0.0000 </r>
      </set>
      <set comment="kpoint 28">
       <r>  -30.7447    1.0000 </r>
       <r>  -30.7445    1.0000 </r>
       <r>  -30.7399    1.0000 </r>
       <r>  -30.7397    1.0000 </r>
       <r>  -24.0767    1.0000 </r>
       <r>  -24.0763    1.0000 </r>
       <r>  -24.0744    1.0000 </r>
       <r>  -24.0739    1.0000 </r>
       <r>  -24.0722    1.0000 </r>
       <r>  -24.0719    1.0000 </r>
       <r>  -20.3536    1.0000 </r>
       <r>  -20.3528    1.0000 </r>
       <r>   -7.6067    1.0000 </r>
       <r>   -7.6058    1.0000 </r>
       <r>    0.6332    1.0000 </r>
       <r>    0.6362    1.0000 </r>
       <r>    1.9044    1.0000 </r>
       <r>    1.9078    1.0000 </r>
       <r>    6.6458    0.0000 </r>
       <r>    6.6465    0.0000 </r>
       <r>    8.0748    0.0000 </r>
       <r>    8.0755    0.0000 </r>
       <r>    9.9413    0.0000 </r>
       <r>    9.9423    0.0000 </r>
       <r>   12.3191    0.0000 </r>
       <r>   12.3200    0.0000 </r>
       <r>   13.5399    0.0000 </r>
       <r>   13.5400    0.0000 </r>
      </set>
      <set comment="kpoint 29">
       <r>  -30.7487    1.0000 </r>
       <r>  -30.7485    1.0000 </r>
       <r>  -30.7484    1.0000 </r>
       <r>  -30.7482    1.0000 </r>
       <r>  -24.0820    1.0000 </r>
       <r>  -24.0814    1.0000 </r>
       <r>  -24.0784    1.0000 </r>
       <r>  -24.0780    1.0000 </r>
       <r>  -24.0777    1.0000 </r>
       <r>  -24.0773    1.0000 </r>
       <r>  -20.3778    1.0000 </r>
       <r>  -20.3771    1.0000 </r>
       <r>   -7.5337    1.0000 </r>
       <r>   -7.5327    1.0000 </r>
       <r>    0.8443    1.0000 </r>
       <r>    0.8477    1.0000 </r>
       <r>    2.3292    1.0000 </r>
       <r>    2.3334    1.0000 </r>
       <r>    6.5485    0.0000 </r>
       <r>    6.5491    0.0000 </r>
       <r>    7.8348    0.0000 </r>
       <r>    7.8356    0.0000 </r>
       <r>    9.5786    0.0000 </r>
       <r>    9.5801    0.0000 </r>
       <r>   12.3059    0.0000 </r>
       <r>   12.3077    0.0000 </r>
       <r>   13.3902    0.0000 </r>
       <r>   13.3911    0.0000 </r>
      </set>
      <set comment="kpoint 30">
       <r>  -30.7484    1.0000 </r>
       <r>  -30.7482    1.0000 </r>
       <r>  -30.7386    1.0000 </r>
       <r>  -30.7385    1.0000 </r>
       <r>  -24.0804    1.0000 </r>
       <r>  -24.0801    1.0000 </r>
       <r>  -24.0768    1.0000 </r>
       <r>  -24.0764    1.0000 </r>
       <r>  -24.0727    1.0000 </r>
       <r>  -24.0724    1.0000 </r>
       <r>  -20.4016    1.0000 </r>
       <r>  -20.4009    1.0000 </r>
       <r>   -7.4626    1.0000 </r>
       <r>   -7.4617    1.0000 </r>
       <r>    1.0414    1.0000 </r>
       <r>    1.0433    1.0000 </r>
       <r>    2.6889    1.0000 </r>
       <r>    2.6916    1.0000 </r>
       <r>    6.5602    0.0000 </r>
       <r>    6.5610    0.0000 </r>
       <r>    8.8069    0.0000 </r>
       <r>    8.8074    0.0000 </r>
       <r>    9.3287    0.0000 </r>
       <r>    9.3301    0.0000 </r>
       <r>   11.2544    0.0000 </r>
       <r>   11.2553    0.0000 </r>
       <r>   12.4890    0.0000 </r>
       <r>   12.4892    0.0000 </r>
      </set>
      <set comment="kpoint 31">
       <r>  -30.7480    1.0000 </r>
       <r>  -30.7480    1.0000 </r>
       <r>  -30.7355    1.0000 </r>
       <r>  -30.7354    1.0000 </r>
       <r>  -24.0842    1.0000 </r>
       <r>  -24.0841    1.0000 </r>
       <r>  -24.0739    1.0000 </r>
       <r>  -24.0737    1.0000 </r>
       <r>  -24.0726    1.0000 </r>
       <r>  -24.0725    1.0000 </r>
       <r>  -20.4492    1.0000 </r>
       <r>  -20.4484    1.0000 </r>
       <r>   -7.3064    1.0000 </r>
       <r>   -7.3054    1.0000 </r>
       <r>    1.9225    1.0000 </r>
       <r>    1.9233    1.0000 </r>
       <r>    3.4111    1.0000 </r>
       <r>    3.4124    1.0000 </r>
       <r>    5.1577    0.0000 </r>
       <r>    5.1581    0.0000 </r>
       <r>    9.4862    0.0000 </r>
       <r>    9.4865    0.0000 </r>
       <r>   10.6806    0.0000 </r>
       <r>   10.6806    0.0000 </r>
       <r>   10.9989    0.0000 </r>
       <r>   10.9995    0.0000 </r>
       <r>   11.8378    0.0000 </r>
       <r>   11.8389    0.0000 </r>
      </set>
      <set comment="kpoint 32">
       <r>  -30.7432    1.0000 </r>
       <r>  -30.7430    1.0000 </r>
       <r>  -30.7338    1.0000 </r>
       <r>  -30.7336    1.0000 </r>
       <r>  -24.0789    1.0000 </r>
       <r>  -24.0784    1.0000 </r>
       <r>  -24.0719    1.0000 </r>
       <r>  -24.0713    1.0000 </r>
       <r>  -24.0709    1.0000 </r>
       <r>  -24.0703    1.0000 </r>
       <r>  -20.4175    1.0000 </r>
       <r>  -20.4168    1.0000 </r>
       <r>   -7.4121    1.0000 </r>
       <r>   -7.4112    1.0000 </r>
       <r>    1.2499    1.0000 </r>
       <r>    1.2520    1.0000 </r>
       <r>    2.9213    1.0000 </r>
       <r>    2.9244    1.0000 </r>
       <r>    6.2674    0.0000 </r>
       <r>    6.2681    0.0000 </r>
       <r>    9.1275    0.0000 </r>
       <r>    9.1278    0.0000 </r>
       <r>    9.8774    0.0000 </r>
       <r>    9.8783    0.0000 </r>
       <r>   11.0675    0.0000 </r>
       <r>   11.0687    0.0000 </r>
       <r>   11.3420    0.0000 </r>
       <r>   11.3431    0.0000 </r>
      </set>
[...]
       <r>     2.4035     0.0000     0.0000 </r>
       <r>     2.5699     0.0000     0.0000 </r>
       <r>     2.7362     0.0000     0.0000 </r>
       <r>     2.9026     0.0000     0.0000 </r>
       <r>     3.0689     0.0000     0.0000 </r>
       <r>     3.2353     0.0000     0.0000 </r>
       <r>     3.4016     0.0000     0.0000 </r>
       <r>     3.5680     0.0000     0.0000 </r>
       <r>     3.7343     0.0000     0.0000 </r>
       <r>     3.9007     0.0000     0.0000 </r>
       <r>     4.0670     0.0000     0.0000 </r>
       <r>     4.2333     0.0000     0.0000 </r>
       <r>     4.3997     0.0000     0.0000 </r>
       <r>     4.5660     0.0000     0.0000 </r>
       <r>     4.7324     0.0000     0.0000 </r>
       <r>     4.8987     0.0000     0.0000 </r>
       <r>     5.0651     0.0000     0.0000 </r>
       <r>     5.2314     0.0000     0.0000 </r>
       <r>     5.3978     0.0000     0.0000 </r>
       <r>     5.5641     0.0000     0.0000 </r>
       <r>     5.7305     0.0000     0.0000 </r>
       <r>     5.8968     0.0000     0.0000 </r>
       <r>     6.0632     0.0000     0.0000 </r>
       <r>     6.2295     0.0000     0.0000 </r>
       <r>     6.3958     0.0000     0.0000 </r>
       <r>     6.5622     0.0000     0.0000 </r>
       <r>     6.7285     0.0000     0.0000 </r>
       <r>     6.8949     0.0000     0.0000 </r>
       <r>     7.0612     0.0000     0.0000 </r>
       <r>     7.2276     0.0000     0.0000 </r>
       <r>     7.3939     0.0000     0.0000 </r>
       <r>     7.5603     0.0000     0.0000 </r>
       <r>     7.7266     0.0000     0.0000 </r>
       <r>     7.8930     0.0000     0.0000 </r>
       <r>     8.0593     0.0000     0.0000 </r>
       <r>     8.2257     0.0000     0.0000 </r>
       <r>     8.3920     0.0000     0.0000 </r>
       <r>     8.5583     0.0000     0.0000 </r>
       <r>     8.7247     0.0000     0.0000 </r>
       <r>     8.8910     0.0000     0.0000 </r>
       <r>     9.0574     0.0000     0.0000 </r>
       <r>     9.2237     0.0000     0.0000 </r>
       <r>     9.3901     0.0000     0.0000 </r>
       <r>     9.5564     0.0000     0.0000 </r>
       <r>     9.7228     0.0000     0.0000 </r>
       <r>     9.8891     0.0000     0.0000 </r>
       <r>    10.0555     0.0000     0.0000 </r>
       <r>    10.2218     0.0000     0.0000 </r>
       <r>    10.3882     0.0000     0.0000 </r>
       <r>    10.5545     0.0000     0.0000 </r>
       <r>    10.7208     0.0000     0.0000 </r>
       <r>    10.8872     0.0000     0.0000 </r>
       <r>    11.0535     0.0000     0.0000 </r>
       <r>    11.2199     0.0000     0.0000 </r>
       <r>    11.3862     0.0000     0.0000 </r>
       <r>    11.5526     0.0000     0.0000 </r>
       <r>    11.7189     0.0000     0.0000 </r>
       <r>    11.8853     0.0000     0.0000 </r>
       <r>    12.0516     0.0000     0.0000 </r>
       <r>    12.2180     0.0000     0.0000 </r>
       <r>    12.3843     0.0000     0.0000 </r>
       <r>    12.5507     0.0000     0.0000 </r>
       <r>    12.7170     0.0000     0.0000 </r>
       <r>    12.8833     0.0000     0.0000 </r>
       <r>    13.0497     0.0000     0.0000 </r>
       <r>    13.2160     0.0000     0.0000 </r>
       <r>    13.3824     0.0000     0.0000 </r>
       <r>    13.5487     0.0000     0.0000 </r>
       <r>    13.7151     0.0000     0.0000 </r>
       <r>    13.8814     0.0000     0.0000 </r>
       <r>    14.0478     0.0000     0.0000 </r>
       <r>    14.2141     0.0000     0.0000 </r>
       <r>    14.3805     0.0000     0.0000 </r>
       <r>    14.5468     0.0000     0.0000 </r>
       <r>    14.7132     0.0000     0.0000 </r>
       <r>    14.8795     0.0000     0.0000 </r>
       <r>    15.0458     0.0000     0.0000 </r>
       <r>    15.2122     0.0000     0.0000 </r>
       <r>    15.3785     0.0000     0.0000 </r>
       <r>    15.5449     0.0000     0.0000 </r>
       <r>    15.7112     0.0000     0.0000 </r>
       <r>    15.8776     0.0000     0.0000 </r>
       <r>    16.0439     0.0000     0.0000 </r>
       <r>    16.2103     0.0000     0.0000 </r>
       <r>    16.3766     0.0000     0.0000 </r>
       <r>    16.5430     0.0000     0.0000 </r>
       <r>    16.7093     0.0000     0.0000 </r>
       <r>    16.8757     0.0000     0.0000 </r>
      </set>
      <set comment="spin 4">
       <r>   -33.0282     0.0000     0.0000 </r>
       <r>   -32.8618     0.0000     0.0000 </r>
       <r>   -32.6955     0.0000     0.0000 </r>
       <r>   -32.5292     0.0000     0.0000 </r>
       <r>   -32.3628     0.0000     0.0000 </r>
       <r>   -32.1965     0.0000     0.0000 </r>
       <r>   -32.0301     0.0000     0.0000 </r>
       <r>   -31.8638     0.0000     0.0000 </r>
       <r>   -31.6974     0.0000     0.0000 </r>
       <r>   -31.5311     0.0000     0.0000 </r>
       <r>   -31.3647     0.0000     0.0000 </r>
       <r>   -31.1984     0.0000     0.0000 </r>
       <r>   -31.0320     0.0000     0.0000 </r>
       <r>   -30.8657     0.0000     0.0000 </r>
       <r>   -30.6993     0.0000     0.0000 </r>
       <r>   -30.5330     0.0000     0.0000 </r>
       <r>   -30.3667     0.0000     0.0000 </r>
       <r>   -30.2003     0.0000     0.0000 </r>
       <r>   -30.0340     0.0000     0.0000 </r>
       <r>   -29.8676     0.0000     0.0000 </r>
       <r>   -29.7013     0.0000     0.0000 </r>
       <r>   -29.5349     0.0000     0.0000 </r>
       <r>   -29.3686     0.0000     0.0000 </r>
       <r>   -29.2022     0.0000     0.0000 </r>
       <r>   -29.0359     0.0000     0.0000 </r>
       <r>   -28.8695     0.0000     0.0000 </r>
       <r>   -28.7032     0.0000     0.0000 </r>
       <r>   -28.5368     0.0000     0.0000 </r>
       <r>   -28.3705     0.0000     0.0000 </r>
       <r>   -28.2042     0.0000     0.0000 </r>
       <r>   -28.0378     0.0000     0.0000 </r>
       <r>   -27.8715     0.0000     0.0000 </r>
       <r>   -27.7051     0.0000     0.0000 </r>
       <r>   -27.5388     0.0000     0.0000 </r>
       <r>   -27.3724     0.0000     0.0000 </r>
       <r>   -27.2061     0.0000     0.0000 </r>
       <r>   -27.0397     0.0000     0.0000 </r>
       <r>   -26.8734     0.0000     0.0000 </r>
       <r>   -26.7070     0.0000     0.0000 </r>
       <r>   -26.5407     0.0000     0.0000 </r>
       <r>   -26.3743     0.0000     0.0000 </r>
       <r>   -26.2080     0.0000     0.0000 </r>
       <r>   -26.0417     0.0000     0.0000 </r>
       <r>   -25.8753     0.0000     0.0000 </r>
       <r>   -25.7090     0.0000     0.0000 </r>
       <r>   -25.5426     0.0000     0.0000 </r>
       <r>   -25.3763     0.0000     0.0000 </r>
       <r>   -25.2099     0.0000     0.0000 </r>
       <r>   -25.0436     0.0000     0.0000 </r>
       <r>   -24.8772     0.0000     0.0000 </r>
       <r>   -24.7109     0.0000     0.0000 </r>
       <r>   -24.5445     0.0000     0.0000 </r>
       <r>   -24.3782     0.0000     0.0000 </r>
       <r>   -24.2118     0.0000     0.0000 </r>
       <r>   -24.0455     0.0000     0.0000 </r>
       <r>   -23.8792     0.0000     0.0000 </r>
       <r>   -23.7128     0.0000     0.0000 </r>
       <r>   -23.5465     0.0000     0.0000 </r>
       <r>   -23.3801     0.0000     0.0000 </r>
       <r>   -23.2138     0.0000     0.0000 </r>
       <r>   -23.0474     0.0000     0.0000 </r>
       <r>   -22.8811     0.0000     0.0000 </r>
       <r>   -22.7147     0.0000     0.0000 </r>
       <r>   -22.5484     0.0000     0.0000 </r>
       <r>   -22.3820     0.0000     0.0000 </r>
       <r>   -22.2157     0.0000     0.0000 </r>
       <r>   -22.0493     0.0000     0.0000 </r>
       <r>   -21.8830     0.0000     0.0000 </r>
       <r>   -21.7167     0.0000     0.0000 </r>
       <r>   -21.5503     0.0000     0.0000 </r>
       <r>   -21.3840     0.0000     0.0000 </r>
       <r>   -21.2176     0.0000     0.0000 </r>
       <r>   -21.0513     0.0000     0.0000 </r>
       <r>   -20.8849     0.0000     0.0000 </r>
       <r>   -20.7186     0.0000     0.0000 </r>
       <r>   -20.5522     0.0000     0.0000 </r>
       <r>   -20.3859     0.0000     0.0000 </r>
       <r>   -20.2195     0.0000     0.0000 </r>
       <r>   -20.0532     0.0000     0.0000 </r>
       <r>   -19.8868     0.0000     0.0000 </r>
       <r>   -19.7205     0.0000     0.0000 </r>
       <r>   -19.5542     0.0000     0.0000 </r>
       <r>   -19.3878     0.0000     0.0000 </r>
       <r>   -19.2215     0.0000     0.0000 </r>
       <r>   -19.0551     0.0000     0.0000 </r>
       <r>   -18.8888     0.0000     0.0000 </r>
       <r>   -18.7224     0.0000     0.0000 </r>
       <r>   -18.5561     0.0000     0.0000 </r>
       <r>   -18.3897     0.0000     0.0000 </r>
       <r>   -18.2234     0.0000     0.0000 </r>
       <r>   -18.0570     0.0000     0.0000 </r>
       <r>   -17.8907     0.0000     0.0000 </r>
       <r>   -17.7243     0.0000     0.0000 </r>
       <r>   -17.5580     0.0000     0.0000 </r>
       <r>   -17.3917     0.0000     0.0000 </r>
       <r>   -17.2253     0.0000     0.0000 </r>
       <r>   -17.0590     0.0000     0.0000 </r>
       <r>   -16.8926     0.0000     0.0000 </r>
       <r>   -16.7263     0.0000     0.0000 </r>
       <r>   -16.5599     0.0000     0.0000 </r>
       <r>   -16.3936     0.0000     0.0000 </r>
       <r>   -16.2272     0.0000     0.0000 </r>
       <r>   -16.0609     0.0000     0.0000 </r>
       <r>   -15.8945     0.0000     0.0000 </r>
       <r>   -15.7282     0.0000     0.0000 </r>
       <r>   -15.5618     0.0000     0.0000 </r>
       <r>   -15.3955     0.0000     0.0000 </r>
       <r>   -15.2292     0.0000     0.0000 </r>
       <r>   -15.0628     0.0000     0.0000 </r>
       <r>   -14.8965     0.0000     0.0000 </r>
       <r>   -14.7301     0.0000     0.0000 </r>
       <r>   -14.5638     0.0000     0.0000 </r>
       <r>   -14.3974     0.0000     0.0000 </r>
       <r>   -14.2311     0.0000     0.0000 </r>
       <r>   -14.0647     0.0000     0.0000 </r>
       <r>   -13.8984     0.0000     0.0000 </r>
       <r>   -13.7320     0.0000     0.0000 </r>
       <r>   -13.5657     0.0000     0.0000 </r>
       <r>   -13.3993     0.0000     0.0000 </r>
       <r>   -13.2330     0.0000     0.0000 </r>
       <r>   -13.0667     0.0000     0.0000 </r>
       <r>   -12.9003     0.0000     0.0000 </r>
       <r>   -12.7340     0.0000     0.0000 </r>
       <r>   -12.5676     0.0000     0.0000 </r>
       <r>   -12.4013     0.0000     0.0000 </r>
       <r>   -12.2349     0.0000     0.0000 </r>
       <r>   -12.0686     0.0000     0.0000 </r>
       <r>   -11.9022     0.0000     0.0000 </r>
       <r>   -11.7359     0.0000     0.0000 </r>
       <r>   -11.5695     0.0000     0.0000 </r>
       <r>   -11.4032     0.0000     0.0000 </r>
       <r>   -11.2368     0.0000     0.0000 </r>
       <r>   -11.0705     0.0000     0.0000 </r>
       <r>   -10.9042     0.0000     0.0000 </r>
       <r>   -10.7378     0.0000     0.0000 </r>
       <r>   -10.5715     0.0000     0.0000 </r>
       <r>   -10.4051     0.0000     0.0000 </r>
       <r>   -10.2388     0.0000     0.0000 </r>
       <r>   -10.0724     0.0000     0.0000 </r>
       <r>    -9.9061     0.0000     0.0000 </r>
       <r>    -9.7397     0.0000     0.0000 </r>
       <r>    -9.5734     0.0000     0.0000 </r>
       <r>    -9.4070     0.0000     0.0000 </r>
       <r>    -9.2407     0.0000     0.0000 </r>
       <r>    -9.0743     0.0000     0.0000 </r>
       <r>    -8.9080     0.0000     0.0000 </r>
       <r>    -8.7417     0.0000     0.0000 </r>
       <r>    -8.5753     0.0000     0.0000 </r>
       <r>    -8.4090     0.0000     0.0000 </r>
       <r>    -8.2426     0.0000     0.0000 </r>
       <r>    -8.0763     0.0000     0.0000 </r>
       <r>    -7.9099     0.0000     0.0000 </r>
       <r>    -7.7436     0.0000     0.0000 </r>
       <r>    -7.5772     0.0000     0.0000 </r>
       <r>    -7.4109     0.0000     0.0000 </r>
       <r>    -7.2445     0.0000     0.0000 </r>
       <r>    -7.0782     0.0000     0.0000 </r>
       <r>    -6.9118     0.0000     0.0000 </r>
       <r>    -6.7455     0.0000     0.0000 </r>
       <r>    -6.5792     0.0000     0.0000 </r>
       <r>    -6.4128     0.0000     0.0000 </r>
       <r>    -6.2465     0.0000     0.0000 </r>
       <r>    -6.0801     0.0000     0.0000 </r>
       <r>    -5.9138     0.0000     0.0000 </r>
       <r>    -5.7474     0.0000     0.0000 </r>
       <r>    -5.5811     0.0000     0.0000 </r>
       <r>    -5.4147     0.0000     0.0000 </r>
       <r>    -5.2484     0.0000     0.0000 </r>
       <r>    -5.0820     0.0000     0.0000 </r>
       <r>    -4.9157     0.0000     0.0000 </r>
       <r>    -4.7493     0.0000     0.0000 </r>
       <r>    -4.5830     0.0000     0.0000 </r>
       <r>    -4.4167     0.0000     0.0000 </r>
       <r>    -4.2503     0.0000     0.0000 </r>
       <r>    -4.0840     0.0000     0.0000 </r>
       <r>    -3.9176     0.0000     0.0000 </r>
       <r>    -3.7513     0.0000     0.0000 </r>
       <r>    -3.5849     0.0000     0.0000 </r>
       <r>    -3.4186     0.0000     0.0000 </r>
       <r>    -3.2522     0.0000     0.0000 </r>
       <r>    -3.0859     0.0000     0.0000 </r>
       <r>    -2.9195     0.0000     0.0000 </r>
       <r>    -2.7532     0.0000     0.0000 </r>
       <r>    -2.5868     0.0000     0.0000 </r>
       <r>    -2.4205     0.0000     0.0000 </r>
       <r>    -2.2542     0.0000     0.0000 </r>
       <r>    -2.0878     0.0000     0.0000 </r>
       <r>    -1.9215     0.0000     0.0000 </r>
       <r>    -1.7551     0.0000     0.0000 </r>
       <r>    -1.5888     0.0000     0.0000 </r>
       <r>    -1.4224     0.0000     0.0000 </r>
       <r>    -1.2561     0.0000     0.0000 </r>
       <r>    -1.0897     0.0000     0.0000 </r>
       <r>    -0.9234     0.0000     0.0000 </r>
       <r>    -0.7570     0.0000     0.0000 </r>
       <r>    -0.5907     0.0000     0.0000 </r>
       <r>    -0.4243     0.0000     0.0000 </r>
       <r>    -0.2580     0.0000     0.0000 </r>
       <r>    -0.0917     0.0000     0.0000 </r>
       <r>     0.0747     0.0000     0.0000 </r>
       <r>     0.2410     0.0000     0.0000 </r>
       <r>     0.4074     0.0000     0.0000 </r>
       <r>     0.5737     0.0000     0.0000 </r>
       <r>     0.7401     0.0000     0.0000 </r>
       <r>     0.9064     0.0000     0.0000 </r>
       <r>     1.0728     0.0000     0.0000 </r>
       <r>     1.2391     0.0000     0.0000 </r>
       <r>     1.4055     0.0000     0.0000 </r>
       <r>     1.5718     0.0000     0.0000 </r>
       <r>     1.7382     0.0000     0.0000 </r>
       <r>     1.9045     0.0000     0.0000 </r>
       <r>     2.0708     0.0000     0.0000 </r>
       <r>     2.2372     0.0000     0.0000 </r>
       <r>     2.4035     0.0000     0.0000 </r>
       <r>     2.5699     0.0000     0.0000 </r>
       <r>     2.7362     0.0000     0.0000 </r>
       <r>     2.9026     0.0000     0.0000 </r>
       <r>     3.0689     0.0000     0.0000 </r>
       <r>     3.2353     0.0000     0.0000 </r>
       <r>     3.4016     0.0000     0.0000 </r>
       <r>     3.5680     0.0000     0.0000 </r>
       <r>     3.7343     0.0000     0.0000 </r>
       <r>     3.9007     0.0000     0.0000 </r>
       <r>     4.0670     0.0000     0.0000 </r>
       <r>     4.2333     0.0000     0.0000 </r>
       <r>     4.3997     0.0000     0.0000 </r>
       <r>     4.5660     0.0000     0.0000 </r>
       <r>     4.7324     0.0000     0.0000 </r>
       <r>     4.8987     0.0000     0.0000 </r>
       <r>     5.0651     0.0000     0.0000 </r>
       <r>     5.2314     0.0000     0.0000 </r>
       <r>     5.3978     0.0000     0.0000 </r>
       <r>     5.5641     0.0000     0.0000 </r>
       <r>     5.7305     0.0000     0.0000 </r>
       <r>     5.8968     0.0000     0.0000 </r>
       <r>     6.0632     0.0000     0.0000 </r>
       <r>     6.2295     0.0000     0.0000 </r>
       <r>     6.3958     0.0000     0.0000 </r>
       <r>     6.5622     0.0000     0.0000 </r>
       <r>     6.7285     0.0000     0.0000 </r>
       <r>     6.8949     0.0000     0.0000 </r>
       <r>     7.0612     0.0000     0.0000 </r>
       <r>     7.2276     0.0000     0.0000 </r>
       <r>     7.3939     0.0000     0.0000 </r>
       <r>     7.5603     0.0000     0.0000 </r>
       <r>     7.7266     0.0000     0.0000 </r>
       <r>     7.8930     0.0000     0.0000 </r>
       <r>     8.0593     0.0000     0.0000 </r>
       <r>     8.2257     0.0000     0.0000 </r>
       <r>     8.3920     0.0000     0.0000 </r>
       <r>     8.5583     0.0000     0.0000 </r>
       <r>     8.7247     0.0000     0.0000 </r>
       <r>     8.8910     0.0000     0.0000 </r>
       <r>     9.0574     0.0000     0.0000 </r>
       <r>     9.2237     0.0000     0.0000 </r>
       <r>     9.3901     0.0000     0.0000 </r>
       <r>     9.5564     0.0000     0.0000 </r>
       <r>     9.7228     0.0000     0.0000 </r>
       <r>     9.8891     0.0000     0.0000 </r>
       <r>    10.0555     0.0000     0.0000 </r>
       <r>    10.2218     0.0000     0.0000 </r>
       <r>    10.3882     0.0000     0.0000 </r>
       <r>    10.5545     0.0000     0.0000 </r>
       <r>    10.7208     0.0000     0.0000 </r>
       <r>    10.8872     0.0000     0.0000 </r>
       <r>    11.0535     0.0000     0.0000 </r>
       <r>    11.2199     0.0000     0.0000 </r>
       <r>    11.3862     0.0000     0.0000 </r>
       <r>    11.5526     0.0000     0.0000 </r>
       <r>    11.7189     0.0000     0.0000 </r>
       <r>    11.8853     0.0000     0.0000 </r>
       <r>    12.0516     0.0000     0.0000 </r>
       <r>    12.2180     0.0000     0.0000 </r>
       <r>    12.3843     0.0000     0.0000 </r>
       <r>    12.5507     0.0000     0.0000 </r>
       <r>    12.7170     0.0000     0.0000 </r>
       <r>    12.8833     0.0000     0.0000 </r>
       <r>    13.0497     0.0000     0.0000 </r>
       <r>    13.2160     0.0000     0.0000 </r>
       <r>    13.3824     0.0000     0.0000 </r>
       <r>    13.5487     0.0000     0.0000 </r>
       <r>    13.7151     0.0000     0.0000 </r>
       <r>    13.8814     0.0000     0.0000 </r>
       <r>    14.0478     0.0000     0.0000 </r>
       <r>    14.2141     0.0000     0.0000 </r>
       <r>    14.3805     0.0000     0.0000 </r>
       <r>    14.5468     0.0000     0.0000 </r>
       <r>    14.7132     0.0000     0.0000 </r>
       <r>    14.8795     0.0000     0.0000 </r>
       <r>    15.0458     0.0000     0.0000 </r>
       <r>    15.2122     0.0000     0.0000 </r>
       <r>    15.3785     0.0000     0.0000 </r>
       <r>    15.5449     0.0000     0.0000 </r>
       <r>    15.7112     0.0000     0.0000 </r>
       <r>    15.8776     0.0000     0.0000 </r>
       <r>    16.0439     0.0000     0.0000 </r>
       <r>    16.2103     0.0000     0.0000 </r>
       <r>    16.3766     0.0000     0.0000 </r>
       <r>    16.5430     0.0000     0.0000 </r>
       <r>    16.7093     0.0000     0.0000 </r>
       <r>    16.8757     0.0000     0.0000 </r>
      </set>
     </set>
    </array>
   </total>
  </dos>
 </calculation>
 <structure name="finalpos" >
  <crystal>
   <varray name="basis" >
    <v>       4.39635018       0.00000000       0.00000000 </v>
    <v>       2.19817509       3.80735094      -0.00000000 </v>
    <v>       2.19817509       1.26911698       3.58960489 </v>
   </varray>
   <i name="volume">     60.08441465 </i>
   <varray name="rec_basis" >
    <v>       0.22746141      -0.13132490      -0.09286073 </v>
    <v>       0.00000000       0.26264981      -0.09286073 </v>
    <v>      -0.00000000       0.00000000       0.27858219 </v>
   </varray>
  </crystal>
  <varray name="positions" >
   <v>       0.00000000       0.00000000       0.00000000 </v>
  </varray>
  <varray name="velocities" >
   <v>       0.00000000       0.00000000       0.00000000 </v>
  </varray>
 </structure>
</modeling>
