Og_FCC                                  
           1
     4.396350    0.000000    0.000000
     2.198175    3.807351   -0.000000
     2.198175    1.269117    3.589605
   Og
   1
Direct configuration=     1
   0.00000000  0.00000000  0.00000000
