   1   1   0   0
  0.5811493E+02  0.4347780E-09  0.4347780E-09  0.4347780E-09  0.1000000E-15
  1.000000000000000E-004
  CAR 
 Og_FCC                                  
     17.44563772    -32.80353968  301      3.91626746      1.00000000
    -32.804  0.0000E+00  0.0000E+00
    -32.636  0.0000E+00  0.0000E+00
    -32.469  0.0000E+00  0.0000E+00
    -32.301  0.0000E+00  0.0000E+00
    -32.134  0.0000E+00  0.0000E+00
    -31.966  0.0000E+00  0.0000E+00
    -31.799  0.0000E+00  0.0000E+00
    -31.631  0.0000E+00  0.0000E+00
    -31.464 -0.8992E-37 -0.1506E-37
    -31.296 -0.2572E-24 -0.4308E-25
    -31.129 -0.2568E-14 -0.4301E-15
    -30.961 -0.8246E-07 -0.1381E-07
    -30.794 -0.8060E-02 -0.1350E-02
    -30.626 -0.7507E+00 -0.1271E+00
    -30.459  0.2263E+02  0.3664E+01
    -30.291  0.2082E+01  0.4012E+01
    -30.124 -0.7377E-01  0.4000E+01
    -29.956 -0.4485E-05  0.4000E+01
    -29.789 -0.7391E-12  0.4000E+01
    -29.621  0.0000E+00  0.4000E+01
    -29.454  0.0000E+00  0.4000E+01
    -29.286  0.0000E+00  0.4000E+01
    -29.119  0.0000E+00  0.4000E+01
    -28.951  0.0000E+00  0.4000E+01
    -28.784  0.0000E+00  0.4000E+01
    -28.616  0.0000E+00  0.4000E+01
    -28.449  0.0000E+00  0.4000E+01
    -28.281  0.0000E+00  0.4000E+01
    -28.114  0.0000E+00  0.4000E+01
    -27.946  0.0000E+00  0.4000E+01
    -27.779  0.0000E+00  0.4000E+01
    -27.611  0.0000E+00  0.4000E+01
    -27.444  0.0000E+00  0.4000E+01
    -27.276  0.0000E+00  0.4000E+01
    -27.109  0.0000E+00  0.4000E+01
    -26.941  0.0000E+00  0.4000E+01
    -26.774  0.0000E+00  0.4000E+01
    -26.606  0.0000E+00  0.4000E+01
    -26.439  0.0000E+00  0.4000E+01
    -26.271  0.0000E+00  0.4000E+01
    -26.104  0.0000E+00  0.4000E+01
    -25.936  0.0000E+00  0.4000E+01
    -25.769  0.0000E+00  0.4000E+01
    -25.601  0.0000E+00  0.4000E+01
    -25.434  0.0000E+00  0.4000E+01
    -25.266  0.0000E+00  0.4000E+01
    -25.099  0.0000E+00  0.4000E+01
    -24.931  0.0000E+00  0.4000E+01
    -24.764 -0.5778E-36  0.4000E+01
    -24.596 -0.1241E-23  0.4000E+01
    -24.429 -0.9383E-14  0.4000E+01
    -24.261 -0.2298E-06  0.4000E+01
    -24.094 -0.1717E-01  0.3997E+01
    -23.926 -0.9266E+00  0.3842E+01
    -23.759  0.3476E+02  0.9665E+01
    -23.591  0.2087E+01  0.1001E+02
    -23.424 -0.8506E-01  0.1000E+02
    -23.256 -0.4133E-05  0.1000E+02
    -23.089 -0.5601E-12  0.1000E+02
    -22.921  0.0000E+00  0.1000E+02
    -22.754  0.0000E+00  0.1000E+02
    -22.586  0.0000E+00  0.1000E+02
    -22.419  0.0000E+00  0.1000E+02
    -22.251  0.0000E+00  0.1000E+02
    -22.084  0.0000E+00  0.1000E+02
    -21.916  0.0000E+00  0.1000E+02
    -21.749  0.0000E+00  0.1000E+02
    -21.581  0.0000E+00  0.1000E+02
    -21.414  0.0000E+00  0.1000E+02
    -21.246  0.0000E+00  0.1000E+02
    -21.079 -0.2003E-30  0.1000E+02
    -20.911 -0.1450E-19  0.1000E+02
    -20.744 -0.3891E-11  0.1000E+02
    -20.576 -0.4185E-05  0.1000E+02
    -20.409 -0.1936E-01  0.9997E+01
    -20.241  0.1937E+00  0.1003E+02
    -20.074  0.1081E+02  0.1184E+02
    -19.906  0.9922E+00  0.1201E+02
    -19.739 -0.3769E-01  0.1200E+02
    -19.571 -0.3681E-05  0.1200E+02
    -19.404 -0.1077E-11  0.1200E+02
    -19.236  0.0000E+00  0.1200E+02
    -19.069  0.0000E+00  0.1200E+02
    -18.901  0.0000E+00  0.1200E+02
    -18.734  0.0000E+00  0.1200E+02
    -18.566  0.0000E+00  0.1200E+02
    -18.399  0.0000E+00  0.1200E+02
    -18.231  0.0000E+00  0.1200E+02
    -18.064  0.0000E+00  0.1200E+02
    -17.896  0.0000E+00  0.1200E+02
    -17.729  0.0000E+00  0.1200E+02
    -17.561  0.0000E+00  0.1200E+02
    -17.394  0.0000E+00  0.1200E+02
    -17.226  0.0000E+00  0.1200E+02
    -17.059  0.0000E+00  0.1200E+02
    -16.891  0.0000E+00  0.1200E+02
    -16.724  0.0000E+00  0.1200E+02
    -16.556  0.0000E+00  0.1200E+02
    -16.389  0.0000E+00  0.1200E+02
    -16.221  0.0000E+00  0.1200E+02
    -16.054  0.0000E+00  0.1200E+02
    -15.886  0.0000E+00  0.1200E+02
    -15.719  0.0000E+00  0.1200E+02
    -15.551  0.0000E+00  0.1200E+02
    -15.384  0.0000E+00  0.1200E+02
    -15.216  0.0000E+00  0.1200E+02
    -15.049  0.0000E+00  0.1200E+02
    -14.881  0.0000E+00  0.1200E+02
    -14.714  0.0000E+00  0.1200E+02
    -14.546  0.0000E+00  0.1200E+02
    -14.379  0.0000E+00  0.1200E+02
    -14.211  0.0000E+00  0.1200E+02
    -14.044  0.0000E+00  0.1200E+02
    -13.876  0.0000E+00  0.1200E+02
    -13.709  0.0000E+00  0.1200E+02
    -13.541  0.0000E+00  0.1200E+02
    -13.374  0.0000E+00  0.1200E+02
    -13.206  0.0000E+00  0.1200E+02
    -13.039  0.0000E+00  0.1200E+02
    -12.871  0.0000E+00  0.1200E+02
    -12.704  0.0000E+00  0.1200E+02
    -12.536  0.0000E+00  0.1200E+02
    -12.369  0.0000E+00  0.1200E+02
    -12.201  0.0000E+00  0.1200E+02
    -12.034  0.0000E+00  0.1200E+02
    -11.866  0.0000E+00  0.1200E+02
    -11.699  0.0000E+00  0.1200E+02
    -11.531  0.0000E+00  0.1200E+02
    -11.364  0.0000E+00  0.1200E+02
    -11.196  0.0000E+00  0.1200E+02
    -11.029  0.0000E+00  0.1200E+02
    -10.861  0.0000E+00  0.1200E+02
    -10.694  0.0000E+00  0.1200E+02
    -10.526  0.0000E+00  0.1200E+02
    -10.359  0.0000E+00  0.1200E+02
    -10.191  0.0000E+00  0.1200E+02
    -10.024  0.0000E+00  0.1200E+02
     -9.856  0.0000E+00  0.1200E+02
     -9.689  0.0000E+00  0.1200E+02
     -9.521  0.0000E+00  0.1200E+02
     -9.354  0.0000E+00  0.1200E+02
     -9.186  0.0000E+00  0.1200E+02
     -9.019  0.0000E+00  0.1200E+02
     -8.851  0.0000E+00  0.1200E+02
     -8.684  0.0000E+00  0.1200E+02
     -8.516  0.0000E+00  0.1200E+02
     -8.349 -0.2062E-40  0.1200E+02
     -8.181 -0.3990E-27  0.1200E+02
     -8.014 -0.9286E-17  0.1200E+02
     -7.846 -0.7474E-09  0.1200E+02
     -7.679 -0.2115E-03  0.1200E+02
     -7.511 -0.1484E+00  0.1198E+02
     -7.344  0.3722E+01  0.1260E+02
     -7.176  0.6698E+01  0.1372E+02
     -7.009  0.1466E+01  0.1397E+02
     -6.841  0.2127E+00  0.1400E+02
     -6.674 -0.9743E-02  0.1400E+02
     -6.506 -0.2194E-04  0.1400E+02
     -6.339 -0.1942E-09  0.1400E+02
     -6.171 -0.7274E-17  0.1400E+02
     -6.004  0.0000E+00  0.1400E+02
     -5.836  0.0000E+00  0.1400E+02
     -5.669  0.0000E+00  0.1400E+02
     -5.501  0.0000E+00  0.1400E+02
     -5.334  0.0000E+00  0.1400E+02
     -5.166  0.0000E+00  0.1400E+02
     -4.999  0.0000E+00  0.1400E+02
     -4.831  0.0000E+00  0.1400E+02
     -4.664  0.0000E+00  0.1400E+02
     -4.497  0.0000E+00  0.1400E+02
     -4.329  0.0000E+00  0.1400E+02
     -4.162  0.0000E+00  0.1400E+02
     -3.994  0.0000E+00  0.1400E+02
     -3.827  0.0000E+00  0.1400E+02
     -3.659  0.0000E+00  0.1400E+02
     -3.492  0.0000E+00  0.1400E+02
     -3.324  0.0000E+00  0.1400E+02
     -3.157  0.0000E+00  0.1400E+02
     -2.989  0.0000E+00  0.1400E+02
     -2.822  0.0000E+00  0.1400E+02
     -2.654  0.0000E+00  0.1400E+02
     -2.487  0.0000E+00  0.1400E+02
     -2.319  0.0000E+00  0.1400E+02
     -2.152  0.0000E+00  0.1400E+02
     -1.984  0.0000E+00  0.1400E+02
     -1.817  0.0000E+00  0.1400E+02
     -1.649  0.0000E+00  0.1400E+02
     -1.482  0.0000E+00  0.1400E+02
     -1.314  0.0000E+00  0.1400E+02
     -1.147  0.0000E+00  0.1400E+02
     -0.979  0.0000E+00  0.1400E+02
     -0.812  0.0000E+00  0.1400E+02
     -0.644  0.0000E+00  0.1400E+02
     -0.477  0.0000E+00  0.1400E+02
     -0.309  0.0000E+00  0.1400E+02
     -0.142 -0.2975E-31  0.1400E+02
      0.026 -0.3592E-20  0.1400E+02
      0.193 -0.1463E-11  0.1400E+02
      0.361 -0.2087E-05  0.1400E+02
      0.528 -0.1034E-01  0.1400E+02
      0.696  0.1198E+00  0.1402E+02
      0.863  0.5540E+01  0.1495E+02
      1.031  0.3149E+01  0.1547E+02
      1.198  0.7812E+00  0.1560E+02
      1.366  0.6857E+00  0.1572E+02
      1.533  0.6251E+00  0.1582E+02
      1.701  0.3084E+00  0.1588E+02
      1.868  0.8486E+00  0.1602E+02
      2.036  0.1579E+01  0.1628E+02
      2.203  0.1757E+01  0.1658E+02
      2.371  0.9778E+00  0.1674E+02
      2.538  0.1886E+01  0.1706E+02
      2.706  0.8466E+00  0.1720E+02
      2.873  0.1054E+01  0.1737E+02
      3.041  0.8712E+00  0.1752E+02
      3.208  0.1072E+01  0.1770E+02
      3.376  0.6376E+00  0.1781E+02
      3.543  0.5739E+00  0.1790E+02
      3.711  0.3970E+00  0.1797E+02
      3.878  0.1490E+00  0.1799E+02
      4.046  0.4949E-01  0.1800E+02
      4.213 -0.1880E-02  0.1800E+02
      4.381 -0.2837E-05  0.1800E+02
      4.548 -0.9981E-09  0.1800E+02
      4.716 -0.6963E-04  0.1800E+02
      4.883 -0.3114E-02  0.1800E+02
      5.051  0.1279E+00  0.1802E+02
      5.218  0.1385E-01  0.1803E+02
      5.386  0.9374E-01  0.1804E+02
      5.553 -0.4612E-02  0.1804E+02
      5.721  0.4777E-01  0.1805E+02
      5.888  0.2398E+00  0.1809E+02
      6.056  0.9455E-01  0.1810E+02
      6.223  0.5586E+00  0.1820E+02
      6.391  0.8483E-01  0.1821E+02
      6.558  0.5778E+00  0.1831E+02
      6.726  0.1270E+01  0.1852E+02
      6.893  0.1669E+01  0.1880E+02
      7.061  0.6199E+00  0.1891E+02
      7.228  0.9524E+00  0.1906E+02
      7.396  0.2367E+01  0.1946E+02
      7.563  0.1406E+01  0.1970E+02
      7.731  0.1415E+01  0.1993E+02
      7.898  0.4589E+00  0.2001E+02
      8.066  0.2839E+00  0.2006E+02
      8.233  0.5723E+00  0.2015E+02
      8.401  0.2566E+00  0.2020E+02
      8.568  0.2828E+00  0.2024E+02
      8.736  0.2377E+01  0.2064E+02
      8.903  0.3165E+01  0.2117E+02
      9.071  0.7556E+00  0.2130E+02
      9.238  0.6424E+00  0.2141E+02
      9.406  0.1418E+01  0.2164E+02
      9.573  0.9288E+00  0.2180E+02
      9.741  0.1955E+01  0.2213E+02
      9.908  0.2453E+01  0.2254E+02
     10.076  0.1225E+01  0.2274E+02
     10.243  0.4184E+00  0.2281E+02
     10.411  0.1019E+01  0.2298E+02
     10.578  0.1855E+01  0.2330E+02
     10.746  0.3041E+01  0.2380E+02
     10.913  0.8969E+00  0.2395E+02
     11.081  0.7772E+00  0.2409E+02
     11.248  0.1224E+01  0.2429E+02
     11.416  0.1448E+01  0.2453E+02
     11.583  0.2262E+01  0.2491E+02
     11.751  0.2695E+01  0.2536E+02
     11.918  0.1063E+01  0.2554E+02
     12.086  0.1507E+01  0.2579E+02
     12.253  0.1235E+01  0.2600E+02
     12.421  0.1392E+01  0.2623E+02
     12.588  0.9605E+00  0.2639E+02
     12.756  0.1041E+01  0.2657E+02
     12.923  0.2031E+01  0.2691E+02
     13.091  0.1320E+01  0.2713E+02
     13.258  0.7477E+00  0.2726E+02
     13.426  0.2276E+00  0.2729E+02
     13.593  0.2131E+01  0.2765E+02
     13.761  0.7631E+00  0.2778E+02
     13.928  0.1352E+00  0.2780E+02
     14.096 -0.1330E-01  0.2780E+02
     14.263  0.4297E+00  0.2787E+02
     14.431  0.1332E+00  0.2789E+02
     14.598  0.4260E+00  0.2796E+02
     14.766  0.5501E-01  0.2797E+02
     14.933  0.8864E-01  0.2799E+02
     15.101  0.4670E-01  0.2800E+02
     15.268  0.2529E-01  0.2800E+02
     15.436 -0.9685E-03  0.2800E+02
     15.603 -0.6680E-05  0.2800E+02
     15.771 -0.6749E-10  0.2800E+02
     15.938 -0.3637E-17  0.2800E+02
     16.106  0.0000E+00  0.2800E+02
     16.273  0.0000E+00  0.2800E+02
     16.441  0.0000E+00  0.2800E+02
     16.608  0.0000E+00  0.2800E+02
     16.776  0.0000E+00  0.2800E+02
     16.943  0.0000E+00  0.2800E+02
     17.111  0.0000E+00  0.2800E+02
     17.278  0.0000E+00  0.2800E+02
     17.446  0.0000E+00  0.2800E+02
