   1   1   0   0
  0.5789729E+02  0.4342346E-09  0.4342346E-09  0.4342346E-09  0.1000000E-15
  1.000000000000000E-004
  CAR 
 Og_FCC                                  
     98.02307886    -44.68937613  301     -0.32958804      1.00000000
    -44.689  0.0000E+00  0.0000E+00
    -44.214  0.0000E+00  0.0000E+00
    -43.738  0.0000E+00  0.0000E+00
    -43.262  0.0000E+00  0.0000E+00
    -42.787  0.0000E+00  0.0000E+00
    -42.311  0.0000E+00  0.0000E+00
    -41.835  0.0000E+00  0.0000E+00
    -41.359  0.0000E+00  0.0000E+00
    -40.884  0.0000E+00  0.0000E+00
    -40.408  0.0000E+00  0.0000E+00
    -39.932  0.0000E+00  0.0000E+00
    -39.457  0.0000E+00  0.0000E+00
    -38.981  0.0000E+00  0.0000E+00
    -38.505  0.0000E+00  0.0000E+00
    -38.029  0.0000E+00  0.1000E+02
    -37.554  0.0000E+00  0.1000E+02
    -37.078  0.0000E+00  0.1000E+02
    -36.602  0.0000E+00  0.1000E+02
    -36.127  0.0000E+00  0.1000E+02
    -35.651  0.0000E+00  0.1000E+02
    -35.175  0.0000E+00  0.1000E+02
    -34.700  0.0000E+00  0.1000E+02
    -34.224  0.0000E+00  0.1000E+02
    -33.748  0.0000E+00  0.1000E+02
    -33.272  0.0000E+00  0.1000E+02
    -32.797  0.0000E+00  0.1000E+02
    -32.321  0.0000E+00  0.1000E+02
    -31.845  0.0000E+00  0.1000E+02
    -31.370  0.0000E+00  0.1000E+02
    -30.894  0.0000E+00  0.1000E+02
    -30.418  0.0000E+00  0.1000E+02
    -29.942  0.0000E+00  0.1000E+02
    -29.467  0.0000E+00  0.1000E+02
    -28.991  0.0000E+00  0.1000E+02
    -28.515  0.0000E+00  0.1000E+02
    -28.040  0.0000E+00  0.1000E+02
    -27.564  0.0000E+00  0.1000E+02
    -27.088  0.0000E+00  0.1000E+02
    -26.612  0.0000E+00  0.1200E+02
    -26.137  0.0000E+00  0.1200E+02
    -25.661  0.0000E+00  0.1200E+02
    -25.185  0.0000E+00  0.1200E+02
    -24.710  0.0000E+00  0.1200E+02
    -24.234  0.0000E+00  0.1200E+02
    -23.758  0.0000E+00  0.1200E+02
    -23.283  0.0000E+00  0.1200E+02
    -22.807  0.0000E+00  0.1200E+02
    -22.331  0.0000E+00  0.1200E+02
    -21.855  0.0000E+00  0.1200E+02
    -21.380  0.0000E+00  0.1200E+02
    -20.904  0.0000E+00  0.1200E+02
    -20.428  0.0000E+00  0.1200E+02
    -19.953  0.0000E+00  0.1200E+02
    -19.477  0.0000E+00  0.1200E+02
    -19.001  0.0000E+00  0.1200E+02
    -18.525  0.0000E+00  0.1200E+02
    -18.050  0.0000E+00  0.1200E+02
    -17.574  0.0000E+00  0.1200E+02
    -17.098  0.0000E+00  0.1200E+02
    -16.623  0.0000E+00  0.1200E+02
    -16.147  0.0000E+00  0.1200E+02
    -15.671  0.0000E+00  0.1200E+02
    -15.195  0.0000E+00  0.1200E+02
    -14.720  0.0000E+00  0.1200E+02
    -14.244  0.0000E+00  0.1200E+02
    -13.768  0.0000E+00  0.1200E+02
    -13.293  0.0000E+00  0.1200E+02
    -12.817  0.0000E+00  0.1200E+02
    -12.341  0.0000E+00  0.1200E+02
    -11.866  0.0000E+00  0.1200E+02
    -11.390  0.0000E+00  0.1200E+02
    -10.914  0.0000E+00  0.1200E+02
    -10.438  0.0000E+00  0.1200E+02
     -9.963  0.0000E+00  0.1200E+02
     -9.487  0.0000E+00  0.1200E+02
     -9.011  0.0000E+00  0.1200E+02
     -8.536  0.0000E+00  0.1200E+02
     -8.060  0.0000E+00  0.1200E+02
     -7.584  0.0000E+00  0.1200E+02
     -7.108  0.0000E+00  0.1200E+02
     -6.633  0.0000E+00  0.1200E+02
     -6.157  0.0000E+00  0.1200E+02
     -5.681  0.0000E+00  0.1200E+02
     -5.206  0.0000E+00  0.1200E+02
     -4.730  0.0000E+00  0.1200E+02
     -4.254  0.0000E+00  0.1200E+02
     -3.778  0.0000E+00  0.1204E+02
     -3.303  0.0000E+00  0.1281E+02
     -2.827  0.0000E+00  0.1386E+02
     -2.351  0.0000E+00  0.1431E+02
     -1.876  0.0000E+00  0.1486E+02
     -1.400  0.0000E+00  0.1605E+02
     -0.924  0.0000E+00  0.1745E+02
     -0.449  0.0000E+00  0.1800E+02
      0.027  0.0000E+00  0.1800E+02
      0.503  0.0000E+00  0.1800E+02
      0.979  0.0000E+00  0.1800E+02
      1.454  0.0000E+00  0.1800E+02
      1.930  0.0000E+00  0.1800E+02
      2.406  0.0000E+00  0.1800E+02
      2.881  0.0000E+00  0.1800E+02
      3.357  0.0000E+00  0.1800E+02
      3.833  0.0000E+00  0.1800E+02
      4.309  0.0000E+00  0.1800E+02
      4.784  0.0000E+00  0.1801E+02
      5.260  0.0000E+00  0.1801E+02
      5.736  0.0000E+00  0.1808E+02
      6.211  0.0000E+00  0.1814E+02
      6.687  0.0000E+00  0.1814E+02
      7.163  0.0000E+00  0.1839E+02
      7.639  0.0000E+00  0.1889E+02
      8.114  0.5723E-02  0.1945E+02
      8.590  0.0000E+00  0.1981E+02
      9.066  0.2444E-09  0.1986E+02
      9.541  0.0000E+00  0.2053E+02
     10.017  0.0000E+00  0.2181E+02
     10.493  0.0000E+00  0.2214E+02
     10.968  0.0000E+00  0.2244E+02
     11.444  0.0000E+00  0.2251E+02
     11.920  0.0000E+00  0.2369E+02
     12.396  0.0000E+00  0.2495E+02
     12.871  0.0000E+00  0.2569E+02
     13.347  0.0000E+00  0.2588E+02
     13.823  0.0000E+00  0.2625E+02
     14.298  0.0000E+00  0.2773E+02
     14.774  0.0000E+00  0.2835E+02
     15.250  0.8644E-17  0.2908E+02
     15.726  0.0000E+00  0.3019E+02
     16.201  0.9546E-01  0.3060E+02
     16.677  0.0000E+00  0.3119E+02
     17.153  0.0000E+00  0.3190E+02
     17.628  0.0000E+00  0.3252E+02
     18.104  0.5839E-01  0.3373E+02
     18.580  0.0000E+00  0.3569E+02
     19.056  0.3893E-01  0.3723E+02
     19.531  0.1485E-05  0.3888E+02
     20.007  0.3999E-09  0.4081E+02
     20.483  0.1037E-15  0.4302E+02
     20.958  0.2336E+00  0.4507E+02
     21.434  0.0000E+00  0.4581E+02
     21.910  0.0000E+00  0.4641E+02
     22.385  0.0000E+00  0.4655E+02
     22.861  0.0000E+00  0.4794E+02
     23.337  0.0000E+00  0.4888E+02
     23.813  0.0000E+00  0.4943E+02
     24.288  0.7038E-12  0.5083E+02
     24.764  0.4961E-01  0.5213E+02
     25.240  0.3114E+00  0.5481E+02
     25.715  0.6598E-01  0.5642E+02
     26.191  0.0000E+00  0.5717E+02
     26.667  0.0000E+00  0.5746E+02
     27.143  0.0000E+00  0.5824E+02
     27.618  0.0000E+00  0.5971E+02
     28.094  0.0000E+00  0.6027E+02
     28.570  0.0000E+00  0.6123E+02
     29.045  0.2336E+00  0.6201E+02
     29.521  0.0000E+00  0.6269E+02
     29.997  0.0000E+00  0.6433E+02
     30.473  0.0000E+00  0.6476E+02
     30.948  0.0000E+00  0.6568E+02
     31.424  0.0000E+00  0.6695E+02
     31.900  0.0000E+00  0.6869E+02
     32.375  0.0000E+00  0.6998E+02
     32.851  0.0000E+00  0.7177E+02
     33.327  0.0000E+00  0.7269E+02
     33.802  0.0000E+00  0.7360E+02
     34.278  0.0000E+00  0.7453E+02
     34.754  0.0000E+00  0.7542E+02
     35.230  0.0000E+00  0.7692E+02
     35.705  0.0000E+00  0.7828E+02
     36.181  0.0000E+00  0.7991E+02
     36.657  0.0000E+00  0.8092E+02
     37.132  0.0000E+00  0.8244E+02
     37.608  0.0000E+00  0.8380E+02
     38.084  0.0000E+00  0.8416E+02
     38.560  0.0000E+00  0.8491E+02
     39.035  0.0000E+00  0.8625E+02
     39.511  0.0000E+00  0.8845E+02
     39.987  0.0000E+00  0.8916E+02
     40.462  0.0000E+00  0.8980E+02
     40.938  0.0000E+00  0.9143E+02
     41.414  0.0000E+00  0.9301E+02
     41.890  0.2336E+00  0.9460E+02
     42.365  0.0000E+00  0.9564E+02
     42.841  0.0000E+00  0.9694E+02
     43.317  0.0000E+00  0.9812E+02
     43.792  0.0000E+00  0.9949E+02
     44.268  0.0000E+00  0.1004E+03
     44.744  0.1680E-06  0.1014E+03
     45.219  0.0000E+00  0.1028E+03
     45.695  0.0000E+00  0.1045E+03
     46.171  0.0000E+00  0.1057E+03
     46.647  0.0000E+00  0.1073E+03
     47.122  0.4671E+00  0.1086E+03
     47.598  0.0000E+00  0.1104E+03
     48.074  0.0000E+00  0.1114E+03
     48.549  0.0000E+00  0.1128E+03
     49.025  0.0000E+00  0.1142E+03
     49.501  0.0000E+00  0.1153E+03
     49.977  0.0000E+00  0.1165E+03
     50.452  0.0000E+00  0.1186E+03
     50.928  0.0000E+00  0.1193E+03
     51.404  0.5527E-02  0.1209E+03
     51.879  0.0000E+00  0.1227E+03
     52.355  0.0000E+00  0.1248E+03
     52.831  0.2430E-08  0.1265E+03
     53.307  0.0000E+00  0.1270E+03
     53.782  0.0000E+00  0.1279E+03
     54.258  0.4671E+00  0.1303E+03
     54.734  0.4671E+00  0.1318E+03
     55.209  0.0000E+00  0.1323E+03
     55.685  0.1111E-07  0.1342E+03
     56.161  0.0000E+00  0.1360E+03
     56.636  0.0000E+00  0.1375E+03
     57.112  0.0000E+00  0.1383E+03
     57.588  0.4671E+00  0.1395E+03
     58.064  0.0000E+00  0.1417E+03
     58.539  0.1253E-01  0.1430E+03
     59.015  0.0000E+00  0.1440E+03
     59.491  0.0000E+00  0.1457E+03
     59.966  0.0000E+00  0.1475E+03
     60.442  0.0000E+00  0.1495E+03
     60.918  0.0000E+00  0.1506E+03
     61.394  0.0000E+00  0.1516E+03
     61.869  0.0000E+00  0.1534E+03
     62.345  0.0000E+00  0.1551E+03
     62.821  0.2336E+00  0.1568E+03
     63.296  0.0000E+00  0.1581E+03
     63.772  0.0000E+00  0.1594E+03
     64.248  0.4833E-01  0.1611E+03
     64.724  0.0000E+00  0.1633E+03
     65.199  0.0000E+00  0.1645E+03
     65.675  0.0000E+00  0.1661E+03
     66.151  0.4671E+00  0.1686E+03
     66.626  0.0000E+00  0.1698E+03
     67.102  0.0000E+00  0.1713E+03
     67.578  0.0000E+00  0.1728E+03
     68.053  0.0000E+00  0.1739E+03
     68.529  0.4671E+00  0.1761E+03
     69.005  0.0000E+00  0.1773E+03
     69.481  0.0000E+00  0.1791E+03
     69.956  0.0000E+00  0.1806E+03
     70.432  0.0000E+00  0.1821E+03
     70.908  0.4527E+00  0.1839E+03
     71.383  0.0000E+00  0.1857E+03
     71.859  0.0000E+00  0.1872E+03
     72.335  0.0000E+00  0.1888E+03
     72.811  0.0000E+00  0.1902E+03
     73.286  0.5255E+00  0.1926E+03
     73.762  0.7246E-05  0.1941E+03
     74.238  0.0000E+00  0.1953E+03
     74.713  0.2987E-03  0.1974E+03
     75.189  0.0000E+00  0.1993E+03
     75.665  0.0000E+00  0.2005E+03
     76.141  0.0000E+00  0.2024E+03
     76.616  0.0000E+00  0.2042E+03
     77.092  0.0000E+00  0.2066E+03
     77.568  0.0000E+00  0.2088E+03
     78.043  0.0000E+00  0.2106E+03
     78.519  0.0000E+00  0.2128E+03
     78.995  0.0000E+00  0.2143E+03
     79.470  0.0000E+00  0.2163E+03
     79.946  0.4223E+00  0.2175E+03
     80.422  0.0000E+00  0.2195E+03
     80.898  0.0000E+00  0.2216E+03
     81.373  0.2030E-02  0.2229E+03
     81.849  0.0000E+00  0.2253E+03
     82.325  0.1557E+00  0.2270E+03
     82.800  0.0000E+00  0.2283E+03
     83.276  0.4671E+00  0.2303E+03
     83.752  0.0000E+00  0.2321E+03
     84.228  0.0000E+00  0.2335E+03
     84.703  0.0000E+00  0.2353E+03
     85.179  0.0000E+00  0.2372E+03
     85.655  0.0000E+00  0.2384E+03
     86.130  0.4671E+00  0.2402E+03
     86.606  0.0000E+00  0.2422E+03
     87.082  0.0000E+00  0.2440E+03
     87.557  0.0000E+00  0.2463E+03
     88.033  0.0000E+00  0.2478E+03
     88.509  0.7007E+00  0.2504E+03
     88.985  0.0000E+00  0.2517E+03
     89.460  0.1494E-04  0.2532E+03
     89.936  0.0000E+00  0.2542E+03
     90.412  0.0000E+00  0.2553E+03
     90.887  0.0000E+00  0.2558E+03
     91.363  0.0000E+00  0.2559E+03
     91.839  0.0000E+00  0.2560E+03
     92.315  0.0000E+00  0.2560E+03
     92.790  0.0000E+00  0.2560E+03
     93.266  0.0000E+00  0.2560E+03
     93.742  0.0000E+00  0.2560E+03
     94.217  0.0000E+00  0.2560E+03
     94.693  0.0000E+00  0.2560E+03
     95.169  0.0000E+00  0.2560E+03
     95.645  0.0000E+00  0.2560E+03
     96.120  0.0000E+00  0.2560E+03
     96.596  0.0000E+00  0.2560E+03
     97.072  0.0000E+00  0.2560E+03
     97.547  0.0000E+00  0.2560E+03
     98.023  0.0000E+00  0.2560E+03
