    1    1    1    1
  0.5789729E+02  0.4342346E-09  0.4342346E-09  0.4342346E-09  0.1000000E-15
  1.000000000000000E-004
  CAR 
 Og_FCC                                  
     18    112    128
 
  0.0000000E+00  0.0000000E+00  0.0000000E+00  0.4629630E-02
    1      -38.196941   1.000000
    2      -38.196645   1.000000
    3      -38.179641   1.000000
    4      -38.178501   1.000000
    5      -38.178426   1.000000
    6      -26.804458   1.000000
    7       -0.611187   1.000000
    8       -0.559869   1.000000
    9       -0.557313   1.000000
   10        4.391867   0.000000
   11       11.719585   0.000000
   12       11.722385   0.000000
   13       11.729913   0.000000
   14       12.385600   0.000000
   15       14.846388   0.000000
   16       14.859046   0.000000
   17       14.863626   0.000000
   18       15.046877   0.000000
   19       15.061116   0.000000
   20       16.962263   0.000000
   21       20.011918   0.000000
   22       20.011918   0.000000
   23       20.011918   0.000000
   24       25.776683   0.000000
   25       25.776683   0.000000
   26       25.776683   0.000000
   27       26.133317   0.000000
   28       29.481594   0.000000
   29       29.481594   0.000000
   30       30.244080   0.000000
   31       30.334413   0.000000
   32       30.334413   0.000000
   33       30.334413   0.000000
   34       30.592152   0.000000
   35       30.592152   0.000000
   36       30.592152   0.000000
   37       37.859237   0.000000
   38       37.859237   0.000000
   39       37.859237   0.000000
   40       38.493012   0.000000
   41       38.493012   0.000000
   42       38.493012   0.000000
   43       41.200997   0.000000
   44       41.200997   0.000000
   45       41.200997   0.000000
   46       42.597554   0.000000
   47       42.597554   0.000000
   48       42.597554   0.000000
   49       42.639570   0.000000
   50       42.934323   0.000000
   51       42.934323   0.000000
   52       43.340527   0.000000
   53       43.340527   0.000000
   54       43.960717   0.000000
   55       43.960717   0.000000
   56       43.960717   0.000000
   57       45.279383   0.000000
   58       45.961771   0.000000
   59       45.961771   0.000000
   60       45.961771   0.000000
   61       47.080209   0.000000
   62       47.272107   0.000000
   63       47.272107   0.000000
   64       47.272107   0.000000
   65       51.189145   0.000000
   66       51.189145   0.000000
   67       51.189145   0.000000
   68       54.241180   0.000000
   69       54.241180   0.000000
   70       54.241180   0.000000
   71       58.378670   0.000000
   72       58.378670   0.000000
   73       58.539039   0.000000
   74       59.006970   0.000000
   75       65.940998   0.000000
   76       65.940998   0.000000
   77       65.940998   0.000000
   78       66.218672   0.000000
   79       66.218672   0.000000
   80       66.218672   0.000000
   81       67.460739   0.000000
   82       67.460739   0.000000
   83       67.910106   0.000000
   84       67.910106   0.000000
   85       67.910106   0.000000
   86       72.131146   0.000000
   87       72.131146   0.000000
   88       72.131146   0.000000
   89       72.895444   0.000000
   90       72.895444   0.000000
   91       74.028248   0.000000
   92       74.028248   0.000000
   93       74.028248   0.000000
   94       74.158082   0.000000
   95       74.158082   0.000000
   96       74.158082   0.000000
   97       74.579413   0.000000
   98       76.201409   0.000000
   99       76.533301   0.000000
  100       76.545213   0.000000
  101       76.545213   0.000000
  102       76.545213   0.000000
  103       77.327604   0.000000
  104       77.327604   0.000000
  105       77.327604   0.000000
  106       78.621449   0.000000
  107       78.621449   0.000000
  108       78.712418   0.000000
  109       78.712418   0.000000
  110       78.712418   0.000000
  111       80.306668   0.000000
  112       80.306668   0.000000
  113       80.306668   0.000000
  114       80.882816   0.000000
  115       80.882816   0.000000
  116       80.882816   0.000000
  117       82.659616   0.000000
  118       82.871389   0.000000
  119       82.871389   0.000000
  120       83.049472   0.000000
  121       86.315423   0.000000
  122       86.315423   0.000000
  123       86.315423   0.000000
  124       88.141462   0.000000
  125       88.141462   0.000000
  126       88.141462   0.000000
  127       88.175303   0.000000
  128       88.175303   0.000000
 
  0.1666667E+00  0.1566927E-17  0.2081668E-16  0.9259259E-02
    1      -38.183154   1.000000
    2      -38.182922   1.000000
    3      -38.167414   1.000000
    4      -38.166649   1.000000
    5      -38.165795   1.000000
    6      -26.691553   1.000000
    7       -1.813116   1.000000
    8       -0.670236   1.000000
    9       -0.669267   1.000000
   10        5.640538   0.000000
   11       10.661896   0.000000
   12       11.952653   0.000000
   13       11.953312   0.000000
   14       13.321592   0.000000
   15       13.533316   0.000000
   16       13.535649   0.000000
   17       15.013161   0.000000
   18       17.377184   0.000000
   19       17.378821   0.000000
   20       19.102491   0.000000
   21       19.650103   0.000000
   22       19.650103   0.000000
   23       20.096232   0.000000
   24       23.712033   0.000000
   25       25.235318   0.000000
   26       25.235318   0.000000
   27       25.715571   0.000000
   28       27.172622   0.000000
   29       28.308058   0.000000
   30       28.308058   0.000000
   31       30.336123   0.000000
   32       30.336123   0.000000
   33       30.910674   0.000000
   34       32.239401   0.000000
   35       32.239401   0.000000
   36       35.488914   0.000000
   37       36.032668   0.000000
   38       36.479073   0.000000
   39       36.479073   0.000000
   40       36.959873   0.000000
   41       38.717283   0.000000
   42       38.717283   0.000000
   43       39.324624   0.000000
   44       39.324624   0.000000
   45       39.468610   0.000000
   46       40.548971   0.000000
   47       40.548971   0.000000
   48       41.498851   0.000000
   49       41.503372   0.000000
   50       42.924278   0.000000
   51       42.924278   0.000000
   52       43.354300   0.000000
   53       44.529254   0.000000
   54       44.909116   0.000000
   55       44.909116   0.000000
   56       45.703994   0.000000
   57       45.703994   0.000000
   58       47.365662   0.000000
   59       47.365662   0.000000
   60       48.609147   0.000000
   61       49.550011   0.000000
   62       49.550011   0.000000
   63       50.267156   0.000000
   64       51.349894   0.000000
   65       52.242389   0.000000
   66       52.304845   0.000000
   67       52.304845   0.000000
   68       53.993908   0.000000
   69       53.993909   0.000000
   70       54.000070   0.000000
   71       57.441676   0.000000
   72       59.407708   0.000000
   73       59.407708   0.000000
   74       60.576742   0.000000
   75       62.461590   0.000000
   76       62.461590   0.000000
   77       63.741179   0.000000
   78       63.741179   0.000000
   79       65.374880   0.000000
   80       65.424019   0.000000
   81       66.575295   0.000000
   82       67.000351   0.000000
   83       67.000351   0.000000
   84       69.692386   0.000000
   85       69.796654   0.000000
   86       69.796654   0.000000
   87       70.549541   0.000000
   88       70.549541   0.000000
   89       71.273171   0.000000
   90       71.273171   0.000000
   91       71.660076   0.000000
   92       71.844975   0.000000
   93       72.763899   0.000000
   94       72.763899   0.000000
   95       74.207393   0.000000
   96       74.963983   0.000000
   97       75.465483   0.000000
   98       75.465483   0.000000
   99       75.854522   0.000000
  100       75.854522   0.000000
  101       76.672463   0.000000
  102       77.387875   0.000000
  103       78.205553   0.000000
  104       78.205553   0.000000
  105       78.558660   0.000000
  106       78.558660   0.000000
  107       78.675263   0.000000
  108       79.100920   0.000000
  109       79.774925   0.000000
  110       79.774925   0.000000
  111       80.486128   0.000000
  112       80.486128   0.000000
  113       81.249540   0.000000
  114       81.249540   0.000000
  115       82.860511   0.000000
  116       83.522202   0.000000
  117       83.576493   0.000000
  118       84.279801   0.000000
  119       84.279801   0.000000
  120       84.361725   0.000000
  121       84.549900   0.000000
  122       85.925513   0.000000
  123       85.925513   0.000000
  124       86.897985   0.000000
  125       86.897985   0.000000
  126       88.238926   0.000000
  127       88.238926   0.000000
  128       88.593079   0.000000
 
  0.3333333E+00  0.3133854E-17  0.0000000E+00  0.9259259E-02
    1      -38.187125   1.000000
    2      -38.176340   1.000000
    3      -38.175754   1.000000
    4      -38.171956   1.000000
    5      -38.168752   1.000000
    6      -26.656695   1.000000
    7       -3.343188   1.000000
    8       -0.892311   1.000000
    9       -0.891146   1.000000
   10        6.785379   0.000000
   11       11.457383   0.000000
   12       11.494225   0.000000
   13       11.495697   0.000000
   14       12.463792   0.000000
   15       14.486990   0.000000
   16       14.539165   0.000000
   17       18.631747   0.000000
   18       20.011191   0.000000
   19       20.077645   0.000000
   20       20.268905   0.000000
   21       18.321177   0.000000
   22       19.162980   0.000000
   23       20.218800   0.000000
   24       21.413690   0.000000
   25       25.004691   0.000000
   26       25.004691   0.000000
   27       25.092304   0.000000
   28       26.896708   0.000000
   29       27.094035   0.000000
   30       27.094035   0.000000
   31       30.977007   0.000000
   32       31.062252   0.000000
   33       31.062252   0.000000
   34       31.677943   0.000000
   35       31.677943   0.000000
   36       32.120287   0.000000
   37       33.732773   0.000000
   38       34.056006   0.000000
   39       35.348982   0.000000
   40       35.348982   0.000000
   41       36.277093   0.000000
   42       36.277093   0.000000
   43       39.316153   0.000000
   44       39.316153   0.000000
   45       40.633618   0.000000
   46       40.790450   0.000000
   47       40.790450   0.000000
   48       42.713483   0.000000
   49       42.856835   0.000000
   50       42.856835   0.000000
   51       43.842883   0.000000
   52       44.769892   0.000000
   53       45.130653   0.000000
   54       46.239174   0.000000
   55       46.239174   0.000000
   56       46.719208   0.000000
   57       46.719208   0.000000
   58       49.729850   0.000000
   59       51.389330   0.000000
   60       51.389330   0.000000
   61       51.807953   0.000000
   62       52.268454   0.000000
   63       52.436911   0.000000
   64       52.436911   0.000000
   65       53.670026   0.000000
   66       54.460678   0.000000
   67       54.460678   0.000000
   68       55.471898   0.000000
   69       55.471898   0.000000
   70       55.942833   0.000000
   71       55.942833   0.000000
   72       57.892924   0.000000
   73       59.704108   0.000000
   74       59.992155   0.000000
   75       59.992155   0.000000
   76       60.371719   0.000000
   77       61.234575   0.000000
   78       62.211686   0.000000
   79       63.255342   0.000000
   80       63.255342   0.000000
   81       64.691533   0.000000
   82       64.959617   0.000000
   83       64.959617   0.000000
   84       67.433997   0.000000
   85       67.433997   0.000000
   86       68.272544   0.000000
   87       68.315674   0.000000
   88       68.315674   0.000000
   89       70.502018   0.000000
   90       70.727230   0.000000
   91       70.727230   0.000000
   92       71.930434   0.000000
   93       72.278469   0.000000
   94       72.278469   0.000000
   95       73.154467   0.000000
   96       73.154467   0.000000
   97       73.718127   0.000000
   98       74.382797   0.000000
   99       75.081281   0.000000
  100       75.081281   0.000000
  101       76.085347   0.000000
  102       76.085348   0.000000
  103       76.884501   0.000000
  104       78.394684   0.000000
  105       79.214004   0.000000
  106       79.451364   0.000000
  107       79.451364   0.000000
  108       79.773370   0.000000
  109       79.946013   0.000000
  110       81.896549   0.000000
  111       81.896549   0.000000
  112       82.151686   0.000000
  113       82.151686   0.000000
  114       82.158776   0.000000
  115       82.317966   0.000000
  116       83.511974   0.000000
  117       83.695954   0.000000
  118       83.695954   0.000000
  119       84.815451   0.000000
  120       84.815451   0.000000
  121       85.834548   0.000000
  122       85.834548   0.000000
  123       87.911662   0.000000
  124       87.911662   0.000000
  125       88.107791   0.000000
  126       88.599643   0.000000
  127       89.289186   0.000000
  128       89.289186   0.000000
 
  0.5000000E+00  0.4700780E-17  0.5551115E-16  0.4629630E-02
    1      -38.195954   1.000000
    2      -38.195246   1.000000
    3      -38.181948   1.000000
    4      -38.177990   1.000000
    5      -38.177918   1.000000
    6      -26.739526   1.000000
    7       -3.911491   1.000000
    8       -1.025237   1.000000
    9       -1.005763   1.000000
   10        6.892455   0.000000
   11       11.180767   0.000000
   12       11.190118   0.000000
   13       11.580911   0.000000
   14       14.020724   0.000000
   15       16.197652   0.000000
   16       16.199844   0.000000
   17       17.079609   0.000000
   18       17.856613   0.000000
   19       17.865522   0.000000
   20       21.709020   0.000000
   21       18.699641   0.000000
   22       18.702994   0.000000
   23       20.281094   0.000000
   24       23.967722   0.000000
   25       23.981358   0.000000
   26       25.493995   0.000000
   27       25.493995   0.000000
   28       26.434371   0.000000
   29       26.434371   0.000000
   30       27.237494   0.000000
   31       28.427504   0.000000
   32       30.238908   0.000000
   33       30.238908   0.000000
   34       30.909646   0.000000
   35       31.916959   0.000000
   36       31.916959   0.000000
   37       32.760898   0.000000
   38       33.111155   0.000000
   39       34.029690   0.000000
   40       34.029690   0.000000
   41       36.419393   0.000000
   42       36.419393   0.000000
   43       39.666493   0.000000
   44       39.666493   0.000000
   45       39.881130   0.000000
   46       39.881130   0.000000
   47       40.760299   0.000000
   48       42.096436   0.000000
   49       44.027981   0.000000
   50       44.027981   0.000000
   51       46.110424   0.000000
   52       46.110424   0.000000
   53       46.317234   0.000000
   54       46.349894   0.000000
   55       47.836641   0.000000
   56       50.230998   0.000000
   57       50.230998   0.000000
   58       50.746481   0.000000
   59       50.746481   0.000000
   60       51.266498   0.000000
   61       51.348032   0.000000
   62       52.478279   0.000000
   63       52.672947   0.000000
   64       52.847862   0.000000
   65       52.847862   0.000000
   66       52.933135   0.000000
   67       52.933135   0.000000
   68       57.289374   0.000000
   69       57.289374   0.000000
   70       57.324786   0.000000
   71       57.363973   0.000000
   72       58.032142   0.000000
   73       58.091180   0.000000
   74       58.091180   0.000000
   75       59.670902   0.000000
   76       59.670902   0.000000
   77       61.371611   0.000000
   78       61.371611   0.000000
   79       61.493213   0.000000
   80       63.102572   0.000000
   81       63.102572   0.000000
   82       63.457364   0.000000
   83       66.019177   0.000000
   84       66.019177   0.000000
   85       67.920090   0.000000
   86       67.989466   0.000000
   87       67.989466   0.000000
   88       68.858177   0.000000
   89       68.858177   0.000000
   90       69.973528   0.000000
   91       70.295165   0.000000
   92       72.081091   0.000000
   93       72.426215   0.000000
   94       72.426215   0.000000
   95       72.594585   0.000000
   96       72.594585   0.000000
   97       74.143151   0.000000
   98       74.407419   0.000000
   99       75.036601   0.000000
  100       75.522028   0.000000
  101       75.522028   0.000000
  102       75.756221   0.000000
  103       76.182842   0.000000
  104       77.681014   0.000000
  105       77.886101   0.000000
  106       77.991261   0.000000
  107       77.991261   0.000000
  108       79.092225   0.000000
  109       79.092225   0.000000
  110       79.239098   0.000000
  111       79.239098   0.000000
  112       81.949179   0.000000
  113       81.949179   0.000000
  114       82.859122   0.000000
  115       83.053136   0.000000
  116       83.053136   0.000000
  117       83.919896   0.000000
  118       85.948189   0.000000
  119       85.948189   0.000000
  120       86.115951   0.000000
  121       86.349477   0.000000
  122       86.637300   0.000000
  123       86.637300   0.000000
  124       87.890826   0.000000
  125       88.470601   0.000000
  126       88.470601   0.000000
  127       88.622554   0.000000
  128       88.622554   0.000000
 
 -0.1925930E-33  0.1666667E+00 -0.6938894E-17  0.9259259E-02
    1      -38.183161   1.000000
    2      -38.182918   1.000000
    3      -38.167417   1.000000
    4      -38.166615   1.000000
    5      -38.165827   1.000000
    6      -26.692351   1.000000
    7       -1.814085   1.000000
    8       -0.670539   1.000000
    9       -0.669292   1.000000
   10        5.641194   0.000000
   11       10.662249   0.000000
   12       11.952702   0.000000
   13       11.953510   0.000000
   14       13.321558   0.000000
   15       13.533255   0.000000
   16       13.536138   0.000000
   17       15.013509   0.000000
   18       17.377675   0.000000
   19       17.378598   0.000000
   20       19.102579   0.000000
   21       19.650103   0.000000
   22       19.650103   0.000000
   23       20.096232   0.000000
   24       23.712033   0.000000
   25       25.235318   0.000000
   26       25.235318   0.000000
   27       25.715571   0.000000
   28       27.172622   0.000000
   29       28.308058   0.000000
   30       28.308058   0.000000
   31       30.336123   0.000000
   32       30.336123   0.000000
   33       30.910674   0.000000
   34       32.239401   0.000000
   35       32.239401   0.000000
   36       35.488914   0.000000
   37       36.032668   0.000000
   38       36.479073   0.000000
   39       36.479073   0.000000
   40       36.959873   0.000000
   41       38.717283   0.000000
   42       38.717283   0.000000
   43       39.324624   0.000000
   44       39.324624   0.000000
   45       39.468610   0.000000
   46       40.548971   0.000000
   47       40.548971   0.000000
   48       41.498851   0.000000
   49       41.503372   0.000000
   50       42.924278   0.000000
   51       42.924278   0.000000
   52       43.354300   0.000000
   53       44.529254   0.000000
   54       44.909116   0.000000
   55       44.909116   0.000000
   56       45.703994   0.000000
   57       45.703994   0.000000
   58       47.365662   0.000000
   59       47.365662   0.000000
   60       48.609147   0.000000
   61       49.550011   0.000000
   62       49.550011   0.000000
   63       50.267156   0.000000
   64       51.349894   0.000000
   65       52.242389   0.000000
   66       52.304845   0.000000
   67       52.304845   0.000000
   68       53.993909   0.000000
   69       53.993909   0.000000
   70       54.000070   0.000000
   71       57.441676   0.000000
   72       59.407708   0.000000
   73       59.407708   0.000000
   74       60.576742   0.000000
   75       62.461590   0.000000
   76       62.461590   0.000000
   77       63.741179   0.000000
   78       63.741179   0.000000
   79       65.374880   0.000000
   80       65.424019   0.000000
   81       66.575295   0.000000
   82       67.000351   0.000000
   83       67.000351   0.000000
   84       69.692386   0.000000
   85       69.796654   0.000000
   86       69.796654   0.000000
   87       70.549541   0.000000
   88       70.549541   0.000000
   89       71.273171   0.000000
   90       71.273171   0.000000
   91       71.660076   0.000000
   92       71.844975   0.000000
   93       72.763899   0.000000
   94       72.763899   0.000000
   95       74.207393   0.000000
   96       74.963983   0.000000
   97       75.465483   0.000000
   98       75.465483   0.000000
   99       75.854522   0.000000
  100       75.854522   0.000000
  101       76.672463   0.000000
  102       77.387875   0.000000
  103       78.205553   0.000000
  104       78.205553   0.000000
  105       78.558660   0.000000
  106       78.558660   0.000000
  107       78.675263   0.000000
  108       79.100920   0.000000
  109       79.774925   0.000000
  110       79.774925   0.000000
  111       80.486128   0.000000
  112       80.486128   0.000000
  113       81.249540   0.000000
  114       81.249540   0.000000
  115       82.860511   0.000000
  116       83.522202   0.000000
  117       83.576493   0.000000
  118       84.279801   0.000000
  119       84.279801   0.000000
  120       84.361725   0.000000
  121       84.549900   0.000000
  122       85.925513   0.000000
  123       85.925513   0.000000
  124       86.897985   0.000000
  125       86.897985   0.000000
  126       88.238926   0.000000
  127       88.238926   0.000000
  128       88.593079   0.000000
 
  0.1666667E+00  0.1666667E+00  0.2775558E-16  0.9259259E-02
    1      -38.190053   1.000000
    2      -38.182775   1.000000
    3      -38.173751   1.000000
    4      -38.172610   1.000000
    5      -38.172367   1.000000
    6      -26.689651   1.000000
    7       -1.815174   1.000000
    8       -0.917301   1.000000
    9       -0.915947   1.000000
   10        6.182847   0.000000
   11        9.974904   0.000000
   12       11.538308   0.000000
   13       12.495133   0.000000
   14       12.495684   0.000000
   15       14.899103   0.000000
   16       15.375343   0.000000
   17       15.688376   0.000000
   18       15.688784   0.000000
   19       16.612602   0.000000
   20       20.488177   0.000000
   21       19.418740   0.000000
   22       19.916878   0.000000
   23       19.916878   0.000000
   24       23.484791   0.000000
   25       25.218005   0.000000
   26       25.218005   0.000000
   27       25.516168   0.000000
   28       26.796211   0.000000
   29       26.796211   0.000000
   30       27.781606   0.000000
   31       29.810919   0.000000
   32       30.446565   0.000000
   33       31.270840   0.000000
   34       34.015410   0.000000
   35       34.015410   0.000000
   36       35.150826   0.000000
   37       35.266410   0.000000
   38       35.266410   0.000000
   39       36.483896   0.000000
   40       36.926319   0.000000
   41       37.753701   0.000000
   42       38.349194   0.000000
   43       38.349194   0.000000
   44       39.361326   0.000000
   45       40.588421   0.000000
   46       41.016262   0.000000
   47       41.016262   0.000000
   48       41.664602   0.000000
   49       42.190172   0.000000
   50       42.190172   0.000000
   51       42.635219   0.000000
   52       43.237015   0.000000
   53       43.989456   0.000000
   54       44.594249   0.000000
   55       44.594249   0.000000
   56       44.943130   0.000000
   57       46.517626   0.000000
   58       46.517626   0.000000
   59       48.359052   0.000000
   60       48.403028   0.000000
   61       50.216948   0.000000
   62       51.204374   0.000000
   63       51.527300   0.000000
   64       51.527300   0.000000
   65       52.218653   0.000000
   66       52.739975   0.000000
   67       52.739975   0.000000
   68       53.365961   0.000000
   69       55.501059   0.000000
   70       55.501059   0.000000
   71       57.170442   0.000000
   72       58.699770   0.000000
   73       59.302321   0.000000
   74       60.511141   0.000000
   75       62.118991   0.000000
   76       62.118991   0.000000
   77       63.977476   0.000000
   78       64.067228   0.000000
   79       64.067228   0.000000
   80       64.694918   0.000000
   81       65.452109   0.000000
   82       66.888592   0.000000
   83       68.278687   0.000000
   84       68.278687   0.000000
   85       69.264985   0.000000
   86       70.005510   0.000000
   87       70.010999   0.000000
   88       70.148081   0.000000
   89       70.148081   0.000000
   90       70.851173   0.000000
   91       71.696344   0.000000
   92       71.696344   0.000000
   93       72.704151   0.000000
   94       73.363980   0.000000
   95       73.363980   0.000000
   96       73.389167   0.000000
   97       74.089020   0.000000
   98       75.329833   0.000000
   99       75.836021   0.000000
  100       76.432039   0.000000
  101       76.432039   0.000000
  102       76.937948   0.000000
  103       78.333378   0.000000
  104       78.423827   0.000000
  105       78.423827   0.000000
  106       78.553984   0.000000
  107       79.055944   0.000000
  108       80.346220   0.000000
  109       80.346220   0.000000
  110       80.644262   0.000000
  111       81.292709   0.000000
  112       81.338150   0.000000
  113       81.338150   0.000000
  114       81.632490   0.000000
  115       81.894850   0.000000
  116       83.423401   0.000000
  117       83.423401   0.000000
  118       83.993746   0.000000
  119       84.498398   0.000000
  120       84.865185   0.000000
  121       85.993453   0.000000
  122       85.993453   0.000000
  123       87.178046   0.000000
  124       87.178046   0.000000
  125       87.395634   0.000000
  126       87.846544   0.000000
  127       88.593806   0.000000
  128       88.890663   0.000000
 
  0.3333333E+00  0.1666667E+00 -0.2775558E-16  0.9259259E-02
    1      -38.192276   1.000000
    2      -38.178214   1.000000
    3      -38.172948   1.000000
    4      -38.171515   1.000000
    5      -38.165723   1.000000
    6      -26.652209   1.000000
    7       -2.948399   1.000000
    8       -1.240608   1.000000
    9       -1.185901   1.000000
   10        7.514254   0.000000
   11        9.921181   0.000000
   12       10.427656   0.000000
   13       12.603371   0.000000
   14       13.877461   0.000000
   15       14.801380   0.000000
   16       15.510047   0.000000
   17       17.699122   0.000000
   18       18.209340   0.000000
   19       19.534811   0.000000
   20       20.103588   0.000000
   21       18.534242   0.000000
   22       19.950327   0.000000
   23       20.708369   0.000000
   24       21.805499   0.000000
   25       24.293244   0.000000
   26       24.764900   0.000000
   27       24.956291   0.000000
   28       25.671575   0.000000
   29       26.135506   0.000000
   30       27.576773   0.000000
   31       29.880682   0.000000
   32       30.506742   0.000000
   33       31.259745   0.000000
   34       32.257774   0.000000
   35       32.478083   0.000000
   36       32.985635   0.000000
   37       35.158290   0.000000
   38       35.196334   0.000000
   39       35.815814   0.000000
   40       36.332977   0.000000
   41       36.927189   0.000000
   42       37.060156   0.000000
   43       37.484090   0.000000
   44       39.327386   0.000000
   45       39.461190   0.000000
   46       41.190652   0.000000
   47       41.470642   0.000000
   48       42.312274   0.000000
   49       42.497996   0.000000
   50       42.602786   0.000000
   51       43.352006   0.000000
   52       43.775284   0.000000
   53       45.242593   0.000000
   54       45.490991   0.000000
   55       46.020620   0.000000
   56       46.357881   0.000000
   57       46.574643   0.000000
   58       49.580826   0.000000
   59       49.984914   0.000000
   60       50.371849   0.000000
   61       51.032643   0.000000
   62       51.528140   0.000000
   63       52.763497   0.000000
   64       53.886724   0.000000
   65       54.053368   0.000000
   66       54.254023   0.000000
   67       55.324445   0.000000
   68       55.854054   0.000000
   69       56.198047   0.000000
   70       56.338117   0.000000
   71       58.341875   0.000000
   72       58.721794   0.000000
   73       59.049002   0.000000
   74       59.580987   0.000000
   75       60.035073   0.000000
   76       61.920622   0.000000
   77       62.184540   0.000000
   78       62.754398   0.000000
   79       63.050868   0.000000
   80       63.719893   0.000000
   81       64.140743   0.000000
   82       64.593048   0.000000
   83       65.299961   0.000000
   84       65.784042   0.000000
   85       65.858922   0.000000
   86       66.744097   0.000000
   87       68.521033   0.000000
   88       68.833410   0.000000
   89       69.786783   0.000000
   90       70.136017   0.000000
   91       70.876188   0.000000
   92       71.578971   0.000000
   93       71.939498   0.000000
   94       72.756201   0.000000
   95       73.032179   0.000000
   96       73.088695   0.000000
   97       74.033854   0.000000
   98       74.279981   0.000000
   99       75.679301   0.000000
  100       75.951197   0.000000
  101       76.763647   0.000000
  102       76.972910   0.000000
  103       77.236307   0.000000
  104       77.687256   0.000000
  105       78.007562   0.000000
  106       78.497750   0.000000
  107       79.073106   0.000000
  108       79.780077   0.000000
  109       80.293503   0.000000
  110       80.812764   0.000000
  111       81.731015   0.000000
  112       82.346865   0.000000
  113       82.439153   0.000000
  114       83.225504   0.000000
  115       83.232527   0.000000
  116       83.855720   0.000000
  117       84.347923   0.000000
  118       84.387364   0.000000
  119       85.219966   0.000000
  120       85.665647   0.000000
  121       86.158428   0.000000