 vasp.5.4.4.18Apr17-6-g9f103f2a35 (build Jul 09 2018 16:43:14) complex          
  
 executed on             LinuxIFC date 2018.11.22  21:09:35
 running on   64 total cores
 distrk:  each k-point on    2 cores,   32 groups
 distr:  one band on NCORES_PER_BAND=   1 cores,    2 groups


--------------------------------------------------------------------------------------------------------


 INCAR:
 POTCAR:    PAW Og, JanMewes Oct 18               

 ----------------------------------------------------------------------------- 
|                                                                             |
|           W    W    AA    RRRRR   N    N  II  N    N   GGGG   !!!           |
|           W    W   A  A   R    R  NN   N  II  NN   N  G    G  !!!           |
|           W    W  A    A  R    R  N N  N  II  N N  N  G       !!!           |
|           W WW W  AAAAAA  RRRRR   N  N N  II  N  N N  G  GGG   !            |
|           WW  WW  A    A  R   R   N   NN  II  N   NN  G    G                |
|           W    W  A    A  R    R  N    N  II  N    N   GGGG   !!!           |
|                                                                             |
|      For optimal performance we recommend to set                            |
|        NCORE= 4 - approx SQRT( number of cores)                             |
|      NCORE specifies how many cores store one orbital (NPAR=cpu/NCORE).     |
|      This setting can  greatly improve the performance of VASP for DFT.     |
|      The default,   NCORE=1            might be grossly inefficient         |
|      on modern multi-core architectures or massively parallel machines.     |
|      Do your own testing !!!!                                               |
|      Unfortunately you need to use the default for GW and RPA calculations. |
|      (for HF NCORE is supported but not extensively tested yet)             |
|                                                                             |
 ----------------------------------------------------------------------------- 


 ----------------------------------------------------------------------------- 
|                                                                             |
|           W    W    AA    RRRRR   N    N  II  N    N   GGGG   !!!           |
|           W    W   A  A   R    R  NN   N  II  NN   N  G    G  !!!           |
|           W    W  A    A  R    R  N N  N  II  N N  N  G       !!!           |
|           W WW W  AAAAAA  RRRRR   N  N N  II  N  N N  G  GGG   !            |
|           WW  WW  A    A  R   R   N   NN  II  N   NN  G    G                |
|           W    W  A    A  R    R  N    N  II  N    N   GGGG   !!!           |
|                                                                             |
|      You have enabled k-point parallelism (KPAR>1).                         |
|      This developmental code was originally  written by Paul Kent at ORNL,  |
|      and carefully double checked in Vienna.                                |
|      GW as well as linear response parallelism added by Martijn Marsman     |
|      and Georg Kresse.                                                      |
|      Carefully verify results versus KPAR=1.                                |
|      Report problems to Paul Kent and Vienna.                               |
|                                                                             |
 ----------------------------------------------------------------------------- 

 POTCAR:    PAW Og, JanMewes Oct 18               
  local pseudopotential read in
  partial core-charges read in
  partial kinetic energy density read in
  kinetic energy density of atom read in
  atomic valenz-charges read in
  non local Contribution for L=           2  read in
    real space projection operators read in
  non local Contribution for L=           2  read in
    real space projection operators read in
  non local Contribution for L=           0  read in
    real space projection operators read in
  non local Contribution for L=           0  read in
    real space projection operators read in
  non local Contribution for L=           1  read in
    real space projection operators read in
  non local Contribution for L=           1  read in
    real space projection operators read in
    PAW grid and wavefunctions read in
 
   number of l-projection  operators is LMAX  =           6
   number of lm-projection operators is LMMAX =          18
 
  PAW Og, JanMewes Oct 18               :
 energy of atom  1       EATOM=-2640.5573
 kinetic energy error for atom=    0.6524 (will be added to EATOM!!)
 
 
 POSCAR: Og_FCC                                  
  positions in direct lattice
  velocities in cartesian coordinates
 exchange correlation table for  LEXCH =        8
   RHO(1)=    0.500       N(1)  =     2000
   RHO(2)=  100.500       N(2)  =     4000
 


--------------------------------------------------------------------------------------------------------


 ion  position               nearest neighbor table
   1  0.000  0.000  0.000-
 

IMPORTANT INFORMATION: All symmetrisations will be switched off!
NOSYMM: (Re-)initialisation of all symmetry stuff for point group C_1.

 
 
 KPOINTS: k-points                                

Automatic generation of k-mesh.
Space group operators:
 irot       det(A)        alpha          n_x          n_y          n_z        tau_x        tau_y        tau_z
    1     1.000000     0.000000     1.000000     0.000000     0.000000     0.000000     0.000000     0.000000
 
 Subroutine IBZKPT returns following result:
 ===========================================
 
 Found    112 irreducible k-points:
 
 Following reciprocal coordinates:
            Coordinates               Weight
  0.000000  0.000000  0.000000      1.000000
  0.166667  0.000000  0.000000      2.000000
  0.333333  0.000000  0.000000      2.000000
  0.500000  0.000000  0.000000      1.000000
 -0.000000  0.166667 -0.000000      2.000000
  0.166667  0.166667  0.000000      2.000000
  0.333333  0.166667 -0.000000      2.000000
  0.500000  0.166667  0.000000      2.000000
 -0.333333  0.166667 -0.000000      2.000000
 -0.166667  0.166667 -0.000000      2.000000
  0.000000  0.333333 -0.000000      2.000000
  0.166667  0.333333  0.000000      2.000000
  0.333333  0.333333  0.000000      2.000000
  0.500000  0.333333  0.000000      2.000000
 -0.333333  0.333333 -0.000000      2.000000
 -0.166667  0.333333 -0.000000      2.000000
  0.000000  0.500000 -0.000000      1.000000
  0.166667  0.500000  0.000000      2.000000
  0.333333  0.500000  0.000000      2.000000
  0.500000  0.500000  0.000000      1.000000
  0.000000  0.000000  0.166667      2.000000
  0.166667  0.000000  0.166667      2.000000
  0.333333 -0.000000  0.166667      2.000000
  0.500000 -0.000000  0.166667      2.000000
 -0.333333 -0.000000  0.166667      2.000000
 -0.166667  0.000000  0.166667      2.000000
 -0.000000  0.166667  0.166667      2.000000
  0.166667  0.166667  0.166667      2.000000
  0.333333  0.166667  0.166667      2.000000
  0.500000  0.166667  0.166667      2.000000
 -0.333333  0.166667  0.166667      2.000000
 -0.166667  0.166667  0.166667      2.000000
 -0.000000  0.333333  0.166667      2.000000
  0.166667  0.333333  0.166667      2.000000
  0.333333  0.333333  0.166667      2.000000
  0.500000  0.333333  0.166667      2.000000
 -0.333333  0.333333  0.166667      2.000000
 -0.166667  0.333333  0.166667      2.000000
 -0.000000  0.500000  0.166667      2.000000
  0.166667  0.500000  0.166667      2.000000
  0.333333  0.500000  0.166667      2.000000
  0.500000  0.500000  0.166667      2.000000
 -0.333333  0.500000  0.166667      2.000000
 -0.166667  0.500000  0.166667      2.000000
 -0.000000 -0.333333  0.166667      2.000000
  0.166667 -0.333333  0.166667      2.000000
  0.333333 -0.333333  0.166667      2.000000
  0.500000 -0.333333  0.166667      2.000000
 -0.333333 -0.333333  0.166667      2.000000
 -0.166667 -0.333333  0.166667      2.000000
  0.000000 -0.166667  0.166667      2.000000
  0.166667 -0.166667  0.166667      2.000000
  0.333333 -0.166667  0.166667      2.000000
  0.500000 -0.166667  0.166667      2.000000
 -0.333333 -0.166667  0.166667      2.000000
 -0.166667 -0.166667  0.166667      2.000000
  0.000000  0.000000  0.333333      2.000000
  0.166667  0.000000  0.333333      2.000000
  0.333333  0.000000  0.333333      2.000000
  0.500000 -0.000000  0.333333      2.000000
 -0.333333  0.000000  0.333333      2.000000
 -0.166667  0.000000  0.333333      2.000000
 -0.000000  0.166667  0.333333      2.000000
  0.166667  0.166667  0.333333      2.000000
  0.333333  0.166667  0.333333      2.000000
  0.500000  0.166667  0.333333      2.000000
 -0.333333  0.166667  0.333333      2.000000
 -0.166667  0.166667  0.333333      2.000000
 -0.000000  0.333333  0.333333      2.000000
  0.166667  0.333333  0.333333      2.000000
  0.333333  0.333333  0.333333      2.000000
  0.500000  0.333333  0.333333      2.000000
 -0.333333  0.333333  0.333333      2.000000
 -0.166667  0.333333  0.333333      2.000000
  0.000000  0.500000  0.333333      2.000000
  0.166667  0.500000  0.333333      2.000000
  0.333333  0.500000  0.333333      2.000000
  0.500000  0.500000  0.333333      2.000000
 -0.333333  0.500000  0.333333      2.000000
 -0.166667  0.500000  0.333333      2.000000
  0.000000 -0.333333  0.333333      2.000000
  0.166667 -0.333333  0.333333      2.000000
  0.333333 -0.333333  0.333333      2.000000
  0.500000 -0.333333  0.333333      2.000000
 -0.333333 -0.333333  0.333333      2.000000
 -0.166667 -0.333333  0.333333      2.000000
  0.000000 -0.166667  0.333333      2.000000
  0.166667 -0.166667  0.333333      2.000000
  0.333333 -0.166667  0.333333      2.000000
  0.500000 -0.166667  0.333333      2.000000
 -0.333333 -0.166667  0.333333      2.000000
 -0.166667 -0.166667  0.333333      2.000000
  0.000000  0.000000  0.500000      1.000000
  0.166667  0.000000  0.500000      2.000000
  0.333333  0.000000  0.500000      2.000000
  0.500000 -0.000000  0.500000      1.000000
 -0.000000  0.166667  0.500000      2.000000
  0.166667  0.166667  0.500000      2.000000
  0.333333  0.166667  0.500000      2.000000
  0.500000  0.166667  0.500000      2.000000
 -0.333333  0.166667  0.500000      2.000000
 -0.166667  0.166667  0.500000      2.000000
  0.000000  0.333333  0.500000      2.000000
  0.166667  0.333333  0.500000      2.000000
  0.333333  0.333333  0.500000      2.000000
  0.500000  0.333333  0.500000      2.000000
 -0.333333  0.333333  0.500000      2.000000
 -0.166667  0.333333  0.500000      2.000000
 -0.000000  0.500000  0.500000      1.000000
  0.166667  0.500000  0.500000      2.000000
  0.333333  0.500000  0.500000      2.000000
  0.500000  0.500000  0.500000      1.000000
 
 Following cartesian coordinates:
            Coordinates               Weight
  0.000000  0.000000  0.000000      1.000000
  0.038382 -0.022160 -0.015669      2.000000
  0.076763 -0.044319 -0.031339      2.000000
  0.115145 -0.066479 -0.047008      1.000000
  0.000000  0.044319 -0.015669      2.000000
  0.038382  0.022160 -0.031339      2.000000
  0.076763  0.000000 -0.047008      2.000000
  0.115145 -0.022160 -0.062677      2.000000
 -0.076763  0.088639  0.015669      2.000000
 -0.038382  0.066479 -0.000000      2.000000
  0.000000  0.088639 -0.031339      2.000000
  0.038382  0.066479 -0.047008      2.000000
  0.076763  0.044319 -0.062677      2.000000
  0.115145  0.022160 -0.078346      2.000000
 -0.076763  0.132958  0.000000      2.000000
 -0.038382  0.110798 -0.015669      2.000000
  0.000000  0.132958 -0.047008      1.000000
  0.038382  0.110798 -0.062677      2.000000
  0.076763  0.088639 -0.078346      2.000000
  0.115145  0.066479 -0.094016      1.000000
 -0.000000  0.000000  0.047008      2.000000
  0.038382 -0.022160  0.031339      2.000000
  0.076763 -0.044319  0.015669      2.000000
  0.115145 -0.066479  0.000000      2.000000
 -0.076763  0.044319  0.078346      2.000000
 -0.038382  0.022160  0.062677      2.000000
 -0.000000  0.044319  0.031339      2.000000
  0.038382  0.022160  0.015669      2.000000
  0.076763  0.000000  0.000000      2.000000
  0.115145 -0.022160 -0.015669      2.000000
 -0.076763  0.088639  0.062677      2.000000
 -0.038382  0.066479  0.047008      2.000000
 -0.000000  0.088639  0.015669      2.000000
  0.038382  0.066479  0.000000      2.000000
  0.076763  0.044319 -0.015669      2.000000
  0.115145  0.022160 -0.031339      2.000000
 -0.076763  0.132958  0.047008      2.000000
 -0.038382  0.110798  0.031339      2.000000
 -0.000000  0.132958  0.000000      2.000000
  0.038382  0.110798 -0.015669      2.000000
  0.076763  0.088639 -0.031339      2.000000
  0.115145  0.066479 -0.047008      2.000000
 -0.076763  0.177278  0.031339      2.000000
 -0.038382  0.155118  0.015669      2.000000
 -0.000000 -0.088639  0.078346      2.000000
  0.038382 -0.110798  0.062677      2.000000
  0.076763 -0.132958  0.047008      2.000000
  0.115145 -0.155118  0.031339      2.000000
 -0.076763 -0.044319  0.109685      2.000000
 -0.038382 -0.066479  0.094016      2.000000
 -0.000000 -0.044319  0.062677      2.000000
  0.038382 -0.066479  0.047008      2.000000
  0.076763 -0.088639  0.031339      2.000000
  0.115145 -0.110798  0.015669      2.000000
 -0.076763  0.000000  0.094016      2.000000
 -0.038382 -0.022160  0.078346      2.000000
 -0.000000  0.000000  0.094016      2.000000
  0.038382 -0.022160  0.078346      2.000000
  0.076763 -0.044319  0.062677      2.000000
  0.115145 -0.066479  0.047008      2.000000
 -0.076763  0.044319  0.125354      2.000000
 -0.038382  0.022160  0.109685      2.000000
 -0.000000  0.044319  0.078346      2.000000
  0.038382  0.022160  0.062677      2.000000
  0.076763  0.000000  0.047008      2.000000
  0.115145 -0.022160  0.031339      2.000000
 -0.076763  0.088639  0.109685      2.000000
 -0.038382  0.066479  0.094016      2.000000
 -0.000000  0.088639  0.062677      2.000000
  0.038382  0.066479  0.047008      2.000000
  0.076763  0.044319  0.031339      2.000000
  0.115145  0.022160  0.015669      2.000000
 -0.076763  0.132958  0.094016      2.000000
 -0.038382  0.110798  0.078346      2.000000
 -0.000000  0.132958  0.047008      2.000000
  0.038382  0.110798  0.031339      2.000000
  0.076763  0.088639  0.015669      2.000000
  0.115145  0.066479 -0.000000      2.000000
 -0.076763  0.177278  0.078346      2.000000
 -0.038382  0.155118  0.062677      2.000000
 -0.000000 -0.088639  0.125354      2.000000
  0.038382 -0.110798  0.109685      2.000000
  0.076763 -0.132958  0.094016      2.000000
  0.115145 -0.155118  0.078346      2.000000
 -0.076763 -0.044319  0.156693      2.000000
 -0.038382 -0.066479  0.141023      2.000000
 -0.000000 -0.044319  0.109685      2.000000
  0.038382 -0.066479  0.094016      2.000000
  0.076763 -0.088639  0.078346      2.000000
  0.115145 -0.110798  0.062677      2.000000
 -0.076763  0.000000  0.141023      2.000000
 -0.038382 -0.022160  0.125354      2.000000
 -0.000000  0.000000  0.141023      1.000000
  0.038382 -0.022160  0.125354      2.000000
  0.076763 -0.044319  0.109685      2.000000
  0.115145 -0.066479  0.094016      1.000000
 -0.000000  0.044319  0.125354      2.000000
  0.038382  0.022160  0.109685      2.000000
  0.076763  0.000000  0.094016      2.000000
  0.115145 -0.022160  0.078346      2.000000
 -0.076763  0.088639  0.156693      2.000000
 -0.038382  0.066479  0.141023      2.000000
 -0.000000  0.088639  0.109685      2.000000
  0.038382  0.066479  0.094016      2.000000
  0.076763  0.044319  0.078346      2.000000
  0.115145  0.022160  0.062677      2.000000
 -0.076763  0.132958  0.141023      2.000000
 -0.038382  0.110798  0.125354      2.000000
 -0.000000  0.132958  0.094016      1.000000
  0.038382  0.110798  0.078346      2.000000
  0.076763  0.088639  0.062677      2.000000
  0.115145  0.066479  0.047008      1.000000
 
 
 Subroutine IBZKPT_HF returns following result:
 ==============================================
 
 Found    216 k-points in 1st BZ
 the following    216 k-points will be used (e.g. in the exchange kernel)
 Following reciprocal coordinates:   # in IRBZ
  0.000000  0.000000  0.000000    0.00462963   1 t-inv F
  0.166667  0.000000  0.000000    0.00462963   2 t-inv F
  0.333333  0.000000  0.000000    0.00462963   3 t-inv F
  0.500000  0.000000  0.000000    0.00462963   4 t-inv F
 -0.000000  0.166667 -0.000000    0.00462963   5 t-inv F
  0.166667  0.166667  0.000000    0.00462963   6 t-inv F
  0.333333  0.166667 -0.000000    0.00462963   7 t-inv F
  0.500000  0.166667  0.000000    0.00462963   8 t-inv F
 -0.333333  0.166667 -0.000000    0.00462963   9 t-inv F
 -0.166667  0.166667 -0.000000    0.00462963  10 t-inv F
  0.000000  0.333333 -0.000000    0.00462963  11 t-inv F
  0.166667  0.333333  0.000000    0.00462963  12 t-inv F
  0.333333  0.333333  0.000000    0.00462963  13 t-inv F
  0.500000  0.333333  0.000000    0.00462963  14 t-inv F
 -0.333333  0.333333 -0.000000    0.00462963  15 t-inv F
 -0.166667  0.333333 -0.000000    0.00462963  16 t-inv F
  0.000000  0.500000 -0.000000    0.00462963  17 t-inv F
  0.166667  0.500000  0.000000    0.00462963  18 t-inv F
  0.333333  0.500000  0.000000    0.00462963  19 t-inv F
  0.500000  0.500000  0.000000    0.00462963  20 t-inv F
  0.000000  0.000000  0.166667    0.00462963  21 t-inv F
  0.166667  0.000000  0.166667    0.00462963  22 t-inv F
  0.333333 -0.000000  0.166667    0.00462963  23 t-inv F
  0.500000 -0.000000  0.166667    0.00462963  24 t-inv F
 -0.333333 -0.000000  0.166667    0.00462963  25 t-inv F
 -0.166667  0.000000  0.166667    0.00462963  26 t-inv F
 -0.000000  0.166667  0.166667    0.00462963  27 t-inv F
  0.166667  0.166667  0.166667    0.00462963  28 t-inv F
  0.333333  0.166667  0.166667    0.00462963  29 t-inv F
  0.500000  0.166667  0.166667    0.00462963  30 t-inv F
 -0.333333  0.166667  0.166667    0.00462963  31 t-inv F
 -0.166667  0.166667  0.166667    0.00462963  32 t-inv F
 -0.000000  0.333333  0.166667    0.00462963  33 t-inv F
  0.166667  0.333333  0.166667    0.00462963  34 t-inv F
  0.333333  0.333333  0.166667    0.00462963  35 t-inv F
  0.500000  0.333333  0.166667    0.00462963  36 t-inv F
 -0.333333  0.333333  0.166667    0.00462963  37 t-inv F
 -0.166667  0.333333  0.166667    0.00462963  38 t-inv F
 -0.000000  0.500000  0.166667    0.00462963  39 t-inv F
  0.166667  0.500000  0.166667    0.00462963  40 t-inv F
  0.333333  0.500000  0.166667    0.00462963  41 t-inv F
  0.500000  0.500000  0.166667    0.00462963  42 t-inv F
 -0.333333  0.500000  0.166667    0.00462963  43 t-inv F
 -0.166667  0.500000  0.166667    0.00462963  44 t-inv F
 -0.000000 -0.333333  0.166667    0.00462963  45 t-inv F
  0.166667 -0.333333  0.166667    0.00462963  46 t-inv F
  0.333333 -0.333333  0.166667    0.00462963  47 t-inv F
  0.500000 -0.333333  0.166667    0.00462963  48 t-inv F
 -0.333333 -0.333333  0.166667    0.00462963  49 t-inv F
 -0.166667 -0.333333  0.166667    0.00462963  50 t-inv F
  0.000000 -0.166667  0.166667    0.00462963  51 t-inv F
  0.166667 -0.166667  0.166667    0.00462963  52 t-inv F
  0.333333 -0.166667  0.166667    0.00462963  53 t-inv F
  0.500000 -0.166667  0.166667    0.00462963  54 t-inv F
 -0.333333 -0.166667  0.166667    0.00462963  55 t-inv F
 -0.166667 -0.166667  0.166667    0.00462963  56 t-inv F
  0.000000  0.000000  0.333333    0.00462963  57 t-inv F
  0.166667  0.000000  0.333333    0.00462963  58 t-inv F
  0.333333  0.000000  0.333333    0.00462963  59 t-inv F
  0.500000 -0.000000  0.333333    0.00462963  60 t-inv F
 -0.333333  0.000000  0.333333    0.00462963  61 t-inv F
 -0.166667  0.000000  0.333333    0.00462963  62 t-inv F
 -0.000000  0.166667  0.333333    0.00462963  63 t-inv F
  0.166667  0.166667  0.333333    0.00462963  64 t-inv F
  0.333333  0.166667  0.333333    0.00462963  65 t-inv F
  0.500000  0.166667  0.333333    0.00462963  66 t-inv F
 -0.333333  0.166667  0.333333    0.00462963  67 t-inv F
 -0.166667  0.166667  0.333333    0.00462963  68 t-inv F
 -0.000000  0.333333  0.333333    0.00462963  69 t-inv F
  0.166667  0.333333  0.333333    0.00462963  70 t-inv F
  0.333333  0.333333  0.333333    0.00462963  71 t-inv F
  0.500000  0.333333  0.333333    0.00462963  72 t-inv F
 -0.333333  0.333333  0.333333    0.00462963  73 t-inv F
 -0.166667  0.333333  0.333333    0.00462963  74 t-inv F
  0.000000  0.500000  0.333333    0.00462963  75 t-inv F
  0.166667  0.500000  0.333333    0.00462963  76 t-inv F
  0.333333  0.500000  0.333333    0.00462963  77 t-inv F
  0.500000  0.500000  0.333333    0.00462963  78 t-inv F
 -0.333333  0.500000  0.333333    0.00462963  79 t-inv F
 -0.166667  0.500000  0.333333    0.00462963  80 t-inv F
  0.000000 -0.333333  0.333333    0.00462963  81 t-inv F
  0.166667 -0.333333  0.333333    0.00462963  82 t-inv F
  0.333333 -0.333333  0.333333    0.00462963  83 t-inv F
  0.500000 -0.333333  0.333333    0.00462963  84 t-inv F
 -0.333333 -0.333333  0.333333    0.00462963  85 t-inv F
 -0.166667 -0.333333  0.333333    0.00462963  86 t-inv F
  0.000000 -0.166667  0.333333    0.00462963  87 t-inv F
  0.166667 -0.166667  0.333333    0.00462963  88 t-inv F
  0.333333 -0.166667  0.333333    0.00462963  89 t-inv F
  0.500000 -0.166667  0.333333    0.00462963  90 t-inv F
 -0.333333 -0.166667  0.333333    0.00462963  91 t-inv F
 -0.166667 -0.166667  0.333333    0.00462963  92 t-inv F
  0.000000  0.000000  0.500000    0.00462963  93 t-inv F
  0.166667  0.000000  0.500000    0.00462963  94 t-inv F
  0.333333  0.000000  0.500000    0.00462963  95 t-inv F
  0.500000 -0.000000  0.500000    0.00462963  96 t-inv F
 -0.000000  0.166667  0.500000    0.00462963  97 t-inv F
  0.166667  0.166667  0.500000    0.00462963  98 t-inv F
  0.333333  0.166667  0.500000    0.00462963  99 t-inv F
  0.500000  0.166667  0.500000    0.00462963 100 t-inv F
 -0.333333  0.166667  0.500000    0.00462963 101 t-inv F
 -0.166667  0.166667  0.500000    0.00462963 102 t-inv F
  0.000000  0.333333  0.500000    0.00462963 103 t-inv F
  0.166667  0.333333  0.500000    0.00462963 104 t-inv F
  0.333333  0.333333  0.500000    0.00462963 105 t-inv F
  0.500000  0.333333  0.500000    0.00462963 106 t-inv F
 -0.333333  0.333333  0.500000    0.00462963 107 t-inv F
 -0.166667  0.333333  0.500000    0.00462963 108 t-inv F
 -0.000000  0.500000  0.500000    0.00462963 109 t-inv F
  0.166667  0.500000  0.500000    0.00462963 110 t-inv F
  0.333333  0.500000  0.500000    0.00462963 111 t-inv F
  0.500000  0.500000  0.500000    0.00462963 112 t-inv F
 -0.166667 -0.000000 -0.000000    0.00462963   2 t-inv T
 -0.333333 -0.000000  0.000000    0.00462963   3 t-inv T
  0.000000 -0.166667  0.000000    0.00462963   5 t-inv T
 -0.166667 -0.166667 -0.000000    0.00462963   6 t-inv T
 -0.333333 -0.166667  0.000000    0.00462963   7 t-inv T
 -0.500000 -0.166667 -0.000000    0.00462963   8 t-inv T
  0.333333 -0.166667  0.000000    0.00462963   9 t-inv T
  0.166667 -0.166667  0.000000    0.00462963  10 t-inv T
 -0.000000 -0.333333  0.000000    0.00462963  11 t-inv T
 -0.166667 -0.333333 -0.000000    0.00462963  12 t-inv T
 -0.333333 -0.333333 -0.000000    0.00462963  13 t-inv T
 -0.500000 -0.333333 -0.000000    0.00462963  14 t-inv T
  0.333333 -0.333333  0.000000    0.00462963  15 t-inv T
  0.166667 -0.333333  0.000000    0.00462963  16 t-inv T
 -0.166667 -0.500000 -0.000000    0.00462963  18 t-inv T
 -0.333333 -0.500000  0.000000    0.00462963  19 t-inv T
  0.000000  0.000000 -0.166667    0.00462963  21 t-inv T
 -0.166667 -0.000000 -0.166667    0.00462963  22 t-inv T
 -0.333333  0.000000 -0.166667    0.00462963  23 t-inv T
 -0.500000  0.000000 -0.166667    0.00462963  24 t-inv T
  0.333333  0.000000 -0.166667    0.00462963  25 t-inv T
  0.166667 -0.000000 -0.166667    0.00462963  26 t-inv T
  0.000000 -0.166667 -0.166667    0.00462963  27 t-inv T
 -0.166667 -0.166667 -0.166667    0.00462963  28 t-inv T
 -0.333333 -0.166667 -0.166667    0.00462963  29 t-inv T
 -0.500000 -0.166667 -0.166667    0.00462963  30 t-inv T
  0.333333 -0.166667 -0.166667    0.00462963  31 t-inv T
  0.166667 -0.166667 -0.166667    0.00462963  32 t-inv T
  0.000000 -0.333333 -0.166667    0.00462963  33 t-inv T
 -0.166667 -0.333333 -0.166667    0.00462963  34 t-inv T
 -0.333333 -0.333333 -0.166667    0.00462963  35 t-inv T
 -0.500000 -0.333333 -0.166667    0.00462963  36 t-inv T
  0.333333 -0.333333 -0.166667    0.00462963  37 t-inv T
  0.166667 -0.333333 -0.166667    0.00462963  38 t-inv T
  0.000000 -0.500000 -0.166667    0.00462963  39 t-inv T
 -0.166667 -0.500000 -0.166667    0.00462963  40 t-inv T
 -0.333333 -0.500000 -0.166667    0.00462963  41 t-inv T
 -0.500000 -0.500000 -0.166667    0.00462963  42 t-inv T
  0.333333 -0.500000 -0.166667    0.00462963  43 t-inv T
  0.166667 -0.500000 -0.166667    0.00462963  44 t-inv T
  0.000000  0.333333 -0.166667    0.00462963  45 t-inv T
 -0.166667  0.333333 -0.166667    0.00462963  46 t-inv T
 -0.333333  0.333333 -0.166667    0.00462963  47 t-inv T
 -0.500000  0.333333 -0.166667    0.00462963  48 t-inv T
  0.333333  0.333333 -0.166667    0.00462963  49 t-inv T
  0.166667  0.333333 -0.166667    0.00462963  50 t-inv T
 -0.000000  0.166667 -0.166667    0.00462963  51 t-inv T
 -0.166667  0.166667 -0.166667    0.00462963  52 t-inv T
 -0.333333  0.166667 -0.166667    0.00462963  53 t-inv T
 -0.500000  0.166667 -0.166667    0.00462963  54 t-inv T
  0.333333  0.166667 -0.166667    0.00462963  55 t-inv T
  0.166667  0.166667 -0.166667    0.00462963  56 t-inv T
  0.000000  0.000000 -0.333333    0.00462963  57 t-inv T
 -0.166667 -0.000000 -0.333333    0.00462963  58 t-inv T
 -0.333333 -0.000000 -0.333333    0.00462963  59 t-inv T
 -0.500000  0.000000 -0.333333    0.00462963  60 t-inv T
  0.333333 -0.000000 -0.333333    0.00462963  61 t-inv T
  0.166667 -0.000000 -0.333333    0.00462963  62 t-inv T
  0.000000 -0.166667 -0.333333    0.00462963  63 t-inv T
 -0.166667 -0.166667 -0.333333    0.00462963  64 t-inv T
 -0.333333 -0.166667 -0.333333    0.00462963  65 t-inv T
 -0.500000 -0.166667 -0.333333    0.00462963  66 t-inv T
  0.333333 -0.166667 -0.333333    0.00462963  67 t-inv T
  0.166667 -0.166667 -0.333333    0.00462963  68 t-inv T
  0.000000 -0.333333 -0.333333    0.00462963  69 t-inv T
 -0.166667 -0.333333 -0.333333    0.00462963  70 t-inv T
 -0.333333 -0.333333 -0.333333    0.00462963  71 t-inv T
 -0.500000 -0.333333 -0.333333    0.00462963  72 t-inv T
  0.333333 -0.333333 -0.333333    0.00462963  73 t-inv T
  0.166667 -0.333333 -0.333333    0.00462963  74 t-inv T
 -0.000000 -0.500000 -0.333333    0.00462963  75 t-inv T
 -0.166667 -0.500000 -0.333333    0.00462963  76 t-inv T
 -0.333333 -0.500000 -0.333333    0.00462963  77 t-inv T
 -0.500000 -0.500000 -0.333333    0.00462963  78 t-inv T
  0.333333 -0.500000 -0.333333    0.00462963  79 t-inv T
  0.166667 -0.500000 -0.333333    0.00462963  80 t-inv T
 -0.000000  0.333333 -0.333333    0.00462963  81 t-inv T
 -0.166667  0.333333 -0.333333    0.00462963  82 t-inv T
 -0.333333  0.333333 -0.333333    0.00462963  83 t-inv T
 -0.500000  0.333333 -0.333333    0.00462963  84 t-inv T
  0.333333  0.333333 -0.333333    0.00462963  85 t-inv T
  0.166667  0.333333 -0.333333    0.00462963  86 t-inv T
 -0.000000  0.166667 -0.333333    0.00462963  87 t-inv T
 -0.166667  0.166667 -0.333333    0.00462963  88 t-inv T
 -0.333333  0.166667 -0.333333    0.00462963  89 t-inv T
 -0.500000  0.166667 -0.333333    0.00462963  90 t-inv T
  0.333333  0.166667 -0.333333    0.00462963  91 t-inv T
  0.166667  0.166667 -0.333333    0.00462963  92 t-inv T
 -0.166667 -0.000000 -0.500000    0.00462963  94 t-inv T
 -0.333333 -0.000000 -0.500000    0.00462963  95 t-inv T
  0.000000 -0.166667 -0.500000    0.00462963  97 t-inv T
 -0.166667 -0.166667 -0.500000    0.00462963  98 t-inv T
 -0.333333 -0.166667 -0.500000    0.00462963  99 t-inv T
 -0.500000 -0.166667 -0.500000    0.00462963 100 t-inv T
  0.333333 -0.166667 -0.500000    0.00462963 101 t-inv T
  0.166667 -0.166667 -0.500000    0.00462963 102 t-inv T
  0.000000 -0.333333 -0.500000    0.00462963 103 t-inv T
 -0.166667 -0.333333 -0.500000    0.00462963 104 t-inv T
 -0.333333 -0.333333 -0.500000    0.00462963 105 t-inv T
 -0.500000 -0.333333 -0.500000    0.00462963 106 t-inv T
  0.333333 -0.333333 -0.500000    0.00462963 107 t-inv T
  0.166667 -0.333333 -0.500000    0.00462963 108 t-inv T
 -0.166667 -0.500000 -0.500000    0.00462963 110 t-inv T
 -0.333333 -0.500000 -0.500000    0.00462963 111 t-inv T


--------------------------------------------------------------------------------------------------------




 Dimension of arrays:
   k-points           NKPTS =    112   k-points in BZ     NKDIM =    216   number of bands    NBANDS=    128
   number of dos      NEDOS =    301   number of ions     NIONS =      1
   non local maximal  LDIM  =      6   non local SUM 2l+1 LMDIM =     18
   total plane-waves  NPLWV =  21952
   max r-space proj   IRMAX =      1   max aug-charges    IRDMAX= 182324
   dimension x,y,z NGX =    28 NGY =   28 NGZ =   28
   dimension x,y,z NGXF=    56 NGYF=   56 NGZF=   56
   support grid    NGXF=   112 NGYF=  112 NGZF=  112
   ions per type =               1
   NGX,Y,Z   is equivalent  to a cutoff of  10.72, 10.72, 10.72 a.u.
   NGXF,Y,Z  is equivalent  to a cutoff of  21.44, 21.44, 21.44 a.u.

 SYSTEM =  Og_FCC                                  
 POSCAR =  Og_FCC                                  

 Startparameter for this run:
   NWRITE =      1    write-flag & timer
   PREC   = accura    normal or accurate (medium, high low for compatibility)
   ISTART =      1    job   : 0-new  1-cont  2-samecut
   ICHARG =      0    charge: 1-file 2-atom 10-const
   ISPIN  =      1    spin polarized calculation?
   LNONCOLLINEAR =      F non collinear calculations
   LSORBIT =      F    spin-orbit coupling
   INIWAV =      1    electr: 0-lowe 1-rand  2-diag
   LASPH  =      F    aspherical Exc in radial PAW
   METAGGA=      F    non-selfconsistent MetaGGA calc.

 Electronic Relaxation 1
   ENCUT  =  300.0 eV  22.05 Ry    4.70 a.u.   6.13  6.13  6.13*2*pi/ulx,y,z
   ENINI  =  300.0     initial cutoff
   ENAUG  =  361.0 eV  augmentation charge cutoff
   NELM   =      1;   NELMIN=  2; NELMDL=  0     # of ELM steps 
   EDIFF  = 0.1E-07   stopping-criterion for ELM
   LREAL  =      F    real-space projection
   NLSPLINE    = F    spline interpolate recip. space projectors
   LCOMPAT=      F    compatible to vasp.4.4
   GGA_COMPAT  = F    GGA compatible to vasp.4.4-vasp.4.6
   LMAXPAW     = -100 max onsite density
   LMAXMIX     =    2 max onsite mixed and CHGCAR
   VOSKOWN=      0    Vosko Wilk Nusair interpolation
   ROPT   =    0.00000
 Ionic relaxation
   EDIFFG = 0.1E-04   stopping-criterion for IOM
   NSW    =      1    number of steps for IOM
   NBLOCK =      1;   KBLOCK =      1    inner block; outer block 
   IBRION =     -1    ionic relax: 0-MD 1-quasi-New 2-CG
   NFREE  =      5    steps in history (QN), initial steepest desc. (CG)
   ISIF   =      3    stress and relaxation
   IWAVPR =     10    prediction:  0-non 1-charg 2-wave 3-comb
   ISYM   =      0    0-nonsym 1-usesym 2-fastsym
   LCORR  =      T    Harris-Foulkes like correction to forces

   POTIM  = 0.1000    time-step for ionic-motion
   TEIN   =    0.0    initial temperature
   TEBEG  =    0.0;   TEEND  =   0.0 temperature during run
   SMASS  =  -3.00    Nose mass-parameter (am)
   estimated Nose-frequenzy (Omega)   =  0.10E-29 period in steps =****** mass=  -0.431E-27a.u.
   SCALEE = 1.0000    scale energy and forces
   NPACO  =    256;   APACO  = 16.0  distance and # of slots for P.C.
   PSTRESS=    0.0 pullay stress

  Mass of Ions in am
   POMASS =   0.01
  Ionic Valenz
   ZVAL   =  18.00
  Atomic Wigner-Seitz radii
   RWIGS  =  -1.00
  virtual crystal weights 
   VCA    =   1.00
   NELECT =      18.0000    total number of electrons
   NUPDOWN=      -1.0000    fix difference up-down

 DOS related values:
   EMIN   =  10.00;   EMAX   =-10.00  energy-range for DOS
   EFERMI =   0.00
   ISMEAR =     0;   SIGMA  =   0.00  broadening in eV -4-tet -1-fermi 0-gaus

 Electronic relaxation 2 (details)
   IALGO  =     38    algorithm
   LDIAG  =      T    sub-space diagonalisation (order eigenvalues)
   LSUBROT=      F    optimize rotation matrix (better conditioning)
   TURBO    =      0    0=normal 1=particle mesh
   IRESTART =      0    0=no restart 2=restart with 2 vectors
   NREBOOT  =      0    no. of reboots
   NMIN     =      0    reboot dimension
   EREF     =   0.00    reference energy to select bands
   IMIX   =      1    mixing-type and parameters
     AMIX     =   0.40;   BMIX     =  1.00
     AMIX_MAG =   1.60;   BMIX_MAG =  1.00
     AMIN     =   0.10
     WC   =   100.;   INIMIX=   1;  MIXPRE=   1;  MAXMIX=  50

 Intra band minimization:
   WEIMIN = 0.0000     energy-eigenvalue tresh-hold
   EBREAK =  0.20E-10  absolut break condition
   DEPER  =   0.30     relativ break condition  

   TIME   =   0.40     timestep for ELM

  volume/ion in A,a.u.               =      57.90       390.71
  Fermi-wavevector in a.u.,A,eV,Ry     =   1.109038  2.095777 16.734680  1.229964
  Thomas-Fermi vector in A             =   2.245572
 
 Write flags
   LWAVE        =      T    write WAVECAR
   LDOWNSAMPLE  =      F    k-point downsampling of WAVECAR
   LCHARG       =      F    write CHGCAR
   LVTOT        =      F    write LOCPOT, total local potential
   LVHAR        =      F    write LOCPOT, Hartree potential only
   LELF         =      F    write electronic localiz. function (ELF)
   LORBIT       =      0    0 simple, 1 ext, 2 COOP (PROOUT), +10 PAW based schemes


 Dipole corrections
   LMONO  =      F    monopole corrections only (constant potential shift)
   LDIPOL =      F    correct potential (dipole corrections)
   IDIPOL =      0    1-x, 2-y, 3-z, 4-all directions 
   EPSILON=  1.0000000 bulk dielectric constant

 Exchange correlation treatment:
   GGA     =    PE    GGA type
   LEXCH   =     8    internal setting for exchange type
   VOSKOWN=      0    Vosko Wilk Nusair interpolation
   EXXOEP  =     0    0=HF, 1=EXX-LHF (local Hartree Fock) 2=EXX OEP
   LHFCALC =     T    Hartree Fock is set to
   LSYMGRAD=     F    symmetrize gradient (conserves proper symmetry)
   PRECFOCK=normal    Normal, Fast or Accurate (Low or Medium for compatibility)
   LRHFCALC=     F    long range Hartree Fock
   LRSCOR  =     F    long range correlation only (use DFT for short range part)
   LTHOMAS =     F    Thomas Fermi screening in HF
   LMODELHF=     F    short range full HF, long range fraction AEXX
   ENCUT4O =  -1.0   cutoff for four orbital integrals eV
   LMAXFOCK=     4    L truncation for augmentation on plane wave grid
   LMAXFOCKAE=   4    L truncation for all-electron charge restoration on plane wave grid
   NMAXFOCKAE=   1    number of basis functions for all-electron charge restoration
   LFOCKAEDFT=     F  apply the AE augmentation even for DFT
   NKREDX  =     1    reduce k-point grid by
   NKREDY  =     1    reduce k-point grid by
   NKREDZ  =     1    reduce k-point grid by
   SHIFTRED=     F    shift reduced grid of Gamma
   HFKIDENT=     F    idential grid for each k-point
   ODDONLY =     F    use only odd q-grid points
   EVENONLY=     F    use only even q-grid points
   HFALPHA =   -1.0000 decay constant for conv. correction
   MCALPHA =    0.0000 extent of test-charge in conv. correction in multipole expansion
   AEXX    =    1.0000 exact exchange contribution
   HFSCREEN=    0.0000 screening length (either q_TF or 0.3 A-1)
   HFSCREENC=   0.0000 screening length for correlation (either q_TF or 0.3 A-1)
   HFRCUT  =    0.0000 spherical cutoff for potential kernel
   ALDAX   =    0.0000 LDA exchange part
   AGGAX   =    0.0000 GGA exchange part
   ALDAC   =    0.0000 LDA correlation
   AGGAC   =    0.0000 GGA correlation
   ENCUTFOCK=  -1.0 apply spherical cutoff to Coloumb kernel
   NBANDSGWLOW=     1    first orbital included in HF term
   NBLOCK_FOCK=    64    blocking factor in FOCK_ACC
 Linear response parameters
   LEPSILON=     F    determine dielectric tensor
   LRPA    =     F    only Hartree local field effects (RPA)
   LNABLA  =     F    use nabla operator in PAW spheres
   LVEL    =     F    velocity operator in full k-point grid
   LINTERFAST=   F  fast interpolation
   KINTER  =     0    interpolate to denser k-point grid
   CSHIFT  =0.1000    complex shift for real part using Kramers Kronig
   OMEGAMAX=  -1.0    maximum frequency
   DEG_THRESHOLD= 0.2000000E-02 threshold for treating states as degnerate
   RTIME   =   -0.100 relaxation time in fs
  (WPLASMAI=    0.000 imaginary part of plasma frequency in eV, 0.658/RTIME)
   DFIELD  = 0.0000000 0.0000000 0.0000000 field for delta impulse in time
 
 Orbital magnetization related:
   ORBITALMAG=     F  switch on orbital magnetization
   LCHIMAG   =     F  perturbation theory with respect to B field
   DQ        =  0.001000  dq finite difference perturbation B field
   LLRAUG    =     F  two centre corrections for induced B field

 Response functions by sum over occupied states:
   ALGO    =QPGW       execute GW part
   LFXC    =     F    include DFT xc kernel in TD-HF and W
   LADDER  =     F    particle hole ladder diagrams for BSE/TD-HF and W (Nano-quanta)
   LRPAFORCE=     F   calculate RPA forces
   LHARTREE=     T    include Hartree terms (bubbles-RPA) in BSE/TD-HF
   IBSE    =     0    BSE modus: 0 exact, 1 time-evolution (store matrix), 10 time-evolution (implicit)
   KPOINT  =    -1   0   0   0    k-point index at which BSE equation is solved (and G at which response is eval.)
   LTRIPLET=     F    triplet instead of singlet excitation (BSE only)
   LRSRPA  =     F    range separated RPA (total - short) in ACFDT
   LTCTE   =     F    use test-charge test-electron dielectric function
   LTETE   =     F    use test-electron test-electron dielectric function
   LFXCEPS =     F    determine f_xc=epsilon-1/Xi Sharma and Gross kernel
   LFXHEG  =     F    model exchange using f_x(G,k_F) from free electron gas
   NATURALO=     2    0 natural orbitals, 1 only virtual, 2 only occupied-virtual rotation
   L2ORDER =     F    2nd order terms only
   LMP2LT   =     F    use LT MP2
   LUSEW   =     F    use screened W from WXXXX.tmp files instead of (screened) HF kernel
   ENCUTGW = 200.0    cutoff for response function in eV
   ENCUTGWSOFT = 200.0 soft cutoff for Coulomb kernel in GW response function in eV
   ENCUTLF =  -1.0    cutoff for local field effects
   LMAXMP2 =    -1    maximum L for one center terms
   SCISSOR =   0.0    scissor correction
   NOMEGA  =    50    number of frequencies
   NOMEGAR =    50    number of frequencies along real axis
   NBANDSGW=    -1    number of bands for which selfenergy shift is calculated
   NBANDSGWLOW=     1 lowest band included in GW (to exclude core correlation)
   NBANDSO =    -1    number of bands for electron-hole treatment (occupied)
   NBANDSV =    -1    number of bands for electron-hole treatment (virtual)
   NELM    =     1    number of iterations in solving QP/BSE equation
   NELMHF  =     1    number of iterations in the inner HF iteration
   DIM     =     3    dimensionality of system (0=0D molecules, 3=3D)
   ANTIRES =     0    antiresonant part (0) no TDA (1) w=0 exact (2) accurate
   OMEGAMAX= -30.0    maximum frequency
   OMEGAMIN= -30.000    minimum frequency
   OMEGATL =-200.0    maximum frequency of tail
   OMEGAGRID=     0    grid type (0 default)
   CSHIFT  =-0.100    complex shift used in evaluation of response functions
   SELFENERGY=   F    calculate selfenergy instead of QP shifts
   LSPECTRAL =   T    use spectral functions                   
   LSPECTRALGW=   F   use spectral functions to calculate int dz G(w-z) W(z) (more accurate)
   LSINGLES  =   F   calculate the singles contribution to the correlation energy
   LFERMIGW  =   F   update Fermi-energy in the Greens function

   ODDONLYGW =   F    avoid all even points for polarizability 
   EVENONLYGW=   F    avoid all odd  points for polarizability 
   NKREDLFX  =   1   NKREDLFY  =   1   NKREDLFZ  =   1

   TELESCOPE =   0   use telescope k-point sampling
   TAUPAR    =   1   number of TAU groups used in imaginary time calculation
   OMEGAPAR  =  -1   number of OMEGA groups used in imaginary frequency calculation



--------------------------------------------------------------------------------------------------------


 Static calculation
 charge density and potential will be updated during run
 non-spin polarized calculation
 Variant of blocked Davidson
 Davidson routine will perform the subspace rotation
 perform sub-space diagonalisation
    after iterative eigenvector-optimisation
 Kerker-like  mixing scheme
 using additional bands          119
 reciprocal scheme for non local part
 use partial core corrections
 calculate Harris-corrections to forces 
   (improved forces if not selfconsistent)
 use gradient corrections 
 use of overlap-Matrix (Vanderbilt PP)
 Gauss-broadening in eV      SIGMA  =   0.00


--------------------------------------------------------------------------------------------------------


  energy-cutoff  :      300.00
  volume of cell :       57.90
      direct lattice vectors                 reciprocal lattice vectors
     4.342345876  0.000000000  0.000000000     0.230290269 -0.132958149 -0.094015609
     2.171172938  3.760581840 -0.000000000     0.000000000  0.265916298 -0.094015609
     2.171172938  1.253527280  3.545510561    -0.000000000  0.000000000  0.282046826

  length of vectors
     4.342345876  4.342345876  4.342345876     0.282046826  0.282046826  0.282046826


 
 old parameters found on file WAVECAR:
  energy-cutoff  :      300.00
  volume of cell :       57.90
      direct lattice vectors                 reciprocal lattice vectors
     4.342345876  0.000000000  0.000000000     0.230290269 -0.132958149 -0.094015609
     2.171172938  3.760581840 -0.000000000     0.000000000  0.265916298 -0.094015609
     2.171172938  1.253527280  3.545510561    -0.000000000  0.000000000  0.282046826

  length of vectors

 
 k-points in units of 2pi/SCALE and weight: k-points                                
   0.00000000  0.00000000  0.00000000       0.005
   0.03838171 -0.02215969 -0.01566927       0.009
   0.07676342 -0.04431938 -0.03133854       0.009
   0.11514513 -0.06647907 -0.04700780       0.005
   0.00000000  0.04431938 -0.01566927       0.009
   0.03838171  0.02215969 -0.03133854       0.009
   0.07676342  0.00000000 -0.04700780       0.009
   0.11514513 -0.02215969 -0.06267707       0.009
  -0.07676342  0.08863877  0.01566927       0.009
  -0.03838171  0.06647907 -0.00000000       0.009
   0.00000000  0.08863877 -0.03133854       0.009
   0.03838171  0.06647907 -0.04700780       0.009
   0.07676342  0.04431938 -0.06267707       0.009
   0.11514513  0.02215969 -0.07834634       0.009
  -0.07676342  0.13295815  0.00000000       0.009
  -0.03838171  0.11079846 -0.01566927       0.009
   0.00000000  0.13295815 -0.04700780       0.005
   0.03838171  0.11079846 -0.06267707       0.009
   0.07676342  0.08863877 -0.07834634       0.009
   0.11514513  0.06647907 -0.09401561       0.005
  -0.00000000  0.00000000  0.04700780       0.009
   0.03838171 -0.02215969  0.03133854       0.009
   0.07676342 -0.04431938  0.01566927       0.009
   0.11514513 -0.06647907  0.00000000       0.009
  -0.07676342  0.04431938  0.07834634       0.009
  -0.03838171  0.02215969  0.06267707       0.009
  -0.00000000  0.04431938  0.03133854       0.009
   0.03838171  0.02215969  0.01566927       0.009
   0.07676342  0.00000000  0.00000000       0.009
   0.11514513 -0.02215969 -0.01566927       0.009
  -0.07676342  0.08863877  0.06267707       0.009
  -0.03838171  0.06647907  0.04700780       0.009
  -0.00000000  0.08863877  0.01566927       0.009
   0.03838171  0.06647907  0.00000000       0.009
   0.07676342  0.04431938 -0.01566927       0.009
   0.11514513  0.02215969 -0.03133854       0.009
  -0.07676342  0.13295815  0.04700780       0.009
  -0.03838171  0.11079846  0.03133854       0.009
  -0.00000000  0.13295815  0.00000000       0.009
   0.03838171  0.11079846 -0.01566927       0.009
   0.07676342  0.08863877 -0.03133854       0.009
   0.11514513  0.06647907 -0.04700780       0.009
  -0.07676342  0.17727753  0.03133854       0.009
  -0.03838171  0.15511784  0.01566927       0.009
  -0.00000000 -0.08863877  0.07834634       0.009
   0.03838171 -0.11079846  0.06267707       0.009
   0.07676342 -0.13295815  0.04700780       0.009
   0.11514513 -0.15511784  0.03133854       0.009
  -0.07676342 -0.04431938  0.10968488       0.009
  -0.03838171 -0.06647907  0.09401561       0.009
  -0.00000000 -0.04431938  0.06267707       0.009
   0.03838171 -0.06647907  0.04700780       0.009
   0.07676342 -0.08863877  0.03133854       0.009
   0.11514513 -0.11079846  0.01566927       0.009
  -0.07676342  0.00000000  0.09401561       0.009
  -0.03838171 -0.02215969  0.07834634       0.009
  -0.00000000  0.00000000  0.09401561       0.009
   0.03838171 -0.02215969  0.07834634       0.009
   0.07676342 -0.04431938  0.06267707       0.009
   0.11514513 -0.06647907  0.04700780       0.009
  -0.07676342  0.04431938  0.12535414       0.009
  -0.03838171  0.02215969  0.10968488       0.009
  -0.00000000  0.04431938  0.07834634       0.009
   0.03838171  0.02215969  0.06267707       0.009
   0.07676342  0.00000000  0.04700780       0.009
   0.11514513 -0.02215969  0.03133854       0.009
  -0.07676342  0.08863877  0.10968488       0.009
  -0.03838171  0.06647907  0.09401561       0.009
  -0.00000000  0.08863877  0.06267707       0.009
   0.03838171  0.06647907  0.04700780       0.009
   0.07676342  0.04431938  0.03133854       0.009
   0.11514513  0.02215969  0.01566927       0.009
  -0.07676342  0.13295815  0.09401561       0.009
  -0.03838171  0.11079846  0.07834634       0.009
  -0.00000000  0.13295815  0.04700780       0.009
   0.03838171  0.11079846  0.03133854       0.009
   0.07676342  0.08863877  0.01566927       0.009
   0.11514513  0.06647907 -0.00000000       0.009
  -0.07676342  0.17727753  0.07834634       0.009
  -0.03838171  0.15511784  0.06267707       0.009
  -0.00000000 -0.08863877  0.12535414       0.009
   0.03838171 -0.11079846  0.10968488       0.009
   0.07676342 -0.13295815  0.09401561       0.009
   0.11514513 -0.15511784  0.07834634       0.009
  -0.07676342 -0.04431938  0.15669268       0.009
  -0.03838171 -0.06647907  0.14102341       0.009
  -0.00000000 -0.04431938  0.10968488       0.009
   0.03838171 -0.06647907  0.09401561       0.009
   0.07676342 -0.08863877  0.07834634       0.009
   0.11514513 -0.11079846  0.06267707       0.009
  -0.07676342  0.00000000  0.14102341       0.009
  -0.03838171 -0.02215969  0.12535414       0.009
  -0.00000000  0.00000000  0.14102341       0.005
   0.03838171 -0.02215969  0.12535414       0.009
   0.07676342 -0.04431938  0.10968488       0.009
   0.11514513 -0.06647907  0.09401561       0.005
  -0.00000000  0.04431938  0.12535414       0.009
   0.03838171  0.02215969  0.10968488       0.009
   0.07676342  0.00000000  0.09401561       0.009
   0.11514513 -0.02215969  0.07834634       0.009
  -0.07676342  0.08863877  0.15669268       0.009
  -0.03838171  0.06647907  0.14102341       0.009
  -0.00000000  0.08863877  0.10968488       0.009
   0.03838171  0.06647907  0.09401561       0.009
   0.07676342  0.04431938  0.07834634       0.009
   0.11514513  0.02215969  0.06267707       0.009
  -0.07676342  0.13295815  0.14102341       0.009
  -0.03838171  0.11079846  0.12535414       0.009
  -0.00000000  0.13295815  0.09401561       0.005
   0.03838171  0.11079846  0.07834634       0.009
   0.07676342  0.08863877  0.06267707       0.009
   0.11514513  0.06647907  0.04700780       0.005
 
 k-points in reciprocal lattice and weights: k-points                                
   0.00000000  0.00000000  0.00000000       0.005
   0.16666667  0.00000000  0.00000000       0.009
   0.33333333  0.00000000  0.00000000       0.009
   0.50000000  0.00000000  0.00000000       0.005
  -0.00000000  0.16666667 -0.00000000       0.009
   0.16666667  0.16666667  0.00000000       0.009
   0.33333333  0.16666667 -0.00000000       0.009
   0.50000000  0.16666667  0.00000000       0.009
  -0.33333333  0.16666667 -0.00000000       0.009
  -0.16666667  0.16666667 -0.00000000       0.009
   0.00000000  0.33333333 -0.00000000       0.009
   0.16666667  0.33333333  0.00000000       0.009
   0.33333333  0.33333333  0.00000000       0.009
   0.50000000  0.33333333  0.00000000       0.009
  -0.33333333  0.33333333 -0.00000000       0.009
  -0.16666667  0.33333333 -0.00000000       0.009
   0.00000000  0.50000000 -0.00000000       0.005
   0.16666667  0.50000000  0.00000000       0.009
   0.33333333  0.50000000  0.00000000       0.009
   0.50000000  0.50000000  0.00000000       0.005
   0.00000000  0.00000000  0.16666667       0.009
   0.16666667  0.00000000  0.16666667       0.009
   0.33333333 -0.00000000  0.16666667       0.009
   0.50000000 -0.00000000  0.16666667       0.009
  -0.33333333 -0.00000000  0.16666667       0.009
  -0.16666667  0.00000000  0.16666667       0.009
  -0.00000000  0.16666667  0.16666667       0.009
   0.16666667  0.16666667  0.16666667       0.009
   0.33333333  0.16666667  0.16666667       0.009
   0.50000000  0.16666667  0.16666667       0.009
  -0.33333333  0.16666667  0.16666667       0.009
  -0.16666667  0.16666667  0.16666667       0.009
  -0.00000000  0.33333333  0.16666667       0.009
   0.16666667  0.33333333  0.16666667       0.009
   0.33333333  0.33333333  0.16666667       0.009
   0.50000000  0.33333333  0.16666667       0.009
  -0.33333333  0.33333333  0.16666667       0.009
  -0.16666667  0.33333333  0.16666667       0.009
  -0.00000000  0.50000000  0.16666667       0.009
   0.16666667  0.50000000  0.16666667       0.009
   0.33333333  0.50000000  0.16666667       0.009
   0.50000000  0.50000000  0.16666667       0.009
  -0.33333333  0.50000000  0.16666667       0.009
  -0.16666667  0.50000000  0.16666667       0.009
  -0.00000000 -0.33333333  0.16666667       0.009
   0.16666667 -0.33333333  0.16666667       0.009
   0.33333333 -0.33333333  0.16666667       0.009
   0.50000000 -0.33333333  0.16666667       0.009
  -0.33333333 -0.33333333  0.16666667       0.009
  -0.16666667 -0.33333333  0.16666667       0.009
   0.00000000 -0.16666667  0.16666667       0.009
   0.16666667 -0.16666667  0.16666667       0.009
   0.33333333 -0.16666667  0.16666667       0.009
   0.50000000 -0.16666667  0.16666667       0.009
  -0.33333333 -0.16666667  0.16666667       0.009
  -0.16666667 -0.16666667  0.16666667       0.009
   0.00000000  0.00000000  0.33333333       0.009
   0.16666667  0.00000000  0.33333333       0.009
   0.33333333  0.00000000  0.33333333       0.009
   0.50000000 -0.00000000  0.33333333       0.009
  -0.33333333  0.00000000  0.33333333       0.009
  -0.16666667  0.00000000  0.33333333       0.009
  -0.00000000  0.16666667  0.33333333       0.009
   0.16666667  0.16666667  0.33333333       0.009
   0.33333333  0.16666667  0.33333333       0.009
   0.50000000  0.16666667  0.33333333       0.009
  -0.33333333  0.16666667  0.33333333       0.009
  -0.16666667  0.16666667  0.33333333       0.009
  -0.00000000  0.33333333  0.33333333       0.009
   0.16666667  0.33333333  0.33333333       0.009
   0.33333333  0.33333333  0.33333333       0.009
   0.50000000  0.33333333  0.33333333       0.009
  -0.33333333  0.33333333  0.33333333       0.009
  -0.16666667  0.33333333  0.33333333       0.009
   0.00000000  0.50000000  0.33333333       0.009
   0.16666667  0.50000000  0.33333333       0.009
   0.33333333  0.50000000  0.33333333       0.009
   0.50000000  0.50000000  0.33333333       0.009
  -0.33333333  0.50000000  0.33333333       0.009
  -0.16666667  0.50000000  0.33333333       0.009
   0.00000000 -0.33333333  0.33333333       0.009
   0.16666667 -0.33333333  0.33333333       0.009
   0.33333333 -0.33333333  0.33333333       0.009
   0.50000000 -0.33333333  0.33333333       0.009
  -0.33333333 -0.33333333  0.33333333       0.009
  -0.16666667 -0.33333333  0.33333333       0.009
   0.00000000 -0.16666667  0.33333333       0.009
   0.16666667 -0.16666667  0.33333333       0.009
   0.33333333 -0.16666667  0.33333333       0.009
   0.50000000 -0.16666667  0.33333333       0.009
  -0.33333333 -0.16666667  0.33333333       0.009
  -0.16666667 -0.16666667  0.33333333       0.009
   0.00000000  0.00000000  0.50000000       0.005
   0.16666667  0.00000000  0.50000000       0.009
   0.33333333  0.00000000  0.50000000       0.009
   0.50000000 -0.00000000  0.50000000       0.005
  -0.00000000  0.16666667  0.50000000       0.009
   0.16666667  0.16666667  0.50000000       0.009
   0.33333333  0.16666667  0.50000000       0.009
   0.50000000  0.16666667  0.50000000       0.009
  -0.33333333  0.16666667  0.50000000       0.009
  -0.16666667  0.16666667  0.50000000       0.009
   0.00000000  0.33333333  0.50000000       0.009
   0.16666667  0.33333333  0.50000000       0.009
   0.33333333  0.33333333  0.50000000       0.009
   0.50000000  0.33333333  0.50000000       0.009
  -0.33333333  0.33333333  0.50000000       0.009
  -0.16666667  0.33333333  0.50000000       0.009
  -0.00000000  0.50000000  0.50000000       0.005
   0.16666667  0.50000000  0.50000000       0.009
   0.33333333  0.50000000  0.50000000       0.009
   0.50000000  0.50000000  0.50000000       0.005
 
 position of ions in fractional coordinates (direct lattice) 
   0.00000000  0.00000000  0.00000000
 
 position of ions in cartesian coordinates  (Angst):
   0.00000000  0.00000000  0.00000000
 


--------------------------------------------------------------------------------------------------------


 k-point  1 :   0.0000 0.0000 0.0000  plane waves:     701
 k-point  2 :   0.1667 0.0000 0.0000  plane waves:     673
 k-point  3 :   0.3333 0.0000 0.0000  plane waves:     685
 k-point  4 :   0.5000 0.0000 0.0000  plane waves:     700
 k-point  5 :  -0.0000 0.1667-0.0000  plane waves:     673
 k-point  6 :   0.1667 0.1667 0.0000  plane waves:     681
 k-point  7 :   0.3333 0.1667-0.0000  plane waves:     680
 k-point  8 :   0.5000 0.1667 0.0000  plane waves:     678
 k-point  9 :  -0.3333 0.1667-0.0000  plane waves:     684
 k-point 10 :  -0.1667 0.1667-0.0000  plane waves:     674
 k-point 11 :   0.0000 0.3333-0.0000  plane waves:     685
 k-point 12 :   0.1667 0.3333 0.0000  plane waves:     680
 k-point 13 :   0.3333 0.3333 0.0000  plane waves:     693
 k-point 14 :   0.5000 0.3333 0.0000  plane waves:     686
 k-point 15 :  -0.3333 0.3333-0.0000  plane waves:     680
 k-point 16 :  -0.1667 0.3333-0.0000  plane waves:     684
 k-point 17 :   0.0000 0.5000-0.0000  plane waves:     700
 k-point 18 :   0.1667 0.5000 0.0000  plane waves:     678
 k-point 19 :   0.3333 0.5000 0.0000  plane waves:     686
 k-point 20 :   0.5000 0.5000 0.0000  plane waves:     692
 k-point 21 :   0.0000 0.0000 0.1667  plane waves:     673
 k-point 22 :   0.1667 0.0000 0.1667  plane waves:     681
 k-point 23 :   0.3333-0.0000 0.1667  plane waves:     680
 k-point 24 :   0.5000-0.0000 0.1667  plane waves:     678
 k-point 25 :  -0.3333-0.0000 0.1667  plane waves:     684
 k-point 26 :  -0.1667 0.0000 0.1667  plane waves:     674
 k-point 27 :  -0.0000 0.1667 0.1667  plane waves:     681
 k-point 28 :   0.1667 0.1667 0.1667  plane waves:     673
 k-point 29 :   0.3333 0.1667 0.1667  plane waves:     674
 k-point 30 :   0.5000 0.1667 0.1667  plane waves:     684
 k-point 31 :  -0.3333 0.1667 0.1667  plane waves:     678
 k-point 32 :  -0.1667 0.1667 0.1667  plane waves:     680
 k-point 33 :  -0.0000 0.3333 0.1667  plane waves:     680
 k-point 34 :   0.1667 0.3333 0.1667  plane waves:     674
 k-point 35 :   0.3333 0.3333 0.1667  plane waves:     680
 k-point 36 :   0.5000 0.3333 0.1667  plane waves:     676
 k-point 37 :  -0.3333 0.3333 0.1667  plane waves:     692
 k-point 38 :  -0.1667 0.3333 0.1667  plane waves:     676
 k-point 39 :  -0.0000 0.5000 0.1667  plane waves:     678
 k-point 40 :   0.1667 0.5000 0.1667  plane waves:     684
 k-point 41 :   0.3333 0.5000 0.1667  plane waves:     676
 k-point 42 :   0.5000 0.5000 0.1667  plane waves:     686
 k-point 43 :  -0.3333 0.5000 0.1667  plane waves:     690
 k-point 44 :  -0.1667 0.5000 0.1667  plane waves:     692
 k-point 45 :  -0.0000-0.3333 0.1667  plane waves:     684
 k-point 46 :   0.1667-0.3333 0.1667  plane waves:     678
 k-point 47 :   0.3333-0.3333 0.1667  plane waves:     692
 k-point 48 :   0.5000-0.3333 0.1667  plane waves:     690
 k-point 49 :  -0.3333-0.3333 0.1667  plane waves:     686
 k-point 50 :  -0.1667-0.3333 0.1667  plane waves:     676
 k-point 51 :   0.0000-0.1667 0.1667  plane waves:     674
 k-point 52 :   0.1667-0.1667 0.1667  plane waves:     680
 k-point 53 :   0.3333-0.1667 0.1667  plane waves:     676
 k-point 54 :   0.5000-0.1667 0.1667  plane waves:     692
 k-point 55 :  -0.3333-0.1667 0.1667  plane waves:     676
 k-point 56 :  -0.1667-0.1667 0.1667  plane waves:     680
 k-point 57 :   0.0000 0.0000 0.3333  plane waves:     685
 k-point 58 :   0.1667 0.0000 0.3333  plane waves:     680
 k-point 59 :   0.3333 0.0000 0.3333  plane waves:     693
 k-point 60 :   0.5000-0.0000 0.3333  plane waves:     686
 k-point 61 :  -0.3333 0.0000 0.3333  plane waves:     680
 k-point 62 :  -0.1667 0.0000 0.3333  plane waves:     684
 k-point 63 :  -0.0000 0.1667 0.3333  plane waves:     680
 k-point 64 :   0.1667 0.1667 0.3333  plane waves:     674
 k-point 65 :   0.3333 0.1667 0.3333  plane waves:     680
 k-point 66 :   0.5000 0.1667 0.3333  plane waves:     676
 k-point 67 :  -0.3333 0.1667 0.3333  plane waves:     692
 k-point 68 :  -0.1667 0.1667 0.3333  plane waves:     676
 k-point 69 :  -0.0000 0.3333 0.3333  plane waves:     693
 k-point 70 :   0.1667 0.3333 0.3333  plane waves:     680
 k-point 71 :   0.3333 0.3333 0.3333  plane waves:     685
 k-point 72 :   0.5000 0.3333 0.3333  plane waves:     684
 k-point 73 :  -0.3333 0.3333 0.3333  plane waves:     680
 k-point 74 :  -0.1667 0.3333 0.3333  plane waves:     686
 k-point 75 :   0.0000 0.5000 0.3333  plane waves:     686
 k-point 76 :   0.1667 0.5000 0.3333  plane waves:     676
 k-point 77 :   0.3333 0.5000 0.3333  plane waves:     684
 k-point 78 :   0.5000 0.5000 0.3333  plane waves:     678
 k-point 79 :  -0.3333 0.5000 0.3333  plane waves:     692
 k-point 80 :  -0.1667 0.5000 0.3333  plane waves:     690
 k-point 81 :   0.0000-0.3333 0.3333  plane waves:     680
 k-point 82 :   0.1667-0.3333 0.3333  plane waves:     692
 k-point 83 :   0.3333-0.3333 0.3333  plane waves:     680
 k-point 84 :   0.5000-0.3333 0.3333  plane waves:     692
 k-point 85 :  -0.3333-0.3333 0.3333  plane waves:     680
 k-point 86 :  -0.1667-0.3333 0.3333  plane waves:     692
 k-point 87 :   0.0000-0.1667 0.3333  plane waves:     684
 k-point 88 :   0.1667-0.1667 0.3333  plane waves:     676
 k-point 89 :   0.3333-0.1667 0.3333  plane waves:     686
 k-point 90 :   0.5000-0.1667 0.3333  plane waves:     690
 k-point 91 :  -0.3333-0.1667 0.3333  plane waves:     692
 k-point 92 :  -0.1667-0.1667 0.3333  plane waves:     678
 k-point 93 :   0.0000 0.0000 0.5000  plane waves:     700
 k-point 94 :   0.1667 0.0000 0.5000  plane waves:     678
 k-point 95 :   0.3333 0.0000 0.5000  plane waves:     686
 k-point 96 :   0.5000-0.0000 0.5000  plane waves:     692
 k-point 97 :  -0.0000 0.1667 0.5000  plane waves:     678
 k-point 98 :   0.1667 0.1667 0.5000  plane waves:     684
 k-point 99 :   0.3333 0.1667 0.5000  plane waves:     676
 k-point ** :   0.5000 0.1667 0.5000  plane waves:     686
 k-point ** :  -0.3333 0.1667 0.5000  plane waves:     690
 k-point ** :  -0.1667 0.1667 0.5000  plane waves:     692
 k-point ** :   0.0000 0.3333 0.5000  plane waves:     686
 k-point ** :   0.1667 0.3333 0.5000  plane waves:     676
 k-point ** :   0.3333 0.3333 0.5000  plane waves:     684
 k-point ** :   0.5000 0.3333 0.5000  plane waves:     678
 k-point ** :  -0.3333 0.3333 0.5000  plane waves:     692
 k-point ** :  -0.1667 0.3333 0.5000  plane waves:     690
 k-point ** :  -0.0000 0.5000 0.5000  plane waves:     692
 k-point ** :   0.1667 0.5000 0.5000  plane waves:     686
 k-point ** :   0.3333 0.5000 0.5000  plane waves:     678
 k-point ** :   0.5000 0.5000 0.5000  plane waves:     700

 maximum and minimum number of plane-waves per node :       701      673

 maximum number of plane-waves:       701
 maximum index in each direction: 
   IXMAX=    6   IYMAX=    6   IZMAX=    6
   IXMIN=   -6   IYMIN=   -6   IZMIN=   -6


 serial   3D FFT for wavefunctions
 parallel 3D FFT for charge:
    minimum data exchange during FFTs selected (reduces bandwidth)


 FFT grid for exact exchange (Hartree Fock) 
  NGX = 20; NGY = 20; NGZ = 20

 
 Radii for the augmentation spheres in the non-local exchange
 for species   1 augmentation radius   1.202 (default was   1.202)
 error exchange integrals (PW-AE in eV) (mean, max) 0.801 3.766 density error[0,qmax] 0.0260
 Maximum index for augmentation-charges in exchange          959
  SETUP_FOCK is finished

 total amount of memory used by VASP MPI-rank0   157936. kBytes
=======================================================================

   base      :      30000. kBytes
   nonl-proj :      11333. kBytes
   fftplans  :      25720. kBytes
   grid      :       7727. kBytes
   one-center:         15. kBytes
   HF        :        129. kBytes
   nonlr-proj:        437. kBytes
   wavefun   :      82575. kBytes
 
     INWAV:  cpu time    2.1803: real time    2.1803
 charge density for first step will be calculated from the start-wavefunctions


--------------------------------------------------------------------------------------------------------


 Maximum index for augmentation-charges        88213 (set IRDMAX)


--------------------------------------------------------------------------------------------------------


 initial charge from wavefunction
    FEWALD:  cpu time    0.0045: real time    0.0045

 The Fermi energy was updated, please check that it is located mid-gap
 values below the HOMO (VB) or above the LUMO (CB) will cause erroneous energies
 E-fermi :   1.7299

 Response functions by sum over occupied states:
 ===============================================
   NOMEGA  =    50    number of frequencies
   NOMEGAR =    50    number of frequencies along real axis
   OMEGAMAX=  28.65   maximum frequency
   OMEGAMIN=   2.21   minimum frequency
   OMEGATL = 185.33   maximum frequency of tail
   CSHIFT  =  0.745   complex shift used in evaluation of response functions


 Energies iw= 
 ============
   0.000   0.000   1.207   0.000   2.410   0.000   3.605   0.000   4.787   0.000
   5.956   0.000   7.107   0.000   8.239   0.000   9.353   0.000  10.447   0.000
  11.523   0.000  12.581   0.000  13.624   0.000  14.653   0.000  15.671   0.000
  16.680   0.000  17.683   0.000  18.684   0.000  19.686   0.000  20.692   0.000
  21.707   0.000  22.734   0.000  23.778   0.000  24.845   0.000  25.939   0.000
  27.066   0.000  28.234   0.000  29.450   0.000  30.723   0.000  32.063   0.000
  33.482   0.000  34.993   0.000  36.615   0.000  38.365   0.000  40.269   0.000
  42.356   0.000  44.663   0.000  47.236   0.000  50.134   0.000  53.435   0.000
  57.238   0.000  61.681   0.000  66.948   0.000  73.307   0.000  81.142   0.000
  91.043   0.000 103.948   0.000 121.456   0.000 146.529   0.000 185.330   0.000
 

IMPORTANT INFORMATION: All symmetrisations will be switched off!
NOSYMM: (Re-)initialisation of all symmetry stuff for point group C_1.

 
 KPOINTS: k-points                                

Automatic generation of k-mesh.
Space group operators:
 irot       det(A)        alpha          n_x          n_y          n_z        tau_x        tau_y        tau_z
    1     1.000000     0.000000     1.000000     0.000000     0.000000     0.000000     0.000000     0.000000
 
 Subroutine IBZKPT returns following result:
 ===========================================
 
 Found    216 irreducible k-points:
 
 Following reciprocal coordinates:
            Coordinates               Weight
  0.000000  0.000000  0.000000      1.000000
  0.166667  0.000000  0.000000      1.000000
  0.333333  0.000000  0.000000      1.000000
  0.500000  0.000000  0.000000      1.000000
 -0.333333 -0.000000  0.000000      1.000000
 -0.166667 -0.000000 -0.000000      1.000000
 -0.000000  0.166667 -0.000000      1.000000
  0.166667  0.166667  0.000000      1.000000
  0.333333  0.166667 -0.000000      1.000000
  0.500000  0.166667  0.000000      1.000000
 -0.333333  0.166667 -0.000000      1.000000
 -0.166667  0.166667 -0.000000      1.000000
  0.000000  0.333333 -0.000000      1.000000
  0.166667  0.333333  0.000000      1.000000
  0.333333  0.333333  0.000000      1.000000
  0.500000  0.333333  0.000000      1.000000
 -0.333333  0.333333 -0.000000      1.000000
 -0.166667  0.333333 -0.000000      1.000000
  0.000000  0.500000 -0.000000      1.000000
  0.166667  0.500000  0.000000      1.000000
  0.333333  0.500000  0.000000      1.000000
  0.500000  0.500000  0.000000      1.000000
 -0.333333  0.500000 -0.000000      1.000000
 -0.166667  0.500000 -0.000000      1.000000
 -0.000000 -0.333333  0.000000      1.000000
  0.166667 -0.333333  0.000000      1.000000
  0.333333 -0.333333  0.000000      1.000000
  0.500000 -0.333333  0.000000      1.000000
 -0.333333 -0.333333 -0.000000      1.000000
 -0.166667 -0.333333  0.000000      1.000000
  0.000000 -0.166667  0.000000      1.000000
  0.166667 -0.166667  0.000000      1.000000
  0.333333 -0.166667  0.000000      1.000000
  0.500000 -0.166667  0.000000      1.000000
 -0.333333 -0.166667  0.000000      1.000000
 -0.166667 -0.166667  0.000000      1.000000
  0.000000  0.000000  0.166667      1.000000
  0.166667  0.000000  0.166667      1.000000
  0.333333 -0.000000  0.166667      1.000000
  0.500000 -0.000000  0.166667      1.000000
 -0.333333 -0.000000  0.166667      1.000000
 -0.166667  0.000000  0.166667      1.000000
 -0.000000  0.166667  0.166667      1.000000
  0.166667  0.166667  0.166667      1.000000
  0.333333  0.166667  0.166667      1.000000
  0.500000  0.166667  0.166667      1.000000
 -0.333333  0.166667  0.166667      1.000000
 -0.166667  0.166667  0.166667      1.000000
 -0.000000  0.333333  0.166667      1.000000
  0.166667  0.333333  0.166667      1.000000
  0.333333  0.333333  0.166667      1.000000
  0.500000  0.333333  0.166667      1.000000
 -0.333333  0.333333  0.166667      1.000000
 -0.166667  0.333333  0.166667      1.000000
 -0.000000  0.500000  0.166667      1.000000
  0.166667  0.500000  0.166667      1.000000
  0.333333  0.500000  0.166667      1.000000
  0.500000  0.500000  0.166667      1.000000
 -0.333333  0.500000  0.166667      1.000000
 -0.166667  0.500000  0.166667      1.000000
 -0.000000 -0.333333  0.166667      1.000000
  0.166667 -0.333333  0.166667      1.000000
  0.333333 -0.333333  0.166667      1.000000
  0.500000 -0.333333  0.166667      1.000000
 -0.333333 -0.333333  0.166667      1.000000
 -0.166667 -0.333333  0.166667      1.000000
  0.000000 -0.166667  0.166667      1.000000
  0.166667 -0.166667  0.166667      1.000000
  0.333333 -0.166667  0.166667      1.000000
  0.500000 -0.166667  0.166667      1.000000
 -0.333333 -0.166667  0.166667      1.000000
 -0.166667 -0.166667  0.166667      1.000000
  0.000000  0.000000  0.333333      1.000000
  0.166667  0.000000  0.333333      1.000000
  0.333333  0.000000  0.333333      1.000000
  0.500000 -0.000000  0.333333      1.000000
 -0.333333  0.000000  0.333333      1.000000
 -0.166667  0.000000  0.333333      1.000000
 -0.000000  0.166667  0.333333      1.000000
  0.166667  0.166667  0.333333      1.000000
  0.333333  0.166667  0.333333      1.000000
  0.500000  0.166667  0.333333      1.000000
 -0.333333  0.166667  0.333333      1.000000
 -0.166667  0.166667  0.333333      1.000000
 -0.000000  0.333333  0.333333      1.000000
  0.166667  0.333333  0.333333      1.000000
  0.333333  0.333333  0.333333      1.000000
  0.500000  0.333333  0.333333      1.000000
 -0.333333  0.333333  0.333333      1.000000
 -0.166667  0.333333  0.333333      1.000000
  0.000000  0.500000  0.333333      1.000000
  0.166667  0.500000  0.333333      1.000000
  0.333333  0.500000  0.333333      1.000000
  0.500000  0.500000  0.333333      1.000000
 -0.333333  0.500000  0.333333      1.000000
 -0.166667  0.500000  0.333333      1.000000
  0.000000 -0.333333  0.333333      1.000000
  0.166667 -0.333333  0.333333      1.000000
  0.333333 -0.333333  0.333333      1.000000
  0.500000 -0.333333  0.333333      1.000000
 -0.333333 -0.333333  0.333333      1.000000
 -0.166667 -0.333333  0.333333      1.000000
  0.000000 -0.166667  0.333333      1.000000
  0.166667 -0.166667  0.333333      1.000000
  0.333333 -0.166667  0.333333      1.000000
  0.500000 -0.166667  0.333333      1.000000
 -0.333333 -0.166667  0.333333      1.000000
 -0.166667 -0.166667  0.333333      1.000000
  0.000000  0.000000  0.500000      1.000000
  0.166667  0.000000  0.500000      1.000000
  0.333333  0.000000  0.500000      1.000000
  0.500000 -0.000000  0.500000      1.000000
 -0.333333  0.000000  0.500000      1.000000
 -0.166667  0.000000  0.500000      1.000000
 -0.000000  0.166667  0.500000      1.000000
  0.166667  0.166667  0.500000      1.000000
  0.333333  0.166667  0.500000      1.000000
  0.500000  0.166667  0.500000      1.000000
 -0.333333  0.166667  0.500000      1.000000
 -0.166667  0.166667  0.500000      1.000000
  0.000000  0.333333  0.500000      1.000000
  0.166667  0.333333  0.500000      1.000000
  0.333333  0.333333  0.500000      1.000000
  0.500000  0.333333  0.500000      1.000000
 -0.333333  0.333333  0.500000      1.000000
 -0.166667  0.333333  0.500000      1.000000
 -0.000000  0.500000  0.500000      1.000000
  0.166667  0.500000  0.500000      1.000000
  0.333333  0.500000  0.500000      1.000000
  0.500000  0.500000  0.500000      1.000000
 -0.333333  0.500000  0.500000      1.000000
 -0.166667  0.500000  0.500000      1.000000
  0.000000 -0.333333  0.500000      1.000000
  0.166667 -0.333333  0.500000      1.000000
  0.333333 -0.333333  0.500000      1.000000
  0.500000 -0.333333  0.500000      1.000000
 -0.333333 -0.333333  0.500000      1.000000
 -0.166667 -0.333333  0.500000      1.000000
  0.000000 -0.166667  0.500000      1.000000
  0.166667 -0.166667  0.500000      1.000000
  0.333333 -0.166667  0.500000      1.000000
  0.500000 -0.166667  0.500000      1.000000
 -0.333333 -0.166667  0.500000      1.000000
 -0.166667 -0.166667  0.500000      1.000000
  0.000000  0.000000 -0.333333      1.000000
  0.166667 -0.000000 -0.333333      1.000000
  0.333333 -0.000000 -0.333333      1.000000
  0.500000  0.000000 -0.333333      1.000000
 -0.333333 -0.000000 -0.333333      1.000000
 -0.166667 -0.000000 -0.333333      1.000000
 -0.000000  0.166667 -0.333333      1.000000
  0.166667  0.166667 -0.333333      1.000000
  0.333333  0.166667 -0.333333      1.000000
  0.500000  0.166667 -0.333333      1.000000
 -0.333333  0.166667 -0.333333      1.000000
 -0.166667  0.166667 -0.333333      1.000000
  0.000000  0.333333 -0.333333      1.000000
  0.166667  0.333333 -0.333333      1.000000
  0.333333  0.333333 -0.333333      1.000000
  0.500000  0.333333 -0.333333      1.000000
 -0.333333  0.333333 -0.333333      1.000000
 -0.166667  0.333333 -0.333333      1.000000
 -0.000000  0.500000 -0.333333      1.000000
  0.166667  0.500000 -0.333333      1.000000
  0.333333  0.500000 -0.333333      1.000000
  0.500000  0.500000 -0.333333      1.000000
 -0.333333  0.500000 -0.333333      1.000000
 -0.166667  0.500000 -0.333333      1.000000
  0.000000 -0.333333 -0.333333      1.000000
  0.166667 -0.333333 -0.333333      1.000000
  0.333333 -0.333333 -0.333333      1.000000
  0.500000 -0.333333 -0.333333      1.000000
 -0.333333 -0.333333 -0.333333      1.000000
 -0.166667 -0.333333 -0.333333      1.000000
  0.000000 -0.166667 -0.333333      1.000000
  0.166667 -0.166667 -0.333333      1.000000
  0.333333 -0.166667 -0.333333      1.000000
  0.500000 -0.166667 -0.333333      1.000000
 -0.333333 -0.166667 -0.333333      1.000000
 -0.166667 -0.166667 -0.333333      1.000000
 -0.000000 -0.000000 -0.166667      1.000000
  0.166667 -0.000000 -0.166667      1.000000
  0.333333  0.000000 -0.166667      1.000000
  0.500000  0.000000 -0.166667      1.000000
 -0.333333  0.000000 -0.166667      1.000000
 -0.166667 -0.000000 -0.166667      1.000000
 -0.000000  0.166667 -0.166667      1.000000
  0.166667  0.166667 -0.166667      1.000000
  0.333333  0.166667 -0.166667      1.000000
  0.500000  0.166667 -0.166667      1.000000
 -0.333333  0.166667 -0.166667      1.000000
 -0.166667  0.166667 -0.166667      1.000000
  0.000000  0.333333 -0.166667      1.000000
  0.166667  0.333333 -0.166667      1.000000
  0.333333  0.333333 -0.166667      1.000000
  0.500000  0.333333 -0.166667      1.000000
 -0.333333  0.333333 -0.166667      1.000000
 -0.166667  0.333333 -0.166667      1.000000
 -0.000000  0.500000 -0.166667      1.000000
  0.166667  0.500000 -0.166667      1.000000
  0.333333  0.500000 -0.166667      1.000000
  0.500000  0.500000 -0.166667      1.000000
 -0.333333  0.500000 -0.166667      1.000000
 -0.166667  0.500000 -0.166667      1.000000
  0.000000 -0.333333 -0.166667      1.000000
  0.166667 -0.333333 -0.166667      1.000000
  0.333333 -0.333333 -0.166667      1.000000
  0.500000 -0.333333 -0.166667      1.000000
 -0.333333 -0.333333 -0.166667      1.000000
 -0.166667 -0.333333 -0.166667      1.000000
  0.000000 -0.166667 -0.166667      1.000000
  0.166667 -0.166667 -0.166667      1.000000
  0.333333 -0.166667 -0.166667      1.000000
  0.500000 -0.166667 -0.166667      1.000000
 -0.333333 -0.166667 -0.166667      1.000000
 -0.166667 -0.166667 -0.166667      1.000000
 
 Following cartesian coordinates:
            Coordinates               Weight
  0.000000  0.000000  0.000000      1.000000
  0.038382 -0.022160 -0.015669      1.000000
  0.076763 -0.044319 -0.031339      1.000000
  0.115145 -0.066479 -0.047008      1.000000
 -0.076763  0.044319  0.031339      1.000000
 -0.038382  0.022160  0.015669      1.000000
  0.000000  0.044319 -0.015669      1.000000
  0.038382  0.022160 -0.031339      1.000000
  0.076763  0.000000 -0.047008      1.000000
  0.115145 -0.022160 -0.062677      1.000000
 -0.076763  0.088639  0.015669      1.000000
 -0.038382  0.066479 -0.000000      1.000000
  0.000000  0.088639 -0.031339      1.000000
  0.038382  0.066479 -0.047008      1.000000
  0.076763  0.044319 -0.062677      1.000000
  0.115145  0.022160 -0.078346      1.000000
 -0.076763  0.132958  0.000000      1.000000
 -0.038382  0.110798 -0.015669      1.000000
  0.000000  0.132958 -0.047008      1.000000
  0.038382  0.110798 -0.062677      1.000000
  0.076763  0.088639 -0.078346      1.000000
  0.115145  0.066479 -0.094016      1.000000
 -0.076763  0.177278 -0.015669      1.000000
 -0.038382  0.155118 -0.031339      1.000000
 -0.000000 -0.088639  0.031339      1.000000
  0.038382 -0.110798  0.015669      1.000000
  0.076763 -0.132958 -0.000000      1.000000
  0.115145 -0.155118 -0.015669      1.000000
 -0.076763 -0.044319  0.062677      1.000000
 -0.038382 -0.066479  0.047008      1.000000
 -0.000000 -0.044319  0.015669      1.000000
  0.038382 -0.066479 -0.000000      1.000000
  0.076763 -0.088639 -0.015669      1.000000
  0.115145 -0.110798 -0.031339      1.000000
 -0.076763  0.000000  0.047008      1.000000
 -0.038382 -0.022160  0.031339      1.000000
 -0.000000  0.000000  0.047008      1.000000
  0.038382 -0.022160  0.031339      1.000000
  0.076763 -0.044319  0.015669      1.000000
  0.115145 -0.066479  0.000000      1.000000
 -0.076763  0.044319  0.078346      1.000000
 -0.038382  0.022160  0.062677      1.000000
 -0.000000  0.044319  0.031339      1.000000
  0.038382  0.022160  0.015669      1.000000
  0.076763  0.000000  0.000000      1.000000
  0.115145 -0.022160 -0.015669      1.000000
 -0.076763  0.088639  0.062677      1.000000
 -0.038382  0.066479  0.047008      1.000000
 -0.000000  0.088639  0.015669      1.000000
  0.038382  0.066479  0.000000      1.000000
  0.076763  0.044319 -0.015669      1.000000
  0.115145  0.022160 -0.031339      1.000000
 -0.076763  0.132958  0.047008      1.000000
 -0.038382  0.110798  0.031339      1.000000
 -0.000000  0.132958  0.000000      1.000000
  0.038382  0.110798 -0.015669      1.000000
  0.076763  0.088639 -0.031339      1.000000
  0.115145  0.066479 -0.047008      1.000000
 -0.076763  0.177278  0.031339      1.000000
 -0.038382  0.155118  0.015669      1.000000
 -0.000000 -0.088639  0.078346      1.000000
  0.038382 -0.110798  0.062677      1.000000
  0.076763 -0.132958  0.047008      1.000000
  0.115145 -0.155118  0.031339      1.000000
 -0.076763 -0.044319  0.109685      1.000000
 -0.038382 -0.066479  0.094016      1.000000
 -0.000000 -0.044319  0.062677      1.000000
  0.038382 -0.066479  0.047008      1.000000
  0.076763 -0.088639  0.031339      1.000000
  0.115145 -0.110798  0.015669      1.000000
 -0.076763  0.000000  0.094016      1.000000
 -0.038382 -0.022160  0.078346      1.000000
 -0.000000  0.000000  0.094016      1.000000
  0.038382 -0.022160  0.078346      1.000000
  0.076763 -0.044319  0.062677      1.000000
  0.115145 -0.066479  0.047008      1.000000
 -0.076763  0.044319  0.125354      1.000000
 -0.038382  0.022160  0.109685      1.000000
 -0.000000  0.044319  0.078346      1.000000
  0.038382  0.022160  0.062677      1.000000
  0.076763  0.000000  0.047008      1.000000
  0.115145 -0.022160  0.031339      1.000000
 -0.076763  0.088639  0.109685      1.000000
 -0.038382  0.066479  0.094016      1.000000
 -0.000000  0.088639  0.062677      1.000000
  0.038382  0.066479  0.047008      1.000000
  0.076763  0.044319  0.031339      1.000000
  0.115145  0.022160  0.015669      1.000000
 -0.076763  0.132958  0.094016      1.000000
 -0.038382  0.110798  0.078346      1.000000
 -0.000000  0.132958  0.047008      1.000000
  0.038382  0.110798  0.031339      1.000000
  0.076763  0.088639  0.015669      1.000000
  0.115145  0.066479 -0.000000      1.000000
 -0.076763  0.177278  0.078346      1.000000
 -0.038382  0.155118  0.062677      1.000000
 -0.000000 -0.088639  0.125354      1.000000
  0.038382 -0.110798  0.109685      1.000000
  0.076763 -0.132958  0.094016      1.000000
  0.115145 -0.155118  0.078346      1.000000
 -0.076763 -0.044319  0.156693      1.000000
 -0.038382 -0.066479  0.141023      1.000000
 -0.000000 -0.044319  0.109685      1.000000
  0.038382 -0.066479  0.094016      1.000000
  0.076763 -0.088639  0.078346      1.000000
  0.115145 -0.110798  0.062677      1.000000
 -0.076763  0.000000  0.141023      1.000000
 -0.038382 -0.022160  0.125354      1.000000
 -0.000000  0.000000  0.141023      1.000000
  0.038382 -0.022160  0.125354      1.000000
  0.076763 -0.044319  0.109685      1.000000
  0.115145 -0.066479  0.094016      1.000000
 -0.076763  0.044319  0.172362      1.000000
 -0.038382  0.022160  0.156693      1.000000
 -0.000000  0.044319  0.125354      1.000000
  0.038382  0.022160  0.109685      1.000000
  0.076763  0.000000  0.094016      1.000000
  0.115145 -0.022160  0.078346      1.000000
 -0.076763  0.088639  0.156693      1.000000
 -0.038382  0.066479  0.141023      1.000000
 -0.000000  0.088639  0.109685      1.000000
  0.038382  0.066479  0.094016      1.000000
  0.076763  0.044319  0.078346      1.000000
  0.115145  0.022160  0.062677      1.000000
 -0.076763  0.132958  0.141023      1.000000
 -0.038382  0.110798  0.125354      1.000000
 -0.000000  0.132958  0.094016      1.000000
  0.038382  0.110798  0.078346      1.000000
  0.076763  0.088639  0.062677      1.000000
  0.115145  0.066479  0.047008      1.000000
 -0.076763  0.177278  0.125354      1.000000
 -0.038382  0.155118  0.109685      1.000000
 -0.000000 -0.088639  0.172362      1.000000
  0.038382 -0.110798  0.156693      1.000000
[...]
      4     -37.6973     -38.1188     -38.1222     -38.2261       0.8036       2.0000
      5     -37.6808     -38.1170     -38.1174     -38.2206       0.8087       2.0000
      6     -26.8554     -26.7718     -26.5535     -26.5759       1.0799       2.0000
      7      -3.2748      -3.3939      -3.4056      -3.4330       0.8268       2.0000
      8      -2.0369      -2.1270      -2.1277      -2.1455       0.8360       2.0000
      9      -1.5393      -1.6282      -1.6312      -1.6487       0.8404       2.0000
     10       7.3320       7.4600       7.3895       7.3988       0.8613       0.0000
     11       9.0585       9.1556       9.1548       9.1712       0.8542       0.0000
     12      11.8030      11.9805      11.9000      11.9184       0.8399       0.0000
     13      13.7964      13.9300      13.9297      13.9564       0.8333       0.0000
     14      14.7170      14.8712      14.8592      14.8895       0.8245       0.0000
     15      16.5015      16.6653      16.6652      16.7016       0.8181       0.0000
     16      17.4983      17.6881      17.6396      17.6690       0.8277       0.0000
     17      17.8122      17.9964      17.9671      18.0004       0.8234       0.0000
     18      18.5855      18.7461      18.7457      18.7803       0.8225       0.0000
     19      19.8242      20.0100      20.0099      20.0527       0.8128       0.0000
     20      20.3637      20.5577      20.5577      20.6027       0.8116       0.0000
 

 k-point 104 :       0.1667    0.3333    0.5000
  band No. DFT-energies  QP-energies  QP-e(diag)   sigma(DFT)    Z            occupation

      1     -37.7031     -38.1343     -38.1323     -38.2379       0.8026       2.0000
      2     -37.6865     -38.1246     -38.1238     -38.2289       0.8062       2.0000
      3     -37.6829     -38.1211     -38.1159     -38.2181       0.8090       2.0000
      4     -37.6767     -38.1159     -38.1235     -38.2286       0.8095       2.0000
      5     -37.6678     -38.1141     -38.1141     -38.2175       0.8118       2.0000
      6     -26.8717     -26.7610     -26.5458     -26.5685       1.0746       2.0000
      7      -3.0878      -3.2020      -3.2329      -3.2626       0.8299       2.0000
      8      -1.9790      -2.0686      -2.0694      -2.0870       0.8377       2.0000
      9      -1.2953      -1.3736      -1.3758      -1.3910       0.8416       2.0000
     10       8.3091       8.4813       8.3619       8.3707       0.8574       0.0000
     11       9.6527       9.7906       9.7366       9.7512       0.8520       0.0000
     12       9.7793       9.8822       9.8818       9.8998       0.8507       0.0000
     13      13.2173      13.3479      13.3426      13.3671       0.8364       0.0000
     14      14.0702      14.2090      14.2088      14.2371       0.8307       0.0000
     15      15.4285      15.5944      15.5735      15.6046       0.8234       0.0000
     16      16.8960      17.0565      17.0565      17.0911       0.8226       0.0000
     17      16.9914      17.1538      17.1469      17.1800       0.8248       0.0000
     18      18.6087      18.7882      18.7635      18.7967       0.8232       0.0000
     19      20.0545      20.2460      20.2459      20.2900       0.8131       0.0000
     20      20.3531      20.5414      20.5358      20.5784       0.8106       0.0000
 

 k-point 105 :       0.3333    0.3333    0.5000
  band No. DFT-energies  QP-energies  QP-e(diag)   sigma(DFT)    Z            occupation

      1     -37.7223     -38.1320     -38.1315     -38.2362       0.7964       2.0000
      2     -37.7119     -38.1287     -38.1264     -38.2313       0.7980       2.0000
      3     -37.6882     -38.1218     -38.1171     -38.2211       0.8049       2.0000
      4     -37.6879     -38.1193     -38.1216     -38.2264       0.8054       2.0000
      5     -37.6839     -38.1168     -38.1218     -38.2264       0.8072       2.0000
      6     -26.8829     -26.7633     -26.5427     -26.5662       1.0743       2.0000
      7      -3.3073      -3.4264      -3.4502      -3.4801       0.8270       2.0000
      8      -1.6952      -1.7763      -1.7852      -1.8024       0.8394       2.0000
      9      -0.9286      -1.0019      -1.0019      -1.0155       0.8440       2.0000
     10       7.6654       7.8773       7.6952       7.7000       0.8598       0.0000
     11       9.7955       9.8948       9.8934       9.9106       0.8508       0.0000
     12      11.4840      11.6124      11.5967      11.6182       0.8402       0.0000
     13      11.6272      11.7389      11.7389      11.7593       0.8457       0.0000
     14      13.8714      14.0075      14.0076      14.0348       0.8330       0.0000
     15      14.4309      14.5727      14.5701      14.5985       0.8303       0.0000
     16      15.2313      15.3936      15.3763      15.4072       0.8240       0.0000
     17      17.9954      18.1728      18.1475      18.1799       0.8245       0.0000
     18      18.7701      18.9415      18.9398      18.9773       0.8188       0.0000
     19      20.2740      20.4691      20.4638      20.5074       0.8131       0.0000
     20      20.4891      20.6739      20.6738      20.7179       0.8072       0.0000
 

 k-point 106 :       0.5000    0.3333    0.5000
  band No. DFT-energies  QP-energies  QP-e(diag)   sigma(DFT)    Z            occupation

      1     -37.7088     -38.1321     -38.1253     -38.2298       0.7994       2.0000
      2     -37.6878     -38.1260     -38.1313     -38.2376       0.8067       2.0000
      3     -37.6849     -38.1208     -38.1201     -38.2238       0.8075       2.0000
      4     -37.6776     -38.1200     -38.1202     -38.2240       0.8100       2.0000
      5     -37.6712     -38.1165     -38.1182     -38.2227       0.8105       2.0000
      6     -26.8695     -26.7739     -26.5451     -26.5700       1.0834       2.0000
      7      -3.4819      -3.6069      -3.6181      -3.6470       0.8253       2.0000
      8      -1.5689      -1.6446      -1.6582      -1.6751       0.8406       2.0000
      9      -1.1419      -1.2203      -1.2208      -1.2355       0.8429       2.0000
     10       7.5924       7.7905       7.6309       7.6371       0.8609       0.0000
     11       9.6414       9.7443       9.7357       9.7519       0.8529       0.0000
     12      11.7804      11.9140      11.8949      11.9168       0.8400       0.0000
     13      11.8110      11.9247      11.9246      11.9455       0.8449       0.0000
     14      13.9092      14.0461      14.0419      14.0687       0.8318       0.0000
     15      15.0151      15.1747      15.1632      15.1949       0.8239       0.0000
     16      16.0769      16.2363      16.2362      16.2711       0.8205       0.0000
     17      17.4323      17.6246      17.5693      17.5974       0.8294       0.0000
     18      17.9853      18.1407      18.1405      18.1735       0.8245       0.0000
     19      20.5671      20.7667      20.7621      20.8080       0.8097       0.0000
     20      20.7417      20.9324      20.9323      20.9783       0.8056       0.0000
 

 k-point 107 :      -0.3333    0.3333    0.5000
  band No. DFT-energies  QP-energies  QP-e(diag)   sigma(DFT)    Z            occupation

      1     -37.7223     -38.1329     -38.1280     -38.2317       0.7964       2.0000
      2     -37.7201     -38.1290     -38.1315     -38.2362       0.7970       2.0000
      3     -37.7089     -38.1216     -38.1216     -38.2252       0.7993       2.0000
      4     -37.7032     -38.1185     -38.1191     -38.2223       0.8012       2.0000
      5     -37.6926     -38.1178     -38.1194     -38.2237       0.8037       2.0000
      6     -26.8493     -26.7590     -26.5523     -26.5761       1.0871       2.0000
      7      -3.1256      -3.2425      -3.2497      -3.2752       0.8293       2.0000
      8      -2.3782      -2.4723      -2.4796      -2.5000       0.8328       2.0000
      9      -1.5034      -1.5854      -1.5855      -1.6010       0.8412       2.0000
     10       8.9301       9.0207       9.0207       9.0360       0.8554       0.0000
     11       9.0611       9.2475       9.1192       9.1292       0.8539       0.0000
     12      11.4649      11.5815      11.5809      11.6027       0.8420       0.0000
     13      12.1257      12.2680      12.2405      12.2624       0.8393       0.0000
     14      13.7048      13.8626      13.8305      13.8554       0.8347       0.0000
     15      15.6735      15.8245      15.8246      15.8571       0.8230       0.0000
     16      16.8114      16.9731      16.9730      17.0080       0.8217       0.0000
     17      17.8847      18.0673      18.0295      18.0598       0.8270       0.0000
     18      19.9756      20.1609      20.1553      20.1965       0.8134       0.0000
     19      20.2917      20.4814      20.4813      20.5252       0.8120       0.0000
     20      21.1785      21.3827      21.3826      21.4318       0.8057       0.0000
 

 k-point 108 :      -0.1667    0.3333    0.5000
  band No. DFT-energies  QP-energies  QP-e(diag)   sigma(DFT)    Z            occupation

      1     -37.7183     -38.1317     -38.1280     -38.2317       0.7979       2.0000
      2     -37.7127     -38.1258     -38.1199     -38.2233       0.7975       2.0000
      3     -37.7059     -38.1200     -38.1127     -38.2143       0.8001       2.0000
      4     -37.7011     -38.1163     -38.1292     -38.2340       0.8033       2.0000
      5     -37.6861     -38.1127     -38.1163     -38.2200       0.8057       2.0000
      6     -26.8378     -26.7605     -26.5562     -26.5787       1.0872       2.0000
      7      -3.1416      -3.2546      -3.2581      -3.2821       0.8289       2.0000
      8      -2.2740      -2.3730      -2.3751      -2.3952       0.8344       2.0000
      9      -1.8555      -1.9431      -1.9443      -1.9613       0.8390       2.0000
     10       7.9246       8.0421       7.9932       8.0045       0.8590       0.0000
     11       9.4959       9.5963       9.5960       9.6134       0.8524       0.0000
     12      11.5562      11.7435      11.6468      11.6639       0.8415       0.0000
     13      12.4152      12.5410      12.5406      12.5652       0.8361       0.0000
     14      15.6831      15.8361      15.8362      15.8696       0.8207       0.0000
     15      16.3150      16.4770      16.4770      16.5128       0.8191       0.0000
     16      17.1923      17.4023      17.3182      17.3434       0.8333       0.0000
     17      19.5752      19.7598      19.7597      19.8020       0.8133       0.0000
     18      19.6747      19.8503      19.8501      19.8898       0.8156       0.0000
     19      19.6976      19.8814      19.8813      19.9231       0.8145       0.0000
     20      20.1033      20.2902      20.2902      20.3325       0.8156       0.0000
 

 k-point 109 :      -0.0000    0.5000    0.5000
  band No. DFT-energies  QP-energies  QP-e(diag)   sigma(DFT)    Z            occupation

      1     -37.7248     -38.1432     -38.1308     -38.2359       0.7943       2.0000
      2     -37.7175     -38.1341     -38.1429     -38.2493       0.7999       2.0000
      3     -37.7122     -38.1309     -38.1338     -38.2407       0.7978       2.0000
      4     -37.6941     -38.1154     -38.1090     -38.2092       0.8055       2.0000
      5     -37.6876     -38.1090     -38.1153     -38.2198       0.8036       2.0000
      6     -26.9032     -26.8162     -26.5529     -26.5710       1.0544       2.0000
      7      -3.5028      -3.6164      -3.6317      -3.6591       0.8244       2.0000
      8      -1.7400      -1.8238      -1.8313      -1.8488       0.8392       2.0000
      9      -1.7327      -1.8171      -1.8235      -1.8409       0.8390       2.0000
     10       6.7241       6.8214       6.7526       6.7571       0.8636       0.0000
     11       8.1976       8.2879       8.2878       8.3027       0.8584       0.0000
     12      14.4300      14.5809      14.5796      14.6123       0.8204       0.0000
     13      15.3174      15.4741      15.4694      15.5033       0.8177       0.0000
     14      15.3557      15.5064      15.5061      15.5389       0.8211       0.0000
     15      16.0865      16.3091      16.1004      16.1030       0.8417       0.0000
     16      17.2051      17.3793      17.3763      17.4152       0.8147       0.0000
     17      18.0857      18.2395      18.2391      18.2712       0.8266       0.0000
     18      18.8294      18.9764      18.9760      19.0071       0.8252       0.0000
     19      20.0315      20.2229      20.2229      20.2677       0.8102       0.0000
     20      20.0330      20.2251      20.2232      20.2678       0.8102       0.0000
 

 k-point 110 :       0.1667    0.5000    0.5000
  band No. DFT-energies  QP-energies  QP-e(diag)   sigma(DFT)    Z            occupation

      1     -37.7214     -38.1399     -38.1385     -38.2445       0.7974       2.0000
      2     -37.7025     -38.1252     -38.1203     -38.2238       0.8014       2.0000
      3     -37.6989     -38.1205     -38.1188     -38.2223       0.8022       2.0000
      4     -37.6966     -38.1177     -38.1247     -38.2289       0.8041       2.0000
      5     -37.6822     -38.1170     -38.1176     -38.2209       0.8082       2.0000
      6     -26.8575     -26.7709     -26.5537     -26.5757       1.0782       2.0000
      7      -3.2692      -3.3934      -3.4063      -3.4349       0.8271       2.0000
      8      -2.0325      -2.1246      -2.1276      -2.1462       0.8360       2.0000
      9      -1.5478      -1.6318      -1.6319      -1.6479       0.8404       2.0000
     10       7.3335       7.4609       7.3908       7.4000       0.8611       0.0000
     11       9.0590       9.1560       9.1551       9.1715       0.8539       0.0000
     12      11.8035      11.9806      11.9002      11.9186       0.8398       0.0000
     13      13.7960      13.9292      13.9292      13.9559       0.8333       0.0000
     14      14.7170      14.8708      14.8590      14.8892       0.8245       0.0000
     15      16.5011      16.6647      16.6647      16.7010       0.8183       0.0000
     16      17.4985      17.6879      17.6397      17.6691       0.8277       0.0000
     17      17.8120      17.9957      17.9670      18.0002       0.8234       0.0000
     18      18.5851      18.7456      18.7454      18.7799       0.8226       0.0000
     19      19.8243      20.0103      20.0103      20.0531       0.8127       0.0000
     20      20.3633      20.5579      20.5578      20.6029       0.8120       0.0000
 

 k-point 111 :       0.3333    0.5000    0.5000
  band No. DFT-energies  QP-energies  QP-e(diag)   sigma(DFT)    Z            occupation

      1     -37.7097     -38.1321     -38.1250     -38.2295       0.7990       2.0000
      2     -37.6879     -38.1258     -38.1316     -38.2380       0.8066       2.0000
      3     -37.6852     -38.1208     -38.1195     -38.2232       0.8074       2.0000
      4     -37.6783     -38.1199     -38.1202     -38.2240       0.8097       2.0000
      5     -37.6705     -38.1165     -38.1185     -38.2229       0.8109       2.0000
      6     -26.8697     -26.7739     -26.5452     -26.5700       1.0826       2.0000
      7      -3.4808      -3.6065      -3.6181      -3.6471       0.8256       2.0000
      8      -1.5702      -1.6461      -1.6595      -1.6765       0.8405       2.0000
      9      -1.1433      -1.2210      -1.2212      -1.2358       0.8428       2.0000
     10       7.5934       7.7915       7.6317       7.6379       0.8607       0.0000
     11       9.6416       9.7446       9.7360       9.7522       0.8529       0.0000
     12      11.7804      11.9136      11.8947      11.9165       0.8399       0.0000
     13      11.8115      11.9252      11.9252      11.9461       0.8448       0.0000
     14      13.9094      14.0464      14.0421      14.0690       0.8317       0.0000
     15      15.0152      15.1745      15.1630      15.1946       0.8239       0.0000
     16      16.0766      16.2364      16.2364      16.2714       0.8206       0.0000
     17      17.4322      17.6246      17.5692      17.5973       0.8294       0.0000
     18      17.9853      18.1409      18.1406      18.1737       0.8245       0.0000
     19      20.5667      20.7665      20.7619      20.8077       0.8099       0.0000
     20      20.7462      20.9382      20.9381      20.9844       0.8059       0.0000
 

 k-point 112 :       0.5000    0.5000    0.5000
  band No. DFT-energies  QP-energies  QP-e(diag)   sigma(DFT)    Z            occupation

      1     -37.7330     -38.1396     -38.1393     -38.2436       0.7957       2.0000
      2     -37.7327     -38.1394     -38.1392     -38.2435       0.7957       2.0000
      3     -37.7194     -38.1267     -38.1265     -38.2302       0.7970       2.0000
      4     -37.7104     -38.1221     -38.1221     -38.2264       0.7979       2.0000
      5     -37.7101     -38.1219     -38.1219     -38.2261       0.7980       2.0000
      6     -26.9436     -26.8233     -26.5301     -26.5587       1.0742       2.0000
      7      -3.7510      -3.8681      -3.8922      -3.9227       0.8224       2.0000
      8      -0.9250      -0.9978      -0.9978      -1.0111       0.8447       2.0000
      9      -0.9237      -0.9946      -0.9983      -1.0121       0.8447       2.0000
     10       6.6327       6.8198       6.5867       6.5794       0.8633       0.0000
     11      11.0168      11.1231      11.1231      11.1420       0.8491       0.0000
     12      11.0194      11.1255      11.1255      11.1443       0.8491       0.0000
     13      11.4051      11.5172      11.5162      11.5371       0.8416       0.0000
     14      13.7871      13.9312      13.9304      13.9606       0.8254       0.0000
     15      15.9264      16.0912      16.0910      16.1279       0.8166       0.0000
     16      15.9557      16.1175      16.1176      16.1532       0.8195       0.0000
     17      16.8189      17.0261      16.9021      16.9186       0.8348       0.0000
     18      17.6364      17.7859      17.7857      17.8168       0.8276       0.0000
     19      17.6645      17.8088      17.8082      17.8376       0.8299       0.0000
     20      21.4049      21.6045      21.6043      21.6541       0.8004       0.0000
 


--------------------------------------------------------------------------------------------------------



IMPORTANT INFORMATION: All symmetrisations will be switched off!
NOSYMM: (Re-)initialisation of all symmetry stuff for point group C_1.

   GW_DIAG:  cpu time    0.9105: real time    0.9112
    GWLOOP:  cpu time 1107.9877: real time 1108.1532
 writing wavefunctions
    --------------------------------------------
   GWTOTAL:  cpu time 1108.8058: real time 1109.1689
    4ORBIT:  cpu time    0.0000: real time    0.0000

 total amount of memory used by VASP MPI-rank0   157936. kBytes
=======================================================================

   base      :      30000. kBytes
   nonl-proj :      11333. kBytes
   fftplans  :      25720. kBytes
   grid      :       7727. kBytes
   one-center:         15. kBytes
   HF        :        129. kBytes
   nonlr-proj:        437. kBytes
   wavefun   :      82575. kBytes
   2eintegral:          0. kBytes
   fockhandle:          0. kBytes
   response  :          0. kBytes
   cacher    :          0. kBytes
 
  
  
 General timing and accounting informations for this job:
 ========================================================
  
                  Total CPU time used (sec):     1114.268
                            User time (sec):     1111.640
                          System time (sec):        2.628
                         Elapsed time (sec):     1115.026
  
                   Maximum memory used (kb):     1294432.
                   Average memory used (kb):           0.
  
                          Minor page faults:       147120
                          Major page faults:            0
                 Voluntary context switches:         3236
