   1   1   0   0
  0.5849685E+02  0.4357284E-09  0.4357284E-09  0.4357284E-09  0.1000000E-15
  1.000000000000000E-004
  CAR 
 Og_FCC                                  
     17.23357368    -32.82713628  301      3.84713878      1.00000000
    -32.827  0.0000E+00  0.0000E+00
    -32.660  0.0000E+00  0.0000E+00
    -32.493  0.0000E+00  0.0000E+00
    -32.327  0.0000E+00  0.0000E+00
    -32.160  0.0000E+00  0.0000E+00
    -31.993  0.0000E+00  0.0000E+00
    -31.826  0.0000E+00  0.0000E+00
    -31.659  0.0000E+00  0.0000E+00
    -31.492  0.0000E+00  0.0000E+00
    -31.325  0.0000E+00  0.0000E+00
    -31.158  0.0000E+00  0.0000E+00
    -30.992  0.0000E+00  0.0000E+00
    -30.825  0.0000E+00  0.0000E+00
    -30.658  0.0000E+00  0.0000E+00
    -30.491  0.0000E+00  0.4000E+01
    -30.324  0.0000E+00  0.4000E+01
    -30.157  0.0000E+00  0.4000E+01
    -29.990  0.0000E+00  0.4000E+01
    -29.823  0.0000E+00  0.4000E+01
    -29.657  0.0000E+00  0.4000E+01
    -29.490  0.0000E+00  0.4000E+01
    -29.323  0.0000E+00  0.4000E+01
    -29.156  0.0000E+00  0.4000E+01
    -28.989  0.0000E+00  0.4000E+01
    -28.822  0.0000E+00  0.4000E+01
    -28.655  0.0000E+00  0.4000E+01
    -28.489  0.0000E+00  0.4000E+01
    -28.322  0.0000E+00  0.4000E+01
    -28.155  0.0000E+00  0.4000E+01
    -27.988  0.0000E+00  0.4000E+01
    -27.821  0.0000E+00  0.4000E+01
    -27.654  0.0000E+00  0.4000E+01
    -27.487  0.0000E+00  0.4000E+01
    -27.320  0.0000E+00  0.4000E+01
    -27.154  0.0000E+00  0.4000E+01
    -26.987  0.0000E+00  0.4000E+01
    -26.820  0.0000E+00  0.4000E+01
    -26.653  0.0000E+00  0.4000E+01
    -26.486  0.0000E+00  0.4000E+01
    -26.319  0.0000E+00  0.4000E+01
    -26.152  0.0000E+00  0.4000E+01
    -25.986  0.0000E+00  0.4000E+01
    -25.819  0.0000E+00  0.4000E+01
    -25.652  0.0000E+00  0.4000E+01
    -25.485  0.0000E+00  0.4000E+01
    -25.318  0.0000E+00  0.4000E+01
    -25.151  0.0000E+00  0.4000E+01
    -24.984  0.0000E+00  0.4000E+01
    -24.817  0.0000E+00  0.4000E+01
    -24.651  0.0000E+00  0.4000E+01
    -24.484  0.0000E+00  0.4000E+01
    -24.317  0.0000E+00  0.4000E+01
    -24.150  0.0000E+00  0.4000E+01
    -23.983  0.0000E+00  0.4000E+01
    -23.816  0.0000E+00  0.1000E+02
    -23.649  0.0000E+00  0.1000E+02
    -23.482  0.0000E+00  0.1000E+02
    -23.316  0.0000E+00  0.1000E+02
    -23.149  0.0000E+00  0.1000E+02
    -22.982  0.0000E+00  0.1000E+02
    -22.815  0.0000E+00  0.1000E+02
    -22.648  0.0000E+00  0.1000E+02
    -22.481  0.0000E+00  0.1000E+02
    -22.314  0.0000E+00  0.1000E+02
    -22.148  0.0000E+00  0.1000E+02
    -21.981  0.0000E+00  0.1000E+02
    -21.814  0.0000E+00  0.1000E+02
    -21.647  0.0000E+00  0.1000E+02
    -21.480  0.0000E+00  0.1000E+02
    -21.313  0.0000E+00  0.1000E+02
    -21.146  0.0000E+00  0.1000E+02
    -20.979  0.0000E+00  0.1000E+02
    -20.813  0.0000E+00  0.1000E+02
    -20.646  0.0000E+00  0.1000E+02
    -20.479  0.0000E+00  0.1000E+02
    -20.312  0.0000E+00  0.1000E+02
    -20.145  0.3329E+01  0.1186E+02
    -19.978  0.0000E+00  0.1200E+02
    -19.811  0.0000E+00  0.1200E+02
    -19.644  0.0000E+00  0.1200E+02
    -19.478  0.0000E+00  0.1200E+02
    -19.311  0.0000E+00  0.1200E+02
    -19.144  0.0000E+00  0.1200E+02
    -18.977  0.0000E+00  0.1200E+02
    -18.810  0.0000E+00  0.1200E+02
    -18.643  0.0000E+00  0.1200E+02
    -18.476  0.0000E+00  0.1200E+02
    -18.310  0.0000E+00  0.1200E+02
    -18.143  0.0000E+00  0.1200E+02
    -17.976  0.0000E+00  0.1200E+02
    -17.809  0.0000E+00  0.1200E+02
    -17.642  0.0000E+00  0.1200E+02
    -17.475  0.0000E+00  0.1200E+02
    -17.308  0.0000E+00  0.1200E+02
    -17.141  0.0000E+00  0.1200E+02
    -16.975  0.0000E+00  0.1200E+02
    -16.808  0.0000E+00  0.1200E+02
    -16.641  0.0000E+00  0.1200E+02
    -16.474  0.0000E+00  0.1200E+02
    -16.307  0.0000E+00  0.1200E+02
    -16.140  0.0000E+00  0.1200E+02
    -15.973  0.0000E+00  0.1200E+02
    -15.806  0.0000E+00  0.1200E+02
    -15.640  0.0000E+00  0.1200E+02
    -15.473  0.0000E+00  0.1200E+02
    -15.306  0.0000E+00  0.1200E+02
    -15.139  0.0000E+00  0.1200E+02
    -14.972  0.0000E+00  0.1200E+02
    -14.805  0.0000E+00  0.1200E+02
    -14.638  0.0000E+00  0.1200E+02
    -14.472  0.0000E+00  0.1200E+02
    -14.305  0.0000E+00  0.1200E+02
    -14.138  0.0000E+00  0.1200E+02
    -13.971  0.0000E+00  0.1200E+02
    -13.804  0.0000E+00  0.1200E+02
    -13.637  0.0000E+00  0.1200E+02
    -13.470  0.0000E+00  0.1200E+02
    -13.303  0.0000E+00  0.1200E+02
    -13.137  0.0000E+00  0.1200E+02
    -12.970  0.0000E+00  0.1200E+02
    -12.803  0.0000E+00  0.1200E+02
    -12.636  0.0000E+00  0.1200E+02
    -12.469  0.0000E+00  0.1200E+02
    -12.302  0.0000E+00  0.1200E+02
    -12.135  0.0000E+00  0.1200E+02
    -11.969  0.0000E+00  0.1200E+02
    -11.802  0.0000E+00  0.1200E+02
    -11.635  0.0000E+00  0.1200E+02
    -11.468  0.0000E+00  0.1200E+02
    -11.301  0.0000E+00  0.1200E+02
    -11.134  0.0000E+00  0.1200E+02
    -10.967  0.0000E+00  0.1200E+02
    -10.800  0.0000E+00  0.1200E+02
    -10.634  0.0000E+00  0.1200E+02
    -10.467  0.0000E+00  0.1200E+02
    -10.300  0.0000E+00  0.1200E+02
    -10.133  0.0000E+00  0.1200E+02
     -9.966  0.0000E+00  0.1200E+02
     -9.799  0.0000E+00  0.1200E+02
     -9.632  0.0000E+00  0.1200E+02
     -9.465  0.0000E+00  0.1200E+02
     -9.299  0.0000E+00  0.1200E+02
     -9.132  0.0000E+00  0.1200E+02
     -8.965  0.0000E+00  0.1200E+02
     -8.798  0.0000E+00  0.1200E+02
     -8.631  0.0000E+00  0.1200E+02
     -8.464  0.0000E+00  0.1200E+02
     -8.297  0.0000E+00  0.1200E+02
     -8.131  0.0000E+00  0.1200E+02
     -7.964  0.0000E+00  0.1200E+02
     -7.797  0.0000E+00  0.1200E+02
     -7.630  0.0000E+00  0.1200E+02
     -7.463  0.0000E+00  0.1200E+02
     -7.296  0.0000E+00  0.1345E+02
     -7.129  0.0000E+00  0.1386E+02
     -6.962  0.0000E+00  0.1400E+02
     -6.796  0.0000E+00  0.1400E+02
     -6.629  0.0000E+00  0.1400E+02
     -6.462  0.0000E+00  0.1400E+02
     -6.295  0.0000E+00  0.1400E+02
     -6.128  0.0000E+00  0.1400E+02
     -5.961  0.0000E+00  0.1400E+02
     -5.794  0.0000E+00  0.1400E+02
     -5.627  0.0000E+00  0.1400E+02
     -5.461  0.0000E+00  0.1400E+02
     -5.294  0.0000E+00  0.1400E+02
     -5.127  0.0000E+00  0.1400E+02
     -4.960  0.0000E+00  0.1400E+02
     -4.793  0.0000E+00  0.1400E+02
     -4.626  0.0000E+00  0.1400E+02
     -4.459  0.0000E+00  0.1400E+02
     -4.293  0.0000E+00  0.1400E+02
     -4.126  0.0000E+00  0.1400E+02
     -3.959  0.0000E+00  0.1400E+02
     -3.792  0.0000E+00  0.1400E+02
     -3.625  0.0000E+00  0.1400E+02
     -3.458  0.0000E+00  0.1400E+02
     -3.291  0.0000E+00  0.1400E+02
     -3.124  0.0000E+00  0.1400E+02
     -2.958  0.0000E+00  0.1400E+02
     -2.791  0.0000E+00  0.1400E+02
     -2.624  0.0000E+00  0.1400E+02
     -2.457  0.0000E+00  0.1400E+02
     -2.290  0.0000E+00  0.1400E+02
     -2.123  0.0000E+00  0.1400E+02
     -1.956  0.0000E+00  0.1400E+02
     -1.789  0.0000E+00  0.1400E+02
     -1.623  0.0000E+00  0.1400E+02
     -1.456  0.0000E+00  0.1400E+02
     -1.289  0.0000E+00  0.1400E+02
     -1.122  0.0000E+00  0.1400E+02
     -0.955  0.0000E+00  0.1400E+02
     -0.788  0.0000E+00  0.1400E+02
     -0.621  0.0000E+00  0.1400E+02
     -0.455  0.0000E+00  0.1400E+02
     -0.288  0.0000E+00  0.1400E+02
     -0.121  0.0000E+00  0.1400E+02
      0.046  0.0000E+00  0.1400E+02
      0.213  0.0000E+00  0.1400E+02
      0.380  0.0000E+00  0.1400E+02
      0.547  0.0000E+00  0.1400E+02
      0.714  0.0000E+00  0.1406E+02
      0.880  0.0000E+00  0.1518E+02
      1.047  0.0000E+00  0.1553E+02
      1.214  0.1332E+01  0.1575E+02
      1.381  0.0000E+00  0.1575E+02
      1.548  0.0000E+00  0.1586E+02
      1.715  0.0000E+00  0.1586E+02
      1.882  0.0000E+00  0.1597E+02
      2.048  0.0000E+00  0.1636E+02
      2.215  0.0000E+00  0.1666E+02
      2.382  0.0000E+00  0.1691E+02
      2.549  0.2925E-07  0.1691E+02
      2.716  0.0000E+00  0.1741E+02
      2.883  0.0000E+00  0.1741E+02
      3.050  0.0000E+00  0.1763E+02
      3.217  0.0000E+00  0.1774E+02
      3.383  0.0000E+00  0.1783E+02
      3.550  0.0000E+00  0.1791E+02
      3.717  0.0000E+00  0.1799E+02
      3.884  0.0000E+00  0.1801E+02
      4.051  0.0000E+00  0.1801E+02
      4.218  0.0000E+00  0.1801E+02
      4.385  0.0000E+00  0.1801E+02
      4.552  0.0000E+00  0.1801E+02
      4.718  0.0000E+00  0.1801E+02
      4.885  0.0000E+00  0.1801E+02
      5.052  0.0000E+00  0.1801E+02
      5.219  0.0000E+00  0.1801E+02
      5.386  0.0000E+00  0.1801E+02
      5.553  0.0000E+00  0.1808E+02
      5.720  0.0000E+00  0.1808E+02
      5.886  0.0000E+00  0.1808E+02
      6.053  0.0000E+00  0.1814E+02
      6.220  0.0000E+00  0.1825E+02
      6.387  0.0000E+00  0.1828E+02
      6.554  0.6659E+00  0.1839E+02
      6.721  0.0000E+00  0.1839E+02
      6.888  0.0000E+00  0.1889E+02
      7.055  0.5549E+00  0.1911E+02
      7.221  0.0000E+00  0.1944E+02
      7.388  0.0000E+00  0.1944E+02
      7.555  0.0000E+00  0.1978E+02
      7.722  0.0000E+00  0.2003E+02
      7.889  0.0000E+00  0.2003E+02
      8.056  0.0000E+00  0.2008E+02
      8.223  0.0000E+00  0.2008E+02
      8.390  0.0000E+00  0.2031E+02
      8.556  0.0000E+00  0.2031E+02
      8.723  0.0000E+00  0.2053E+02
      8.890  0.0000E+00  0.2119E+02
      9.057  0.0000E+00  0.2164E+02
      9.224  0.0000E+00  0.2169E+02
      9.391  0.0000E+00  0.2203E+02
      9.558  0.2467E-09  0.2203E+02
      9.724  0.4279E+00  0.2232E+02
      9.891  0.0000E+00  0.2238E+02
     10.058  0.0000E+00  0.2238E+02
     10.225  0.2220E+00  0.2264E+02
     10.392  0.1332E+01  0.2316E+02
     10.559  0.0000E+00  0.2355E+02
     10.726  0.0000E+00  0.2381E+02
     10.893  0.0000E+00  0.2385E+02
     11.059  0.0000E+00  0.2401E+02
     11.226  0.0000E+00  0.2431E+02
     11.393  0.0000E+00  0.2489E+02
     11.560  0.0000E+00  0.2544E+02
     11.727  0.5909E+00  0.2565E+02
     11.894  0.0000E+00  0.2567E+02
     12.061  0.0000E+00  0.2598E+02
     12.228  0.0000E+00  0.2606E+02
     12.394  0.0000E+00  0.2606E+02
     12.561  0.0000E+00  0.2617E+02
     12.728  0.1332E+01  0.2667E+02
     12.895  0.4959E+00  0.2697E+02
     13.062  0.0000E+00  0.2733E+02
     13.229  0.0000E+00  0.2733E+02
     13.396  0.0000E+00  0.2756E+02
     13.562  0.0000E+00  0.2756E+02
     13.729  0.2666E-02  0.2756E+02
     13.896  0.0000E+00  0.2794E+02
     14.063  0.0000E+00  0.2794E+02
     14.230  0.0000E+00  0.2794E+02
     14.397  0.0000E+00  0.2794E+02
     14.564  0.0000E+00  0.2794E+02
     14.731  0.0000E+00  0.2794E+02
     14.897  0.0000E+00  0.2794E+02
     15.064  0.0000E+00  0.2800E+02
     15.231  0.0000E+00  0.2800E+02
     15.398  0.0000E+00  0.2800E+02
     15.565  0.0000E+00  0.2800E+02
     15.732  0.0000E+00  0.2800E+02
     15.899  0.0000E+00  0.2800E+02
     16.065  0.0000E+00  0.2800E+02
     16.232  0.0000E+00  0.2800E+02
     16.399  0.0000E+00  0.2800E+02
     16.566  0.0000E+00  0.2800E+02
     16.733  0.0000E+00  0.2800E+02
     16.900  0.0000E+00  0.2800E+02
     17.067  0.0000E+00  0.2800E+02
     17.234  0.0000E+00  0.2800E+02
