   1   1   0   0
  0.5830817E+02  0.4352594E-09  0.4352594E-09  0.4352594E-09  0.1000000E-15
  1.000000000000000E-004
  CAR 
 Og_FCC                                  
     17.27795480    -32.80511520  301      3.88272942      1.00000000
    -32.805  0.0000E+00  0.0000E+00
    -32.638  0.0000E+00  0.0000E+00
    -32.471  0.0000E+00  0.0000E+00
    -32.304  0.0000E+00  0.0000E+00
    -32.137  0.0000E+00  0.0000E+00
    -31.970  0.0000E+00  0.0000E+00
    -31.803  0.0000E+00  0.0000E+00
    -31.637  0.0000E+00  0.0000E+00
    -31.470  0.0000E+00  0.0000E+00
    -31.303  0.0000E+00  0.0000E+00
    -31.136  0.0000E+00  0.0000E+00
    -30.969  0.0000E+00  0.0000E+00
    -30.802  0.0000E+00  0.0000E+00
    -30.635  0.0000E+00  0.0000E+00
    -30.468  0.0000E+00  0.4000E+01
    -30.301  0.0000E+00  0.4000E+01
    -30.134  0.0000E+00  0.4000E+01
    -29.967  0.0000E+00  0.4000E+01
    -29.800  0.0000E+00  0.4000E+01
    -29.633  0.0000E+00  0.4000E+01
    -29.466  0.0000E+00  0.4000E+01
    -29.299  0.0000E+00  0.4000E+01
    -29.132  0.0000E+00  0.4000E+01
    -28.965  0.0000E+00  0.4000E+01
    -28.798  0.0000E+00  0.4000E+01
    -28.632  0.0000E+00  0.4000E+01
    -28.465  0.0000E+00  0.4000E+01
    -28.298  0.0000E+00  0.4000E+01
    -28.131  0.0000E+00  0.4000E+01
    -27.964  0.0000E+00  0.4000E+01
    -27.797  0.0000E+00  0.4000E+01
    -27.630  0.0000E+00  0.4000E+01
    -27.463  0.0000E+00  0.4000E+01
    -27.296  0.0000E+00  0.4000E+01
    -27.129  0.0000E+00  0.4000E+01
    -26.962  0.0000E+00  0.4000E+01
    -26.795  0.0000E+00  0.4000E+01
    -26.628  0.0000E+00  0.4000E+01
    -26.461  0.0000E+00  0.4000E+01
    -26.294  0.0000E+00  0.4000E+01
    -26.127  0.0000E+00  0.4000E+01
    -25.960  0.0000E+00  0.4000E+01
    -25.793  0.0000E+00  0.4000E+01
    -25.627  0.0000E+00  0.4000E+01
    -25.460  0.0000E+00  0.4000E+01
    -25.293  0.0000E+00  0.4000E+01
    -25.126  0.0000E+00  0.4000E+01
    -24.959  0.0000E+00  0.4000E+01
    -24.792  0.0000E+00  0.4000E+01
    -24.625  0.0000E+00  0.4000E+01
    -24.458  0.0000E+00  0.4000E+01
    -24.291  0.0000E+00  0.4000E+01
    -24.124  0.0000E+00  0.4000E+01
    -23.957  0.0000E+00  0.4000E+01
    -23.790  0.0000E+00  0.1000E+02
    -23.623  0.0000E+00  0.1000E+02
    -23.456  0.0000E+00  0.1000E+02
    -23.289  0.0000E+00  0.1000E+02
    -23.122  0.0000E+00  0.1000E+02
    -22.955  0.0000E+00  0.1000E+02
    -22.789  0.0000E+00  0.1000E+02
    -22.622  0.0000E+00  0.1000E+02
    -22.455  0.0000E+00  0.1000E+02
    -22.288  0.0000E+00  0.1000E+02
    -22.121  0.0000E+00  0.1000E+02
    -21.954  0.0000E+00  0.1000E+02
    -21.787  0.0000E+00  0.1000E+02
    -21.620  0.0000E+00  0.1000E+02
    -21.453  0.0000E+00  0.1000E+02
    -21.286  0.0000E+00  0.1000E+02
    -21.119  0.0000E+00  0.1000E+02
    -20.952  0.0000E+00  0.1000E+02
    -20.785  0.0000E+00  0.1000E+02
    -20.618  0.0000E+00  0.1000E+02
    -20.451  0.0000E+00  0.1000E+02
    -20.284  0.0000E+00  0.1000E+02
    -20.117  0.1755E+01  0.1188E+02
    -19.950  0.0000E+00  0.1200E+02
    -19.784  0.0000E+00  0.1200E+02
    -19.617  0.0000E+00  0.1200E+02
    -19.450  0.0000E+00  0.1200E+02
    -19.283  0.0000E+00  0.1200E+02
    -19.116  0.0000E+00  0.1200E+02
    -18.949  0.0000E+00  0.1200E+02
    -18.782  0.0000E+00  0.1200E+02
    -18.615  0.0000E+00  0.1200E+02
    -18.448  0.0000E+00  0.1200E+02
    -18.281  0.0000E+00  0.1200E+02
    -18.114  0.0000E+00  0.1200E+02
    -17.947  0.0000E+00  0.1200E+02
    -17.780  0.0000E+00  0.1200E+02
    -17.613  0.0000E+00  0.1200E+02
    -17.446  0.0000E+00  0.1200E+02
    -17.279  0.0000E+00  0.1200E+02
    -17.112  0.0000E+00  0.1200E+02
    -16.945  0.0000E+00  0.1200E+02
    -16.779  0.0000E+00  0.1200E+02
    -16.612  0.0000E+00  0.1200E+02
    -16.445  0.0000E+00  0.1200E+02
    -16.278  0.0000E+00  0.1200E+02
    -16.111  0.0000E+00  0.1200E+02
    -15.944  0.0000E+00  0.1200E+02
    -15.777  0.0000E+00  0.1200E+02
    -15.610  0.0000E+00  0.1200E+02
    -15.443  0.0000E+00  0.1200E+02
    -15.276  0.0000E+00  0.1200E+02
    -15.109  0.0000E+00  0.1200E+02
    -14.942  0.0000E+00  0.1200E+02
    -14.775  0.0000E+00  0.1200E+02
    -14.608  0.0000E+00  0.1200E+02
    -14.441  0.0000E+00  0.1200E+02
    -14.274  0.0000E+00  0.1200E+02
    -14.107  0.0000E+00  0.1200E+02
    -13.940  0.0000E+00  0.1200E+02
    -13.774  0.0000E+00  0.1200E+02
    -13.607  0.0000E+00  0.1200E+02
    -13.440  0.0000E+00  0.1200E+02
    -13.273  0.0000E+00  0.1200E+02
    -13.106  0.0000E+00  0.1200E+02
    -12.939  0.0000E+00  0.1200E+02
    -12.772  0.0000E+00  0.1200E+02
    -12.605  0.0000E+00  0.1200E+02
    -12.438  0.0000E+00  0.1200E+02
    -12.271  0.0000E+00  0.1200E+02
    -12.104  0.0000E+00  0.1200E+02
    -11.937  0.0000E+00  0.1200E+02
    -11.770  0.0000E+00  0.1200E+02
    -11.603  0.0000E+00  0.1200E+02
    -11.436  0.0000E+00  0.1200E+02
    -11.269  0.0000E+00  0.1200E+02
    -11.102  0.0000E+00  0.1200E+02
    -10.936  0.0000E+00  0.1200E+02
    -10.769  0.0000E+00  0.1200E+02
    -10.602  0.0000E+00  0.1200E+02
    -10.435  0.0000E+00  0.1200E+02
    -10.268  0.0000E+00  0.1200E+02
    -10.101  0.0000E+00  0.1200E+02
     -9.934  0.0000E+00  0.1200E+02
     -9.767  0.0000E+00  0.1200E+02
     -9.600  0.0000E+00  0.1200E+02
     -9.433  0.0000E+00  0.1200E+02
     -9.266  0.0000E+00  0.1200E+02
     -9.099  0.0000E+00  0.1200E+02
     -8.932  0.0000E+00  0.1200E+02
     -8.765  0.0000E+00  0.1200E+02
     -8.598  0.0000E+00  0.1200E+02
     -8.431  0.0000E+00  0.1200E+02
     -8.264  0.0000E+00  0.1200E+02
     -8.097  0.0000E+00  0.1200E+02
     -7.931  0.0000E+00  0.1200E+02
     -7.764  0.0000E+00  0.1200E+02
     -7.597  0.0000E+00  0.1200E+02
     -7.430  0.0000E+00  0.1200E+02
     -7.263  0.0000E+00  0.1345E+02
     -7.096  0.1548E-07  0.1386E+02
     -6.929  0.0000E+00  0.1400E+02
     -6.762  0.0000E+00  0.1400E+02
     -6.595  0.0000E+00  0.1400E+02
     -6.428  0.0000E+00  0.1400E+02
     -6.261  0.0000E+00  0.1400E+02
     -6.094  0.0000E+00  0.1400E+02
     -5.927  0.0000E+00  0.1400E+02
     -5.760  0.0000E+00  0.1400E+02
     -5.593  0.0000E+00  0.1400E+02
     -5.426  0.0000E+00  0.1400E+02
     -5.259  0.0000E+00  0.1400E+02
     -5.092  0.0000E+00  0.1400E+02
     -4.926  0.0000E+00  0.1400E+02
     -4.759  0.0000E+00  0.1400E+02
     -4.592  0.0000E+00  0.1400E+02
     -4.425  0.0000E+00  0.1400E+02
     -4.258  0.0000E+00  0.1400E+02
     -4.091  0.0000E+00  0.1400E+02
     -3.924  0.0000E+00  0.1400E+02
     -3.757  0.0000E+00  0.1400E+02
     -3.590  0.0000E+00  0.1400E+02
     -3.423  0.0000E+00  0.1400E+02
     -3.256  0.0000E+00  0.1400E+02
     -3.089  0.0000E+00  0.1400E+02
     -2.922  0.0000E+00  0.1400E+02
     -2.755  0.0000E+00  0.1400E+02
     -2.588  0.0000E+00  0.1400E+02
     -2.421  0.0000E+00  0.1400E+02
     -2.254  0.0000E+00  0.1400E+02
     -2.087  0.0000E+00  0.1400E+02
     -1.921  0.0000E+00  0.1400E+02
     -1.754  0.0000E+00  0.1400E+02
     -1.587  0.0000E+00  0.1400E+02
     -1.420  0.0000E+00  0.1400E+02
     -1.253  0.0000E+00  0.1400E+02
     -1.086  0.0000E+00  0.1400E+02
     -0.919  0.0000E+00  0.1400E+02
     -0.752  0.0000E+00  0.1400E+02
     -0.585  0.0000E+00  0.1400E+02
     -0.418  0.0000E+00  0.1400E+02
     -0.251  0.0000E+00  0.1400E+02
     -0.084  0.0000E+00  0.1400E+02
      0.083  0.0000E+00  0.1400E+02
      0.250  0.0000E+00  0.1400E+02
      0.417  0.0000E+00  0.1400E+02
      0.584  0.0000E+00  0.1400E+02
      0.751  0.1331E+01  0.1429E+02
      0.917  0.6656E+00  0.1540E+02
      1.084  0.0000E+00  0.1553E+02
      1.251  0.0000E+00  0.1575E+02
      1.418  0.0000E+00  0.1575E+02
      1.585  0.0000E+00  0.1586E+02
      1.752  0.6656E+00  0.1597E+02
      1.919  0.0000E+00  0.1597E+02
      2.086  0.0000E+00  0.1636E+02
      2.253  0.8308E-01  0.1667E+02
      2.420  0.0000E+00  0.1691E+02
      2.587  0.3328E+00  0.1696E+02
      2.754  0.0000E+00  0.1741E+02
      2.921  0.0000E+00  0.1741E+02
      3.088  0.0000E+00  0.1763E+02
      3.255  0.0000E+00  0.1774E+02
      3.422  0.0000E+00  0.1783E+02
      3.589  0.0000E+00  0.1791E+02
      3.756  0.0000E+00  0.1799E+02
      3.922  0.0000E+00  0.1801E+02
      4.089  0.0000E+00  0.1801E+02
      4.256  0.0000E+00  0.1801E+02
      4.423  0.0000E+00  0.1801E+02
      4.590  0.0000E+00  0.1801E+02
      4.757  0.0000E+00  0.1801E+02
      4.924  0.0000E+00  0.1801E+02
      5.091  0.0000E+00  0.1801E+02
      5.258  0.0000E+00  0.1801E+02
      5.425  0.0000E+00  0.1801E+02
      5.592  0.0000E+00  0.1808E+02
      5.759  0.0000E+00  0.1808E+02
      5.926  0.0000E+00  0.1808E+02
      6.093  0.0000E+00  0.1814E+02
      6.260  0.0000E+00  0.1825E+02
      6.427  0.0000E+00  0.1828E+02
      6.594  0.0000E+00  0.1839E+02
      6.761  0.0000E+00  0.1839E+02
      6.927  0.0000E+00  0.1889E+02
      7.094  0.0000E+00  0.1911E+02
      7.261  0.0000E+00  0.1944E+02
      7.428  0.6647E+00  0.1956E+02
      7.595  0.0000E+00  0.1978E+02
      7.762  0.0000E+00  0.2003E+02
      7.929  0.0000E+00  0.2003E+02
      8.096  0.0000E+00  0.2008E+02
      8.263  0.0000E+00  0.2008E+02
      8.430  0.0000E+00  0.2031E+02
      8.597  0.0000E+00  0.2031E+02
      8.764  0.0000E+00  0.2053E+02
      8.931  0.0000E+00  0.2119E+02
      9.098  0.0000E+00  0.2164E+02
      9.265  0.0000E+00  0.2169E+02
      9.432  0.0000E+00  0.2203E+02
      9.599  0.1331E+01  0.2225E+02
      9.765  0.0000E+00  0.2232E+02
      9.932  0.0000E+00  0.2238E+02
     10.099  0.0000E+00  0.2238E+02
     10.266  0.3065E-11  0.2264E+02
     10.433  0.0000E+00  0.2316E+02
     10.600  0.0000E+00  0.2355E+02
     10.767  0.0000E+00  0.2381E+02
     10.934  0.0000E+00  0.2385E+02
     11.101  0.0000E+00  0.2401E+02
     11.268  0.0000E+00  0.2431E+02
     11.435  0.0000E+00  0.2489E+02
     11.602  0.0000E+00  0.2544E+02
     11.769  0.6652E+00  0.2567E+02
     11.936  0.0000E+00  0.2567E+02
     12.103  0.4437E+00  0.2606E+02
     12.270  0.0000E+00  0.2606E+02
     12.437  0.0000E+00  0.2606E+02
     12.604  0.0000E+00  0.2617E+02
     12.770  0.0000E+00  0.2667E+02
     12.937  0.1331E+01  0.2711E+02
     13.104  0.0000E+00  0.2733E+02
     13.271  0.0000E+00  0.2733E+02
     13.438  0.0000E+00  0.2756E+02
     13.605  0.0000E+00  0.2756E+02
     13.772  0.6312E-01  0.2757E+02
     13.939  0.0000E+00  0.2794E+02
     14.106  0.0000E+00  0.2794E+02
     14.273  0.0000E+00  0.2794E+02
     14.440  0.0000E+00  0.2794E+02
     14.607  0.0000E+00  0.2794E+02
     14.774  0.0000E+00  0.2794E+02
     14.941  0.0000E+00  0.2794E+02
     15.108  0.0000E+00  0.2800E+02
     15.275  0.0000E+00  0.2800E+02
     15.442  0.0000E+00  0.2800E+02
     15.609  0.0000E+00  0.2800E+02
     15.775  0.0000E+00  0.2800E+02
     15.942  0.0000E+00  0.2800E+02
     16.109  0.0000E+00  0.2800E+02
     16.276  0.0000E+00  0.2800E+02
     16.443  0.0000E+00  0.2800E+02
     16.610  0.0000E+00  0.2800E+02
     16.777  0.0000E+00  0.2800E+02
     16.944  0.0000E+00  0.2800E+02
     17.111  0.0000E+00  0.2800E+02
     17.278  0.0000E+00  0.2800E+02
