 running on  128 total cores
 distrk:  each k-point on   64 cores,    2 groups
