<?xml version="1.0" encoding="ISO-8859-1"?>
<modeling>
 <generator>
  <i name="program" type="string">vasp </i>
  <i name="version" type="string">5.4.4.18Apr17-6-g9f103f2a35  </i>
  <i name="subversion" type="string">(build Jul 09 2018 16:43:14) complex            parallel </i>
  <i name="platform" type="string">LinuxIFC </i>
  <i name="date" type="string">2018 11 27 </i>
  <i name="time" type="string">21:24:21 </i>
 </generator>
 <incar>
  <i type="string" name="SYSTEM">   Og_FCC</i>
  <i type="string" name="PREC">accurate</i>
  <i type="string" name="ALGO">   Normal</i>
  <i type="logical" name="ADDGRID"> T  </i>
  <i type="logical" name="LSORBIT"> T  </i>
  <i type="int" name="ISPIN">     1</i>
  <i type="int" name="MAXMIX">    50</i>
  <i type="int" name="NELM">    50</i>
  <i type="int" name="NELMDL">    -5</i>
  <i type="int" name="NELMIN">     2</i>
  <i type="int" name="IBRION">    -1</i>
  <i type="int" name="NFREE">     5</i>
  <i name="EDIFF">      0.00000001</i>
  <i name="EDIFFG">      0.00001000</i>
  <i type="int" name="NSW">     1</i>
  <i type="int" name="ISIF">     3</i>
  <i type="int" name="ISYM">     0</i>
  <i name="SYMPREC">      0.00000010</i>
  <i name="ENCUT">    300.00000000</i>
  <i name="POTIM">      0.10000000</i>
  <i type="logical" name="LREAL"> F  </i>
  <i type="int" name="ISMEAR">     0</i>
  <i name="SIGMA">      0.00100000</i>
  <i type="int" name="NWRITE">     2</i>
  <i type="logical" name="LWAVE"> T  </i>
  <i type="logical" name="LCHARG"> F  </i>
  <i type="logical" name="LVTOT"> F  </i>
  <i type="logical" name="LOPTICS"> T  </i>
  <i type="logical" name="GGA_COMPAT"> F  </i>
  <v type="int" name="KPOINT_BSE">    -1     0     0     0</v>
  <i type="int" name="NELM">    50</i>
  <i type="string" name="GGA"> PE</i>
 </incar>
 <structure name="primitive_cell" >
  <crystal>
   <varray name="basis" >
    <v>       4.35728355       0.00000000       0.00000000 </v>
    <v>       2.17864177       3.77351824      -0.00000000 </v>
    <v>       2.17864177       1.25783941       3.55770712 </v>
   </varray>
   <i name="volume">     58.49684840 </i>
   <varray name="rec_basis" >
    <v>       0.22950079      -0.13250234      -0.09369330 </v>
    <v>       0.00000000       0.26500468      -0.09369330 </v>
    <v>      -0.00000000       0.00000000       0.28107991 </v>
   </varray>
  </crystal>
  <varray name="positions" >
   <v>       0.00000000       0.00000000       0.00000000 </v>
  </varray>
 </structure>
 <varray name="primitive_index" >
  <v type="int" >        1 </v>
 </varray>
 <kpoints>
  <generation param="Gamma">
   <v type="int" name="divisions">       6        6        6 </v>
   <v name="usershift">      0.00000000       0.00000000       0.00000000 </v>
   <v name="genvec1">      0.16666667       0.00000000       0.00000000 </v>
   <v name="genvec2">      0.00000000       0.16666667       0.00000000 </v>
   <v name="genvec3">      0.00000000      -0.00000000       0.16666667 </v>
   <v name="shift">      0.00000000       0.00000000       0.00000000 </v>
  </generation>
  <varray name="kpointlist" >
   <v>       0.00000000       0.00000000       0.00000000 </v>
   <v>       0.16666667       0.00000000       0.00000000 </v>
   <v>       0.33333333       0.00000000       0.00000000 </v>
   <v>       0.50000000       0.00000000       0.00000000 </v>
   <v>      -0.33333333      -0.00000000      -0.00000000 </v>
   <v>      -0.16666667      -0.00000000      -0.00000000 </v>
   <v>       0.00000000       0.16666667       0.00000000 </v>
   <v>       0.16666667       0.16666667       0.00000000 </v>
   <v>       0.33333333       0.16666667       0.00000000 </v>
   <v>       0.50000000       0.16666667       0.00000000 </v>
   <v>      -0.33333333       0.16666667      -0.00000000 </v>
   <v>      -0.16666667       0.16666667      -0.00000000 </v>
   <v>       0.00000000       0.33333333      -0.00000000 </v>
   <v>       0.16666667       0.33333333       0.00000000 </v>
   <v>       0.33333333       0.33333333       0.00000000 </v>
   <v>       0.50000000       0.33333333       0.00000000 </v>
   <v>      -0.33333333       0.33333333      -0.00000000 </v>
   <v>      -0.16666667       0.33333333      -0.00000000 </v>
   <v>       0.00000000       0.50000000       0.00000000 </v>
   <v>       0.16666667       0.50000000       0.00000000 </v>
   <v>       0.33333333       0.50000000       0.00000000 </v>
   <v>       0.50000000       0.50000000       0.00000000 </v>
   <v>      -0.33333333       0.50000000      -0.00000000 </v>
   <v>      -0.16666667       0.50000000       0.00000000 </v>
   <v>      -0.00000000      -0.33333333       0.00000000 </v>
   <v>       0.16666667      -0.33333333       0.00000000 </v>
   <v>       0.33333333      -0.33333333       0.00000000 </v>
   <v>       0.50000000      -0.33333333       0.00000000 </v>
   <v>      -0.33333333      -0.33333333      -0.00000000 </v>
   <v>      -0.16666667      -0.33333333      -0.00000000 </v>
   <v>      -0.00000000      -0.16666667       0.00000000 </v>
   <v>       0.16666667      -0.16666667       0.00000000 </v>
   <v>       0.33333333      -0.16666667       0.00000000 </v>
   <v>       0.50000000      -0.16666667       0.00000000 </v>
   <v>      -0.33333333      -0.16666667       0.00000000 </v>
   <v>      -0.16666667      -0.16666667       0.00000000 </v>
   <v>      -0.00000000      -0.00000000       0.16666667 </v>
   <v>       0.16666667       0.00000000       0.16666667 </v>
   <v>       0.33333333      -0.00000000       0.16666667 </v>
   <v>       0.50000000       0.00000000       0.16666667 </v>
   <v>      -0.33333333      -0.00000000       0.16666667 </v>
   <v>      -0.16666667       0.00000000       0.16666667 </v>
   <v>       0.00000000       0.16666667       0.16666667 </v>
   <v>       0.16666667       0.16666667       0.16666667 </v>
   <v>       0.33333333       0.16666667       0.16666667 </v>
   <v>       0.50000000       0.16666667       0.16666667 </v>
   <v>      -0.33333333       0.16666667       0.16666667 </v>
   <v>      -0.16666667       0.16666667       0.16666667 </v>
   <v>       0.00000000       0.33333333       0.16666667 </v>
   <v>       0.16666667       0.33333333       0.16666667 </v>
   <v>       0.33333333       0.33333333       0.16666667 </v>
   <v>       0.50000000       0.33333333       0.16666667 </v>
   <v>      -0.33333333       0.33333333       0.16666667 </v>
   <v>      -0.16666667       0.33333333       0.16666667 </v>
   <v>       0.00000000       0.50000000       0.16666667 </v>
   <v>       0.16666667       0.50000000       0.16666667 </v>
   <v>       0.33333333       0.50000000       0.16666667 </v>
   <v>       0.50000000       0.50000000       0.16666667 </v>
   <v>      -0.33333333       0.50000000       0.16666667 </v>
   <v>      -0.16666667       0.50000000       0.16666667 </v>
   <v>      -0.00000000      -0.33333333       0.16666667 </v>
   <v>       0.16666667      -0.33333333       0.16666667 </v>
   <v>       0.33333333      -0.33333333       0.16666667 </v>
   <v>       0.50000000      -0.33333333       0.16666667 </v>
   <v>      -0.33333333      -0.33333333       0.16666667 </v>
   <v>      -0.16666667      -0.33333333       0.16666667 </v>
   <v>      -0.00000000      -0.16666667       0.16666667 </v>
   <v>       0.16666667      -0.16666667       0.16666667 </v>
   <v>       0.33333333      -0.16666667       0.16666667 </v>
   <v>       0.50000000      -0.16666667       0.16666667 </v>
   <v>      -0.33333333      -0.16666667       0.16666667 </v>
   <v>      -0.16666667      -0.16666667       0.16666667 </v>
   <v>       0.00000000      -0.00000000       0.33333333 </v>
   <v>       0.16666667       0.00000000       0.33333333 </v>
   <v>       0.33333333       0.00000000       0.33333333 </v>
   <v>       0.50000000       0.00000000       0.33333333 </v>
   <v>      -0.33333333       0.00000000       0.33333333 </v>
   <v>      -0.16666667      -0.00000000       0.33333333 </v>
   <v>       0.00000000       0.16666667       0.33333333 </v>
   <v>       0.16666667       0.16666667       0.33333333 </v>
   <v>       0.33333333       0.16666667       0.33333333 </v>
   <v>       0.50000000       0.16666667       0.33333333 </v>
   <v>      -0.33333333       0.16666667       0.33333333 </v>
   <v>      -0.16666667       0.16666667       0.33333333 </v>
   <v>       0.00000000       0.33333333       0.33333333 </v>
   <v>       0.16666667       0.33333333       0.33333333 </v>
   <v>       0.33333333       0.33333333       0.33333333 </v>
   <v>       0.50000000       0.33333333       0.33333333 </v>
   <v>      -0.33333333       0.33333333       0.33333333 </v>
   <v>      -0.16666667       0.33333333       0.33333333 </v>
   <v>       0.00000000       0.50000000       0.33333333 </v>
   <v>       0.16666667       0.50000000       0.33333333 </v>
   <v>       0.33333333       0.50000000       0.33333333 </v>
   <v>       0.50000000       0.50000000       0.33333333 </v>
   <v>      -0.33333333       0.50000000       0.33333333 </v>
   <v>      -0.16666667       0.50000000       0.33333333 </v>
   <v>       0.00000000      -0.33333333       0.33333333 </v>
   <v>       0.16666667      -0.33333333       0.33333333 </v>
   <v>       0.33333333      -0.33333333       0.33333333 </v>
   <v>       0.50000000      -0.33333333       0.33333333 </v>
   <v>      -0.33333333      -0.33333333       0.33333333 </v>
   <v>      -0.16666667      -0.33333333       0.33333333 </v>
   <v>       0.00000000      -0.16666667       0.33333333 </v>
   <v>       0.16666667      -0.16666667       0.33333333 </v>
   <v>       0.33333333      -0.16666667       0.33333333 </v>
   <v>       0.50000000      -0.16666667       0.33333333 </v>
   <v>      -0.33333333      -0.16666667       0.33333333 </v>
   <v>      -0.16666667      -0.16666667       0.33333333 </v>
   <v>       0.00000000      -0.00000000       0.50000000 </v>
   <v>       0.16666667       0.00000000       0.50000000 </v>
   <v>       0.33333333       0.00000000       0.50000000 </v>
   <v>       0.50000000       0.00000000       0.50000000 </v>
   <v>      -0.33333333       0.00000000       0.50000000 </v>
   <v>      -0.16666667       0.00000000       0.50000000 </v>
   <v>      -0.00000000       0.16666667       0.50000000 </v>
   <v>       0.16666667       0.16666667       0.50000000 </v>
   <v>       0.33333333       0.16666667       0.50000000 </v>
   <v>       0.50000000       0.16666667       0.50000000 </v>
   <v>      -0.33333333       0.16666667       0.50000000 </v>
   <v>      -0.16666667       0.16666667       0.50000000 </v>
   <v>       0.00000000       0.33333333       0.50000000 </v>
   <v>       0.16666667       0.33333333       0.50000000 </v>
   <v>       0.33333333       0.33333333       0.50000000 </v>
   <v>       0.50000000       0.33333333       0.50000000 </v>
   <v>      -0.33333333       0.33333333       0.50000000 </v>
   <v>      -0.16666667       0.33333333       0.50000000 </v>
   <v>      -0.00000000       0.50000000       0.50000000 </v>
   <v>       0.16666667       0.50000000       0.50000000 </v>
   <v>       0.33333333       0.50000000       0.50000000 </v>
   <v>       0.50000000       0.50000000       0.50000000 </v>
   <v>      -0.33333333       0.50000000       0.50000000 </v>
   <v>      -0.16666667       0.50000000       0.50000000 </v>
   <v>      -0.00000000      -0.33333333       0.50000000 </v>
   <v>       0.16666667      -0.33333333       0.50000000 </v>
   <v>       0.33333333      -0.33333333       0.50000000 </v>
   <v>       0.50000000      -0.33333333       0.50000000 </v>
   <v>      -0.33333333      -0.33333333       0.50000000 </v>
   <v>      -0.16666667      -0.33333333       0.50000000 </v>
   <v>      -0.00000000      -0.16666667       0.50000000 </v>
   <v>       0.16666667      -0.16666667       0.50000000 </v>
   <v>       0.33333333      -0.16666667       0.50000000 </v>
   <v>       0.50000000      -0.16666667       0.50000000 </v>
   <v>      -0.33333333      -0.16666667       0.50000000 </v>
   <v>      -0.16666667      -0.16666667       0.50000000 </v>
   <v>       0.00000000       0.00000000      -0.33333333 </v>
   <v>       0.16666667       0.00000000      -0.33333333 </v>
   <v>       0.33333333      -0.00000000      -0.33333333 </v>
   <v>       0.50000000       0.00000000      -0.33333333 </v>
   <v>      -0.33333333      -0.00000000      -0.33333333 </v>
   <v>      -0.16666667      -0.00000000      -0.33333333 </v>
   <v>      -0.00000000       0.16666667      -0.33333333 </v>
   <v>       0.16666667       0.16666667      -0.33333333 </v>
   <v>       0.33333333       0.16666667      -0.33333333 </v>
   <v>       0.50000000       0.16666667      -0.33333333 </v>
   <v>      -0.33333333       0.16666667      -0.33333333 </v>
   <v>      -0.16666667       0.16666667      -0.33333333 </v>
   <v>       0.00000000       0.33333333      -0.33333333 </v>
   <v>       0.16666667       0.33333333      -0.33333333 </v>
   <v>       0.33333333       0.33333333      -0.33333333 </v>
   <v>       0.50000000       0.33333333      -0.33333333 </v>
   <v>      -0.33333333       0.33333333      -0.33333333 </v>
   <v>      -0.16666667       0.33333333      -0.33333333 </v>
   <v>       0.00000000       0.50000000      -0.33333333 </v>
   <v>       0.16666667       0.50000000      -0.33333333 </v>
   <v>       0.33333333       0.50000000      -0.33333333 </v>
   <v>       0.50000000       0.50000000      -0.33333333 </v>
   <v>      -0.33333333       0.50000000      -0.33333333 </v>
   <v>      -0.16666667       0.50000000      -0.33333333 </v>
   <v>      -0.00000000      -0.33333333      -0.33333333 </v>
   <v>       0.16666667      -0.33333333      -0.33333333 </v>
   <v>       0.33333333      -0.33333333      -0.33333333 </v>
   <v>       0.50000000      -0.33333333      -0.33333333 </v>
   <v>      -0.33333333      -0.33333333      -0.33333333 </v>
   <v>      -0.16666667      -0.33333333      -0.33333333 </v>
   <v>       0.00000000      -0.16666667      -0.33333333 </v>
   <v>       0.16666667      -0.16666667      -0.33333333 </v>
   <v>       0.33333333      -0.16666667      -0.33333333 </v>
   <v>       0.50000000      -0.16666667      -0.33333333 </v>
   <v>      -0.33333333      -0.16666667      -0.33333333 </v>
   <v>      -0.16666667      -0.16666667      -0.33333333 </v>
   <v>       0.00000000       0.00000000      -0.16666667 </v>
   <v>       0.16666667      -0.00000000      -0.16666667 </v>
   <v>       0.33333333       0.00000000      -0.16666667 </v>
   <v>       0.50000000       0.00000000      -0.16666667 </v>
   <v>      -0.33333333       0.00000000      -0.16666667 </v>
   <v>      -0.16666667      -0.00000000      -0.16666667 </v>
   <v>       0.00000000       0.16666667      -0.16666667 </v>
   <v>       0.16666667       0.16666667      -0.16666667 </v>
   <v>       0.33333333       0.16666667      -0.16666667 </v>
   <v>       0.50000000       0.16666667      -0.16666667 </v>
   <v>      -0.33333333       0.16666667      -0.16666667 </v>
   <v>      -0.16666667       0.16666667      -0.16666667 </v>
   <v>       0.00000000       0.33333333      -0.16666667 </v>
   <v>       0.16666667       0.33333333      -0.16666667 </v>
   <v>       0.33333333       0.33333333      -0.16666667 </v>
   <v>       0.50000000       0.33333333      -0.16666667 </v>
   <v>      -0.33333333       0.33333333      -0.16666667 </v>
   <v>      -0.16666667       0.33333333      -0.16666667 </v>
   <v>       0.00000000       0.50000000      -0.16666667 </v>
   <v>       0.16666667       0.50000000      -0.16666667 </v>
   <v>       0.33333333       0.50000000      -0.16666667 </v>
   <v>       0.50000000       0.50000000      -0.16666667 </v>
   <v>      -0.33333333       0.50000000      -0.16666667 </v>
   <v>      -0.16666667       0.50000000      -0.16666667 </v>
   <v>      -0.00000000      -0.33333333      -0.16666667 </v>
   <v>       0.16666667      -0.33333333      -0.16666667 </v>
   <v>       0.33333333      -0.33333333      -0.16666667 </v>
   <v>       0.50000000      -0.33333333      -0.16666667 </v>
   <v>      -0.33333333      -0.33333333      -0.16666667 </v>
   <v>      -0.16666667      -0.33333333      -0.16666667 </v>
   <v>       0.00000000      -0.16666667      -0.16666667 </v>
   <v>       0.16666667      -0.16666667      -0.16666667 </v>
   <v>       0.33333333      -0.16666667      -0.16666667 </v>
   <v>       0.50000000      -0.16666667      -0.16666667 </v>
   <v>      -0.33333333      -0.16666667      -0.16666667 </v>
   <v>      -0.16666667      -0.16666667      -0.16666667 </v>
  </varray>
  <varray name="weights" >
   <v>       0.00462963 </v>
   <v>       0.00462963 </v>
   <v>       0.00462963 </v>
   <v>       0.00462963 </v>
   <v>       0.00462963 </v>
   <v>       0.00462963 </v>
   <v>       0.00462963 </v>
   <v>       0.00462963 </v>
   <v>       0.00462963 </v>
   <v>       0.00462963 </v>
   <v>       0.00462963 </v>
   <v>       0.00462963 </v>
   <v>       0.00462963 </v>
   <v>       0.00462963 </v>
   <v>       0.00462963 </v>
   <v>       0.00462963 </v>
   <v>       0.00462963 </v>
   <v>       0.00462963 </v>
   <v>       0.00462963 </v>
   <v>       0.00462963 </v>
   <v>       0.00462963 </v>
   <v>       0.00462963 </v>
   <v>       0.00462963 </v>
   <v>       0.00462963 </v>
   <v>       0.00462963 </v>
   <v>       0.00462963 </v>
   <v>       0.00462963 </v>
   <v>       0.00462963 </v>
   <v>       0.00462963 </v>
   <v>       0.00462963 </v>
   <v>       0.00462963 </v>
   <v>       0.00462963 </v>
   <v>       0.00462963 </v>
   <v>       0.00462963 </v>
   <v>       0.00462963 </v>
   <v>       0.00462963 </v>
   <v>       0.00462963 </v>
   <v>       0.00462963 </v>
   <v>       0.00462963 </v>
   <v>       0.00462963 </v>
   <v>       0.00462963 </v>
   <v>       0.00462963 </v>
   <v>       0.00462963 </v>
   <v>       0.00462963 </v>
   <v>       0.00462963 </v>
   <v>       0.00462963 </v>
   <v>       0.00462963 </v>
   <v>       0.00462963 </v>
   <v>       0.00462963 </v>
   <v>       0.00462963 </v>
   <v>       0.00462963 </v>
   <v>       0.00462963 </v>
   <v>       0.00462963 </v>
   <v>       0.00462963 </v>
   <v>       0.00462963 </v>
   <v>       0.00462963 </v>
   <v>       0.00462963 </v>
   <v>       0.00462963 </v>
   <v>       0.00462963 </v>
   <v>       0.00462963 </v>
   <v>       0.00462963 </v>
   <v>       0.00462963 </v>
   <v>       0.00462963 </v>
   <v>       0.00462963 </v>
   <v>       0.00462963 </v>
   <v>       0.00462963 </v>
   <v>       0.00462963 </v>
   <v>       0.00462963 </v>
   <v>       0.00462963 </v>
   <v>       0.00462963 </v>
   <v>       0.00462963 </v>
   <v>       0.00462963 </v>
   <v>       0.00462963 </v>
   <v>       0.00462963 </v>
   <v>       0.00462963 </v>
   <v>       0.00462963 </v>
   <v>       0.00462963 </v>
   <v>       0.00462963 </v>
   <v>       0.00462963 </v>
   <v>       0.00462963 </v>
   <v>       0.00462963 </v>
   <v>       0.00462963 </v>
   <v>       0.00462963 </v>
   <v>       0.00462963 </v>
   <v>       0.00462963 </v>
   <v>       0.00462963 </v>
   <v>       0.00462963 </v>
   <v>       0.00462963 </v>
   <v>       0.00462963 </v>
   <v>       0.00462963 </v>
   <v>       0.00462963 </v>
   <v>       0.00462963 </v>
   <v>       0.00462963 </v>
   <v>       0.00462963 </v>
   <v>       0.00462963 </v>
   <v>       0.00462963 </v>
   <v>       0.00462963 </v>
   <v>       0.00462963 </v>
   <v>       0.00462963 </v>
   <v>       0.00462963 </v>
   <v>       0.00462963 </v>
   <v>       0.00462963 </v>
   <v>       0.00462963 </v>
   <v>       0.00462963 </v>
   <v>       0.00462963 </v>
   <v>       0.00462963 </v>
   <v>       0.00462963 </v>
   <v>       0.00462963 </v>
   <v>       0.00462963 </v>
   <v>       0.00462963 </v>
   <v>       0.00462963 </v>
   <v>       0.00462963 </v>
   <v>       0.00462963 </v>
   <v>       0.00462963 </v>
   <v>       0.00462963 </v>
   <v>       0.00462963 </v>
   <v>       0.00462963 </v>
   <v>       0.00462963 </v>
   <v>       0.00462963 </v>
   <v>       0.00462963 </v>
   <v>       0.00462963 </v>
   <v>       0.00462963 </v>
   <v>       0.00462963 </v>
   <v>       0.00462963 </v>
   <v>       0.00462963 </v>
   <v>       0.00462963 </v>
   <v>       0.00462963 </v>
   <v>       0.00462963 </v>
   <v>       0.00462963 </v>
   <v>       0.00462963 </v>
   <v>       0.00462963 </v>
   <v>       0.00462963 </v>
   <v>       0.00462963 </v>
   <v>       0.00462963 </v>
   <v>       0.00462963 </v>
   <v>       0.00462963 </v>
   <v>       0.00462963 </v>
   <v>       0.00462963 </v>
   <v>       0.00462963 </v>
   <v>       0.00462963 </v>
   <v>       0.00462963 </v>
   <v>       0.00462963 </v>
   <v>       0.00462963 </v>
   <v>       0.00462963 </v>
   <v>       0.00462963 </v>
   <v>       0.00462963 </v>
   <v>       0.00462963 </v>
   <v>       0.00462963 </v>
   <v>       0.00462963 </v>
   <v>       0.00462963 </v>
   <v>       0.00462963 </v>
   <v>       0.00462963 </v>
   <v>       0.00462963 </v>
   <v>       0.00462963 </v>
   <v>       0.00462963 </v>
   <v>       0.00462963 </v>
   <v>       0.00462963 </v>
   <v>       0.00462963 </v>
   <v>       0.00462963 </v>
   <v>       0.00462963 </v>
   <v>       0.00462963 </v>
   <v>       0.00462963 </v>
   <v>       0.00462963 </v>
   <v>       0.00462963 </v>
   <v>       0.00462963 </v>
   <v>       0.00462963 </v>
   <v>       0.00462963 </v>
   <v>       0.00462963 </v>
   <v>       0.00462963 </v>
   <v>       0.00462963 </v>
   <v>       0.00462963 </v>
   <v>       0.00462963 </v>
   <v>       0.00462963 </v>
   <v>       0.00462963 </v>
   <v>       0.00462963 </v>
   <v>       0.00462963 </v>
   <v>       0.00462963 </v>
   <v>       0.00462963 </v>
   <v>       0.00462963 </v>
   <v>       0.00462963 </v>
   <v>       0.00462963 </v>
   <v>       0.00462963 </v>
   <v>       0.00462963 </v>
   <v>       0.00462963 </v>
   <v>       0.00462963 </v>
   <v>       0.00462963 </v>
   <v>       0.00462963 </v>
   <v>       0.00462963 </v>
   <v>       0.00462963 </v>
   <v>       0.00462963 </v>
   <v>       0.00462963 </v>
   <v>       0.00462963 </v>
   <v>       0.00462963 </v>
   <v>       0.00462963 </v>
   <v>       0.00462963 </v>
   <v>       0.00462963 </v>
   <v>       0.00462963 </v>
   <v>       0.00462963 </v>
   <v>       0.00462963 </v>
   <v>       0.00462963 </v>
   <v>       0.00462963 </v>
   <v>       0.00462963 </v>
   <v>       0.00462963 </v>
   <v>       0.00462963 </v>
   <v>       0.00462963 </v>
   <v>       0.00462963 </v>
   <v>       0.00462963 </v>
   <v>       0.00462963 </v>
   <v>       0.00462963 </v>
   <v>       0.00462963 </v>
   <v>       0.00462963 </v>
   <v>       0.00462963 </v>
   <v>       0.00462963 </v>
   <v>       0.00462963 </v>
   <v>       0.00462963 </v>
   <v>       0.00462963 </v>
  </varray>
 </kpoints>
 <parameters>
  <separator name="general" >
   <i type="string" name="SYSTEM">Og_FCC</i>
   <i type="logical" name="LCOMPAT"> F  </i>
  </separator>
  <separator name="electronic" >
   <i type="string" name="PREC">accura</i>
   <i name="ENMAX">    300.00000000</i>
   <i name="ENAUG">    361.02500000</i>
   <i name="EDIFF">      0.00000001</i>
   <i type="int" name="IALGO">    38</i>
   <i type="int" name="IWAVPR">    10</i>
   <i type="int" name="NBANDS">    28</i>
   <i name="NELECT">     18.00000000</i>
   <i type="int" name="TURBO">     0</i>
   <i type="int" name="IRESTART">     0</i>
   <i type="int" name="NREBOOT">     0</i>
   <i type="int" name="NMIN">     0</i>
   <i name="EREF">      0.00000000</i>
   <separator name="electronic smearing" >
    <i type="int" name="ISMEAR">     0</i>
    <i name="SIGMA">      0.00100000</i>
    <i name="KSPACING">      0.50000000</i>
    <i type="logical" name="KGAMMA"> T  </i>
   </separator>
   <separator name="electronic projectors" >
    <i type="logical" name="LREAL"> F  </i>
    <v name="ROPT">      0.00000000</v>
    <i type="int" name="LMAXPAW">  -100</i>
    <i type="int" name="LMAXMIX">     2</i>
    <i type="logical" name="NLSPLINE"> F  </i>
   </separator>
   <separator name="electronic startup" >
    <i type="int" name="ISTART">     0</i>
    <i type="int" name="ICHARG">     2</i>
    <i type="int" name="INIWAV">     1</i>
   </separator>
   <separator name="electronic spin" >
    <i type="int" name="ISPIN">     1</i>
    <i type="logical" name="LNONCOLLINEAR"> T  </i>
    <v name="MAGMOM">      1.00000000      1.00000000      1.00000000</v>
    <i name="NUPDOWN">     -1.00000000</i>
    <i type="logical" name="LSORBIT"> T  </i>
    <v name="SAXIS">      0.00000000      0.00000000      1.00000000</v>
    <i type="logical" name="LSPIRAL"> F  </i>
    <v name="QSPIRAL">      0.00000000      0.00000000      0.00000000</v>
    <i type="logical" name="LZEROZ"> F  </i>
   </separator>
   <separator name="electronic exchange-correlation" >
    <i type="logical" name="LASPH"> F  </i>
    <i type="logical" name="LMETAGGA"> F  </i>
   </separator>
   <separator name="electronic convergence" >
    <i type="int" name="NELM">    50</i>
    <i type="int" name="NELMDL">    -5</i>
    <i type="int" name="NELMIN">     2</i>
    <i name="ENINI">    300.00000000</i>
    <separator name="electronic convergence detail" >
     <i type="logical" name="LDIAG"> T  </i>
     <i type="logical" name="LSUBROT"> F  </i>
     <i name="WEIMIN">      0.00000000</i>
     <i name="EBREAK">      0.00000000</i>
     <i name="DEPER">      0.30000000</i>
     <i type="int" name="NRMM">     4</i>
     <i name="TIME">      0.40000000</i>
    </separator>
   </separator>
   <separator name="electronic mixer" >
    <i name="AMIX">      0.40000000</i>
    <i name="BMIX">      1.00000000</i>
    <i name="AMIN">      0.10000000</i>
    <i name="AMIX_MAG">      1.60000000</i>
    <i name="BMIX_MAG">      1.00000000</i>
    <separator name="electronic mixer details" >
     <i type="int" name="IMIX">     4</i>
     <i type="logical" name="MIXFIRST"> F  </i>
     <i type="int" name="MAXMIX">    50</i>
     <i name="WC">    100.00000000</i>
     <i type="int" name="INIMIX">     1</i>
     <i type="int" name="MIXPRE">     1</i>
     <i type="int" name="MREMOVE">     5</i>
    </separator>
   </separator>
   <separator name="electronic dipolcorrection" >
    <i type="logical" name="LDIPOL"> F  </i>
    <i type="logical" name="LMONO"> F  </i>
    <i type="int" name="IDIPOL">     0</i>
    <i name="EPSILON">      1.00000000</i>
    <v name="DIPOL">   -100.00000000   -100.00000000   -100.00000000</v>
    <i name="EFIELD">      0.00000000</i>
   </separator>
  </separator>
  <separator name="grids" >
   <i type="int" name="NGX">    28</i>
   <i type="int" name="NGY">    28</i>
   <i type="int" name="NGZ">    28</i>
   <i type="int" name="NGXF">    56</i>
   <i type="int" name="NGYF">    56</i>
   <i type="int" name="NGZF">    56</i>
   <i type="logical" name="ADDGRID"> T  </i>
  </separator>
  <separator name="ionic" >
   <i type="int" name="NSW">     1</i>
   <i type="int" name="IBRION">    -1</i>
   <i type="int" name="MDALGO">     0</i>
   <i type="int" name="ISIF">     3</i>
   <i name="PSTRESS">      0.00000000</i>
   <i name="EDIFFG">      0.00001000</i>
   <i type="int" name="NFREE">     5</i>
   <i name="POTIM">      0.10000000</i>
   <i name="SMASS">     -3.00000000</i>
   <i name="SCALEE">      1.00000000</i>
  </separator>
  <separator name="ionic md" >
   <i name="TEBEG">      0.00010000</i>
   <i name="TEEND">      0.00010000</i>
   <i type="int" name="NBLOCK">     1</i>
   <i type="int" name="KBLOCK">     1</i>
   <i type="int" name="NPACO">   256</i>
   <i name="APACO">     16.00000000</i>
  </separator>
  <separator name="symmetry" >
   <i type="int" name="ISYM">     0</i>
   <i name="SYMPREC">      0.00000010</i>
  </separator>
  <separator name="dos" >
   <i type="int" name="LORBIT">     0</i>
   <v name="RWIGS">     -1.00000000</v>
   <i type="int" name="NEDOS">   301</i>
   <i name="EMIN">     10.00000000</i>
   <i name="EMAX">    -10.00000000</i>
   <i name="EFERMI">      0.00000000</i>
  </separator>
  <separator name="writing" >
   <i type="int" name="NWRITE">     2</i>
   <i type="logical" name="LWAVE"> T  </i>
   <i type="logical" name="LDOWNSAMPLE"> F  </i>
   <i type="logical" name="LCHARG"> F  </i>
   <i type="logical" name="LPARD"> F  </i>
   <i type="logical" name="LVTOT"> F  </i>
   <i type="logical" name="LVHAR"> F  </i>
   <i type="logical" name="LELF"> F  </i>
   <i type="logical" name="LOPTICS"> T  </i>
   <v name="STM">      0.00000000      0.00000000      0.00000000      0.00000000      0.00000000      0.00000000      0.00000000</v>
  </separator>
  <separator name="performance" >
   <i type="int" name="NPAR">     4</i>
   <i type="int" name="NSIM">     4</i>
   <i type="int" name="NBLK">    -1</i>
   <i type="logical" name="LPLANE"> T  </i>
   <i type="logical" name="LSCALAPACK"> T  </i>
   <i type="logical" name="LSCAAWARE"> T  </i>
   <i type="logical" name="LSCALU"> F  </i>
   <i type="logical" name="LASYNC"> F  </i>
   <i type="logical" name="LORBITALREAL"> F  </i>
  </separator>
  <separator name="miscellaneous" >
   <i type="int" name="IDIOT">     3</i>
   <i type="int" name="ISPECIAL">     0</i>
   <i type="logical" name="LMUSIC"> F  </i>
   <v name="POMASS">      0.01000000</v>
   <v name="DARWINR">      0.00000000</v>
   <v name="DARWINV">      1.00000000</v>
   <i type="logical" name="LCORR"> T  </i>
  </separator>
  <i type="logical" name="GGA_COMPAT"> F  </i>
  <i type="logical" name="LBERRY"> F  </i>
  <i type="int" name="ICORELEVEL">     0</i>
  <i type="logical" name="LDAU"> F  </i>
  <i type="int" name="I_CONSTRAINED_M">     0</i>
  <separator name="electronic exchange-correlation" >
   <i type="string" name="GGA">PE</i>
   <i type="int" name="VOSKOWN">     0</i>
   <i type="logical" name="LHFCALC"> F  </i>
   <i type="string" name="PRECFOCK"></i>
   <i type="logical" name="LSYMGRAD"> F  </i>
   <i type="logical" name="LHFONE"> F  </i>
   <i type="logical" name="LRHFCALC"> F  </i>
   <i type="logical" name="LTHOMAS"> F  </i>
   <i type="logical" name="LMODELHF"> F  </i>
   <i name="ENCUT4O">     -1.00000000</i>
   <i type="int" name="EXXOEP">     0</i>
   <i type="int" name="FOURORBIT">     0</i>
   <i name="AEXX">      0.00000000</i>
   <i name="HFALPHA">      0.00000000</i>
   <i name="MCALPHA">      0.00000000</i>
   <i name="ALDAX">      1.00000000</i>
   <i name="AGGAX">      1.00000000</i>
   <i name="ALDAC">      1.00000000</i>
   <i name="AGGAC">      1.00000000</i>
   <i type="int" name="NKREDX">     1</i>
   <i type="int" name="NKREDY">     1</i>
   <i type="int" name="NKREDZ">     1</i>
   <i type="logical" name="SHIFTRED"> F  </i>
   <i type="logical" name="ODDONLY"> F  </i>
   <i type="logical" name="EVENONLY"> F  </i>
   <i type="int" name="LMAXFOCK">     0</i>
   <i type="int" name="NMAXFOCKAE">     0</i>
   <i type="logical" name="LFOCKAEDFT"> F  </i>
   <i name="HFSCREEN">      0.00000000</i>
   <i name="HFSCREENC">      0.00000000</i>
   <i type="int" name="NBANDSGWLOW">     0</i>
  </separator>
  <separator name="vdW DFT" >
   <i type="logical" name="LUSE_VDW"> F  </i>
   <i name="Zab_VDW">     -0.84910000</i>
   <i name="PARAM1">      0.12340000</i>
   <i name="PARAM2">      1.00000000</i>
   <i name="PARAM3">      0.00000000</i>
  </separator>
  <separator name="model GW" >
   <i type="int" name="MODEL_GW">     0</i>
   <i name="MODEL_EPS0">     35.09810904</i>
   <i name="MODEL_ALPHA">      1.00000000</i>
  </separator>
  <separator name="linear response parameters" >
   <i type="logical" name="LEPSILON"> F  </i>
   <i type="logical" name="LRPA"> F  </i>
   <i type="logical" name="LNABLA"> F  </i>
   <i type="logical" name="LVEL"> F  </i>
   <i type="int" name="KINTER">     0</i>
   <i name="CSHIFT">      0.10000000</i>
   <i name="OMEGAMAX">     -1.00000000</i>
   <i name="DEG_THRESHOLD">      0.00200000</i>
   <i name="RTIME">     -0.10000000</i>
   <i name="WPLASMAI">      0.00000000</i>
   <v name="DFIELD">      0.00000000      0.00000000      0.00000000</v>
   <v name="WPLASMA">      0.00000000      0.00000000      0.00000000      0.00000000      0.00000000      0.00000000      0.00000000      0.00000000      0.00000000</v>
  </separator>
  <separator name="orbital magnetization" >
   <i type="logical" name="NUCIND"> F  </i>
   <v name="MAGPOS">      0.00000000      0.00000000      0.00000000</v>
   <i type="logical" name="LNICSALL"> T  </i>
   <i type="logical" name="ORBITALMAG"> F  </i>
   <i type="logical" name="LMAGBLOCH"> F  </i>
   <i type="logical" name="LCHIMAG"> F  </i>
   <i type="logical" name="LGAUGE"> T  </i>
   <i type="int" name="MAGATOM">     0</i>
   <v name="MAGDIPOL">      0.00000000      0.00000000      0.00000000</v>
   <v name="AVECCONST">      0.00000000      0.00000000      0.00000000</v>
  </separator>
  <separator name="response functions" >
   <i type="logical" name="LADDER"> F  </i>
   <i type="logical" name="LRPAFORCE"> F  </i>
   <i type="logical" name="LFXC"> F  </i>
   <i type="logical" name="LHARTREE"> T  </i>
   <i type="int" name="IBSE">     0</i>
   <v type="int" name="KPOINT">    -1     0     0     0</v>
   <i type="logical" name="LTCTE"> F  </i>
   <i type="logical" name="LTETE"> F  </i>
   <i type="logical" name="LTRIPLET"> F  </i>
   <i type="logical" name="LFXCEPS"> F  </i>
   <i type="logical" name="LFXHEG"> F  </i>
   <i type="int" name="NATURALO">     2</i>
   <i type="logical" name="L2ORDER"> F  </i>
   <i type="logical" name="LMP2LT"> F  </i>
   <i type="logical" name="LUSEW"> F  </i>
   <i name="ENCUTGW">     -2.00000000</i>
   <i name="ENCUTGWSOFT">     -2.00000000</i>
   <i name="ENCUTLF">     -1.00000000</i>
   <i type="int" name="LMAXMP2">    -1</i>
   <i name="SCISSOR">      0.00000000</i>
   <i type="int" name="NOMEGA">     0</i>
   <i type="int" name="NOMEGAR">     0</i>
   <i type="int" name="NBANDSGW">    -1</i>
   <i type="int" name="NBANDSO">    -1</i>
   <i type="int" name="NBANDSV">    -1</i>
   <i type="int" name="NELM">    50</i>
   <i type="int" name="NELMHF">     1</i>
   <i type="int" name="DIM">     3</i>
   <i type="int" name="ANTIRES">     0</i>
   <i name="OMEGAMAX">    -30.00000000</i>
   <i name="OMEGAMIN">    -30.00000000</i>
   <i name="OMEGATL">   -200.00000000</i>
   <i type="int" name="OMEGAGRID">   140</i>
   <i name="CSHIFT">     -0.10000000</i>
   <i type="logical" name="SELFENERGY"> F  </i>
   <i type="logical" name="LSPECTRAL"> F  </i>
   <i type="logical" name="LSPECTRALGW"> F  </i>
   <i type="logical" name="LSINGLES"> F  </i>
   <i type="logical" name="LFERMIGW"> F  </i>
   <i type="logical" name="ODDONLYGW"> F  </i>
   <i type="logical" name="EVENONLYGW"> F  </i>
   <i type="int" name="NKREDLFX">     1</i>
   <i type="int" name="NKREDLFY">     1</i>
   <i type="int" name="NKREDLFZ">     1</i>
   <i type="int" name="MAXMEM">  2800</i>
   <i type="int" name="TELESCOPE">     0</i>
   <i type="int" name="TAUPAR">     1</i>
   <i type="int" name="OMEGAPAR">    -1</i>
   <i name="LAMBDA">      1.00000000</i>
  </separator>
  <separator name="External order field" >
   <i name="OFIELD_KAPPA">      0.00000000</i>
   <v name="OFIELD_K">      0.00000000      0.00000000      0.00000000</v>
   <i name="OFIELD_Q6_NEAR">      0.00000000</i>
   <i name="OFIELD_Q6_FAR">      0.00000000</i>
   <i name="OFIELD_A">      0.00000000</i>
  </separator>
 </parameters>
 <atominfo>
  <atoms>       1 </atoms>
  <types>       1 </types>
  <array name="atoms" >
   <dimension dim="1">ion</dimension>
   <field type="string">element</field>
   <field type="int">atomtype</field>
   <set>
    <rc><c>Og</c><c>   1</c></rc>
   </set>
  </array>
  <array name="atomtypes" >
   <dimension dim="1">type</dimension>
   <field type="int">atomspertype</field>
   <field type="string">element</field>
   <field>mass</field>
   <field>valence</field>
   <field type="string">pseudopotential</field>
   <set>
    <rc><c>   1</c><c>Og</c><c>      0.01000000</c><c>     18.00000000</c><c>  PAW Og, JanMewes Oct 18               </c></rc>
   </set>
  </array>
 </atominfo>
 <structure name="initialpos" >
  <crystal>
   <varray name="basis" >
    <v>       4.35728355       0.00000000       0.00000000 </v>
    <v>       2.17864177       3.77351824      -0.00000000 </v>
    <v>       2.17864177       1.25783941       3.55770712 </v>
   </varray>
   <i name="volume">     58.49684840 </i>
   <varray name="rec_basis" >
    <v>       0.22950079      -0.13250234      -0.09369330 </v>
    <v>       0.00000000       0.26500468      -0.09369330 </v>
    <v>      -0.00000000       0.00000000       0.28107991 </v>
   </varray>
  </crystal>
  <varray name="positions" >
   <v>       0.00000000       0.00000000       0.00000000 </v>
  </varray>
  <varray name="velocities" >
   <v>       0.00000000       0.00000000       0.00000000 </v>
  </varray>
 </structure>
 <calculation>
  <scstep>
   <time name="dav">    2.70    2.70</time>
   <time name="total">    2.76    2.76</time>
   <energy>
    <i name="alphaZ">     65.22157526 </i>
    <i name="ewald">  -1735.66754631 </i>
    <i name="hartreedc">   -663.81758612 </i>
    <i name="XCdc">    -69.16882045 </i>
    <i name="pawpsdc">   2268.28454800 </i>
    <i name="pawaedc">  -2184.08492831 </i>
    <i name="eentropy">     -0.00000000 </i>
    <i name="bandstr">   -168.73752935 </i>
    <i name="atom">   2639.90492407 </i>
    <i name="e_fr_energy">    151.93463678 </i>
    <i name="e_wo_entrp">    151.93463678 </i>
    <i name="e_0_energy">    151.93463678 </i>
   </energy>
  </scstep>
  <scstep>
   <time name="dav">    2.62    2.62</time>
   <time name="total">    2.62    2.62</time>
   <energy>
    <i name="e_fr_energy">     -8.58363506 </i>
    <i name="e_wo_entrp">     -8.58363506 </i>
    <i name="e_0_energy">     -8.58363506 </i>
   </energy>
  </scstep>
  <scstep>
   <time name="dav">    2.65    2.65</time>
   <time name="total">    2.65    2.65</time>
   <energy>
    <i name="e_fr_energy">    -13.06936820 </i>
    <i name="e_wo_entrp">    -13.06936820 </i>
    <i name="e_0_energy">    -13.06936820 </i>
   </energy>
  </scstep>
  <scstep>
   <time name="dav">    2.78    2.78</time>
   <time name="total">    2.78    2.78</time>
   <energy>
    <i name="e_fr_energy">    -13.23065138 </i>
    <i name="e_wo_entrp">    -13.23065138 </i>
    <i name="e_0_energy">    -13.23065138 </i>
   </energy>
  </scstep>
  <scstep>
   <time name="dav">    2.44    2.44</time>
   <time name="total">    2.54    2.54</time>
   <energy>
    <i name="e_fr_energy">    -13.23585080 </i>
    <i name="e_wo_entrp">    -13.23585080 </i>
    <i name="e_0_energy">    -13.23585080 </i>
   </energy>
  </scstep>
  <scstep>
   <time name="dav">    2.34    2.34</time>
   <time name="total">    2.49    2.49</time>
   <energy>
    <i name="e_fr_energy">    -13.15696027 </i>
    <i name="e_wo_entrp">    -13.15696027 </i>
    <i name="e_0_energy">    -13.15696027 </i>
   </energy>
  </scstep>
  <scstep>
   <time name="dav">    2.32    2.32</time>
   <time name="total">    2.49    2.49</time>
   <energy>
    <i name="e_fr_energy">    -13.16348978 </i>
    <i name="e_wo_entrp">    -13.16348978 </i>
    <i name="e_0_energy">    -13.16348978 </i>
   </energy>
  </scstep>
  <scstep>
   <time name="dav">    2.49    2.49</time>
   <time name="total">    2.66    2.66</time>
   <energy>
    <i name="e_fr_energy">    -13.17617748 </i>
    <i name="e_wo_entrp">    -13.17617734 </i>
    <i name="e_0_energy">    -13.17617741 </i>
   </energy>
  </scstep>
  <scstep>
   <time name="dav">    2.25    2.25</time>
   <time name="total">    2.40    2.40</time>
   <energy>
    <i name="e_fr_energy">    -13.18217500 </i>
    <i name="e_wo_entrp">    -13.18217499 </i>
    <i name="e_0_energy">    -13.18217499 </i>
   </energy>
  </scstep>
  <scstep>
   <time name="dav">    2.45    2.45</time>
   <time name="total">    2.61    2.61</time>
   <energy>
    <i name="e_fr_energy">    -13.18295867 </i>
    <i name="e_wo_entrp">    -13.18295866 </i>
    <i name="e_0_energy">    -13.18295866 </i>
   </energy>
  </scstep>
  <scstep>
   <time name="dav">    2.20    2.20</time>
   <time name="total">    2.35    2.35</time>
   <energy>
    <i name="e_fr_energy">    -13.18300609 </i>
    <i name="e_wo_entrp">    -13.18300599 </i>
    <i name="e_0_energy">    -13.18300604 </i>
   </energy>
  </scstep>
  <scstep>
   <time name="dav">    2.41    2.41</time>
   <time name="total">    2.57    2.57</time>
   <energy>
    <i name="e_fr_energy">    -13.18305504 </i>
    <i name="e_wo_entrp">    -13.18305501 </i>
    <i name="e_0_energy">    -13.18305502 </i>
   </energy>
  </scstep>
  <scstep>
   <time name="dav">    2.25    2.25</time>
   <time name="total">    2.42    2.42</time>
   <energy>
    <i name="e_fr_energy">    -13.18306186 </i>
    <i name="e_wo_entrp">    -13.18306184 </i>
    <i name="e_0_energy">    -13.18306185 </i>
   </energy>
  </scstep>
  <scstep>
   <time name="dav">    2.78    2.78</time>
   <time name="total">    2.93    2.93</time>
   <energy>
    <i name="e_fr_energy">    -13.18306188 </i>
    <i name="e_wo_entrp">    -13.18306185 </i>
    <i name="e_0_energy">    -13.18306187 </i>
   </energy>
  </scstep>
  <scstep>
   <time name="dav">    2.14    2.14</time>
   <time name="total">    2.30    2.30</time>
   <energy>
    <i name="e_fr_energy">    -13.18306144 </i>
    <i name="e_wo_entrp">    -13.18306142 </i>
    <i name="e_0_energy">    -13.18306143 </i>
   </energy>
  </scstep>
  <scstep>
   <time name="dav">    2.39    2.39</time>
   <time name="total">    2.54    2.54</time>
   <energy>
    <i name="e_fr_energy">    -13.18306086 </i>
    <i name="e_wo_entrp">    -13.18306085 </i>
    <i name="e_0_energy">    -13.18306086 </i>
   </energy>
  </scstep>
  <scstep>
   <time name="dav">    2.26    2.26</time>
   <time name="total">    2.42    2.42</time>
   <energy>
    <i name="e_fr_energy">    -13.18306102 </i>
    <i name="e_wo_entrp">    -13.18306100 </i>
    <i name="e_0_energy">    -13.18306101 </i>
   </energy>
  </scstep>
  <scstep>
   <time name="dav">    2.63    2.63</time>
   <time name="total">    2.78    2.78</time>
   <energy>
    <i name="e_fr_energy">    -13.18306130 </i>
    <i name="e_wo_entrp">    -13.18306128 </i>
    <i name="e_0_energy">    -13.18306129 </i>
   </energy>
  </scstep>
  <scstep>
   <time name="dav">    2.19    2.19</time>
   <time name="total">    2.34    2.34</time>
   <energy>
    <i name="e_fr_energy">    -13.18306153 </i>
    <i name="e_wo_entrp">    -13.18306152 </i>
    <i name="e_0_energy">    -13.18306153 </i>
   </energy>
  </scstep>
  <scstep>
   <time name="dav">    2.46    2.46</time>
   <time name="total">    2.61    2.61</time>
   <energy>
    <i name="e_fr_energy">    -13.18306161 </i>
    <i name="e_wo_entrp">    -13.18306160 </i>
    <i name="e_0_energy">    -13.18306161 </i>
   </energy>
  </scstep>
  <scstep>
   <time name="dav">    2.10    2.10</time>
   <time name="total">    2.25    2.25</time>
   <energy>
    <i name="e_fr_energy">    -13.18306163 </i>
    <i name="e_wo_entrp">    -13.18306162 </i>
    <i name="e_0_energy">    -13.18306162 </i>
   </energy>
  </scstep>
  <scstep>
   <time name="dav">    1.94    1.94</time>
   <time name="total">    2.11    2.11</time>
   <energy>
    <i name="e_fr_energy">    -13.18306159 </i>
    <i name="e_wo_entrp">    -13.18306157 </i>
    <i name="e_0_energy">    -13.18306158 </i>
   </energy>
  </scstep>
  <scstep>
   <time name="dav">    2.09    2.09</time>
   <time name="total">    2.26    2.26</time>
   <energy>
    <i name="e_fr_energy">    -13.18306150 </i>
    <i name="e_wo_entrp">    -13.18306148 </i>
    <i name="e_0_energy">    -13.18306149 </i>
   </energy>
  </scstep>
  <scstep>
   <time name="dav">    2.04    2.04</time>
   <time name="total">    2.19    2.19</time>
   <energy>
    <i name="e_fr_energy">    -13.18306146 </i>
    <i name="e_wo_entrp">    -13.18306145 </i>
    <i name="e_0_energy">    -13.18306146 </i>
   </energy>
  </scstep>
  <scstep>
   <time name="dav">    2.22    2.22</time>
   <time name="total">    2.27    2.27</time>
   <energy>
    <i name="alphaZ">     65.22157526 </i>
    <i name="ewald">  -1735.66754631 </i>
    <i name="hartreedc">   -675.91996762 </i>
    <i name="XCdc">    -68.74696056 </i>
    <i name="pawpsdc">   2336.00060573 </i>
    <i name="pawaedc">  -2260.60219015 </i>
    <i name="eentropy">     -0.00000001 </i>
    <i name="bandstr">   -313.37350186 </i>
    <i name="atom">   2639.90492407 </i>
    <i name="e_fr_energy">    -13.18306146 </i>
    <i name="e_wo_entrp">    -13.18306144 </i>
    <i name="e_0_energy">    -13.18306145 </i>
   </energy>
  </scstep>
  <structure>
   <crystal>
    <varray name="basis" >
     <v>       4.35728355       0.00000000       0.00000000 </v>
     <v>       2.17864177       3.77351824      -0.00000000 </v>
     <v>       2.17864177       1.25783941       3.55770712 </v>
    </varray>
    <i name="volume">     58.49684840 </i>
    <varray name="rec_basis" >
     <v>       0.22950079      -0.13250234      -0.09369330 </v>
     <v>       0.00000000       0.26500468      -0.09369330 </v>
     <v>      -0.00000000       0.00000000       0.28107991 </v>
    </varray>
   </crystal>
   <varray name="positions" >
    <v>       0.00000000       0.00000000       0.00000000 </v>
   </varray>
  </structure>
  <varray name="forces" >
   <v>       0.00002073      -0.00000693       0.00000936 </v>
  </varray>
  <varray name="stress" >
   <v> **************** **************** **************** </v>
   <v> **************** **************** **************** </v>
   <v> **************** **************** **************** </v>
  </varray>
  <energy>
   <i name="e_fr_energy">**************** </i>
   <i name="e_wo_entrp">**************** </i>
   <i name="e_0_energy">     -0.00000001 </i>
  </energy>
  <time name="totalsc">   64.06   64.14</time>
  <eigenvalues>
   <array>
    <dimension dim="1">band</dimension>
    <dimension dim="2">kpoint</dimension>
    <dimension dim="3">spin</dimension>
    <field>eigene</field>
    <field>occ</field>
    <set>
     <set comment="spin 1">
      <set comment="kpoint 1">
       <r>  -30.5447    1.0000 </r>
       <r>  -30.5447    1.0000 </r>
       <r>  -30.5445    1.0000 </r>
       <r>  -30.5445    1.0000 </r>
       <r>  -23.8803    1.0000 </r>
       <r>  -23.8799    1.0000 </r>
       <r>  -23.8797    1.0000 </r>
       <r>  -23.8792    1.0000 </r>
       <r>  -23.8785    1.0000 </r>
       <r>  -23.8777    1.0000 </r>
       <r>  -20.2835    1.0000 </r>
       <r>  -20.2827    1.0000 </r>
       <r>   -7.0030    1.0000 </r>
       <r>   -7.0019    1.0000 </r>
       <r>    3.6369    1.0000 </r>
       <r>    3.6373    1.0000 </r>
       <r>    3.8447    0.9997 </r>
       <r>    3.8447    0.9996 </r>
       <r>    3.8495    0.0004 </r>
       <r>    3.8496    0.0003 </r>
       <r>   10.7752    0.0000 </r>
       <r>   10.7754    0.0000 </r>
       <r>   10.7760    0.0000 </r>
       <r>   10.7762    0.0000 </r>
       <r>   11.0397    0.0000 </r>
       <r>   11.0402    0.0000 </r>
       <r>   11.1950    0.0000 </r>
       <r>   11.1965    0.0000 </r>
      </set>
      <set comment="kpoint 2">
       <r>  -30.5372    1.0000 </r>
       <r>  -30.5369    1.0000 </r>
       <r>  -30.5277    1.0000 </r>
       <r>  -30.5276    1.0000 </r>
       <r>  -23.8763    1.0000 </r>
       <r>  -23.8763    1.0000 </r>
       <r>  -23.8678    1.0000 </r>
       <r>  -23.8678    1.0000 </r>
       <r>  -23.8673    1.0000 </r>
       <r>  -23.8666    1.0000 </r>
       <r>  -20.2571    1.0000 </r>
       <r>  -20.2563    1.0000 </r>
       <r>   -7.0912    1.0000 </r>
       <r>   -7.0902    1.0000 </r>
       <r>    2.1152    1.0000 </r>
       <r>    2.1183    1.0000 </r>
       <r>    3.6914    1.0000 </r>
       <r>    3.6959    1.0000 </r>
       <r>    5.4234    0.0000 </r>
       <r>    5.4248    0.0000 </r>
       <r>    9.7225    0.0000 </r>
       <r>    9.7237    0.0000 </r>
       <r>   10.9471    0.0000 </r>
       <r>   10.9478    0.0000 </r>
       <r>   11.2692    0.0000 </r>
       <r>   11.2694    0.0000 </r>
       <r>   12.0706    0.0000 </r>
       <r>   12.0713    0.0000 </r>
      </set>
      <set comment="kpoint 3">
       <r>  -30.5337    1.0000 </r>
       <r>  -30.5335    1.0000 </r>
       <r>  -30.5274    1.0000 </r>
       <r>  -30.5271    1.0000 </r>
       <r>  -23.8697    1.0000 </r>
       <r>  -23.8691    1.0000 </r>
       <r>  -23.8671    1.0000 </r>
       <r>  -23.8670    1.0000 </r>
       <r>  -23.8664    1.0000 </r>
       <r>  -23.8653    1.0000 </r>
       <r>  -20.2038    1.0000 </r>
       <r>  -20.2031    1.0000 </r>
       <r>   -7.2684    1.0000 </r>
       <r>   -7.2675    1.0000 </r>
       <r>    1.0320    1.0000 </r>
       <r>    1.0354    1.0000 </r>
       <r>    3.4168    1.0000 </r>
       <r>    3.4210    1.0000 </r>
       <r>    6.1223    0.0000 </r>
       <r>    6.1224    0.0000 </r>
       <r>   10.2934    0.0000 </r>
       <r>   10.2942    0.0000 </r>
       <r>   10.5073    0.0000 </r>
       <r>   10.5080    0.0000 </r>
       <r>   10.9358    0.0000 </r>
       <r>   10.9361    0.0000 </r>
       <r>   11.1930    0.0000 </r>
       <r>   11.1933    0.0000 </r>
      </set>
      <set comment="kpoint 4">
       <r>  -30.5516    1.0000 </r>
       <r>  -30.5515    1.0000 </r>
       <r>  -30.5388    1.0000 </r>
       <r>  -30.5386    1.0000 </r>
       <r>  -23.8807    1.0000 </r>
       <r>  -23.8800    1.0000 </r>
       <r>  -23.8764    1.0000 </r>
       <r>  -23.8753    1.0000 </r>
       <r>  -23.8730    1.0000 </r>
       <r>  -23.8729    1.0000 </r>
       <r>  -20.1768    1.0000 </r>
       <r>  -20.1761    1.0000 </r>
       <r>   -7.3575    1.0000 </r>
       <r>   -7.3566    1.0000 </r>
       <r>    0.6561    1.0000 </r>
       <r>    0.6596    1.0000 </r>
       <r>    3.2921    1.0000 </r>
       <r>    3.2961    1.0000 </r>
       <r>    6.1295    0.0000 </r>
       <r>    6.1298    0.0000 </r>
       <r>   10.2192    0.0000 </r>
       <r>   10.2201    0.0000 </r>
       <r>   10.4368    0.0000 </r>
       <r>   10.4374    0.0000 </r>
       <r>   10.6185    0.0000 </r>
       <r>   10.6189    0.0000 </r>
       <r>   11.9772    0.0000 </r>
       <r>   11.9776    0.0000 </r>
      </set>
      <set comment="kpoint 5">
       <r>  -30.5337    1.0000 </r>
       <r>  -30.5335    1.0000 </r>
       <r>  -30.5274    1.0000 </r>
       <r>  -30.5271    1.0000 </r>
       <r>  -23.8697    1.0000 </r>
       <r>  -23.8691    1.0000 </r>
       <r>  -23.8671    1.0000 </r>
       <r>  -23.8670    1.0000 </r>
       <r>  -23.8664    1.0000 </r>
       <r>  -23.8653    1.0000 </r>
       <r>  -20.2038    1.0000 </r>
       <r>  -20.2031    1.0000 </r>
       <r>   -7.2684    1.0000 </r>
       <r>   -7.2675    1.0000 </r>
       <r>    1.0320    1.0000 </r>
       <r>    1.0354    1.0000 </r>
       <r>    3.4168    1.0000 </r>
       <r>    3.4210    1.0000 </r>
       <r>    6.1223    0.0000 </r>
       <r>    6.1224    0.0000 </r>
       <r>   10.2934    0.0000 </r>
       <r>   10.2942    0.0000 </r>
       <r>   10.5073    0.0000 </r>
       <r>   10.5080    0.0000 </r>
       <r>   10.9358    0.0000 </r>
       <r>   10.9361    0.0000 </r>
       <r>   11.1930    0.0000 </r>
       <r>   11.1933    0.0000 </r>
      </set>
      <set comment="kpoint 6">
       <r>  -30.5372    1.0000 </r>
       <r>  -30.5369    1.0000 </r>
       <r>  -30.5277    1.0000 </r>
       <r>  -30.5276    1.0000 </r>
       <r>  -23.8763    1.0000 </r>
       <r>  -23.8763    1.0000 </r>
       <r>  -23.8678    1.0000 </r>
       <r>  -23.8678    1.0000 </r>
       <r>  -23.8673    1.0000 </r>
       <r>  -23.8666    1.0000 </r>
       <r>  -20.2571    1.0000 </r>
       <r>  -20.2563    1.0000 </r>
       <r>   -7.0912    1.0000 </r>
       <r>   -7.0902    1.0000 </r>
       <r>    2.1152    1.0000 </r>
       <r>    2.1183    1.0000 </r>
       <r>    3.6914    1.0000 </r>
       <r>    3.6959    1.0000 </r>
       <r>    5.4234    0.0000 </r>
       <r>    5.4248    0.0000 </r>
       <r>    9.7225    0.0000 </r>
       <r>    9.7237    0.0000 </r>
       <r>   10.9471    0.0000 </r>
       <r>   10.9478    0.0000 </r>
       <r>   11.2692    0.0000 </r>
       <r>   11.2694    0.0000 </r>
       <r>   12.0706    0.0000 </r>
       <r>   12.0712    0.0000 </r>
      </set>
      <set comment="kpoint 7">
       <r>  -30.5371    1.0000 </r>
       <r>  -30.5370    1.0000 </r>
       <r>  -30.5277    1.0000 </r>
       <r>  -30.5276    1.0000 </r>
       <r>  -23.8764    1.0000 </r>
       <r>  -23.8762    1.0000 </r>
       <r>  -23.8677    1.0000 </r>
       <r>  -23.8675    1.0000 </r>
       <r>  -23.8672    1.0000 </r>
       <r>  -23.8670    1.0000 </r>
       <r>  -20.2571    1.0000 </r>
       <r>  -20.2563    1.0000 </r>
       <r>   -7.0912    1.0000 </r>
       <r>   -7.0901    1.0000 </r>
       <r>    2.1164    1.0000 </r>
       <r>    2.1172    1.0000 </r>
       <r>    3.6929    1.0000 </r>
       <r>    3.6944    1.0000 </r>
       <r>    5.4239    0.0000 </r>
       <r>    5.4243    0.0000 </r>
       <r>    9.7229    0.0000 </r>
       <r>    9.7232    0.0000 </r>
       <r>   10.9474    0.0000 </r>
       <r>   10.9475    0.0000 </r>
       <r>   11.2690    0.0000 </r>
       <r>   11.2695    0.0000 </r>
       <r>   12.0704    0.0000 </r>
       <r>   12.0715    0.0000 </r>
      </set>
      <set comment="kpoint 8">
       <r>  -30.5337    1.0000 </r>
       <r>  -30.5334    1.0000 </r>
       <r>  -30.5281    1.0000 </r>
       <r>  -30.5279    1.0000 </r>
       <r>  -23.8726    1.0000 </r>
       <r>  -23.8720    1.0000 </r>
       <r>  -23.8688    1.0000 </r>
       <r>  -23.8680    1.0000 </r>
       <r>  -23.8668    1.0000 </r>
       <r>  -23.8663    1.0000 </r>
       <r>  -20.2483    1.0000 </r>
       <r>  -20.2475    1.0000 </r>
       <r>   -7.1183    1.0000 </r>
       <r>   -7.1173    1.0000 </r>
       <r>    2.0038    1.0000 </r>
       <r>    2.0068    1.0000 </r>
       <r>    3.3413    1.0000 </r>
       <r>    3.3458    1.0000 </r>
       <r>    5.9468    0.0000 </r>
       <r>    5.9481    0.0000 </r>
       <r>    9.1334    0.0000 </r>
       <r>    9.1343    0.0000 </r>
       <r>   10.5128    0.0000 </r>
       <r>   10.5139    0.0000 </r>
       <r>   11.2803    0.0000 </r>
       <r>   11.2816    0.0000 </r>
       <r>   11.9695    0.0000 </r>
       <r>   11.9708    0.0000 </r>
      </set>
      <set comment="kpoint 9">
       <r>  -30.5404    1.0000 </r>
       <r>  -30.5402    1.0000 </r>
       <r>  -30.5348    1.0000 </r>
       <r>  -30.5346    1.0000 </r>
       <r>  -23.8755    1.0000 </r>
       <r>  -23.8752    1.0000 </r>
       <r>  -23.8721    1.0000 </r>
       <r>  -23.8715    1.0000 </r>
       <r>  -23.8696    1.0000 </r>
       <r>  -23.8690    1.0000 </r>
       <r>  -20.2042    1.0000 </r>
       <r>  -20.2034    1.0000 </r>
       <r>   -7.2605    1.0000 </r>
       <r>   -7.2595    1.0000 </r>
       <r>    1.2066    1.0000 </r>
       <r>    1.2098    1.0000 </r>
       <r>    2.9274    1.0000 </r>
       <r>    2.9313    1.0000 </r>
       <r>    6.8290    0.0000 </r>
       <r>    6.8296    0.0000 </r>
       <r>    9.0404    0.0000 </r>
       <r>    9.0418    0.0000 </r>
       <r>    9.5620    0.0000 </r>
       <r>    9.5632    0.0000 </r>
       <r>   11.5413    0.0000 </r>
       <r>   11.5419    0.0000 </r>
       <r>   12.8050    0.0000 </r>
       <r>   12.8062    0.0000 </r>
      </set>
      <set comment="kpoint 10">
       <r>  -30.5500    1.0000 </r>
       <r>  -30.5498    1.0000 </r>
       <r>  -30.5419    1.0000 </r>
       <r>  -30.5416    1.0000 </r>
       <r>  -23.8807    1.0000 </r>
       <r>  -23.8801    1.0000 </r>
       <r>  -23.8759    1.0000 </r>
       <r>  -23.8757    1.0000 </r>
       <r>  -23.8740    1.0000 </r>
       <r>  -23.8731    1.0000 </r>
       <r>  -20.1682    1.0000 </r>
       <r>  -20.1674    1.0000 </r>
       <r>   -7.3741    1.0000 </r>
       <r>   -7.3732    1.0000 </r>
       <r>    0.7260    1.0000 </r>
       <r>    0.7294    1.0000 </r>
       <r>    2.6128    1.0000 </r>
       <r>    2.6165    1.0000 </r>
       <r>    7.0459    0.0000 </r>
       <r>    7.0466    0.0000 </r>
       <r>    8.8393    0.0000 </r>
       <r>    8.8402    0.0000 </r>
       <r>   10.6817    0.0000 </r>
       <r>   10.6828    0.0000 </r>
       <r>   11.2882    0.0000 </r>
       <r>   11.2891    0.0000 </r>
       <r>   12.8948    0.0000 </r>
       <r>   12.8957    0.0000 </r>
      </set>
      <set comment="kpoint 11">
       <r>  -30.5372    1.0000 </r>
       <r>  -30.5370    1.0000 </r>
       <r>  -30.5270    1.0000 </r>
       <r>  -30.5267    1.0000 </r>
       <r>  -23.8720    1.0000 </r>
       <r>  -23.8714    1.0000 </r>
       <r>  -23.8680    1.0000 </r>
       <r>  -23.8674    1.0000 </r>
       <r>  -23.8638    1.0000 </r>
       <r>  -23.8634    1.0000 </r>
       <r>  -20.1771    1.0000 </r>
       <r>  -20.1763    1.0000 </r>
       <r>   -7.3466    1.0000 </r>
       <r>   -7.3456    1.0000 </r>
       <r>    0.8182    1.0000 </r>
       <r>    0.8215    1.0000 </r>
       <r>    2.6847    1.0000 </r>
       <r>    2.6883    1.0000 </r>
       <r>    7.1405    0.0000 </r>
       <r>    7.1410    0.0000 </r>
       <r>    8.9781    0.0000 </r>
       <r>    8.9786    0.0000 </r>
       <r>   10.4933    0.0000 </r>
       <r>   10.4939    0.0000 </r>
       <r>   11.1342    0.0000 </r>
       <r>   11.1347    0.0000 </r>
       <r>   12.9310    0.0000 </r>
       <r>   12.9319    0.0000 </r>
      </set>
      <set comment="kpoint 12">
       <r>  -30.5334    1.0000 </r>
       <r>  -30.5333    1.0000 </r>
       <r>  -30.5248    1.0000 </r>
       <r>  -30.5246    1.0000 </r>
       <r>  -23.8703    1.0000 </r>
       <r>  -23.8701    1.0000 </r>
       <r>  -23.8692    1.0000 </r>
       <r>  -23.8689    1.0000 </r>
       <r>  -23.8621    1.0000 </r>
       <r>  -23.8615    1.0000 </r>
       <r>  -20.2218    1.0000 </r>
       <r>  -20.2210    1.0000 </r>
       <r>   -7.2058    1.0000 </r>
       <r>   -7.2048    1.0000 </r>
       <r>    1.4220    1.0000 </r>
       <r>    1.4242    1.0000 </r>
       <r>    3.1732    1.0000 </r>
       <r>    3.1759    1.0000 </r>
       <r>    6.5494    0.0000 </r>
       <r>    6.5503    0.0000 </r>
       <r>    9.3688    0.0000 </r>
       <r>    9.3696    0.0000 </r>
       <r>   10.1197    0.0000 </r>
       <r>   10.1203    0.0000 </r>
       <r>   11.3245    0.0000 </r>
       <r>   11.3258    0.0000 </r>
       <r>   11.6103    0.0000 </r>
       <r>   11.6112    0.0000 </r>
      </set>
      <set comment="kpoint 13">
       <r>  -30.5337    1.0000 </r>
       <r>  -30.5336    1.0000 </r>
       <r>  -30.5272    1.0000 </r>
       <r>  -30.5272    1.0000 </r>
       <r>  -23.8696    1.0000 </r>
       <r>  -23.8692    1.0000 </r>
       <r>  -23.8672    1.0000 </r>
       <r>  -23.8669    1.0000 </r>
       <r>  -23.8660    1.0000 </r>
       <r>  -23.8656    1.0000 </r>
       <r>  -20.2038    1.0000 </r>
       <r>  -20.2031    1.0000 </r>
       <r>   -7.2684    1.0000 </r>
       <r>   -7.2674    1.0000 </r>
       <r>    1.0332    1.0000 </r>
       <r>    1.0342    1.0000 </r>
       <r>    3.4182    1.0000 </r>
       <r>    3.4196    1.0000 </r>
       <r>    6.1220    0.0000 </r>
       <r>    6.1227    0.0000 </r>
       <r>   10.2937    0.0000 </r>
       <r>   10.2939    0.0000 </r>
       <r>   10.5075    0.0000 </r>
       <r>   10.5077    0.0000 </r>
       <r>   10.9351    0.0000 </r>
       <r>   10.9368    0.0000 </r>
       <r>   11.1927    0.0000 </r>
       <r>   11.1936    0.0000 </r>
      </set>
      <set comment="kpoint 14">
       <r>  -30.5404    1.0000 </r>
       <r>  -30.5402    1.0000 </r>
       <r>  -30.5347    1.0000 </r>
       <r>  -30.5346    1.0000 </r>
       <r>  -23.8755    1.0000 </r>
       <r>  -23.8752    1.0000 </r>
       <r>  -23.8719    1.0000 </r>
       <r>  -23.8716    1.0000 </r>
       <r>  -23.8697    1.0000 </r>
       <r>  -23.8690    1.0000 </r>
       <r>  -20.2042    1.0000 </r>
       <r>  -20.2034    1.0000 </r>
       <r>   -7.2605    1.0000 </r>
       <r>   -7.2595    1.0000 </r>
       <r>    1.2069    1.0000 </r>
       <r>    1.2096    1.0000 </r>
       <r>    2.9275    1.0000 </r>
       <r>    2.9312    1.0000 </r>
       <r>    6.8292    0.0000 </r>
       <r>    6.8294    0.0000 </r>
       <r>    9.0411    0.0000 </r>
       <r>    9.0412    0.0000 </r>
       <r>    9.5620    0.0000 </r>
       <r>    9.5632    0.0000 </r>
       <r>   11.5410    0.0000 </r>
       <r>   11.5422    0.0000 </r>
       <r>   12.8054    0.0000 </r>
       <r>   12.8058    0.0000 </r>
      </set>
      <set comment="kpoint 15">
       <r>  -30.5421    1.0000 </r>
       <r>  -30.5419    1.0000 </r>
       <r>  -30.5414    1.0000 </r>
       <r>  -30.5411    1.0000 </r>
       <r>  -23.8763    1.0000 </r>
       <r>  -23.8756    1.0000 </r>
       <r>  -23.8745    1.0000 </r>
       <r>  -23.8739    1.0000 </r>
       <r>  -23.8725    1.0000 </r>
       <r>  -23.8717    1.0000 </r>
       <r>  -20.1777    1.0000 </r>
       <r>  -20.1770    1.0000 </r>
       <r>   -7.3371    1.0000 </r>
       <r>   -7.3361    1.0000 </r>
       <r>    1.0040    1.0000 </r>
       <r>    1.0074    1.0000 </r>
       <r>    2.5527    1.0000 </r>
       <r>    2.5568    1.0000 </r>
       <r>    6.7671    0.0000 </r>
       <r>    6.7678    0.0000 </r>
       <r>    8.0313    0.0000 </r>
       <r>    8.0322    0.0000 </r>
       <r>    9.8698    0.0000 </r>
       <r>    9.8713    0.0000 </r>
       <r>   12.6454    0.0000 </r>
       <r>   12.6473    0.0000 </r>
       <r>   13.7308    0.0000 </r>
       <r>   13.7318    0.0000 </r>
      </set>
      <set comment="kpoint 16">
       <r>  -30.5431    1.0000 </r>
       <r>  -30.5429    1.0000 </r>
       <r>  -30.5360    1.0000 </r>
       <r>  -30.5358    1.0000 </r>
       <r>  -23.8750    1.0000 </r>
       <r>  -23.8747    1.0000 </r>
       <r>  -23.8711    1.0000 </r>
       <r>  -23.8709    1.0000 </r>
       <r>  -23.8700    1.0000 </r>
       <r>  -23.8692    1.0000 </r>
       <r>  -20.1507    1.0000 </r>
       <r>  -20.1499    1.0000 </r>
       <r>   -7.4161    1.0000 </r>
       <r>   -7.4151    1.0000 </r>
       <r>    0.7832    1.0000 </r>
       <r>    0.7868    1.0000 </r>
       <r>    2.1057    1.0000 </r>
       <r>    2.1095    1.0000 </r>
       <r>    6.8413    0.0000 </r>
       <r>    6.8421    0.0000 </r>
       <r>    8.3011    0.0000 </r>
       <r>    8.3022    0.0000 </r>
       <r>   10.2353    0.0000 </r>
       <r>   10.2361    0.0000 </r>
       <r>   12.6537    0.0000 </r>
       <r>   12.6547    0.0000 </r>
       <r>   13.8870    0.0000 </r>
       <r>   13.8872    0.0000 </r>
      </set>
      <set comment="kpoint 17">
       <r>  -30.5480    1.0000 </r>
       <r>  -30.5479    1.0000 </r>
       <r>  -30.5359    1.0000 </r>
       <r>  -30.5357    1.0000 </r>
       <r>  -23.8785    1.0000 </r>
       <r>  -23.8784    1.0000 </r>
       <r>  -23.8717    1.0000 </r>
       <r>  -23.8711    1.0000 </r>
       <r>  -23.8707    1.0000 </r>
       <r>  -23.8703    1.0000 </r>
       <r>  -20.1505    1.0000 </r>
       <r>  -20.1497    1.0000 </r>
       <r>   -7.4177    1.0000 </r>
       <r>   -7.4167    1.0000 </r>
       <r>    0.7595    1.0000 </r>
       <r>    0.7622    1.0000 </r>
       <r>    1.9724    1.0000 </r>
       <r>    1.9752    1.0000 </r>
       <r>    7.4010    0.0000 </r>
       <r>    7.4020    0.0000 </r>
       <r>    8.7740    0.0000 </r>
       <r>    8.7743    0.0000 </r>
       <r>   11.2593    0.0000 </r>
       <r>   11.2600    0.0000 </r>
       <r>   11.4287    0.0000 </r>
       <r>   11.4296    0.0000 </r>
       <r>   12.4161    0.0000 </r>
       <r>   12.4178    0.0000 </r>
      </set>
      <set comment="kpoint 18">
       <r>  -30.5371    1.0000 </r>
       <r>  -30.5371    1.0000 </r>
       <r>  -30.5269    1.0000 </r>
       <r>  -30.5268    1.0000 </r>
       <r>  -23.8721    1.0000 </r>
       <r>  -23.8713    1.0000 </r>
       <r>  -23.8679    1.0000 </r>
       <r>  -23.8675    1.0000 </r>
       <r>  -23.8639    1.0000 </r>
       <r>  -23.8633    1.0000 </r>
       <r>  -20.1771    1.0000 </r>
       <r>  -20.1763    1.0000 </r>
       <r>   -7.3466    1.0000 </r>
       <r>   -7.3456    1.0000 </r>
       <r>    0.8195    1.0000 </r>
       <r>    0.8201    1.0000 </r>
       <r>    2.6862    1.0000 </r>
       <r>    2.6867    1.0000 </r>
       <r>    7.1403    0.0000 </r>
       <r>    7.1412    0.0000 </r>
       <r>    8.9779    0.0000 </r>
       <r>    8.9787    0.0000 </r>
       <r>   10.4934    0.0000 </r>
       <r>   10.4939    0.0000 </r>
       <r>   11.1336    0.0000 </r>
       <r>   11.1353    0.0000 </r>
       <r>   12.9313    0.0000 </r>
       <r>   12.9315    0.0000 </r>
      </set>
      <set comment="kpoint 19">
       <r>  -30.5516    1.0000 </r>
       <r>  -30.5515    1.0000 </r>
       <r>  -30.5387    1.0000 </r>
       <r>  -30.5387    1.0000 </r>
       <r>  -23.8806    1.0000 </r>
       <r>  -23.8801    1.0000 </r>
       <r>  -23.8761    1.0000 </r>
       <r>  -23.8758    1.0000 </r>
       <r>  -23.8732    1.0000 </r>
       <r>  -23.8727    1.0000 </r>
       <r>  -20.1768    1.0000 </r>
       <r>  -20.1761    1.0000 </r>
       <r>   -7.3575    1.0000 </r>
       <r>   -7.3565    1.0000 </r>
       <r>    0.6573    1.0000 </r>
       <r>    0.6584    1.0000 </r>
       <r>    3.2934    1.0000 </r>
       <r>    3.2948    1.0000 </r>
       <r>    6.1292    0.0000 </r>
       <r>    6.1300    0.0000 </r>
       <r>   10.2196    0.0000 </r>
       <r>   10.2198    0.0000 </r>
       <r>   10.4367    0.0000 </r>
       <r>   10.4375    0.0000 </r>
       <r>   10.6178    0.0000 </r>
       <r>   10.6197    0.0000 </r>
       <r>   11.9772    0.0000 </r>
       <r>   11.9776    0.0000 </r>
      </set>
      <set comment="kpoint 20">
       <r>  -30.5500    1.0000 </r>
       <r>  -30.5498    1.0000 </r>
       <r>  -30.5418    1.0000 </r>
       <r>  -30.5417    1.0000 </r>
       <r>  -23.8806    1.0000 </r>
       <r>  -23.8802    1.0000 </r>
       <r>  -23.8759    1.0000 </r>
       <r>  -23.8756    1.0000 </r>
       <r>  -23.8739    1.0000 </r>
       <r>  -23.8733    1.0000 </r>
       <r>  -20.1682    1.0000 </r>
       <r>  -20.1674    1.0000 </r>
       <r>   -7.3742    1.0000 </r>
       <r>   -7.3732    1.0000 </r>
       <r>    0.7269    1.0000 </r>
       <r>    0.7285    1.0000 </r>
       <r>    2.6137    1.0000 </r>
       <r>    2.6156    1.0000 </r>
       <r>    7.0459    0.0000 </r>
       <r>    7.0466    0.0000 </r>
       <r>    8.8392    0.0000 </r>
       <r>    8.8403    0.0000 </r>
       <r>   10.6819    0.0000 </r>
       <r>   10.6826    0.0000 </r>
       <r>   11.2879    0.0000 </r>
       <r>   11.2894    0.0000 </r>
       <r>   12.8949    0.0000 </r>
       <r>   12.8955    0.0000 </r>
      </set>
      <set comment="kpoint 21">
       <r>  -30.5431    1.0000 </r>
       <r>  -30.5429    1.0000 </r>
       <r>  -30.5360    1.0000 </r>
       <r>  -30.5358    1.0000 </r>
       <r>  -23.8750    1.0000 </r>
       <r>  -23.8748    1.0000 </r>
       <r>  -23.8712    1.0000 </r>
       <r>  -23.8708    1.0000 </r>
       <r>  -23.8699    1.0000 </r>
       <r>  -23.8694    1.0000 </r>
       <r>  -20.1507    1.0000 </r>
       <r>  -20.1499    1.0000 </r>
       <r>   -7.4161    1.0000 </r>
       <r>   -7.4151    1.0000 </r>
       <r>    0.7833    1.0000 </r>
       <r>    0.7867    1.0000 </r>
       <r>    2.1057    1.0000 </r>
       <r>    2.1095    1.0000 </r>
       <r>    6.8415    0.0000 </r>
       <r>    6.8420    0.0000 </r>
       <r>    8.3013    0.0000 </r>
       <r>    8.3020    0.0000 </r>
       <r>   10.2352    0.0000 </r>
       <r>   10.2361    0.0000 </r>
       <r>   12.6540    0.0000 </r>
       <r>   12.6545    0.0000 </r>
       <r>   13.8869    0.0000 </r>
       <r>   13.8874    0.0000 </r>
      </set>
      <set comment="kpoint 22">
       <r>  -30.5492    1.0000 </r>
       <r>  -30.5490    1.0000 </r>
       <r>  -30.5331    1.0000 </r>
       <r>  -30.5329    1.0000 </r>
       <r>  -23.8810    1.0000 </r>
       <r>  -23.8804    1.0000 </r>
       <r>  -23.8696    1.0000 </r>
       <r>  -23.8689    1.0000 </r>
       <r>  -23.8682    1.0000 </r>
       <r>  -23.8676    1.0000 </r>
       <r>  -20.1419    1.0000 </r>
       <r>  -20.1411    1.0000 </r>
       <r>   -7.4411    1.0000 </r>
       <r>   -7.4402    1.0000 </r>
       <r>    0.6931    1.0000 </r>
       <r>    0.6967    1.0000 </r>
       <r>    2.2255    1.0000 </r>
       <r>    2.2295    1.0000 </r>
       <r>    6.2576    0.0000 </r>
       <r>    6.2583    0.0000 </r>
       <r>    7.6634    0.0000 </r>
       <r>    7.6643    0.0000 </r>
       <r>   10.7660    0.0000 </r>
       <r>   10.7669    0.0000 </r>
       <r>   14.9172    0.0000 </r>
       <r>   14.9186    0.0000 </r>
       <r>   14.9538    0.0000 </r>
       <r>   14.9560    0.0000 </r>
      </set>
      <set comment="kpoint 23">
       <r>  -30.5431    1.0000 </r>
       <r>  -30.5429    1.0000 </r>
       <r>  -30.5360    1.0000 </r>
       <r>  -30.5358    1.0000 </r>
       <r>  -23.8750    1.0000 </r>
       <r>  -23.8748    1.0000 </r>
       <r>  -23.8712    1.0000 </r>
       <r>  -23.8708    1.0000 </r>
       <r>  -23.8699    1.0000 </r>
       <r>  -23.8694    1.0000 </r>
       <r>  -20.1507    1.0000 </r>
       <r>  -20.1499    1.0000 </r>
       <r>   -7.4161    1.0000 </r>
       <r>   -7.4151    1.0000 </r>
       <r>    0.7833    1.0000 </r>
       <r>    0.7867    1.0000 </r>
       <r>    2.1057    1.0000 </r>
       <r>    2.1095    1.0000 </r>
       <r>    6.8415    0.0000 </r>
       <r>    6.8420    0.0000 </r>
       <r>    8.3013    0.0000 </r>
       <r>    8.3020    0.0000 </r>
       <r>   10.2352    0.0000 </r>
       <r>   10.2361    0.0000 </r>
       <r>   12.6540    0.0000 </r>
       <r>   12.6545    0.0000 </r>
       <r>   13.8869    0.0000 </r>
       <r>   13.8874    0.0000 </r>
      </set>
      <set comment="kpoint 24">
       <r>  -30.5500    1.0000 </r>
       <r>  -30.5498    1.0000 </r>
       <r>  -30.5418    1.0000 </r>
       <r>  -30.5417    1.0000 </r>
       <r>  -23.8806    1.0000 </r>
       <r>  -23.8802    1.0000 </r>
       <r>  -23.8759    1.0000 </r>
       <r>  -23.8756    1.0000 </r>
       <r>  -23.8739    1.0000 </r>
       <r>  -23.8733    1.0000 </r>
       <r>  -20.1682    1.0000 </r>
       <r>  -20.1674    1.0000 </r>
       <r>   -7.3742    1.0000 </r>
       <r>   -7.3732    1.0000 </r>
       <r>    0.7269    1.0000 </r>
       <r>    0.7285    1.0000 </r>
       <r>    2.6137    1.0000 </r>
       <r>    2.6156    1.0000 </r>
       <r>    7.0459    0.0000 </r>
       <r>    7.0466    0.0000 </r>
       <r>    8.8392    0.0000 </r>
       <r>    8.8403    0.0000 </r>
       <r>   10.6819    0.0000 </r>
       <r>   10.6826    0.0000 </r>
       <r>   11.2879    0.0000 </r>
       <r>   11.2894    0.0000 </r>
       <r>   12.8949    0.0000 </r>
       <r>   12.8955    0.0000 </r>
      </set>
      <set comment="kpoint 25">
       <r>  -30.5337    1.0000 </r>
       <r>  -30.5336    1.0000 </r>
       <r>  -30.5272    1.0000 </r>
       <r>  -30.5272    1.0000 </r>
       <r>  -23.8696    1.0000 </r>
       <r>  -23.8692    1.0000 </r>
       <r>  -23.8672    1.0000 </r>
       <r>  -23.8669    1.0000 </r>
       <r>  -23.8660    1.0000 </r>
       <r>  -23.8656    1.0000 </r>
       <r>  -20.2038    1.0000 </r>
       <r>  -20.2031    1.0000 </r>
       <r>   -7.2684    1.0000 </r>
       <r>   -7.2674    1.0000 </r>
       <r>    1.0332    1.0000 </r>
       <r>    1.0342    1.0000 </r>
       <r>    3.4182    1.0000 </r>
       <r>    3.4196    1.0000 </r>
       <r>    6.1220    0.0000 </r>
       <r>    6.1227    0.0000 </r>
       <r>   10.2937    0.0000 </r>
       <r>   10.2939    0.0000 </r>
       <r>   10.5075    0.0000 </r>
       <r>   10.5077    0.0000 </r>
       <r>   10.9351    0.0000 </r>
       <r>   10.9368    0.0000 </r>
       <r>   11.1927    0.0000 </r>
       <r>   11.1936    0.0000 </r>
      </set>
      <set comment="kpoint 26">
       <r>  -30.5371    1.0000 </r>
       <r>  -30.5371    1.0000 </r>
       <r>  -30.5269    1.0000 </r>
       <r>  -30.5268    1.0000 </r>
       <r>  -23.8721    1.0000 </r>
       <r>  -23.8713    1.0000 </r>
       <r>  -23.8679    1.0000 </r>
       <r>  -23.8675    1.0000 </r>
       <r>  -23.8639    1.0000 </r>
       <r>  -23.8633    1.0000 </r>
       <r>  -20.1771    1.0000 </r>
       <r>  -20.1763    1.0000 </r>
       <r>   -7.3466    1.0000 </r>
       <r>   -7.3456    1.0000 </r>
       <r>    0.8195    1.0000 </r>
       <r>    0.8201    1.0000 </r>
       <r>    2.6862    1.0000 </r>
       <r>    2.6867    1.0000 </r>
       <r>    7.1403    0.0000 </r>
       <r>    7.1412    0.0000 </r>
       <r>    8.9779    0.0000 </r>
       <r>    8.9787    0.0000 </r>
       <r>   10.4934    0.0000 </r>
       <r>   10.4939    0.0000 </r>
       <r>   11.1336    0.0000 </r>
       <r>   11.1353    0.0000 </r>
       <r>   12.9313    0.0000 </r>
       <r>   12.9315    0.0000 </r>
      </set>
      <set comment="kpoint 27">
       <r>  -30.5480    1.0000 </r>
       <r>  -30.5479    1.0000 </r>
       <r>  -30.5359    1.0000 </r>
       <r>  -30.5357    1.0000 </r>
       <r>  -23.8785    1.0000 </r>
       <r>  -23.8784    1.0000 </r>
       <r>  -23.8717    1.0000 </r>
       <r>  -23.8711    1.0000 </r>
       <r>  -23.8707    1.0000 </r>
       <r>  -23.8703    1.0000 </r>
       <r>  -20.1505    1.0000 </r>
       <r>  -20.1497    1.0000 </r>
       <r>   -7.4177    1.0000 </r>
       <r>   -7.4167    1.0000 </r>
       <r>    0.7595    1.0000 </r>
       <r>    0.7622    1.0000 </r>
       <r>    1.9724    1.0000 </r>
       <r>    1.9752    1.0000 </r>
       <r>    7.4010    0.0000 </r>
       <r>    7.4020    0.0000 </r>
       <r>    8.7740    0.0000 </r>
       <r>    8.7743    0.0000 </r>
       <r>   11.2593    0.0000 </r>
       <r>   11.2600    0.0000 </r>
       <r>   11.4287    0.0000 </r>
       <r>   11.4296    0.0000 </r>
       <r>   12.4161    0.0000 </r>
       <r>   12.4178    0.0000 </r>
      </set>
      <set comment="kpoint 28">
       <r>  -30.5431    1.0000 </r>
       <r>  -30.5429    1.0000 </r>
       <r>  -30.5360    1.0000 </r>
       <r>  -30.5358    1.0000 </r>
       <r>  -23.8750    1.0000 </r>
       <r>  -23.8747    1.0000 </r>
       <r>  -23.8711    1.0000 </r>
       <r>  -23.8709    1.0000 </r>
       <r>  -23.8700    1.0000 </r>
       <r>  -23.8692    1.0000 </r>
       <r>  -20.1507    1.0000 </r>
       <r>  -20.1499    1.0000 </r>
       <r>   -7.4161    1.0000 </r>
       <r>   -7.4151    1.0000 </r>
       <r>    0.7832    1.0000 </r>
       <r>    0.7868    1.0000 </r>
       <r>    2.1057    1.0000 </r>
       <r>    2.1095    1.0000 </r>
       <r>    6.8413    0.0000 </r>
       <r>    6.8421    0.0000 </r>
       <r>    8.3011    0.0000 </r>
       <r>    8.3022    0.0000 </r>
       <r>   10.2353    0.0000 </r>
       <r>   10.2361    0.0000 </r>
       <r>   12.6537    0.0000 </r>
       <r>   12.6547    0.0000 </r>
       <r>   13.8870    0.0000 </r>
       <r>   13.8872    0.0000 </r>
      </set>
      <set comment="kpoint 29">
       <r>  -30.5421    1.0000 </r>
       <r>  -30.5419    1.0000 </r>
       <r>  -30.5414    1.0000 </r>
       <r>  -30.5411    1.0000 </r>
       <r>  -23.8763    1.0000 </r>
       <r>  -23.8756    1.0000 </r>
       <r>  -23.8745    1.0000 </r>
       <r>  -23.8739    1.0000 </r>
       <r>  -23.8725    1.0000 </r>
       <r>  -23.8717    1.0000 </r>
       <r>  -20.1777    1.0000 </r>
       <r>  -20.1770    1.0000 </r>
       <r>   -7.3371    1.0000 </r>
       <r>   -7.3361    1.0000 </r>
       <r>    1.0040    1.0000 </r>
       <r>    1.0074    1.0000 </r>
       <r>    2.5527    1.0000 </r>
       <r>    2.5568    1.0000 </r>
       <r>    6.7671    0.0000 </r>
       <r>    6.7678    0.0000 </r>
       <r>    8.0313    0.0000 </r>
       <r>    8.0322    0.0000 </r>
       <r>    9.8698    0.0000 </r>
       <r>    9.8713    0.0000 </r>
       <r>   12.6454    0.0000 </r>
       <r>   12.6473    0.0000 </r>
       <r>   13.7308    0.0000 </r>
       <r>   13.7318    0.0000 </r>
      </set>
      <set comment="kpoint 30">
       <r>  -30.5404    1.0000 </r>
       <r>  -30.5402    1.0000 </r>
       <r>  -30.5347    1.0000 </r>
       <r>  -30.5346    1.0000 </r>
       <r>  -23.8755    1.0000 </r>
       <r>  -23.8752    1.0000 </r>
       <r>  -23.8719    1.0000 </r>
       <r>  -23.8716    1.0000 </r>
       <r>  -23.8697    1.0000 </r>
       <r>  -23.8690    1.0000 </r>
       <r>  -20.2042    1.0000 </r>
       <r>  -20.2034    1.0000 </r>
       <r>   -7.2605    1.0000 </r>
       <r>   -7.2595    1.0000 </r>
       <r>    1.2069    1.0000 </r>
       <r>    1.2096    1.0000 </r>
       <r>    2.9275    1.0000 </r>
       <r>    2.9312    1.0000 </r>
       <r>    6.8292    0.0000 </r>
       <r>    6.8294    0.0000 </r>
       <r>    9.0411    0.0000 </r>
       <r>    9.0412    0.0000 </r>
       <r>    9.5620    0.0000 </r>
       <r>    9.5632    0.0000 </r>
       <r>   11.5410    0.0000 </r>
       <r>   11.5422    0.0000 </r>
       <r>   12.8054    0.0000 </r>
       <r>   12.8058    0.0000 </r>
      </set>
      <set comment="kpoint 31">
       <r>  -30.5371    1.0000 </r>
       <r>  -30.5370    1.0000 </r>
       <r>  -30.5277    1.0000 </r>
       <r>  -30.5276    1.0000 </r>
       <r>  -23.8764    1.0000 </r>
       <r>  -23.8762    1.0000 </r>
       <r>  -23.8677    1.0000 </r>
       <r>  -23.8675    1.0000 </r>
       <r>  -23.8672    1.0000 </r>
       <r>  -23.8670    1.0000 </r>
       <r>  -20.2571    1.0000 </r>
       <r>  -20.2563    1.0000 </r>
       <r>   -7.0912    1.0000 </r>
       <r>   -7.0901    1.0000 </r>
       <r>    2.1164    1.0000 </r>
       <r>    2.1172    1.0000 </r>
       <r>    3.6929    1.0000 </r>
       <r>    3.6944    1.0000 </r>
       <r>    5.4239    0.0000 </r>
       <r>    5.4243    0.0000 </r>
       <r>    9.7229    0.0000 </r>
       <r>    9.7232    0.0000 </r>
       <r>   10.9474    0.0000 </r>
       <r>   10.9475    0.0000 </r>
       <r>   11.2690    0.0000 </r>
       <r>   11.2695    0.0000 </r>
       <r>   12.0704    0.0000 </r>
       <r>   12.0715    0.0000 </r>
      </set>
      <set comment="kpoint 32">
       <r>  -30.5334    1.0000 </r>
       <r>  -30.5333    1.0000 </r>
       <r>  -30.5248    1.0000 </r>
       <r>  -30.5246    1.0000 </r>
       <r>  -23.8703    1.0000 </r>
       <r>  -23.8701    1.0000 </r>
       <r>  -23.8692    1.0000 </r>
       <r>  -23.8689    1.0000 </r>
       <r>  -23.8621    1.0000 </r>
       <r>  -23.8615    1.0000 </r>
       <r>  -20.2218    1.0000 </r>
       <r>  -20.2210    1.0000 </r>
       <r>   -7.2058    1.0000 </r>
       <r>   -7.2048    1.0000 </r>
       <r>    1.4220    1.0000 </r>
       <r>    1.4242    1.0000 </r>
       <r>    3.1732    1.0000 </r>
       <r>    3.1759    1.0000 </r>
       <r>    6.5494    0.0000 </r>
       <r>    6.5503    0.0000 </r>
       <r>    9.3688    0.0000 </r>
       <r>    9.3696    0.0000 </r>
       <r>   10.1197    0.0000 </r>
       <r>   10.1203    0.0000 </r>
       <r>   11.3245    0.0000 </r>
       <r>   11.3258    0.0000 </r>
       <r>   11.6103    0.0000 </r>
       <r>   11.6112    0.0000 </r>
      </set>
[...]
       <r>     2.7160     0.0000     0.0000 </r>
       <r>     2.8828     0.0000     0.0000 </r>
       <r>     3.0497     0.0000     0.0000 </r>
       <r>     3.2166     0.0000     0.0000 </r>
       <r>     3.3834     0.0000     0.0000 </r>
       <r>     3.5503     0.0000     0.0000 </r>
       <r>     3.7172     0.0000     0.0000 </r>
       <r>     3.8841     0.0000     0.0000 </r>
       <r>     4.0509     0.0000     0.0000 </r>
       <r>     4.2178     0.0000     0.0000 </r>
       <r>     4.3847     0.0000     0.0000 </r>
       <r>     4.5515     0.0000     0.0000 </r>
       <r>     4.7184     0.0000     0.0000 </r>
       <r>     4.8853     0.0000     0.0000 </r>
       <r>     5.0521     0.0000     0.0000 </r>
       <r>     5.2190     0.0000     0.0000 </r>
       <r>     5.3859     0.0000     0.0000 </r>
       <r>     5.5527     0.0000     0.0000 </r>
       <r>     5.7196     0.0000     0.0000 </r>
       <r>     5.8865     0.0000     0.0000 </r>
       <r>     6.0533     0.0000     0.0000 </r>
       <r>     6.2202     0.0000     0.0000 </r>
       <r>     6.3871     0.0000     0.0000 </r>
       <r>     6.5540     0.0000     0.0000 </r>
       <r>     6.7208     0.0000     0.0000 </r>
       <r>     6.8877     0.0000     0.0000 </r>
       <r>     7.0546     0.0000     0.0000 </r>
       <r>     7.2214     0.0000     0.0000 </r>
       <r>     7.3883     0.0000     0.0000 </r>
       <r>     7.5552     0.0000     0.0000 </r>
       <r>     7.7220     0.0000     0.0000 </r>
       <r>     7.8889     0.0000     0.0000 </r>
       <r>     8.0558     0.0000     0.0000 </r>
       <r>     8.2226     0.0000     0.0000 </r>
       <r>     8.3895     0.0000     0.0000 </r>
       <r>     8.5564     0.0000     0.0000 </r>
       <r>     8.7233     0.0000     0.0000 </r>
       <r>     8.8901     0.0000     0.0000 </r>
       <r>     9.0570     0.0000     0.0000 </r>
       <r>     9.2239     0.0000     0.0000 </r>
       <r>     9.3907     0.0000     0.0000 </r>
       <r>     9.5576     0.0000     0.0000 </r>
       <r>     9.7245     0.0000     0.0000 </r>
       <r>     9.8913     0.0000     0.0000 </r>
       <r>    10.0582     0.0000     0.0000 </r>
       <r>    10.2251     0.0000     0.0000 </r>
       <r>    10.3919     0.0000     0.0000 </r>
       <r>    10.5588     0.0000     0.0000 </r>
       <r>    10.7257     0.0000     0.0000 </r>
       <r>    10.8926     0.0000     0.0000 </r>
       <r>    11.0594     0.0000     0.0000 </r>
       <r>    11.2263     0.0000     0.0000 </r>
       <r>    11.3932     0.0000     0.0000 </r>
       <r>    11.5600     0.0000     0.0000 </r>
       <r>    11.7269     0.0000     0.0000 </r>
       <r>    11.8938     0.0000     0.0000 </r>
       <r>    12.0606     0.0000     0.0000 </r>
       <r>    12.2275     0.0000     0.0000 </r>
       <r>    12.3944     0.0000     0.0000 </r>
       <r>    12.5612     0.0000     0.0000 </r>
       <r>    12.7281     0.0000     0.0000 </r>
       <r>    12.8950     0.0000     0.0000 </r>
       <r>    13.0618     0.0000     0.0000 </r>
       <r>    13.2287     0.0000     0.0000 </r>
       <r>    13.3956     0.0000     0.0000 </r>
       <r>    13.5625     0.0000     0.0000 </r>
       <r>    13.7293     0.0000     0.0000 </r>
       <r>    13.8962     0.0000     0.0000 </r>
       <r>    14.0631     0.0000     0.0000 </r>
       <r>    14.2299     0.0000     0.0000 </r>
       <r>    14.3968     0.0000     0.0000 </r>
       <r>    14.5637     0.0000     0.0000 </r>
       <r>    14.7305     0.0000     0.0000 </r>
       <r>    14.8974     0.0000     0.0000 </r>
       <r>    15.0643     0.0000     0.0000 </r>
       <r>    15.2311     0.0000     0.0000 </r>
       <r>    15.3980     0.0000     0.0000 </r>
       <r>    15.5649     0.0000     0.0000 </r>
       <r>    15.7318     0.0000     0.0000 </r>
       <r>    15.8986     0.0000     0.0000 </r>
       <r>    16.0655     0.0000     0.0000 </r>
       <r>    16.2324     0.0000     0.0000 </r>
       <r>    16.3992     0.0000     0.0000 </r>
       <r>    16.5661     0.0000     0.0000 </r>
       <r>    16.7330     0.0000     0.0000 </r>
       <r>    16.8998     0.0000     0.0000 </r>
       <r>    17.0667     0.0000     0.0000 </r>
       <r>    17.2336     0.0000     0.0000 </r>
      </set>
      <set comment="spin 4">
       <r>   -32.8271     0.0000     0.0000 </r>
       <r>   -32.6603     0.0000     0.0000 </r>
       <r>   -32.4934     0.0000     0.0000 </r>
       <r>   -32.3265     0.0000     0.0000 </r>
       <r>   -32.1597     0.0000     0.0000 </r>
       <r>   -31.9928     0.0000     0.0000 </r>
       <r>   -31.8259     0.0000     0.0000 </r>
       <r>   -31.6591     0.0000     0.0000 </r>
       <r>   -31.4922     0.0000     0.0000 </r>
       <r>   -31.3253     0.0000     0.0000 </r>
       <r>   -31.1584     0.0000     0.0000 </r>
       <r>   -30.9916     0.0000     0.0000 </r>
       <r>   -30.8247     0.0000     0.0000 </r>
       <r>   -30.6578     0.0000     0.0000 </r>
       <r>   -30.4910     0.0000     0.0000 </r>
       <r>   -30.3241     0.0000     0.0000 </r>
       <r>   -30.1572     0.0000     0.0000 </r>
       <r>   -29.9904     0.0000     0.0000 </r>
       <r>   -29.8235     0.0000     0.0000 </r>
       <r>   -29.6566     0.0000     0.0000 </r>
       <r>   -29.4898     0.0000     0.0000 </r>
       <r>   -29.3229     0.0000     0.0000 </r>
       <r>   -29.1560     0.0000     0.0000 </r>
       <r>   -28.9891     0.0000     0.0000 </r>
       <r>   -28.8223     0.0000     0.0000 </r>
       <r>   -28.6554     0.0000     0.0000 </r>
       <r>   -28.4885     0.0000     0.0000 </r>
       <r>   -28.3217     0.0000     0.0000 </r>
       <r>   -28.1548     0.0000     0.0000 </r>
       <r>   -27.9879     0.0000     0.0000 </r>
       <r>   -27.8211     0.0000     0.0000 </r>
       <r>   -27.6542     0.0000     0.0000 </r>
       <r>   -27.4873     0.0000     0.0000 </r>
       <r>   -27.3205     0.0000     0.0000 </r>
       <r>   -27.1536     0.0000     0.0000 </r>
       <r>   -26.9867     0.0000     0.0000 </r>
       <r>   -26.8199     0.0000     0.0000 </r>
       <r>   -26.6530     0.0000     0.0000 </r>
       <r>   -26.4861     0.0000     0.0000 </r>
       <r>   -26.3192     0.0000     0.0000 </r>
       <r>   -26.1524     0.0000     0.0000 </r>
       <r>   -25.9855     0.0000     0.0000 </r>
       <r>   -25.8186     0.0000     0.0000 </r>
       <r>   -25.6518     0.0000     0.0000 </r>
       <r>   -25.4849     0.0000     0.0000 </r>
       <r>   -25.3180     0.0000     0.0000 </r>
       <r>   -25.1512     0.0000     0.0000 </r>
       <r>   -24.9843     0.0000     0.0000 </r>
       <r>   -24.8174     0.0000     0.0000 </r>
       <r>   -24.6506     0.0000     0.0000 </r>
       <r>   -24.4837     0.0000     0.0000 </r>
       <r>   -24.3168     0.0000     0.0000 </r>
       <r>   -24.1499     0.0000     0.0000 </r>
       <r>   -23.9831     0.0000     0.0000 </r>
       <r>   -23.8162     0.0000     0.0000 </r>
       <r>   -23.6493     0.0000     0.0000 </r>
       <r>   -23.4825     0.0000     0.0000 </r>
       <r>   -23.3156     0.0000     0.0000 </r>
       <r>   -23.1487     0.0000     0.0000 </r>
       <r>   -22.9819     0.0000     0.0000 </r>
       <r>   -22.8150     0.0000     0.0000 </r>
       <r>   -22.6481     0.0000     0.0000 </r>
       <r>   -22.4813     0.0000     0.0000 </r>
       <r>   -22.3144     0.0000     0.0000 </r>
       <r>   -22.1475     0.0000     0.0000 </r>
       <r>   -21.9806     0.0000     0.0000 </r>
       <r>   -21.8138     0.0000     0.0000 </r>
       <r>   -21.6469     0.0000     0.0000 </r>
       <r>   -21.4800     0.0000     0.0000 </r>
       <r>   -21.3132     0.0000     0.0000 </r>
       <r>   -21.1463     0.0000     0.0000 </r>
       <r>   -20.9794     0.0000     0.0000 </r>
       <r>   -20.8126     0.0000     0.0000 </r>
       <r>   -20.6457     0.0000     0.0000 </r>
       <r>   -20.4788     0.0000     0.0000 </r>
       <r>   -20.3120     0.0000     0.0000 </r>
       <r>   -20.1451     0.0000     0.0000 </r>
       <r>   -19.9782     0.0000     0.0000 </r>
       <r>   -19.8114     0.0000     0.0000 </r>
       <r>   -19.6445     0.0000     0.0000 </r>
       <r>   -19.4776     0.0000     0.0000 </r>
       <r>   -19.3107     0.0000     0.0000 </r>
       <r>   -19.1439     0.0000     0.0000 </r>
       <r>   -18.9770     0.0000     0.0000 </r>
       <r>   -18.8101     0.0000     0.0000 </r>
       <r>   -18.6433     0.0000     0.0000 </r>
       <r>   -18.4764     0.0000     0.0000 </r>
       <r>   -18.3095     0.0000     0.0000 </r>
       <r>   -18.1427     0.0000     0.0000 </r>
       <r>   -17.9758     0.0000     0.0000 </r>
       <r>   -17.8089     0.0000     0.0000 </r>
       <r>   -17.6421     0.0000     0.0000 </r>
       <r>   -17.4752     0.0000     0.0000 </r>
       <r>   -17.3083     0.0000     0.0000 </r>
       <r>   -17.1414     0.0000     0.0000 </r>
       <r>   -16.9746     0.0000     0.0000 </r>
       <r>   -16.8077     0.0000     0.0000 </r>
       <r>   -16.6408     0.0000     0.0000 </r>
       <r>   -16.4740     0.0000     0.0000 </r>
       <r>   -16.3071     0.0000     0.0000 </r>
       <r>   -16.1402     0.0000     0.0000 </r>
       <r>   -15.9734     0.0000     0.0000 </r>
       <r>   -15.8065     0.0000     0.0000 </r>
       <r>   -15.6396     0.0000     0.0000 </r>
       <r>   -15.4728     0.0000     0.0000 </r>
       <r>   -15.3059     0.0000     0.0000 </r>
       <r>   -15.1390     0.0000     0.0000 </r>
       <r>   -14.9721     0.0000     0.0000 </r>
       <r>   -14.8053     0.0000     0.0000 </r>
       <r>   -14.6384     0.0000     0.0000 </r>
       <r>   -14.4715     0.0000     0.0000 </r>
       <r>   -14.3047     0.0000     0.0000 </r>
       <r>   -14.1378     0.0000     0.0000 </r>
       <r>   -13.9709     0.0000     0.0000 </r>
       <r>   -13.8041     0.0000     0.0000 </r>
       <r>   -13.6372     0.0000     0.0000 </r>
       <r>   -13.4703     0.0000     0.0000 </r>
       <r>   -13.3035     0.0000     0.0000 </r>
       <r>   -13.1366     0.0000     0.0000 </r>
       <r>   -12.9697     0.0000     0.0000 </r>
       <r>   -12.8029     0.0000     0.0000 </r>
       <r>   -12.6360     0.0000     0.0000 </r>
       <r>   -12.4691     0.0000     0.0000 </r>
       <r>   -12.3022     0.0000     0.0000 </r>
       <r>   -12.1354     0.0000     0.0000 </r>
       <r>   -11.9685     0.0000     0.0000 </r>
       <r>   -11.8016     0.0000     0.0000 </r>
       <r>   -11.6348     0.0000     0.0000 </r>
       <r>   -11.4679     0.0000     0.0000 </r>
       <r>   -11.3010     0.0000     0.0000 </r>
       <r>   -11.1342     0.0000     0.0000 </r>
       <r>   -10.9673     0.0000     0.0000 </r>
       <r>   -10.8004     0.0000     0.0000 </r>
       <r>   -10.6336     0.0000     0.0000 </r>
       <r>   -10.4667     0.0000     0.0000 </r>
       <r>   -10.2998     0.0000     0.0000 </r>
       <r>   -10.1329     0.0000     0.0000 </r>
       <r>    -9.9661     0.0000     0.0000 </r>
       <r>    -9.7992     0.0000     0.0000 </r>
       <r>    -9.6323     0.0000     0.0000 </r>
       <r>    -9.4655     0.0000     0.0000 </r>
       <r>    -9.2986     0.0000     0.0000 </r>
       <r>    -9.1317     0.0000     0.0000 </r>
       <r>    -8.9649     0.0000     0.0000 </r>
       <r>    -8.7980     0.0000     0.0000 </r>
       <r>    -8.6311     0.0000     0.0000 </r>
       <r>    -8.4643     0.0000     0.0000 </r>
       <r>    -8.2974     0.0000     0.0000 </r>
       <r>    -8.1305     0.0000     0.0000 </r>
       <r>    -7.9637     0.0000     0.0000 </r>
       <r>    -7.7968     0.0000     0.0000 </r>
       <r>    -7.6299     0.0000     0.0000 </r>
       <r>    -7.4630     0.0000     0.0000 </r>
       <r>    -7.2962     0.0000     0.0000 </r>
       <r>    -7.1293     0.0000     0.0000 </r>
       <r>    -6.9624     0.0000     0.0000 </r>
       <r>    -6.7956     0.0000     0.0000 </r>
       <r>    -6.6287     0.0000     0.0000 </r>
       <r>    -6.4618     0.0000     0.0000 </r>
       <r>    -6.2950     0.0000     0.0000 </r>
       <r>    -6.1281     0.0000     0.0000 </r>
       <r>    -5.9612     0.0000     0.0000 </r>
       <r>    -5.7944     0.0000     0.0000 </r>
       <r>    -5.6275     0.0000     0.0000 </r>
       <r>    -5.4606     0.0000     0.0000 </r>
       <r>    -5.2937     0.0000     0.0000 </r>
       <r>    -5.1269     0.0000     0.0000 </r>
       <r>    -4.9600     0.0000     0.0000 </r>
       <r>    -4.7931     0.0000     0.0000 </r>
       <r>    -4.6263     0.0000     0.0000 </r>
       <r>    -4.4594     0.0000     0.0000 </r>
       <r>    -4.2925     0.0000     0.0000 </r>
       <r>    -4.1257     0.0000     0.0000 </r>
       <r>    -3.9588     0.0000     0.0000 </r>
       <r>    -3.7919     0.0000     0.0000 </r>
       <r>    -3.6251     0.0000     0.0000 </r>
       <r>    -3.4582     0.0000     0.0000 </r>
       <r>    -3.2913     0.0000     0.0000 </r>
       <r>    -3.1244     0.0000     0.0000 </r>
       <r>    -2.9576     0.0000     0.0000 </r>
       <r>    -2.7907     0.0000     0.0000 </r>
       <r>    -2.6238     0.0000     0.0000 </r>
       <r>    -2.4570     0.0000     0.0000 </r>
       <r>    -2.2901     0.0000     0.0000 </r>
       <r>    -2.1232     0.0000     0.0000 </r>
       <r>    -1.9564     0.0000     0.0000 </r>
       <r>    -1.7895     0.0000     0.0000 </r>
       <r>    -1.6226     0.0000     0.0000 </r>
       <r>    -1.4558     0.0000     0.0000 </r>
       <r>    -1.2889     0.0000     0.0000 </r>
       <r>    -1.1220     0.0000     0.0000 </r>
       <r>    -0.9552     0.0000     0.0000 </r>
       <r>    -0.7883     0.0000     0.0000 </r>
       <r>    -0.6214     0.0000     0.0000 </r>
       <r>    -0.4545     0.0000     0.0000 </r>
       <r>    -0.2877     0.0000     0.0000 </r>
       <r>    -0.1208     0.0000     0.0000 </r>
       <r>     0.0461     0.0000     0.0000 </r>
       <r>     0.2129     0.0000     0.0000 </r>
       <r>     0.3798     0.0000     0.0000 </r>
       <r>     0.5467     0.0000     0.0000 </r>
       <r>     0.7135     0.0000     0.0000 </r>
       <r>     0.8804     0.0000     0.0000 </r>
       <r>     1.0473     0.0000     0.0000 </r>
       <r>     1.2141     0.0000     0.0000 </r>
       <r>     1.3810     0.0000     0.0000 </r>
       <r>     1.5479     0.0000     0.0000 </r>
       <r>     1.7148     0.0000     0.0000 </r>
       <r>     1.8816     0.0000     0.0000 </r>
       <r>     2.0485     0.0000     0.0000 </r>
       <r>     2.2154     0.0000     0.0000 </r>
       <r>     2.3822     0.0000     0.0000 </r>
       <r>     2.5491     0.0000     0.0000 </r>
       <r>     2.7160     0.0000     0.0000 </r>
       <r>     2.8828     0.0000     0.0000 </r>
       <r>     3.0497     0.0000     0.0000 </r>
       <r>     3.2166     0.0000     0.0000 </r>
       <r>     3.3834     0.0000     0.0000 </r>
       <r>     3.5503     0.0000     0.0000 </r>
       <r>     3.7172     0.0000     0.0000 </r>
       <r>     3.8841     0.0000     0.0000 </r>
       <r>     4.0509     0.0000     0.0000 </r>
       <r>     4.2178     0.0000     0.0000 </r>
       <r>     4.3847     0.0000     0.0000 </r>
       <r>     4.5515     0.0000     0.0000 </r>
       <r>     4.7184     0.0000     0.0000 </r>
       <r>     4.8853     0.0000     0.0000 </r>
       <r>     5.0521     0.0000     0.0000 </r>
       <r>     5.2190     0.0000     0.0000 </r>
       <r>     5.3859     0.0000     0.0000 </r>
       <r>     5.5527     0.0000     0.0000 </r>
       <r>     5.7196     0.0000     0.0000 </r>
       <r>     5.8865     0.0000     0.0000 </r>
       <r>     6.0533     0.0000     0.0000 </r>
       <r>     6.2202     0.0000     0.0000 </r>
       <r>     6.3871     0.0000     0.0000 </r>
       <r>     6.5540     0.0000     0.0000 </r>
       <r>     6.7208     0.0000     0.0000 </r>
       <r>     6.8877     0.0000     0.0000 </r>
       <r>     7.0546     0.0000     0.0000 </r>
       <r>     7.2214     0.0000     0.0000 </r>
       <r>     7.3883     0.0000     0.0000 </r>
       <r>     7.5552     0.0000     0.0000 </r>
       <r>     7.7220     0.0000     0.0000 </r>
       <r>     7.8889     0.0000     0.0000 </r>
       <r>     8.0558     0.0000     0.0000 </r>
       <r>     8.2226     0.0000     0.0000 </r>
       <r>     8.3895     0.0000     0.0000 </r>
       <r>     8.5564     0.0000     0.0000 </r>
       <r>     8.7233     0.0000     0.0000 </r>
       <r>     8.8901     0.0000     0.0000 </r>
       <r>     9.0570     0.0000     0.0000 </r>
       <r>     9.2239     0.0000     0.0000 </r>
       <r>     9.3907     0.0000     0.0000 </r>
       <r>     9.5576     0.0000     0.0000 </r>
       <r>     9.7245     0.0000     0.0000 </r>
       <r>     9.8913     0.0000     0.0000 </r>
       <r>    10.0582     0.0000     0.0000 </r>
       <r>    10.2251     0.0000     0.0000 </r>
       <r>    10.3919     0.0000     0.0000 </r>
       <r>    10.5588     0.0000     0.0000 </r>
       <r>    10.7257     0.0000     0.0000 </r>
       <r>    10.8926     0.0000     0.0000 </r>
       <r>    11.0594     0.0000     0.0000 </r>
       <r>    11.2263     0.0000     0.0000 </r>
       <r>    11.3932     0.0000     0.0000 </r>
       <r>    11.5600     0.0000     0.0000 </r>
       <r>    11.7269     0.0000     0.0000 </r>
       <r>    11.8938     0.0000     0.0000 </r>
       <r>    12.0606     0.0000     0.0000 </r>
       <r>    12.2275     0.0000     0.0000 </r>
       <r>    12.3944     0.0000     0.0000 </r>
       <r>    12.5612     0.0000     0.0000 </r>
       <r>    12.7281     0.0000     0.0000 </r>
       <r>    12.8950     0.0000     0.0000 </r>
       <r>    13.0618     0.0000     0.0000 </r>
       <r>    13.2287     0.0000     0.0000 </r>
       <r>    13.3956     0.0000     0.0000 </r>
       <r>    13.5625     0.0000     0.0000 </r>
       <r>    13.7293     0.0000     0.0000 </r>
       <r>    13.8962     0.0000     0.0000 </r>
       <r>    14.0631     0.0000     0.0000 </r>
       <r>    14.2299     0.0000     0.0000 </r>
       <r>    14.3968     0.0000     0.0000 </r>
       <r>    14.5637     0.0000     0.0000 </r>
       <r>    14.7305     0.0000     0.0000 </r>
       <r>    14.8974     0.0000     0.0000 </r>
       <r>    15.0643     0.0000     0.0000 </r>
       <r>    15.2311     0.0000     0.0000 </r>
       <r>    15.3980     0.0000     0.0000 </r>
       <r>    15.5649     0.0000     0.0000 </r>
       <r>    15.7318     0.0000     0.0000 </r>
       <r>    15.8986     0.0000     0.0000 </r>
       <r>    16.0655     0.0000     0.0000 </r>
       <r>    16.2324     0.0000     0.0000 </r>
       <r>    16.3992     0.0000     0.0000 </r>
       <r>    16.5661     0.0000     0.0000 </r>
       <r>    16.7330     0.0000     0.0000 </r>
       <r>    16.8998     0.0000     0.0000 </r>
       <r>    17.0667     0.0000     0.0000 </r>
       <r>    17.2336     0.0000     0.0000 </r>
      </set>
     </set>
    </array>
   </total>
  </dos>
 </calculation>
 <structure name="finalpos" >
  <crystal>
   <varray name="basis" >
    <v>       4.35728355       0.00000000       0.00000000 </v>
    <v>       2.17864177       3.77351824      -0.00000000 </v>
    <v>       2.17864177       1.25783941       3.55770712 </v>
   </varray>
   <i name="volume">     58.49684840 </i>
   <varray name="rec_basis" >
    <v>       0.22950079      -0.13250234      -0.09369330 </v>
    <v>       0.00000000       0.26500468      -0.09369330 </v>
    <v>      -0.00000000       0.00000000       0.28107991 </v>
   </varray>
  </crystal>
  <varray name="positions" >
   <v>       0.00000000       0.00000000       0.00000000 </v>
  </varray>
  <varray name="velocities" >
   <v>       0.00000000       0.00000000       0.00000000 </v>
  </varray>
 </structure>
</modeling>
