Og_FCC                                  
           1
     4.352594    0.000000    0.000000
     2.176297    3.769457   -0.000000
     2.176297    1.256486    3.553878
   Og
   1
Direct configuration=     1
   0.00000000  0.00000000  0.00000000
