   1   1   0   0
  0.4557239E+02  0.4009334E-09  0.4009334E-09  0.4009334E-09  0.1000000E-15
  1.000000000000000E-004
  CAR 
 Og_FCC                                  
     14.76608462    -19.88606739  301     -3.68618633      1.00000000
    -19.886  0.0000E+00  0.0000E+00
    -19.771  0.0000E+00  0.0000E+00
    -19.655  0.0000E+00  0.0000E+00
    -19.540  0.0000E+00  0.0000E+00
    -19.424  0.0000E+00  0.0000E+00
    -19.309  0.0000E+00  0.0000E+00
    -19.193  0.0000E+00  0.0000E+00
    -19.078  0.0000E+00  0.0000E+00
    -18.962  0.0000E+00  0.0000E+00
    -18.847  0.0000E+00  0.0000E+00
    -18.731  0.0000E+00  0.0000E+00
    -18.615  0.0000E+00  0.0000E+00
    -18.500  0.0000E+00  0.0000E+00
    -18.384  0.0000E+00  0.0000E+00
    -18.269  0.5772E-02  0.5314E-01
    -18.153  0.1212E+01  0.5190E+00
    -18.038  0.0000E+00  0.2000E+01
    -17.922  0.0000E+00  0.2000E+01
    -17.807  0.0000E+00  0.2000E+01
    -17.691  0.0000E+00  0.2000E+01
    -17.576  0.0000E+00  0.2000E+01
    -17.460  0.0000E+00  0.2000E+01
    -17.345  0.0000E+00  0.2000E+01
    -17.229  0.0000E+00  0.2000E+01
    -17.114  0.0000E+00  0.2000E+01
    -16.998  0.0000E+00  0.2000E+01
    -16.883  0.0000E+00  0.2000E+01
    -16.767  0.0000E+00  0.2000E+01
    -16.652  0.0000E+00  0.2000E+01
    -16.536  0.0000E+00  0.2000E+01
    -16.421  0.0000E+00  0.2000E+01
    -16.305  0.0000E+00  0.2000E+01
    -16.190  0.0000E+00  0.2000E+01
    -16.074  0.0000E+00  0.2000E+01
    -15.959  0.0000E+00  0.2000E+01
    -15.843  0.0000E+00  0.2000E+01
    -15.728  0.0000E+00  0.2000E+01
    -15.612  0.0000E+00  0.2000E+01
    -15.497  0.0000E+00  0.2000E+01
    -15.381  0.0000E+00  0.2000E+01
    -15.266  0.0000E+00  0.2000E+01
    -15.150  0.0000E+00  0.2000E+01
    -15.035  0.0000E+00  0.2000E+01
    -14.919  0.0000E+00  0.2000E+01
    -14.804  0.0000E+00  0.2000E+01
    -14.688  0.0000E+00  0.2000E+01
    -14.573  0.0000E+00  0.2000E+01
    -14.457  0.0000E+00  0.2000E+01
    -14.342  0.0000E+00  0.2000E+01
    -14.226  0.0000E+00  0.2000E+01
    -14.111  0.0000E+00  0.2000E+01
    -13.995  0.0000E+00  0.2000E+01
    -13.880  0.0000E+00  0.2000E+01
    -13.764  0.0000E+00  0.2000E+01
    -13.649  0.0000E+00  0.2000E+01
    -13.533  0.0000E+00  0.2000E+01
    -13.418  0.0000E+00  0.2000E+01
    -13.302  0.0000E+00  0.2000E+01
    -13.187  0.0000E+00  0.2000E+01
    -13.071  0.0000E+00  0.2000E+01
    -12.956  0.0000E+00  0.2000E+01
    -12.840  0.0000E+00  0.2000E+01
    -12.725  0.0000E+00  0.2000E+01
    -12.609  0.0000E+00  0.2000E+01
    -12.494  0.0000E+00  0.2000E+01
    -12.378  0.0000E+00  0.2000E+01
    -12.263  0.0000E+00  0.2000E+01
    -12.147  0.0000E+00  0.2000E+01
    -12.032  0.0000E+00  0.2000E+01
    -11.916  0.0000E+00  0.2000E+01
    -11.801  0.0000E+00  0.2000E+01
    -11.685  0.0000E+00  0.2000E+01
    -11.570  0.0000E+00  0.2000E+01
    -11.454  0.0000E+00  0.2000E+01
    -11.339  0.0000E+00  0.2000E+01
    -11.223  0.0000E+00  0.2000E+01
    -11.108  0.0000E+00  0.2000E+01
    -10.992  0.0000E+00  0.2000E+01
    -10.877  0.0000E+00  0.2000E+01
    -10.761  0.0000E+00  0.2000E+01
    -10.645  0.0000E+00  0.2000E+01
    -10.530  0.0000E+00  0.2000E+01
    -10.414  0.0000E+00  0.2000E+01
    -10.299  0.0000E+00  0.2000E+01
    -10.183  0.0000E+00  0.2000E+01
    -10.068  0.0000E+00  0.2000E+01
     -9.952  0.0000E+00  0.2000E+01
     -9.837  0.0000E+00  0.2000E+01
     -9.721  0.0000E+00  0.2000E+01
     -9.606  0.0000E+00  0.2000E+01
     -9.490  0.0000E+00  0.2000E+01
     -9.375  0.0000E+00  0.2000E+01
     -9.259  0.0000E+00  0.2000E+01
     -9.144  0.0000E+00  0.2000E+01
     -9.028  0.0000E+00  0.2000E+01
     -8.913  0.0000E+00  0.2000E+01
     -8.797  0.0000E+00  0.2000E+01
     -8.682  0.0000E+00  0.2000E+01
     -8.566  0.0000E+00  0.2000E+01
     -8.451  0.0000E+00  0.2000E+01
     -8.335  0.0000E+00  0.2000E+01
     -8.220  0.0000E+00  0.2000E+01
     -8.104  0.0000E+00  0.2000E+01
     -7.989  0.0000E+00  0.2000E+01
     -7.873  0.0000E+00  0.2000E+01
     -7.758  0.0000E+00  0.2000E+01
     -7.642  0.0000E+00  0.2000E+01
     -7.527  0.0000E+00  0.2000E+01
     -7.411  0.0000E+00  0.2000E+01
     -7.296  0.0000E+00  0.2000E+01
     -7.180  0.0000E+00  0.2000E+01
     -7.065  0.0000E+00  0.2000E+01
     -6.949  0.0000E+00  0.2000E+01
     -6.834  0.0000E+00  0.2000E+01
     -6.718  0.0000E+00  0.2000E+01
     -6.603  0.0000E+00  0.2000E+01
     -6.487  0.0000E+00  0.2000E+01
     -6.372  0.0000E+00  0.2000E+01
     -6.256  0.0000E+00  0.2000E+01
     -6.141  0.0000E+00  0.2000E+01
     -6.025  0.0000E+00  0.2000E+01
     -5.910  0.0000E+00  0.2000E+01
     -5.794  0.0000E+00  0.2000E+01
     -5.679  0.0000E+00  0.2000E+01
     -5.563  0.0000E+00  0.2000E+01
     -5.448  0.0000E+00  0.2000E+01
     -5.332  0.0000E+00  0.2000E+01
     -5.217  0.0000E+00  0.2000E+01
     -5.101  0.1286E-05  0.2047E+01
     -4.986  0.6058E+00  0.2292E+01
     -4.870  0.0000E+00  0.3131E+01
     -4.755  0.1212E+01  0.3481E+01
     -4.639  0.3029E+00  0.3843E+01
     -4.524  0.1212E+01  0.3983E+01
     -4.408  0.0000E+00  0.4192E+01
     -4.293  0.0000E+00  0.4752E+01
     -4.177  0.0000E+00  0.5452E+01
     -4.062  0.3110E+00  0.6094E+01
     -3.946  0.1212E+01  0.7143E+01
     -3.831  0.0000E+00  0.7819E+01
     -3.715  0.0000E+00  0.8000E+01
     -3.600  0.0000E+00  0.8000E+01
     -3.484  0.0000E+00  0.8000E+01
     -3.369  0.0000E+00  0.8000E+01
     -3.253  0.0000E+00  0.8000E+01
     -3.138  0.0000E+00  0.8000E+01
     -3.022  0.0000E+00  0.8000E+01
     -2.907  0.0000E+00  0.8000E+01
     -2.791  0.0000E+00  0.8000E+01
     -2.675  0.0000E+00  0.8000E+01
     -2.560  0.0000E+00  0.8000E+01
     -2.444  0.0000E+00  0.8000E+01
     -2.329  0.0000E+00  0.8000E+01
     -2.213  0.0000E+00  0.8000E+01
     -2.098  0.0000E+00  0.8000E+01
     -1.982  0.0000E+00  0.8000E+01
     -1.867  0.0000E+00  0.8000E+01
     -1.751  0.0000E+00  0.8000E+01
     -1.636  0.0000E+00  0.8000E+01
     -1.520  0.0000E+00  0.8000E+01
     -1.405  0.0000E+00  0.8000E+01
     -1.289  0.0000E+00  0.8000E+01
     -1.174  0.0000E+00  0.8000E+01
     -1.058  0.0000E+00  0.8000E+01
     -0.943  0.0000E+00  0.8000E+01
     -0.827  0.0000E+00  0.8000E+01
     -0.712  0.0000E+00  0.8000E+01
     -0.596  0.0000E+00  0.8000E+01
     -0.481  0.0000E+00  0.8000E+01
     -0.365  0.0000E+00  0.8000E+01
     -0.250  0.0000E+00  0.8000E+01
     -0.134  0.0000E+00  0.8000E+01
     -0.019  0.0000E+00  0.8000E+01
      0.097  0.0000E+00  0.8000E+01
      0.212  0.0000E+00  0.8000E+01
      0.328  0.0000E+00  0.8000E+01
      0.443  0.0000E+00  0.8000E+01
      0.559  0.0000E+00  0.8000E+01
      0.674  0.0000E+00  0.8000E+01
      0.790  0.0000E+00  0.8000E+01
      0.905  0.0000E+00  0.8000E+01
      1.021  0.0000E+00  0.8000E+01
      1.136  0.0000E+00  0.8000E+01
      1.252  0.0000E+00  0.8000E+01
      1.367  0.0000E+00  0.8000E+01
      1.483  0.0000E+00  0.8000E+01
      1.598  0.0000E+00  0.8000E+01
      1.714  0.0000E+00  0.8000E+01
      1.829  0.0000E+00  0.8000E+01
      1.945  0.0000E+00  0.8000E+01
      2.060  0.0000E+00  0.8000E+01
      2.176  0.0000E+00  0.8000E+01
      2.291  0.0000E+00  0.8000E+01
      2.407  0.0000E+00  0.8000E+01
      2.522  0.0000E+00  0.8000E+01
      2.638  0.0000E+00  0.8000E+01
      2.753  0.0000E+00  0.8000E+01
      2.869  0.0000E+00  0.8000E+01
      2.984  0.0000E+00  0.8000E+01
      3.100  0.0000E+00  0.8000E+01
      3.215  0.0000E+00  0.8000E+01
      3.331  0.0000E+00  0.8000E+01
      3.446  0.0000E+00  0.8000E+01
      3.562  0.0000E+00  0.8006E+01
      3.677  0.0000E+00  0.8006E+01
      3.793  0.0000E+00  0.8006E+01
      3.908  0.0000E+00  0.8006E+01
      4.024  0.0000E+00  0.8006E+01
      4.139  0.0000E+00  0.8052E+01
      4.255  0.0000E+00  0.8052E+01
      4.370  0.0000E+00  0.8087E+01
      4.486  0.0000E+00  0.8087E+01
      4.601  0.0000E+00  0.8087E+01
      4.717  0.0000E+00  0.8087E+01
      4.832  0.0000E+00  0.8087E+01
      4.948  0.0000E+00  0.8157E+01
      5.063  0.0000E+00  0.8157E+01
      5.179  0.0000E+00  0.8157E+01
      5.294  0.0000E+00  0.8344E+01
      5.410  0.0000E+00  0.8344E+01
      5.526  0.0000E+00  0.8344E+01
      5.641  0.0000E+00  0.8379E+01
      5.757  0.0000E+00  0.8379E+01
      5.872  0.0000E+00  0.8461E+01
      5.988  0.0000E+00  0.8601E+01
      6.103  0.0000E+00  0.8671E+01
      6.219  0.0000E+00  0.9090E+01
      6.334  0.0000E+00  0.9090E+01
      6.450  0.0000E+00  0.9370E+01
      6.565  0.0000E+00  0.9370E+01
      6.681  0.0000E+00  0.9370E+01
      6.796  0.0000E+00  0.9510E+01
      6.912  0.0000E+00  0.9650E+01
      7.027  0.0000E+00  0.9930E+01
      7.143  0.1251E-01  0.9966E+01
      7.258  0.0000E+00  0.1010E+02
      7.374  0.0000E+00  0.1010E+02
      7.489  0.0000E+00  0.1010E+02
      7.605  0.1212E+01  0.1052E+02
      7.720  0.0000E+00  0.1091E+02
      7.836  0.0000E+00  0.1091E+02
      7.951  0.0000E+00  0.1105E+02
      8.067  0.1480E-14  0.1119E+02
      8.182  0.0000E+00  0.1147E+02
      8.298  0.0000E+00  0.1147E+02
      8.413  0.0000E+00  0.1175E+02
      8.529  0.5978E+00  0.1186E+02
      8.644  0.3832E+00  0.1233E+02
      8.760  0.0000E+00  0.1254E+02
      8.875  0.0000E+00  0.1254E+02
      8.991  0.4208E-06  0.1272E+02
      9.106  0.0000E+00  0.1328E+02
      9.222  0.0000E+00  0.1336E+02
      9.337  0.0000E+00  0.1350E+02
      9.453  0.0000E+00  0.1350E+02
      9.568  0.6342E-07  0.1364E+02
      9.684  0.0000E+00  0.1373E+02
      9.799  0.0000E+00  0.1380E+02
      9.915  0.0000E+00  0.1406E+02
     10.030  0.0000E+00  0.1416E+02
     10.146  0.1212E+01  0.1453E+02
     10.261  0.0000E+00  0.1453E+02
     10.377  0.0000E+00  0.1460E+02
     10.492  0.0000E+00  0.1474E+02
     10.608  0.0000E+00  0.1530E+02
     10.723  0.0000E+00  0.1530E+02
     10.839  0.0000E+00  0.1530E+02
     10.954  0.0000E+00  0.1544E+02
     11.070  0.0000E+00  0.1558E+02
     11.185  0.0000E+00  0.1558E+02
     11.301  0.0000E+00  0.1558E+02
     11.416  0.0000E+00  0.1572E+02
     11.532  0.0000E+00  0.1590E+02
     11.647  0.0000E+00  0.1590E+02
     11.763  0.0000E+00  0.1590E+02
     11.878  0.0000E+00  0.1590E+02
     11.994  0.0000E+00  0.1590E+02
     12.109  0.0000E+00  0.1590E+02
     12.225  0.0000E+00  0.1590E+02
     12.340  0.0000E+00  0.1590E+02
     12.456  0.0000E+00  0.1590E+02
     12.571  0.0000E+00  0.1597E+02
     12.687  0.0000E+00  0.1597E+02
     12.802  0.0000E+00  0.1597E+02
     12.918  0.0000E+00  0.1597E+02
     13.033  0.0000E+00  0.1597E+02
     13.149  0.0000E+00  0.1597E+02
     13.264  0.0000E+00  0.1600E+02
     13.380  0.0000E+00  0.1600E+02
     13.496  0.0000E+00  0.1600E+02
     13.611  0.0000E+00  0.1600E+02
     13.727  0.0000E+00  0.1600E+02
     13.842  0.0000E+00  0.1600E+02
     13.958  0.0000E+00  0.1600E+02
     14.073  0.0000E+00  0.1600E+02
     14.189  0.0000E+00  0.1600E+02
     14.304  0.0000E+00  0.1600E+02
     14.420  0.0000E+00  0.1600E+02
     14.535  0.0000E+00  0.1600E+02
     14.651  0.0000E+00  0.1600E+02
     14.766  0.0000E+00  0.1600E+02
