    1    1    1    1
  0.4557239E+02  0.4009334E-09  0.4009334E-09  0.4009334E-09  0.1000000E-15
  1.000000000000000E-004
  CAR 
 Og_FCC                                  
      8    172      8
 
  0.0000000E+00  0.0000000E+00  0.0000000E+00  0.2915452E-02
    1      -18.310970   1.000000
    2       -3.746511   1.000000
    3       -3.746511   1.000000
    4       -3.746511   1.000000
    5        3.523939   0.000000
    6        9.904697   0.000000
    7        9.904697   0.000000
    8        9.904697   0.000000
 
  0.1428571E+00 -0.1246062E-16  0.0000000E+00  0.5830904E-02
    1      -18.278323   1.000000
    2       -4.070869   1.000000
    3       -3.778869   1.000000
    4       -3.778869   1.000000
    5        4.082171   0.000000
    6        9.213538   0.000000
    7       10.100120   0.000000
    8       10.100120   0.000000
 
  0.2857143E+00  0.2834329E-17  0.0000000E+00  0.5830904E-02
    1      -18.203444   1.000000
    2       -4.698362   1.000000
    3       -3.849698   1.000000
    4       -3.849698   1.000000
    5        5.207584   0.000000
    6        8.520605   0.000000
    7        9.961903   0.000000
    8        9.961903   0.000000
 
  0.4285714E+00  0.4251494E-17  0.0000000E+00  0.5830904E-02
    1      -18.141788   1.000000
    2       -5.134399   1.000000
    3       -3.904745   1.000000
    4       -3.904745   1.000000
    5        5.826509   0.000000
    6        8.643049   0.000000
    7        9.571970   0.000000
    8        9.571970   0.000000
 
 -0.1925930E-33  0.1428571E+00  0.0000000E+00  0.5830904E-02
    1      -18.278323   1.000000
    2       -4.070869   1.000000
    3       -3.778869   1.000000
    4       -3.778869   1.000000
    5        4.082171   0.000000
    6        9.213538   0.000000
    7       10.100120   0.000000
    8       10.100120   0.000000
 
  0.1428571E+00  0.1428571E+00  0.1387779E-16  0.5830904E-02
    1      -18.267501   1.000000
    2       -4.066849   1.000000
    3       -3.843525   1.000000
    4       -3.843525   1.000000
    5        4.265082   0.000000
    6        8.936244   0.000000
    7       10.298582   0.000000
    8       10.298582   0.000000
 
  0.2857143E+00  0.1428571E+00  0.0000000E+00  0.5830904E-02
    1      -18.206761   1.000000
    2       -4.529084   1.000000
    3       -3.933252   1.000000
    4       -3.922785   1.000000
    5        5.227145   0.000000
    6        8.312506   0.000000
    7        9.504017   0.000000
    8       10.500539   0.000000
 
  0.4285714E+00  0.1428571E+00  0.2775558E-16  0.5830904E-02
    1      -18.140420   1.000000
    2       -4.974829   1.000000
    3       -4.042736   1.000000
    4       -3.980676   1.000000
    5        6.135718   0.000000
    6        8.099361   0.000000
    7        9.062106   0.000000
    8       10.141124   0.000000
 
 -0.4285714E+00  0.1428571E+00 -0.5551115E-16  0.5830904E-02
    1      -18.119561   1.000000
    2       -5.097797   1.000000
    3       -4.130911   1.000000
    4       -3.952757   1.000000
    5        6.384983   0.000000
    6        8.072267   0.000000
    7        9.235179   0.000000
    8        9.905392   0.000000
 
 -0.2857143E+00  0.1428571E+00 -0.2081668E-16  0.5830904E-02
    1      -18.160841   1.000000
    2       -4.841459   1.000000
    3       -4.110286   1.000000
    4       -3.869302   1.000000
    5        5.968684   0.000000
    6        8.315457   0.000000
    7        9.024806   0.000000
    8       10.122882   0.000000
 
 -0.1428571E+00  0.1428571E+00 -0.4637167E-17  0.5830904E-02
    1      -18.231567   1.000000
    2       -4.388182   1.000000
    3       -3.957422   1.000000
    4       -3.790909   1.000000
    5        4.863019   0.000000
    6        8.667239   0.000000
    7        9.753342   0.000000
    8       10.550388   0.000000
 
  0.0000000E+00  0.2857143E+00 -0.1387779E-16  0.5830904E-02
    1      -18.203444   1.000000
    2       -4.698362   1.000000
    3       -3.849698   1.000000
    4       -3.849698   1.000000
    5        5.207584   0.000000
    6        8.520605   0.000000
    7        9.961903   0.000000
    8        9.961903   0.000000
 
  0.1428571E+00  0.2857143E+00  0.2775558E-16  0.5830904E-02
    1      -18.206761   1.000000
    2       -4.529084   1.000000
    3       -3.933252   1.000000
    4       -3.922785   1.000000
    5        5.227145   0.000000
    6        8.312506   0.000000
    7        9.504017   0.000000
    8       10.500539   0.000000
 
  0.2857143E+00  0.2857143E+00  0.0000000E+00  0.5830904E-02
    1      -18.168326   1.000000
    2       -4.644346   1.000000
    3       -4.052176   1.000000
    4       -4.052176   1.000000
    5        5.626110   0.000000
    6        7.707187   0.000000
    7        9.172141   0.000000
    8       11.437632   0.000000
 
  0.4285714E+00  0.2857143E+00  0.2775558E-16  0.5830904E-02
    1      -18.116264   1.000000
    2       -4.883107   1.000000
    3       -4.221650   1.000000
    4       -4.117509   1.000000
    5        6.134755   0.000000
    6        7.503050   0.000000
    7        8.957391   0.000000
    8       11.514678   0.000000
 
 -0.4285714E+00  0.2857143E+00 -0.4163336E-16  0.5830904E-02
    1      -18.090099   1.000000
    2       -4.903887   1.000000
    3       -4.491792   1.000000
    4       -4.084400   1.000000
    5        6.723289   0.000000
    6        7.600228   0.000000
    7        8.994235   0.000000
    8       11.017783   0.000000
 
 -0.2857143E+00  0.2857143E+00 -0.2076631E-16  0.5830904E-02
    1      -18.110228   1.000000
    2       -4.827980   1.000000
    3       -4.508873   1.000000
    4       -3.975454   1.000000
    5        7.144054   0.000000
    6        7.628993   0.000000
    7        8.527125   0.000000
    8       10.597030   0.000000
 
 -0.1428571E+00  0.2857143E+00 -0.2775558E-16  0.5830904E-02
    1      -18.160841   1.000000
    2       -4.841459   1.000000
    3       -4.110286   1.000000
    4       -3.869302   1.000000
    5        5.968684   0.000000
    6        8.315457   0.000000
    7        9.024806   0.000000
    8       10.122882   0.000000
 
  0.0000000E+00  0.4285714E+00  0.0000000E+00  0.5830904E-02
    1      -18.141788   1.000000
    2       -5.134399   1.000000
    3       -3.904745   1.000000
    4       -3.904745   1.000000
    5        5.826509   0.000000
    6        8.643049   0.000000
    7        9.571970   0.000000
    8        9.571970   0.000000
 
  0.1428571E+00  0.4285714E+00 -0.5551115E-16  0.5830904E-02
    1      -18.140420   1.000000
    2       -4.974829   1.000000
    3       -4.042736   1.000000
    4       -3.980676   1.000000
    5        6.135718   0.000000
    6        8.099361   0.000000
    7        9.062106   0.000000
    8       10.141124   0.000000
 
  0.2857143E+00  0.4285714E+00  0.2775558E-16  0.5830904E-02
    1      -18.116264   1.000000
    2       -4.883107   1.000000
    3       -4.221650   1.000000
    4       -4.117509   1.000000
    5        6.134755   0.000000
    6        7.503050   0.000000
    7        8.957391   0.000000
    8       11.514678   0.000000
 
  0.4285714E+00  0.4285714E+00  0.0000000E+00  0.5830904E-02
    1      -18.087242   1.000000
    2       -5.016299   1.000000
    3       -4.210999   1.000000
    4       -4.210999   1.000000
    5        5.762869   0.000000
    6        7.036234   0.000000
    7        9.876175   0.000000
    8       13.190987   0.000000
 
 -0.4285714E+00  0.4285714E+00 -0.3629064E-16  0.5830904E-02
    1      -18.075536   1.000000
    2       -4.993529   1.000000
    3       -4.375340   1.000000
    4       -4.196831   1.000000
    5        5.996463   0.000000
    6        7.214939   0.000000
    7        9.820726   0.000000
    8       12.498451   0.000000
 
 -0.2857143E+00  0.4285714E+00  0.1387779E-16  0.5830904E-02
    1      -18.090099   1.000000
    2       -4.903887   1.000000
    3       -4.491792   1.000000
    4       -4.084400   1.000000
    5        6.723289   0.000000
    6        7.600228   0.000000
    7        8.994235   0.000000
    8       11.017783   0.000000
 
 -0.1428571E+00  0.4285714E+00 -0.2775558E-16  0.5830904E-02
    1      -18.119561   1.000000
    2       -5.097797   1.000000
    3       -4.130911   1.000000
    4       -3.952757   1.000000
    5        6.384983   0.000000
    6        8.072267   0.000000
    7        9.235179   0.000000
    8        9.905392   0.000000
 
  0.0000000E+00  0.7703720E-33  0.1428571E+00  0.5830904E-02
    1      -18.278323   1.000000
    2       -4.070869   1.000000
    3       -3.778869   1.000000
    4       -3.778869   1.000000
    5        4.082171   0.000000
    6        9.213538   0.000000
    7       10.100120   0.000000
    8       10.100120   0.000000
 
  0.1428571E+00  0.1104346E-16  0.1428571E+00  0.5830904E-02
    1      -18.267501   1.000000
    2       -4.066849   1.000000
    3       -3.843525   1.000000
    4       -3.843525   1.000000
    5        4.265082   0.000000
    6        8.936244   0.000000
    7       10.298582   0.000000
    8       10.298582   0.000000
 
  0.2857143E+00 -0.1417165E-17  0.1428571E+00  0.5830904E-02
    1      -18.206761   1.000000
    2       -4.529084   1.000000
    3       -3.933252   1.000000
    4       -3.922785   1.000000
    5        5.227145   0.000000
    6        8.312506   0.000000
    7        9.504017   0.000000
    8       10.500539   0.000000
 
  0.4285714E+00 -0.2028046E-32  0.1428571E+00  0.5830904E-02
    1      -18.140420   1.000000
    2       -4.974829   1.000000
    3       -4.042736   1.000000
    4       -3.980676   1.000000
    5        6.135718   0.000000
    6        8.099361   0.000000
    7        9.062106   0.000000
    8       10.141124   0.000000
 
 -0.4285714E+00 -0.8502988E-17  0.1428571E+00  0.5830904E-02
    1      -18.119561   1.000000
    2       -5.097797   1.000000
    3       -4.130911   1.000000
    4       -3.952757   1.000000
    5        6.384983   0.000000
    6        8.072267   0.000000
    7        9.235179   0.000000
    8        9.905392   0.000000
 
 -0.2857143E+00 -0.7085823E-17  0.1428571E+00  0.5830904E-02
    1      -18.160841   1.000000
    2       -4.841459   1.000000
    3       -4.110286   1.000000
    4       -3.869302   1.000000
    5        5.968684   0.000000
    6        8.315457   0.000000
    7        9.024806   0.000000
    8       10.122882   0.000000
 
 -0.1428571E+00  0.2208692E-16  0.1428571E+00  0.5830904E-02
    1      -18.231567   1.000000
    2       -4.388182   1.000000
    3       -3.957422   1.000000
    4       -3.790909   1.000000
    5        4.863019   0.000000
    6        8.667239   0.000000
    7        9.753342   0.000000
    8       10.550388   0.000000
 
 -0.3851860E-33  0.1428571E+00  0.1428571E+00  0.5830904E-02
    1      -18.267501   1.000000
    2       -4.066849   1.000000
    3       -3.843525   1.000000
    4       -3.843525   1.000000
    5        4.265082   0.000000
    6        8.936244   0.000000
    7       10.298582   0.000000
    8       10.298582   0.000000
 
  0.1428571E+00  0.1428571E+00  0.1428571E+00  0.5830904E-02
    1      -18.278323   1.000000
    2       -4.070869   1.000000
    3       -3.778869   1.000000
    4       -3.778869   1.000000
    5        4.082171   0.000000
    6        9.213538   0.000000
    7       10.100120   0.000000
    8       10.100120   0.000000
 
  0.2857143E+00  0.1428571E+00  0.1428571E+00  0.5830904E-02
    1      -18.231567   1.000000
    2       -4.388182   1.000000
    3       -3.957422   1.000000
    4       -3.790909   1.000000
    5        4.863019   0.000000
    6        8.667239   0.000000
    7        9.753342   0.000000
    8       10.550388   0.000000
 
  0.4285714E+00  0.1428571E+00  0.1428571E+00  0.5830904E-02
    1      -18.160841   1.000000
    2       -4.841459   1.000000
    3       -4.110286   1.000000
    4       -3.869302   1.000000
    5        5.968684   0.000000
    6        8.315456   0.000000
    7        9.024805   0.000000
    8       10.122883   0.000000
 
 -0.4285714E+00  0.1428571E+00  0.1428571E+00  0.5830904E-02
    1      -18.119561   1.000000
    2       -5.097797   1.000000
    3       -4.130911   1.000000
    4       -3.952757   1.000000
    5        6.384983   0.000000
    6        8.072267   0.000000
    7        9.235179   0.000000
    8        9.905392   0.000000
 
 -0.2857143E+00  0.1428571E+00  0.1428571E+00  0.5830904E-02
    1      -18.140420   1.000000
    2       -4.974829   1.000000
    3       -4.042736   1.000000
    4       -3.980676   1.000000
    5        6.135718   0.000000
    6        8.099362   0.000000
    7        9.062106   0.000000
    8       10.141124   0.000000
 
 -0.1428571E+00  0.1428571E+00  0.1428571E+00  0.5830904E-02
    1      -18.206761   1.000000
    2       -4.529084   1.000000
    3       -3.933252   1.000000
    4       -3.922785   1.000000
    5        5.227145   0.000000
    6        8.312506   0.000000
    7        9.504017   0.000000
    8       10.500539   0.000000
 
 -0.1925930E-33  0.2857143E+00  0.1428571E+00  0.5830904E-02
    1      -18.206761   1.000000
    2       -4.529084   1.000000
    3       -3.933252   1.000000
    4       -3.922785   1.000000
    5        5.227145   0.000000
    6        8.312506   0.000000
    7        9.504017   0.000000
    8       10.500539   0.000000
 
  0.1428571E+00  0.2857143E+00  0.1428571E+00  0.5830904E-02
    1      -18.231567   1.000000
    2       -4.388182   1.000000
    3       -3.957422   1.000000
    4       -3.790909   1.000000
    5        4.863019   0.000000
    6        8.667239   0.000000
    7        9.753342   0.000000
    8       10.550388   0.000000
 
  0.2857143E+00  0.2857143E+00  0.1428571E+00  0.5830904E-02
    1      -18.206761   1.000000
    2       -4.529084   1.000000
    3       -3.933252   1.000000
    4       -3.922785   1.000000
    5        5.227144   0.000000
    6        8.312506   0.000000
    7        9.504016   0.000000
    8       10.500539   0.000000
 
  0.4285714E+00  0.2857143E+00  0.1428571E+00  0.5830904E-02
    1      -18.150216   1.000000
    2       -4.761275   1.000000
    3       -4.200093   1.000000
    4       -3.970775   1.000000
    5        6.144315   0.000000
    6        8.008838   0.000000
    7        8.591822   0.000000
    8       10.938343   0.000000
 
 -0.4285714E+00  0.2857143E+00  0.1428571E+00  0.5830904E-02
    1      -18.104029   1.000000
    2       -4.921457   1.000000
    3       -4.379004   1.000000
    4       -4.059668   1.000000
    5        6.973721   0.000000
    6        7.620678   0.000000
    7        8.620291   0.000000
    8       10.596247   0.000000
 
 -0.2857143E+00  0.2857143E+00  0.1428571E+00  0.5830904E-02
    1      -18.104029   1.000000
    2       -4.921457   1.000000
    3       -4.379004   1.000000
    4       -4.059668   1.000000
    5        6.973720   0.000000
    6        7.620678   0.000000
    7        8.620291   0.000000
    8       10.596246   0.000000
 
 -0.1428571E+00  0.2857143E+00  0.1428571E+00  0.5830904E-02
    1      -18.150216   1.000000
    2       -4.761275   1.000000
    3       -4.200093   1.000000
    4       -3.970775   1.000000
    5        6.144315   0.000000
    6        8.008838   0.000000
    7        8.591822   0.000000
    8       10.938343   0.000000
 
 -0.5115057E-33  0.4285714E+00  0.1428571E+00  0.5830904E-02
    1      -18.140420   1.000000
    2       -4.974829   1.000000
    3       -4.042736   1.000000
    4       -3.980676   1.000000
    5        6.135718   0.000000
    6        8.099361   0.000000
    7        9.062106   0.000000
    8       10.141124   0.000000
 
  0.1428571E+00  0.4285714E+00  0.1428571E+00  0.5830904E-02
    1      -18.160841   1.000000
    2       -4.841459   1.000000
    3       -4.110286   1.000000
    4       -3.869302   1.000000
    5        5.968684   0.000000
    6        8.315456   0.000000
    7        9.024805   0.000000
    8       10.122883   0.000000
 
  0.2857143E+00  0.4285714E+00  0.1428571E+00  0.5830904E-02
    1      -18.150216   1.000000
    2       -4.761275   1.000000
    3       -4.200093   1.000000
    4       -3.970775   1.000000
    5        6.144315   0.000000
    6        8.008838   0.000000
    7        8.591822   0.000000
    8       10.938343   0.000000
 
  0.4285714E+00  0.4285714E+00  0.1428571E+00  0.5830904E-02
    1      -18.116264   1.000000
    2       -4.883107   1.000000
    3       -4.221650   1.000000
    4       -4.117509   1.000000
    5        6.134754   0.000000
    6        7.503050   0.000000
    7        8.957391   0.000000
    8       11.514678   0.000000
 
 -0.4285714E+00  0.4285714E+00  0.1428571E+00  0.5830904E-02
    1      -18.084381   1.000000
    2       -4.913961   1.000000
    3       -4.383056   1.000000
    4       -4.221795   1.000000
    5        6.360706   0.000000
    6        7.545636   0.000000
    7        9.068653   0.000000
    8       11.358380   0.000000
 
 -0.2857143E+00  0.4285714E+00  0.1428571E+00  0.5830904E-02
    1      -18.078935   1.000000
    2       -4.736686   1.000000
    3       -4.661941   1.000000
    4       -4.199112   1.000000
    5        6.858356   0.000000
    6        7.900780   0.000000
    7        8.749165   0.000000
    8       10.446339   0.000000
 
 -0.1428571E+00  0.4285714E+00  0.1428571E+00  0.5830904E-02
    1      -18.104029   1.000000
    2       -4.921457   1.000000
    3       -4.379004   1.000000
    4       -4.059668   1.000000
    5        6.973720   0.000000
    6        7.620678   0.000000
    7        8.620291   0.000000
    8       10.596246   0.000000
 
 -0.1540744E-32 -0.4285714E+00  0.1428571E+00  0.5830904E-02
    1      -18.119561   1.000000
    2       -5.097797   1.000000
    3       -4.130911   1.000000
    4       -3.952757   1.000000
    5        6.384983   0.000000
    6        8.072267   0.000000
    7        9.235179   0.000000
    8        9.905392   0.000000
 
  0.1428571E+00 -0.4285714E+00  0.1428571E+00  0.5830904E-02
    1      -18.119561   1.000000
    2       -5.097797   1.000000
    3       -4.130911   1.000000
    4       -3.952757   1.000000
    5        6.384983   0.000000
    6        8.072267   0.000000
    7        9.235179   0.000000
    8        9.905392   0.000000
 
  0.2857143E+00 -0.4285714E+00  0.1428571E+00  0.5830904E-02
    1      -18.104029   1.000000
    2       -4.921457   1.000000
    3       -4.379004   1.000000
    4       -4.059668   1.000000
    5        6.973721   0.000000
    6        7.620678   0.000000
    7        8.620291   0.000000
    8       10.596247   0.000000
 
  0.4285714E+00 -0.4285714E+00  0.1428571E+00  0.5830904E-02
    1      -18.084381   1.000000
    2       -4.913961   1.000000
    3       -4.383056   1.000000
    4       -4.221795   1.000000
    5        6.360706   0.000000
    6        7.545636   0.000000
    7        9.068653   0.000000
    8       11.358380   0.000000
 
 -0.4285714E+00 -0.4285714E+00  0.1428571E+00  0.5830904E-02
    1      -18.075536   1.000000
    2       -4.993529   1.000000
    3       -4.375340   1.000000
    4       -4.196831   1.000000
    5        5.996463   0.000000
    6        7.214939   0.000000
    7        9.820726   0.000000
    8       12.498451   0.000000
 
 -0.2857143E+00 -0.4285714E+00  0.1428571E+00  0.5830904E-02
    1      -18.084381   1.000000
    2       -4.913961   1.000000
    3       -4.383056   1.000000
    4       -4.221795   1.000000
    5        6.360706   0.000000
    6        7.545636   0.000000
    7        9.068653   0.000000
    8       11.358380   0.000000
 
 -0.1428571E+00 -0.4285714E+00  0.1428571E+00  0.5830904E-02
    1      -18.104029   1.000000
    2       -4.921457   1.000000
    3       -4.379004   1.000000
    4       -4.059668   1.000000
    5        6.973720   0.000000
    6        7.620678   0.000000
    7        8.620291   0.000000
    8       10.596246   0.000000
 
  0.0000000E+00 -0.2857143E+00  0.1428571E+00  0.5830904E-02
    1      -18.160841   1.000000
    2       -4.841459   1.000000
    3       -4.110286   1.000000
    4       -3.869302   1.000000
    5        5.968684   0.000000
    6        8.315457   0.000000
    7        9.024806   0.000000
    8       10.122882   0.000000
 
  0.1428571E+00 -0.2857143E+00  0.1428571E+00  0.5830904E-02
    1      -18.140420   1.000000
    2       -4.974829   1.000000
    3       -4.042736   1.000000
    4       -3.980676   1.000000
    5        6.135718   0.000000
    6        8.099362   0.000000
    7        9.062106   0.000000
    8       10.141124   0.000000
 
  0.2857143E+00 -0.2857143E+00  0.1428571E+00  0.5830904E-02
    1      -18.104029   1.000000
    2       -4.921457   1.000000
    3       -4.379004   1.000000
    4       -4.059668   1.000000
    5        6.973720   0.000000
    6        7.620678   0.000000
    7        8.620291   0.000000
    8       10.596246   0.000000
 
  0.4285714E+00 -0.2857143E+00  0.1428571E+00  0.5830904E-02
    1      -18.078935   1.000000
    2       -4.736686   1.000000
    3       -4.661941   1.000000
    4       -4.199112   1.000000
    5        6.858356   0.000000
    6        7.900780   0.000000
    7        8.749165   0.000000
    8       10.446339   0.000000
 
 -0.4285714E+00 -0.2857143E+00  0.1428571E+00  0.5830904E-02
    1      -18.084381   1.000000
    2       -4.913961   1.000000
    3       -4.383056   1.000000
    4       -4.221795   1.000000
    5        6.360706   0.000000
    6        7.545636   0.000000
    7        9.068653   0.000000
    8       11.358380   0.000000
 
 -0.2857143E+00 -0.2857143E+00  0.1428571E+00  0.5830904E-02
    1      -18.116264   1.000000
    2       -4.883107   1.000000
    3       -4.221650   1.000000
    4       -4.117510   1.000000
    5        6.134754   0.000000
    6        7.503050   0.000000
    7        8.957391   0.000000
    8       11.514678   0.000000
 
 -0.1428571E+00 -0.2857143E+00  0.1428571E+00  0.5830904E-02
    1      -18.150216   1.000000
    2       -4.761275   1.000000
    3       -4.200093   1.000000
    4       -3.970775   1.000000
    5        6.144315   0.000000
    6        8.008838   0.000000
    7        8.591822   0.000000
    8       10.938343   0.000000
 
 -0.7703720E-33 -0.1428571E+00  0.1428571E+00  0.5830904E-02
    1      -18.231567   1.000000
    2       -4.388182   1.000000
    3       -3.957422   1.000000
    4       -3.790909   1.000000
    5        4.863019   0.000000
    6        8.667239   0.000000
    7        9.753342   0.000000
    8       10.550388   0.000000
 
  0.1428571E+00 -0.1428571E+00  0.1428571E+00  0.5830904E-02
    1      -18.206761   1.000000
    2       -4.529084   1.000000
    3       -3.933252   1.000000
    4       -3.922785   1.000000
    5        5.227145   0.000000
    6        8.312506   0.000000
    7        9.504017   0.000000
    8       10.500539   0.000000
 
  0.2857143E+00 -0.1428571E+00  0.1428571E+00  0.5830904E-02
    1      -18.150216   1.000000
    2       -4.761275   1.000000
    3       -4.200093   1.000000
    4       -3.970775   1.000000
    5        6.144315   0.000000
    6        8.008838   0.000000
    7        8.591822   0.000000
    8       10.938343   0.000000
 
  0.4285714E+00 -0.1428571E+00  0.1428571E+00  0.5830904E-02
    1      -18.104029   1.000000
    2       -4.921457   1.000000
    3       -4.379004   1.000000
    4       -4.059668   1.000000
    5        6.973720   0.000000
    6        7.620678   0.000000
    7        8.620291   0.000000
    8       10.596246   0.000000
 
 -0.4285714E+00 -0.1428571E+00  0.1428571E+00  0.5830904E-02
    1      -18.104029   1.000000
    2       -4.921457   1.000000
    3       -4.379004   1.000000
    4       -4.059668   1.000000
    5        6.973720   0.000000
    6        7.620678   0.000000
    7        8.620291   0.000000
    8       10.596246   0.000000
 
 -0.2857143E+00 -0.1428571E+00  0.1428571E+00  0.5830904E-02
    1      -18.150216   1.000000
    2       -4.761275   1.000000
    3       -4.200093   1.000000
    4       -3.970775   1.000000
    5        6.144315   0.000000
    6        8.008838   0.000000
    7        8.591822   0.000000
    8       10.938343   0.000000
 
 -0.1428571E+00 -0.1428571E+00  0.1428571E+00  0.5830904E-02
    1      -18.206761   1.000000
    2       -4.529084   1.000000
    3       -3.933252   1.000000
    4       -3.922785   1.000000
    5        5.227145   0.000000
    6        8.312506   0.000000
    7        9.504017   0.000000
    8       10.500539   0.000000
 
  0.1540744E-32  0.3081488E-32  0.2857143E+00  0.5830904E-02
    1      -18.203444   1.000000
    2       -4.698362   1.000000
    3       -3.849698   1.000000
    4       -3.849698   1.000000
    5        5.207583   0.000000
    6        8.520605   0.000000
    7        9.961903   0.000000
    8        9.961903   0.000000
 
  0.1428571E+00  0.6791965E-17  0.2857143E+00  0.5830904E-02
    1      -18.206761   1.000000
    2       -4.529084   1.000000
    3       -3.933252   1.000000
    4       -3.922785   1.000000
    5        5.227145   0.000000
    6        8.312506   0.000000
    7        9.504017   0.000000
    8       10.500539   0.000000
 
  0.2857143E+00  0.4984249E-16  0.2857143E+00  0.5830904E-02
    1      -18.168326   1.000000
    2       -4.644346   1.000000
    3       -4.052176   1.000000
    4       -4.052176   1.000000
    5        5.626110   0.000000
    6        7.707187   0.000000
    7        9.172141   0.000000
    8       11.437632   0.000000
 
  0.4285714E+00  0.2350408E-16  0.2857143E+00  0.5830904E-02
    1      -18.116264   1.000000
    2       -4.883107   1.000000
    3       -4.221650   1.000000
    4       -4.117509   1.000000
    5        6.134755   0.000000
    6        7.503050   0.000000
    7        8.957391   0.000000
    8       11.514678   0.000000
 
 -0.4285714E+00  0.4275667E-16  0.2857143E+00  0.5830904E-02
    1      -18.090099   1.000000
    2       -4.903887   1.000000
    3       -4.491792   1.000000
    4       -4.084400   1.000000
    5        6.723289   0.000000
    6        7.600228   0.000000
    7        8.994235   0.000000
    8       11.017783   0.000000
 
 -0.2857143E+00  0.1641826E-16  0.2857143E+00  0.5830904E-02
    1      -18.110228   1.000000
    2       -4.827980   1.000000
    3       -4.508873   1.000000
    4       -3.975454   1.000000
    5        7.144054   0.000000
    6        7.628993   0.000000
    7        8.527125   0.000000
    8       10.597030   0.000000
 
 -0.1428571E+00  0.3957636E-17  0.2857143E+00  0.5830904E-02
    1      -18.160841   1.000000
    2       -4.841459   1.000000
    3       -4.110286   1.000000
    4       -3.869302   1.000000
    5        5.968684   0.000000
    6        8.315457   0.000000
    7        9.024806   0.000000
    8       10.122882   0.000000
 
  0.0000000E+00  0.1428571E+00  0.2857143E+00  0.5830904E-02
    1      -18.206761   1.000000
    2       -4.529084   1.000000
    3       -3.933252   1.000000
    4       -3.922785   1.000000
    5        5.227145   0.000000
    6        8.312506   0.000000
    7        9.504017   0.000000
    8       10.500539   0.000000
 
  0.1428571E+00  0.1428571E+00  0.2857143E+00  0.5830904E-02
    1      -18.231567   1.000000
    2       -4.388182   1.000000
    3       -3.957422   1.000000
    4       -3.790909   1.000000
    5        4.863019   0.000000
    6        8.667239   0.000000
    7        9.753342   0.000000
    8       10.550388   0.000000
 
  0.2857143E+00  0.1428571E+00  0.2857143E+00  0.5830904E-02
    1      -18.206761   1.000000
    2       -4.529084   1.000000
    3       -3.933252   1.000000
    4       -3.922785   1.000000
    5        5.227144   0.000000
    6        8.312506   0.000000
    7        9.504016   0.000000
    8       10.500539   0.000000
 
  0.4285714E+00  0.1428571E+00  0.2857143E+00  0.5830904E-02
    1      -18.150216   1.000000
    2       -4.761275   1.000000
    3       -4.200093   1.000000
    4       -3.970775   1.000000
    5        6.144315   0.000000
    6        8.008838   0.000000
    7        8.591822   0.000000
    8       10.938343   0.000000
 
 -0.4285714E+00  0.1428571E+00  0.2857143E+00  0.5830904E-02
    1      -18.104029   1.000000
    2       -4.921457   1.000000
    3       -4.379004   1.000000
    4       -4.059668   1.000000
    5        6.973720   0.000000
    6        7.620678   0.000000
    7        8.620291   0.000000
    8       10.596247   0.000000
 
 -0.2857143E+00  0.1428571E+00  0.2857143E+00  0.5830904E-02
    1      -18.104029   1.000000
    2       -4.921457   1.000000
    3       -4.379004   1.000000
    4       -4.059668   1.000000
    5        6.973720   0.000000
    6        7.620678   0.000000
    7        8.620291   0.000000
    8       10.596247   0.000000
 
 -0.1428571E+00  0.1428571E+00  0.2857143E+00  0.5830904E-02
    1      -18.150216   1.000000
    2       -4.761275   1.000000
    3       -4.200093   1.000000
    4       -3.970775   1.000000
    5        6.144315   0.000000
    6        8.008838   0.000000
    7        8.591822   0.000000
    8       10.938343   0.000000
 
 -0.7703720E-33  0.2857143E+00  0.2857143E+00  0.5830904E-02
    1      -18.168326   1.000000
    2       -4.644346   1.000000
    3       -4.052176   1.000000
    4       -4.052176   1.000000
    5        5.626110   0.000000
    6        7.707187   0.000000
    7        9.172141   0.000000
    8       11.437632   0.000000
 
  0.1428571E+00  0.2857143E+00  0.2857143E+00  0.5830904E-02
    1      -18.206761   1.000000
    2       -4.529084   1.000000
    3       -3.933252   1.000000
    4       -3.922785   1.000000
    5        5.227144   0.000000
    6        8.312506   0.000000
    7        9.504016   0.000000
    8       10.500539   0.000000
 
  0.2857143E+00  0.2857143E+00  0.2857143E+00  0.5830904E-02
    1      -18.203444   1.000000
    2       -4.698362   1.000000
    3       -3.849698   1.000000
    4       -3.849698   1.000000
    5        5.207583   0.000000
    6        8.520606   0.000000
    7        9.961903   0.000000
    8        9.961903   0.000000
 