   1   1   0   0
  0.8549903E+02  0.4944914E-09  0.4944914E-09  0.4944914E-09  0.1000000E-15
  1.000000000000000E-004
  CAR 
 Og_FCC                                  
     11.65589497    -32.54068102  301     -1.33944430      1.00000000
    -32.541  0.0000E+00  0.0000E+00
    -32.393  0.0000E+00  0.0000E+00
    -32.246  0.0000E+00  0.0000E+00
    -32.099  0.0000E+00  0.0000E+00
    -31.951  0.0000E+00  0.0000E+00
    -31.804  0.0000E+00  0.0000E+00
    -31.657  0.0000E+00  0.0000E+00
    -31.509  0.0000E+00  0.0000E+00
    -31.362  0.0000E+00  0.0000E+00
    -31.215  0.0000E+00  0.0000E+00
    -31.067 -0.1925E-50 -0.2836E-51
    -30.920 -0.6943E-27 -0.1023E-27
    -30.773 -0.5933E-11 -0.8741E-12
    -30.625 -0.7528E-03 -0.1109E-03
    -30.478  0.7072E-01  0.1031E-01
    -30.331 -0.2018E-02  0.1001E-01
    -30.184 -0.8215E-08  0.1001E-01
    -30.036  0.0000E+00  0.1001E-01
    -29.889  0.0000E+00  0.1001E-01
    -29.742  0.0000E+00  0.1001E-01
    -29.594  0.0000E+00  0.1001E-01
    -29.447  0.0000E+00  0.1001E-01
    -29.300  0.0000E+00  0.1001E-01
    -29.152  0.0000E+00  0.1001E-01
    -29.005  0.0000E+00  0.1001E-01
    -28.858  0.0000E+00  0.1001E-01
    -28.710  0.0000E+00  0.1001E-01
    -28.563  0.0000E+00  0.1001E-01
    -28.416  0.0000E+00  0.1001E-01
    -28.268  0.0000E+00  0.1001E-01
    -28.121  0.0000E+00  0.1001E-01
    -27.974  0.0000E+00  0.1001E-01
    -27.826  0.0000E+00  0.1001E-01
    -27.679  0.0000E+00  0.1001E-01
    -27.532  0.0000E+00  0.1001E-01
    -27.384  0.0000E+00  0.1001E-01
    -27.237  0.0000E+00  0.1001E-01
    -27.090  0.0000E+00  0.1001E-01
    -26.942  0.0000E+00  0.1001E-01
    -26.795  0.0000E+00  0.1001E-01
    -26.648  0.0000E+00  0.1001E-01
    -26.500  0.0000E+00  0.1001E-01
    -26.353  0.0000E+00  0.1001E-01
    -26.206  0.0000E+00  0.1001E-01
    -26.059  0.0000E+00  0.1001E-01
    -25.911  0.0000E+00  0.1001E-01
    -25.764  0.0000E+00  0.1001E-01
    -25.617  0.0000E+00  0.1001E-01
    -25.469  0.0000E+00  0.1001E-01
    -25.322  0.0000E+00  0.1001E-01
    -25.175  0.0000E+00  0.1001E-01
    -25.027  0.0000E+00  0.1001E-01
    -24.880  0.0000E+00  0.1001E-01
    -24.733  0.0000E+00  0.1001E-01
    -24.585  0.0000E+00  0.1001E-01
    -24.438  0.0000E+00  0.1001E-01
    -24.291  0.0000E+00  0.1001E-01
    -24.143  0.0000E+00  0.1001E-01
    -23.996 -0.3186E-51  0.1001E-01
    -23.849 -0.6749E-28  0.1001E-01
    -23.701 -0.4826E-12  0.1001E-01
    -23.554 -0.9519E-04  0.9996E-02
    -23.407  0.1377E-01  0.1202E-01
    -23.259 -0.8643E-04  0.1201E-01
    -23.112 -0.6723E-08  0.1201E-01
    -22.965  0.0000E+00  0.1201E-01
    -22.817  0.0000E+00  0.1201E-01
    -22.670  0.0000E+00  0.1201E-01
    -22.523  0.0000E+00  0.1201E-01
    -22.375  0.0000E+00  0.1201E-01
    -22.228  0.0000E+00  0.1201E-01
    -22.081  0.0000E+00  0.1201E-01
    -21.934  0.0000E+00  0.1201E-01
    -21.786  0.0000E+00  0.1201E-01
    -21.639  0.0000E+00  0.1201E-01
    -21.492  0.0000E+00  0.1201E-01
    -21.344  0.0000E+00  0.1201E-01
    -21.197  0.0000E+00  0.1201E-01
    -21.050  0.0000E+00  0.1201E-01
    -20.902  0.0000E+00  0.1201E-01
    -20.755  0.0000E+00  0.1201E-01
    -20.608  0.0000E+00  0.1201E-01
    -20.460  0.0000E+00  0.1201E-01
    -20.313  0.0000E+00  0.1201E-01
    -20.166  0.0000E+00  0.1201E-01
    -20.018  0.0000E+00  0.1201E-01
    -19.871  0.0000E+00  0.1201E-01
    -19.724  0.0000E+00  0.1201E-01
    -19.576  0.0000E+00  0.1201E-01
    -19.429  0.0000E+00  0.1201E-01
    -19.282  0.0000E+00  0.1201E-01
    -19.134  0.0000E+00  0.1201E-01
    -18.987  0.0000E+00  0.1201E-01
    -18.840  0.0000E+00  0.1201E-01
    -18.692  0.0000E+00  0.1201E-01
    -18.545  0.0000E+00  0.1201E-01
    -18.398  0.0000E+00  0.1201E-01
    -18.250  0.0000E+00  0.1201E-01
    -18.103  0.0000E+00  0.1201E-01
    -17.956  0.0000E+00  0.1201E-01
    -17.808  0.0000E+00  0.1201E-01
    -17.661  0.0000E+00  0.1201E-01
    -17.514  0.0000E+00  0.1201E-01
    -17.367  0.0000E+00  0.1201E-01
    -17.219  0.0000E+00  0.1201E-01
    -17.072  0.0000E+00  0.1201E-01
    -16.925  0.0000E+00  0.1201E-01
    -16.777  0.0000E+00  0.1201E-01
    -16.630  0.0000E+00  0.1201E-01
    -16.483  0.0000E+00  0.1201E-01
    -16.335  0.0000E+00  0.1201E-01
    -16.188  0.0000E+00  0.1201E-01
    -16.041  0.0000E+00  0.1201E-01
    -15.893  0.0000E+00  0.1201E-01
    -15.746  0.0000E+00  0.1201E-01
    -15.599  0.0000E+00  0.1201E-01
    -15.451  0.0000E+00  0.1201E-01
    -15.304  0.0000E+00  0.1201E-01
    -15.157  0.0000E+00  0.1201E-01
    -15.009  0.0000E+00  0.1201E-01
    -14.862  0.0000E+00  0.1201E-01
    -14.715  0.0000E+00  0.1201E-01
    -14.567  0.0000E+00  0.1201E-01
    -14.420  0.0000E+00  0.1201E-01
    -14.273  0.0000E+00  0.1201E-01
    -14.125  0.0000E+00  0.1201E-01
    -13.978  0.0000E+00  0.1201E-01
    -13.831  0.0000E+00  0.1201E-01
    -13.683  0.0000E+00  0.1201E-01
    -13.536  0.0000E+00  0.1201E-01
    -13.389  0.0000E+00  0.1201E-01
    -13.242  0.0000E+00  0.1201E-01
    -13.094  0.0000E+00  0.1201E-01
    -12.947  0.0000E+00  0.1201E-01
    -12.800  0.0000E+00  0.1201E-01
    -12.652  0.0000E+00  0.1201E-01
    -12.505  0.0000E+00  0.1201E-01
    -12.358  0.0000E+00  0.1201E-01
    -12.210  0.0000E+00  0.1201E-01
    -12.063  0.0000E+00  0.1201E-01
    -11.916  0.0000E+00  0.1201E-01
    -11.768  0.0000E+00  0.1201E-01
    -11.621  0.0000E+00  0.1201E-01
    -11.474  0.0000E+00  0.1201E-01
    -11.326  0.0000E+00  0.1201E-01
    -11.179  0.0000E+00  0.1201E-01
    -11.032  0.0000E+00  0.1201E-01
    -10.884  0.0000E+00  0.1201E-01
    -10.737  0.0000E+00  0.1201E-01
    -10.590  0.0000E+00  0.1201E-01
    -10.442  0.0000E+00  0.1201E-01
    -10.295  0.0000E+00  0.1201E-01
    -10.148  0.0000E+00  0.1201E-01
    -10.000  0.0000E+00  0.1201E-01
     -9.853  0.0000E+00  0.1201E-01
     -9.706  0.0000E+00  0.1201E-01
     -9.558  0.0000E+00  0.1201E-01
     -9.411  0.0000E+00  0.1201E-01
     -9.264  0.0000E+00  0.1201E-01
     -9.116  0.0000E+00  0.1201E-01
     -8.969  0.0000E+00  0.1201E-01
     -8.822  0.0000E+00  0.1201E-01
     -8.675  0.0000E+00  0.1201E-01
     -8.527  0.0000E+00  0.1201E-01
     -8.380  0.0000E+00  0.1201E-01
     -8.233  0.0000E+00  0.1201E-01
     -8.085  0.0000E+00  0.1201E-01
     -7.938  0.0000E+00  0.1201E-01
     -7.791  0.0000E+00  0.1201E-01
     -7.643  0.0000E+00  0.1201E-01
     -7.496  0.0000E+00  0.1201E-01
     -7.349  0.0000E+00  0.1201E-01
     -7.201  0.0000E+00  0.1201E-01
     -7.054  0.0000E+00  0.1201E-01
     -6.907  0.0000E+00  0.1201E-01
     -6.759  0.0000E+00  0.1201E-01
     -6.612  0.0000E+00  0.1201E-01
     -6.465  0.0000E+00  0.1201E-01
     -6.317  0.0000E+00  0.1201E-01
     -6.170  0.0000E+00  0.1201E-01
     -6.023  0.0000E+00  0.1201E-01
     -5.875  0.0000E+00  0.1201E-01
     -5.728  0.0000E+00  0.1201E-01
     -5.581  0.0000E+00  0.1201E-01
     -5.433  0.0000E+00  0.1201E-01
     -5.286  0.0000E+00  0.1201E-01
     -5.139  0.0000E+00  0.1201E-01
     -4.991  0.0000E+00  0.1201E-01
     -4.844  0.0000E+00  0.1201E-01
     -4.697  0.0000E+00  0.1201E-01
     -4.550  0.0000E+00  0.1201E-01
     -4.402  0.0000E+00  0.1201E-01
     -4.255  0.0000E+00  0.1201E-01
     -4.108  0.0000E+00  0.1201E-01
     -3.960  0.0000E+00  0.1201E-01
     -3.813  0.0000E+00  0.1201E-01
     -3.666  0.0000E+00  0.1201E-01
     -3.518  0.0000E+00  0.1201E-01
     -3.371  0.0000E+00  0.1201E-01
     -3.224 -0.4306E-43  0.1201E-01
     -3.076 -0.1625E-22  0.1201E-01
     -2.929 -0.1317E-09  0.1201E-01
     -2.782  0.4285E-06  0.1201E-01
     -2.634  0.9447E-03  0.1215E-01
     -2.487  0.4833E-02  0.1286E-01
     -2.340  0.5111E-02  0.1362E-01
     -2.192  0.1774E-02  0.1388E-01
     -2.045  0.3126E-02  0.1434E-01
     -1.898  0.4144E-02  0.1495E-01
     -1.750  0.4695E-02  0.1564E-01
     -1.603  0.8087E-02  0.1683E-01
     -1.456  0.6403E-02  0.1778E-01
     -1.308  0.1669E-02  0.1802E-01
     -1.161 -0.2096E-04  0.1802E-01
     -1.014 -0.2116E-10  0.1802E-01
     -0.866  0.0000E+00  0.1802E-01
     -0.719  0.0000E+00  0.1802E-01
     -0.572  0.0000E+00  0.1802E-01
     -0.425  0.0000E+00  0.1802E-01
     -0.277  0.0000E+00  0.1802E-01
     -0.130  0.0000E+00  0.1802E-01
      0.017  0.0000E+00  0.1802E-01
      0.165  0.0000E+00  0.1802E-01
      0.312  0.0000E+00  0.1802E-01
      0.459  0.0000E+00  0.1802E-01
      0.607  0.0000E+00  0.1802E-01
      0.754  0.0000E+00  0.1802E-01
      0.901  0.0000E+00  0.1802E-01
      1.049  0.0000E+00  0.1802E-01
      1.196 -0.1531E-54  0.1802E-01
      1.343 -0.8599E-31  0.1802E-01
      1.491 -0.1147E-14  0.1802E-01
      1.638 -0.2351E-06  0.1802E-01
      1.785  0.2738E-04  0.1802E-01
      1.933 -0.6042E-06  0.1802E-01
      2.080 -0.5864E-06  0.1802E-01
      2.227  0.2004E-03  0.1805E-01
      2.375  0.1444E-03  0.1807E-01
      2.522  0.2731E-04  0.1808E-01
      2.669 -0.1923E-06  0.1808E-01
      2.817  0.2374E-03  0.1811E-01
      2.964  0.8062E-04  0.1812E-01
      3.111  0.4625E-03  0.1819E-01
      3.259  0.3876E-03  0.1825E-01
      3.406 -0.1453E-06  0.1825E-01
      3.553 -0.8185E-05  0.1825E-01
      3.701  0.9384E-03  0.1839E-01
      3.848  0.1897E-03  0.1841E-01
      3.995  0.1273E-02  0.1860E-01
      4.142  0.1044E-03  0.1862E-01
      4.290  0.1762E-02  0.1888E-01
      4.437  0.2839E-03  0.1892E-01
      4.584  0.8067E-03  0.1904E-01
      4.732  0.1601E-02  0.1927E-01
      4.879  0.1863E-02  0.1955E-01
      5.026  0.1161E-02  0.1972E-01
      5.174 -0.5902E-04  0.1971E-01
      5.321  0.1347E-02  0.1991E-01
      5.468  0.3477E-03  0.1996E-01
      5.616  0.3344E-03  0.2001E-01
      5.763  0.2017E-03  0.2004E-01
      5.910  0.7430E-03  0.2015E-01
      6.058  0.9608E-03  0.2029E-01
      6.205  0.1455E-02  0.2050E-01
      6.352  0.3296E-02  0.2099E-01
      6.500  0.2231E-02  0.2132E-01
      6.647  0.3747E-03  0.2137E-01
      6.794  0.2591E-02  0.2175E-01
      6.942  0.6279E-02  0.2268E-01
      7.089  0.1856E-02  0.2295E-01
      7.236  0.5430E-03  0.2303E-01
      7.384  0.9572E-03  0.2317E-01
      7.531  0.1349E-02  0.2337E-01
      7.678  0.1876E-02  0.2365E-01
      7.826  0.3169E-02  0.2412E-01
      7.973  0.2218E-02  0.2444E-01
      8.120  0.1853E-02  0.2472E-01
      8.267  0.3373E-02  0.2521E-01
      8.415  0.1866E-02  0.2549E-01
      8.562  0.1182E-02  0.2566E-01
      8.709  0.1474E-03  0.2568E-01
      8.857  0.8043E-03  0.2580E-01
      9.004  0.3915E-05  0.2580E-01
      9.151  0.6214E-03  0.2589E-01
      9.299  0.1800E-04  0.2590E-01
      9.446  0.1382E-03  0.2592E-01
      9.593  0.4996E-03  0.2599E-01
      9.741  0.2397E-03  0.2603E-01
      9.888 -0.1630E-05  0.2603E-01
     10.035 -0.8321E-14  0.2603E-01
     10.183  0.0000E+00  0.2603E-01
     10.330  0.0000E+00  0.2603E-01
     10.477  0.0000E+00  0.2603E-01
     10.625  0.0000E+00  0.2603E-01
     10.772  0.0000E+00  0.2603E-01
     10.919  0.0000E+00  0.2603E-01
     11.067  0.0000E+00  0.2603E-01
     11.214  0.0000E+00  0.2603E-01
     11.361  0.0000E+00  0.2603E-01
     11.509  0.0000E+00  0.2603E-01
     11.656  0.0000E+00  0.2603E-01
