    1    1  999    1
  0.8549903E+02  0.4944914E-09  0.4944914E-09  0.4944914E-09  0.1000000E-15
  1.000000000000000E-004
  CAR 
 Og_FCC                                  
     18     29     13
 
  0.0000000E+00  0.0000000E+00  0.0000000E+00  0.1953125E-02
    1      -30.531365   1.000000
    2      -30.531365   1.000000
    3      -30.531365   1.000000
    4      -30.530923   1.000000
    5      -30.530923   1.000000
    6      -23.469039   1.000000
    7       -1.356416   0.769730
    8       -1.356416   0.769730
    9       -1.356416   0.769730
   10        1.736396   0.000000
   11        7.804598   0.000000
   12        7.804598   0.000000
   13        7.804598   0.000000
 
  0.1250000E+00 -0.1284580E-16 -0.6938894E-17  0.1562500E-01
    1      -30.531313   1.000000
    2      -30.531274   1.000000
    3      -30.531274   1.000000
    4      -30.530886   1.000000
    5      -30.530886   1.000000
    6      -23.466409   1.000000
    7       -1.659255   1.000000
    8       -1.382917   1.005743
    9       -1.382917   1.005743
   10        2.194686   0.000000
   11        7.266512   0.000000
   12        7.917329   0.000000
   13        7.917329   0.000000
 
  0.2500000E+00 -0.2569159E-16 -0.1387779E-16  0.1562500E-01
    1      -30.531220   1.000000
    2      -30.531220   1.000000
    3      -30.531174   1.000000
    4      -30.530659   1.000000
    5      -30.530659   1.000000
    6      -23.460193   1.000000
    7       -2.196410   1.000000
    8       -1.445285   1.005383
    9       -1.445285   1.005383
   10        3.076910   0.000000
   11        6.940059   0.000000
   12        7.892294   0.000000
   13        7.892294   0.000000
 
  0.3750000E+00 -0.2465960E-16  0.1387779E-16  0.1562500E-01
    1      -30.531271   1.000000
    2      -30.531271   1.000000
    3      -30.531019   1.000000
    4      -30.530323   1.000000
    5      -30.530323   1.000000
    6      -23.453931   1.000000
    7       -2.600280   1.000000
    8       -1.505553   1.000014
    9       -1.505553   1.000014
   10        3.689083   0.000000
   11        7.313065   0.000000
   12        7.613832   0.000000
   13        7.613832   0.000000
 
  0.5000000E+00 -0.5138319E-16 -0.2775558E-16  0.7812500E-02
    1      -30.531301   1.000000
    2      -30.531301   1.000000
    3      -30.530975   1.000000
    4      -30.530187   1.000000
    5      -30.530187   1.000000
    6      -23.451376   1.000000
    7       -2.744826   1.000000
    8       -1.529946   1.000000
    9       -1.529946   1.000000
   10        3.850282   0.000000
   11        7.492875   0.000000
   12        7.492875   0.000000
   13        7.664152   0.000000
 
  0.1250000E+00  0.1250000E+00  0.0000000E+00  0.1171875E-01
    1      -30.531419   1.000000
    2      -30.531159   1.000000
    3      -30.531159   1.000000
    4      -30.530972   1.000000
    5      -30.530827   1.000000
    6      -23.465558   1.000000
    7       -1.668124   1.000000
    8       -1.435990   1.009930
    9       -1.435990   1.009930
   10        2.353175   0.000000
   11        7.040005   0.000000
   12        8.048277   0.000000
   13        8.048277   0.000000
 
  0.2500000E+00  0.1250000E+00 -0.1387779E-16  0.4687500E-01
    1      -30.531384   1.000000
    2      -30.531079   1.000000
    3      -30.531039   1.000000
    4      -30.530837   1.000000
    5      -30.530624   1.000000
    6      -23.460552   1.000000
    7       -2.069639   1.000000
    8       -1.515564   1.000004
    9       -1.498132   1.000034
   10        3.116775   0.000000
   11        6.676597   0.000000
   12        7.539064   0.000000
   13        8.209648   0.000000
 
  0.3750000E+00  0.1250000E+00  0.2775558E-16  0.4687500E-01
    1      -30.531304   1.000000
    2      -30.531077   1.000000
    3      -30.531032   1.000000
    4      -30.530528   1.000000
    5      -30.530296   1.000000
    6      -23.454301   1.000000
    7       -2.468908   1.000000
    8       -1.593499   1.000000
    9       -1.574529   1.000000
   10        3.882762   0.000000
   11        6.798689   0.000000
   12        7.072463   0.000000
   13        8.007275   0.000000
 
  0.5000000E+00  0.1250000E+00  0.2775558E-16  0.4687500E-01
    1      -30.531300   1.000000
    2      -30.531120   1.000000
    3      -30.530903   1.000000
    4      -30.530308   1.000000
    5      -30.530166   1.000000
    6      -23.450477   1.000000
    7       -2.671512   1.000000
    8       -1.684491   1.000000
    9       -1.580922   1.000000
   10        4.210613   0.000000
   11        6.722141   0.000000
   12        7.744217   0.000000
   13        7.768198   0.000000
 
 -0.3750000E+00  0.1250000E+00  0.0000000E+00  0.4687500E-01
    1      -30.531266   1.000000
    2      -30.531127   1.000000
    3      -30.530923   1.000000
    4      -30.530336   1.000000
    5      -30.530249   1.000000
    6      -23.451342   1.000000
    7       -2.624881   1.000000
    8       -1.716020   1.000000
    9       -1.531564   1.000000
   10        4.161277   0.000000
   11        6.812984   0.000000
   12        7.537847   0.000000
   13        7.732108   0.000000
 
 -0.2500000E+00  0.1250000E+00  0.0000000E+00  0.4687500E-01
    1      -30.531206   1.000000
    2      -30.531093   1.000000
    3      -30.531092   1.000000
    4      -30.530704   1.000000
    5      -30.530399   1.000000
    6      -23.456390   1.000000
    7       -2.348273   1.000000
    8       -1.661469   1.000000
    9       -1.452889   1.003053
   10        3.662796   0.000000
   11        6.841020   0.000000
   12        7.243271   0.000000
   13        7.954624   0.000000
 
 -0.1250000E+00  0.1250000E+00 -0.1561471E-17  0.2343750E-01
    1      -30.531267   1.000000
    2      -30.531179   1.000000
    3      -30.531144   1.000000
    4      -30.530928   1.000000
    5      -30.530683   1.000000
    6      -23.462619   1.000000
    7       -1.949820   1.000000
    8       -1.525620   1.000001
    9       -1.390186   1.026600
   10        2.801373   0.000000
   11        6.909932   0.000000
   12        7.776204   0.000000
   13        8.118037   0.000000
 
  0.2500000E+00  0.2500000E+00  0.0000000E+00  0.1171875E-01
    1      -30.531564   1.000000
    2      -30.531084   1.000000
    3      -30.530676   1.000000
    4      -30.530676   1.000000
    5      -30.530616   1.000000
    6      -23.457276   1.000000
    7       -2.173504   1.000000
    8       -1.617924   1.000000
    9       -1.617924   1.000000
   10        3.610612   0.000000
   11        6.230508   0.000000
   12        7.138805   0.000000
   13        8.713451   0.000000
 
  0.3750000E+00  0.2500000E+00  0.2775558E-16  0.4687500E-01
    1      -30.531517   1.000000
    2      -30.531100   1.000000
    3      -30.530680   1.000000
    4      -30.530419   1.000000
    5      -30.530273   1.000000
    6      -23.452228   1.000000
    7       -2.408457   1.000000
    8       -1.746561   1.000000
    9       -1.692089   1.000000
   10        4.259303   0.000000
   11        6.118393   0.000000
   12        6.806662   0.000000
   13        8.815229   0.000000
 
  0.5000000E+00  0.2500000E+00 -0.2775558E-16  0.4687500E-01
    1      -30.531391   1.000000
    2      -30.530937   1.000000
    3      -30.530732   1.000000
    4      -30.530352   1.000000
    5      -30.530131   1.000000
    6      -23.448404   1.000000
    7       -2.531514   1.000000
    8       -1.943051   1.000000
    9       -1.698780   1.000000
   10        4.766018   0.000000
   11        6.334371   0.000000
   12        6.900207   0.000000
   13        8.532280   0.000000
 
 -0.3750000E+00  0.2500000E+00  0.2775558E-16  0.4687500E-01
    1      -30.531321   1.000000
    2      -30.530766   1.000000
    3      -30.530678   1.000000
    4      -30.530440   1.000000
    5      -30.530304   1.000000
    6      -23.448055   1.000000
    7       -2.497173   1.000000
    8       -2.084836   1.000000
    9       -1.634674   1.000000
   10        4.976742   0.000000
   11        6.277018   0.000000
   12        7.481705   0.000000
   13        8.295906   0.000000
 
 -0.2500000E+00  0.2500000E+00 -0.3122941E-17  0.2343750E-01
    1      -30.531239   1.000000
    2      -30.530862   1.000000
    3      -30.530811   1.000000
    4      -30.530654   1.000000
    5      -30.530328   1.000000
    6      -23.451351   1.000000
    7       -2.429248   1.000000
    8       -1.974294   1.000000
    9       -1.533202   1.000000
   10        4.564348   0.000000
   11        6.524681   0.000000
   12        6.894733   0.000000
   13        8.169240   0.000000
 
  0.3750000E+00  0.3750000E+00  0.2775558E-16  0.1171875E-01
    1      -30.531693   1.000000
    2      -30.531186   1.000000
    3      -30.530393   1.000000
    4      -30.530173   1.000000
    5      -30.530173   1.000000
    6      -23.448930   1.000000
    7       -2.519372   1.000000
    8       -1.787405   1.000000
    9       -1.787405   1.000000
   10        4.353419   0.000000
   11        5.728725   0.000000
   12        7.350681   0.000000
   13        9.632007   0.000000
 
  0.5000000E+00  0.3750000E+00 -0.1110223E-15  0.4687500E-01
    1      -30.531607   1.000000
    2      -30.531171   1.000000
    3      -30.530398   1.000000
    4      -30.530095   1.000000
    5      -30.530041   1.000000
    6      -23.446335   1.000000
    7       -2.567780   1.000000
    8       -1.935473   1.000000
    9       -1.810054   1.000000
   10        4.569322   0.000000
   11        5.814148   0.000000
   12        7.723920   0.000000
   13        9.464003   0.000000
 
 -0.3750000E+00  0.3750000E+00 -0.3270023E-16  0.2343750E-01
    1      -30.531427   1.000000
    2      -30.530911   1.000000
    3      -30.530494   1.000000
    4      -30.530264   1.000000
    5      -30.530168   1.000000
    6      -23.445966   1.000000
    7       -2.442883   1.000000
    8       -2.195612   1.000000
    9       -1.748879   1.000000
   10        4.944584   0.000000
   11        6.328783   0.000000
   12        7.829830   0.000000
   13        7.914429   0.000000
 
  0.5000000E+00  0.5000000E+00  0.0000000E+00  0.5859375E-02
    1      -30.531746   1.000000
    2      -30.531246   1.000000
    3      -30.530306   1.000000
    4      -30.529972   1.000000
    5      -30.529972   1.000000
    6      -23.445510   1.000000
    7       -2.636035   1.000000
    8       -1.854420   1.000000
    9       -1.854420   1.000000
   10        4.359166   0.000000
   11        5.560088   0.000000
   12        8.824495   0.000000
   13        9.646960   0.000000
 
  0.3750000E+00  0.2500000E+00  0.1250000E+00  0.4687500E-01
    1      -30.531326   1.000000
    2      -30.531111   1.000000
    3      -30.530867   1.000000
    4      -30.530687   1.000000
    5      -30.530382   1.000000
    6      -23.455522   1.000000
    7       -2.299338   1.000000
    8       -1.728623   1.000000
    9       -1.536670   1.000000
   10        3.880475   0.000000
   11        6.474955   0.000000
   12        6.917262   0.000000
   13        8.528192   0.000000
 
  0.5000000E+00  0.2500000E+00  0.1250000E+00  0.9375000E-01
    1      -30.531220   1.000000
    2      -30.531057   1.000000
    3      -30.530825   1.000000
    4      -30.530435   1.000000
    5      -30.530243   1.000000
    6      -23.450482   1.000000
    7       -2.495140   1.000000
    8       -1.891197   1.000000
    9       -1.615580   1.000000
   10        4.616532   0.000000
   11        6.406516   0.000000
   12        6.824336   0.000000
   13        8.317715   0.000000
 
 -0.3750000E+00  0.2500000E+00  0.1250000E+00  0.4687500E-01
    1      -30.531223   1.000000
    2      -30.531006   1.000000
    3      -30.530689   1.000000
    4      -30.530429   1.000000
    5      -30.530181   1.000000
    6      -23.448386   1.000000
    7       -2.570941   1.000000
    8       -1.944331   1.000000
    9       -1.658104   1.000000
   10        4.865287   0.000000
   11        6.219201   0.000000
   12        7.568677   0.000000
   13        8.136322   0.000000
 
  0.5000000E+00  0.3750000E+00  0.1250000E+00  0.4687500E-01
    1      -30.531432   1.000000
    2      -30.531118   1.000000
    3      -30.530605   1.000000
    4      -30.530214   1.000000
    5      -30.530179   1.000000
    6      -23.448419   1.000000
    7       -2.491328   1.000000
    8       -1.915614   1.000000
    9       -1.767496   1.000000
   10        4.747069   0.000000
   11        6.099388   0.000000
   12        6.740310   0.000000
   13        9.114636   0.000000
 
 -0.3750000E+00  0.3750000E+00  0.1250000E+00  0.9375000E-01
    1      -30.531257   1.000000
    2      -30.530941   1.000000
    3      -30.530620   1.000000
    4      -30.530411   1.000000
    5      -30.530066   1.000000
    6      -23.446321   1.000000
    7       -2.441634   1.000000
    8       -2.132740   1.000000
    9       -1.800273   1.000000
   10        5.247472   0.000000
   11        6.308501   0.000000
   12        6.900124   0.000000
   13        8.129465   0.000000
 
 -0.2500000E+00  0.3750000E+00  0.1250000E+00  0.4687500E-01
    1      -30.531183   1.000000
    2      -30.530824   1.000000
    3      -30.530717   1.000000
    4      -30.530473   1.000000
    5      -30.530185   1.000000
    6      -23.447175   1.000000
    7       -2.391544   1.000000
    8       -2.195448   1.000000
    9       -1.724159   1.000000
   10        5.462116   0.000000
   11        6.008594   0.000000
   12        7.014868   0.000000
   13        8.147888   0.000000
 
 -0.3750000E+00  0.5000000E+00  0.1250000E+00  0.2343750E-01
    1      -30.531480   1.000000
    2      -30.531141   1.000000
    3      -30.530404   1.000000
    4      -30.530231   1.000000
    5      -30.529969   1.000000
    6      -23.445482   1.000000
    7       -2.537848   1.000000
    8       -1.989055   1.000000
    9       -1.880381   1.000000
   10        4.798068   0.000000
   11        5.962877   0.000000
   12        7.923795   0.000000
   13        8.225014   0.000000
 
 -0.2500000E+00  0.5000000E+00  0.2500000E+00  0.1171875E-01
    1      -30.531000   1.000000
    2      -30.530837   1.000000
    3      -30.530837   1.000000
    4      -30.530523   1.000000
    5      -30.529962   1.000000
    6      -23.445422   1.000000
    7       -2.281172   1.000000
    8       -2.281172   1.000000
    9       -1.905683   1.000000
   10        5.766883   0.000000
   11        6.384140   0.000000
   12        7.001700   0.000000
   13        7.001700   0.000000
