    1    1  999    1
  0.6400541E+02  0.4489975E-09  0.4489975E-09  0.4489975E-09  0.1000000E-15
  1.000000000000000E-004
  CAR 
 Og_FCC                                  
     18     35     13
 
  0.0000000E+00  0.0000000E+00  0.0000000E+00  0.1371742E-02
    1      -29.815657   1.000000
    2      -29.815657   1.000000
    3      -29.815657   1.000000
    4      -29.814834   1.000000
    5      -29.814834   1.000000
    6      -22.771097   1.000000
    7       -0.443657   0.769993
    8       -0.443657   0.769993
    9       -0.443657   0.769991
   10        2.307314   0.000000
   11        8.746785   0.000000
   12        8.746785   0.000000
   13        8.746785   0.000000
 
  0.1111111E+00  0.1010271E-17  0.6938894E-17  0.1097394E-01
    1      -29.815719   1.000000
    2      -29.815543   1.000000
    3      -29.815543   1.000000
    4      -29.814768   1.000000
    5      -29.814768   1.000000
    6      -22.767354   1.000000
    7       -0.805661   1.000000
    8       -0.472281   1.013467
    9       -0.472281   1.013467
   10        2.787812   0.000000
   11        8.187071   0.000000
   12        8.852417   0.000000
   13        8.852417   0.000000
 
  0.2222222E+00  0.1589833E-16  0.2775558E-16  0.1097394E-01
    1      -29.815395   1.000000
    2      -29.815395   1.000000
    3      -29.815202   1.000000
    4      -29.814481   1.000000
    5      -29.814481   1.000000
    6      -22.757852   1.000000
    7       -1.445502   1.000000
    8       -0.542927   1.002439
    9       -0.542927   1.002439
   10        3.680869   0.000000
   11        7.849284   0.000000
   12        8.890453   0.000000
   13        8.890453   0.000000
 
  0.3333333E+00 -0.2472476E-16  0.1387779E-16  0.1097394E-01
    1      -29.815491   1.000000
    2      -29.815491   1.000000
    3      -29.815244   1.000000
    4      -29.814023   1.000000
    5      -29.814023   1.000000
    6      -22.747002   1.000000
    7       -1.969136   1.000000
    8       -0.620248   1.000000
    9       -0.620248   1.000000
   10        4.319597   0.000000
   11        8.221080   0.000000
   12        8.619581   0.000000
   13        8.619581   0.000000
 
  0.4444444E+00  0.3179666E-16  0.5551115E-16  0.1097394E-01
    1      -29.815470   1.000000
    2      -29.815470   1.000000
    3      -29.814998   1.000000
    4      -29.813368   1.000000
    5      -29.813368   1.000000
    6      -22.739893   1.000000
    7       -2.251025   1.000000
    8       -0.669128   1.000000
    9       -0.669128   1.000000
   10        4.536646   0.000000
   11        8.416785   0.000000
   12        8.416785   0.000000
   13        8.746334   0.000000
 
  0.1111111E+00  0.1111111E+00  0.1387779E-16  0.8230453E-02
    1      -29.815793   1.000000
    2      -29.815565   1.000000
    3      -29.815565   1.000000
    4      -29.814988   1.000000
    5      -29.814701   1.000000
    6      -22.766111   1.000000
    7       -0.822138   1.000000
    8       -0.531591   1.005741
    9       -0.531591   1.005741
   10        2.952456   0.000000
   11        7.953613   0.000000
   12        8.979230   0.000000
   13        8.979230   0.000000
 
  0.2222222E+00  0.1111111E+00  0.2775558E-16  0.3292181E-01
    1      -29.815740   1.000000
    2      -29.815238   1.000000
    3      -29.815211   1.000000
    4      -29.814721   1.000000
    5      -29.814475   1.000000
    6      -22.758529   1.000000
    7       -1.302463   1.000000
    8       -0.623652   1.000000
    9       -0.596691   1.000008
   10        3.720465   0.000000
   11        7.576469   0.000000
   12        8.619766   0.000000
   13        9.165673   0.000000
 
  0.3333333E+00  0.1111111E+00  0.2775558E-16  0.3292181E-01
    1      -29.815602   1.000000
    2      -29.815181   1.000000
    3      -29.815175   1.000000
    4      -29.814397   1.000000
    5      -29.814029   1.000000
    6      -22.748130   1.000000
    7       -1.810672   1.000000
    8       -0.704019   1.000000
    9       -0.697749   1.000000
   10        4.489573   0.000000
   11        7.701513   0.000000
   12        8.055722   0.000000
   13        9.017199   0.000000
 
  0.4444444E+00  0.1111111E+00  0.5551115E-16  0.3292181E-01
    1      -29.815454   1.000000
    2      -29.815242   1.000000
    3      -29.814962   1.000000
    4      -29.813914   1.000000
    5      -29.813411   1.000000
    6      -22.739772   1.000000
    7       -2.138801   1.000000
    8       -0.809765   1.000000
    9       -0.737728   1.000000
   10        4.856522   0.000000
   11        7.697001   0.000000
   12        8.590632   0.000000
   13        8.738565   0.000000
 
 -0.4444444E+00  0.1111111E+00 -0.8326673E-16  0.3292181E-01
    1      -29.815454   1.000000
    2      -29.815286   1.000000
    3      -29.815057   1.000000
    4      -29.813603   1.000000
    5      -29.813480   1.000000
    6      -22.737399   1.000000
    7       -2.221483   1.000000
    8       -0.879997   1.000000
    9       -0.711227   1.000000
   10        4.926273   0.000000
   11        7.649271   0.000000
   12        8.595399   0.000000
   13        9.186758   0.000000
 
 -0.3333333E+00  0.1111111E+00 -0.4163336E-16  0.3292181E-01
    1      -29.815381   1.000000
    2      -29.815297   1.000000
    3      -29.815052   1.000000
    4      -29.814024   1.000000
    5      -29.813586   1.000000
    6      -22.742138   1.000000
    7       -2.048570   1.000000
    8       -0.874787   1.000000
    9       -0.635340   1.000000
   10        4.789681   0.000000
   11        7.862359   0.000000
   12        8.359063   0.000000
   13        8.664570   0.000000
 
 -0.2222222E+00  0.1111111E+00 -0.2775558E-16  0.3292181E-01
    1      -29.815342   1.000000
    2      -29.815251   1.000000
    3      -29.815221   1.000000
    4      -29.814564   1.000000
    5      -29.814087   1.000000
    6      -22.751741   1.000000
    7       -1.656119   1.000000
    8       -0.786592   1.000000
    9       -0.542615   1.002502
   10        4.257553   0.000000
   11        7.720545   0.000000
   12        8.325991   0.000000
   13        8.947307   0.000000
 
 -0.1111111E+00  0.1111111E+00 -0.5064502E-18  0.1646091E-01
    1      -29.815573   1.000000
    2      -29.815475   1.000000
    3      -29.815356   1.000000
    4      -29.814936   1.000000
    5      -29.814490   1.000000
    6      -22.761693   1.000000
    7       -1.158909   1.000000
    8       -0.628982   1.000000
    9       -0.476864   1.025531
   10        3.401162   0.000000
   11        7.816837   0.000000
   12        8.817969   0.000000
   13        9.008426   0.000000
 
  0.2222222E+00  0.2222222E+00  0.0000000E+00  0.8230453E-02
    1      -29.815960   1.000000
    2      -29.815018   1.000000
    3      -29.814531   1.000000
    4      -29.814531   1.000000
    5      -29.814448   1.000000
    6      -22.753461   1.000000
    7       -1.431705   1.000000
    8       -0.741479   1.000000
    9       -0.741479   1.000000
   10        4.230090   0.000000
   11        7.118781   0.000000
   12        8.185898   0.000000
   13        9.608962   0.000000
 
  0.3333333E+00  0.2222222E+00  0.2775558E-16  0.3292181E-01
    1      -29.815902   1.000000
    2      -29.815014   1.000000
    3      -29.814527   1.000000
    4      -29.814171   1.000000
    5      -29.813873   1.000000
    6      -22.744997   1.000000
    7       -1.748062   1.000000
    8       -0.878000   1.000000
    9       -0.839962   1.000000
   10        4.890832   0.000000
   11        6.969146   0.000000
   12        7.763997   0.000000
   13        9.755834   0.000000
 
  0.4444444E+00  0.2222222E+00  0.2775558E-16  0.3292181E-01
    1      -29.815669   1.000000
    2      -29.815029   1.000000
    3      -29.814707   1.000000
    4      -29.814025   1.000000
    5      -29.813493   1.000000
    6      -22.737086   1.000000
    7       -1.988216   1.000000
    8       -1.080106   1.000000
    9       -0.877485   1.000000
   10        5.389085   0.000000
   11        7.259529   0.000000
   12        7.633362   0.000000
   13        9.499713   0.000000
 
 -0.4444444E+00  0.2222222E+00 -0.5551115E-16  0.3292181E-01
    1      -29.815521   1.000000
    2      -29.814710   1.000000
    3      -29.814678   1.000000
    4      -29.814026   1.000000
    5      -29.813542   1.000000
    6      -22.733446   1.000000
    7       -2.059538   1.000000
    8       -1.268314   1.000000
    9       -0.839424   1.000000
   10        5.630467   0.000000
   11        7.180811   0.000000
   12        8.580854   0.000000
   13        9.230654   0.000000
 
 -0.3333333E+00  0.2222222E+00 -0.4857226E-16  0.3292181E-01
    1      -29.815475   1.000000
    2      -29.814759   1.000000
    3      -29.814712   1.000000
    4      -29.814051   1.000000
    5      -29.813962   1.000000
    6      -22.735801   1.000000
    7       -1.979542   1.000000
    8       -1.318549   1.000000
    9       -0.740626   1.000000
   10        5.652434   0.000000
   11        7.230576   0.000000
   12        8.338904   0.000000
   13        9.103742   0.000000
 
 -0.2222222E+00  0.2222222E+00 -0.4670265E-16  0.1646091E-01
    1      -29.815368   1.000000
    2      -29.815004   1.000000
    3      -29.814737   1.000000
    4      -29.814677   1.000000
    5      -29.813739   1.000000
    6      -22.743035   1.000000
    7       -1.834344   1.000000
    8       -1.132854   1.000000
    9       -0.622876   1.000000
   10        5.132599   0.000000
   11        7.614641   0.000000
   12        7.719540   0.000000
   13        9.103518   0.000000
 
  0.3333333E+00  0.3333333E+00  0.5551115E-16  0.8230453E-02
    1      -29.816126   1.000000
    2      -29.815150   1.000000
    3      -29.814051   1.000000
    4      -29.813820   1.000000
    5      -29.813820   1.000000
    6      -22.739058   1.000000
    7       -1.885591   1.000000
    8       -0.961354   1.000000
    9       -0.961354   1.000000
   10        5.065863   0.000000
   11        6.548145   0.000000
   12        8.105930   0.000000
   13       10.485642   0.000000
 
  0.4444444E+00  0.3333333E+00  0.5551115E-16  0.3292181E-01
    1      -29.816073   1.000000
    2      -29.815399   1.000000
    3      -29.814076   1.000000
    4      -29.813659   1.000000
    5      -29.813459   1.000000
    6      -22.733082   1.000000
    7       -2.010221   1.000000
    8       -1.132985   1.000000
    9       -1.016987   1.000000
   10        5.260496   0.000000
   11        6.573941   0.000000
   12        8.394820   0.000000
   13       10.532202   0.000000
 
 -0.4444444E+00  0.3333333E+00 -0.2775558E-16  0.3292181E-01
    1      -29.815836   1.000000
    2      -29.815124   1.000000
    3      -29.814011   1.000000
    4      -29.813747   1.000000
    5      -29.813362   1.000000
    6      -22.729880   1.000000
    7       -1.967734   1.000000
    8       -1.439280   1.000000
    9       -0.985698   1.000000
   10        5.565180   0.000000
   11        7.104428   0.000000
   12        8.469095   0.000000
   13       10.141052   0.000000
 
 -0.3333333E+00  0.3333333E+00  0.4932132E-17  0.1646091E-01
    1      -29.815560   1.000000
    2      -29.814393   1.000000
    3      -29.814060   1.000000
    4      -29.814016   1.000000
    5      -29.813656   1.000000
    6      -22.730956   1.000000
    7       -1.764434   1.000000
    8       -1.718492   1.000000
    9       -0.879135   1.000000
   10        5.873692   0.000000
   11        7.414601   0.000000
   12        8.655520   0.000000
   13        9.153278   0.000000
 
  0.4444444E+00  0.4444444E+00  0.0000000E+00  0.8230453E-02
    1      -29.816161   1.000000
    2      -29.815574   1.000000
    3      -29.813792   1.000000
    4      -29.813312   1.000000
    5      -29.813312   1.000000
    6      -22.729636   1.000000
    7       -2.113373   1.000000
    8       -1.095789   1.000000
    9       -1.095789   1.000000
   10        5.022916   0.000000
   11        6.260800   0.000000
   12        9.632656   0.000000
   13       11.327627   0.000000
 
 -0.4444444E+00  0.4444444E+00 -0.9340530E-16  0.1646091E-01
    1      -29.816091   1.000000
    2      -29.815494   1.000000
    3      -29.813903   1.000000
    4      -29.813385   1.000000
    5      -29.813269   1.000000
    6      -22.728370   1.000000
    7       -2.091383   1.000000
    8       -1.234751   1.000000
    9       -1.083923   1.000000
   10        5.177442   0.000000
   11        6.439233   0.000000
   12       10.011283   0.000000
   13       10.143159   0.000000
 
  0.3333333E+00  0.2222222E+00  0.1111111E+00  0.3292181E-01
    1      -29.815703   1.000000
    2      -29.815188   1.000000
    3      -29.814864   1.000000
    4      -29.814694   1.000000
    5      -29.814104   1.000000
    6      -22.750503   1.000000
    7       -1.607600   1.000000
    8       -0.859378   1.000000
    9       -0.637671   1.000000
   10        4.472905   0.000000
   11        7.344519   0.000000
   12        7.994861   0.000000
   13        9.536985   0.000000
 
  0.4444444E+00  0.2222222E+00  0.1111111E+00  0.6584362E-01
    1      -29.815463   1.000000
    2      -29.815203   1.000000
    3      -29.814801   1.000000
    4      -29.814189   1.000000
    5      -29.813689   1.000000
    6      -22.741352   1.000000
    7       -1.907264   1.000000
    8       -1.053330   1.000000
    9       -0.726211   1.000000
   10        5.198506   0.000000
   11        7.449434   0.000000
   12        7.620627   0.000000
   13        9.272823   0.000000
 
 -0.4444444E+00  0.2222222E+00  0.1111111E+00  0.6584362E-01
    1      -29.815443   1.000000
    2      -29.815249   1.000000
    3      -29.814721   1.000000
    4      -29.814036   1.000000
    5      -29.813563   1.000000
    6      -22.735359   1.000000
    7       -2.085372   1.000000
    8       -1.146597   1.000000
    9       -0.803983   1.000000
   10        5.510706   0.000000
   11        7.163320   0.000000
   12        8.546943   0.000000
   13        9.089254   0.000000
 
  0.4444444E+00  0.3333333E+00  0.1111111E+00  0.3292181E-01
    1      -29.815871   1.000000
    2      -29.815132   1.000000
    3      -29.814470   1.000000
    4      -29.813827   1.000000
    5      -29.813722   1.000000
    6      -22.737779   1.000000
    7       -1.905484   1.000000
    8       -1.098032   1.000000
    9       -0.913437   1.000000
   10        5.395316   0.000000
   11        6.898106   0.000000
   12        7.606286   0.000000
   13       10.180905   0.000000
 
 -0.4444444E+00  0.3333333E+00  0.1111111E+00  0.6584362E-01
    1      -29.815590   1.000000
    2      -29.815079   1.000000
    3      -29.814487   1.000000
    4      -29.813804   1.000000
    5      -29.813477   1.000000
    6      -22.732229   1.000000
    7       -1.956065   1.000000
    8       -1.335009   1.000000
    9       -0.983822   1.000000
   10        5.855333   0.000000
   11        7.187111   0.000000
   12        7.593742   0.000000
   13        9.897265   0.000000
 
 -0.3333333E+00  0.3333333E+00  0.1111111E+00  0.6584362E-01
    1      -29.815418   1.000000
    2      -29.814845   1.000000
    3      -29.814370   1.000000
    4      -29.814174   1.000000
    5      -29.813511   1.000000
    6      -22.730957   1.000000
    7       -1.894371   1.000000
    8       -1.524123   1.000000
    9       -0.952726   1.000000
   10        6.172235   0.000000
   11        7.004699   0.000000
   12        8.423170   0.000000
   13        9.023520   0.000000
 
 -0.2222222E+00  0.3333333E+00  0.1111111E+00  0.3292181E-01
    1      -29.815304   1.000000
    2      -29.815073   1.000000
    3      -29.814608   1.000000
    4      -29.813906   1.000000
    5      -29.813820   1.000000
    6      -22.734565   1.000000
    7       -1.897043   1.000000
    8       -1.409541   1.000000
    9       -0.839854   1.000000
   10        6.049875   0.000000
   11        6.971571   0.000000
   12        7.772171   0.000000
   13        9.586092   0.000000
 
 -0.4444444E+00  0.4444444E+00  0.1111111E+00  0.3292181E-01
    1      -29.815941   1.000000
    2      -29.815400   1.000000
    3      -29.814015   1.000000
    4      -29.813517   1.000000
    5      -29.813287   1.000000
    6      -22.729464   1.000000
    7       -2.029326   1.000000
    8       -1.242800   1.000000
    9       -1.117999   1.000000
   10        5.426201   0.000000
   11        6.654388   0.000000
   12        8.726439   0.000000
   13       10.257148   0.000000
 
 -0.3333333E+00  0.4444444E+00  0.1111111E+00  0.3292181E-01
    1      -29.815655   1.000000
    2      -29.815152   1.000000
    3      -29.814104   1.000000
    4      -29.813978   1.000000
    5      -29.813297   1.000000
    6      -22.728626   1.000000
    7       -1.900570   1.000000
    8       -1.506800   1.000000
    9       -1.091127   1.000000
   10        5.839368   0.000000
   11        7.195372   0.000000
   12        8.464092   0.000000
   13        9.017311   0.000000
 
 -0.3333333E+00  0.4444444E+00  0.2222222E+00  0.3292181E-01
    1      -29.815278   1.000000
    2      -29.815252   1.000000
    3      -29.814662   1.000000
    4      -29.814248   1.000000
    5      -29.813400   1.000000
    6      -22.729055   1.000000
    7       -1.803252   1.000000
    8       -1.574740   1.000000
    9       -1.132026   1.000000
   10        6.478225   0.000000
   11        7.209385   0.000000
   12        7.690315   0.000000
   13        8.773928   0.000000
