 vasp.5.4.4.18Apr17-6-g9f103f2a35 (build Nov 03 2018 10:20:43) complex          
  
 executed on             LinuxIFC date 2018.11.29  16:21:16
 running on    8 total cores
 distrk:  each k-point on    2 cores,    4 groups
 distr:  one band on NCORES_PER_BAND=   2 cores,    1 groups


--------------------------------------------------------------------------------------------------------


 INCAR:
 POTCAR:    PAW Og, JanMewes Oct 18               

 ----------------------------------------------------------------------------- 
|                                                                             |
|           W    W    AA    RRRRR   N    N  II  N    N   GGGG   !!!           |
|           W    W   A  A   R    R  NN   N  II  NN   N  G    G  !!!           |
|           W    W  A    A  R    R  N N  N  II  N N  N  G       !!!           |
|           W WW W  AAAAAA  RRRRR   N  N N  II  N  N N  G  GGG   !            |
|           WW  WW  A    A  R   R   N   NN  II  N   NN  G    G                |
|           W    W  A    A  R    R  N    N  II  N    N   GGGG   !!!           |
|                                                                             |
|      You have enabled k-point parallelism (KPAR>1).                         |
|      This developmental code was originally  written by Paul Kent at ORNL,  |
|      and carefully double checked in Vienna.                                |
|      GW as well as linear response parallelism added by Martijn Marsman     |
|      and Georg Kresse.                                                      |
|      Carefully verify results versus KPAR=1.                                |
|      Report problems to Paul Kent and Vienna.                               |
|                                                                             |
 ----------------------------------------------------------------------------- 

 POTCAR:    PAW Og, JanMewes Oct 18               
   VRHFIN =Og : 10d 2s 6p, PE                                                   
   LEXCH  = PE                                                                  
   EATOM  =  2640.5573 eV,  194.0755 Ry                                         
                                                                                
   TITEL  = PAW Og, JanMewes Oct 18                                             
   LULTRA =        F    use ultrasoft PP ?                                      
   IUNSCR =        1    unscreen: 0-lin 1-nonlin 2-no                           
   RPACOR =    1.700    partial core radius                                     
   POMASS =    0.010; ZVAL   =   18.000    mass and valenz                      
   RCORE  =    2.600    outmost cutoff radius                                   
   RWIGS  =    3.500; RWIGS  =    1.852    wigner-seitz radius (au A)           
   ENMAX  =  339.336; ENMIN  =  254.502 eV                                      
   ICORE  =        3    local potential                                         
   LCOR   =        T    correct aug charges                                     
   LPAW   =        T    paw PP                                                  
   EAUG   =  361.025                                                            
   DEXC   =   -0.000                                                            
   RAUG   =    1.300    factor for augmentation sphere                          
   RDEP   =    2.775    radius for radial grids                                 
   RDEPT  =    2.135    core radius for aug-charge                              
   QCUT   =   -4.994; QGAM   =    9.988    optimization parameters              
                                                                                
   Atomic configuration                                                         
   22 entries                                                                   
     n  l   j            E        occ.                                          
     1  0  0.50   -225781.4217   2.0000                                         
     2  0  0.50    -47342.3774   2.0000                                         
     2  1  1.50    -33463.4058   6.0000                                         
     3  0  0.50    -12845.8060   2.0000                                         
     3  1  1.50     -9184.5562   6.0000                                         
     3  2  2.50     -7322.6146  10.0000                                         
     4  0  0.50     -3781.9433   2.0000                                         
     4  1  1.50     -2605.9204   6.0000                                         
     4  2  2.50     -1899.4626  10.0000                                         
     4  3  3.50     -1273.6890  14.0000                                         
     5  0  0.50     -1046.0643   2.0000                                         
     5  1  1.50      -650.9265   6.0000                                         
     5  2  2.50      -388.1490  10.0000                                         
     5  3  3.50      -152.1121  14.0000                                         
     6  0  0.50      -224.6639   2.0000                                         
     6  1  0.50      -184.3267   2.0000                                         
     6  1  1.50       -97.8537   4.0000                                         
     6  2  2.50       -35.6667  10.0000                                         
     7  0  0.50       -28.5889   2.0000                                         
     8  0  0.50        -1.3606   0.0000                                         
     7  1  1.50        -7.0827   6.0000                                         
     6  3  3.50        -0.0136   0.0000                                         
   Description                                                                  
     l       E           TYP  RCUT    TYP  RCUT                                 
     2    -35.6666962     23  2.100                                             
     2     34.0145650     23  2.300                                             
     0    -28.5889381     23  1.600                                             
     0     40.8174780     23  2.200                                             
     1     -7.0826811     23  2.200                                             
     1    148.3035034     23  1.900                                             
     3      6.8029130      7  2.600                                             
  local pseudopotential read in
  partial core-charges read in
  partial kinetic energy density read in
  kinetic energy density of atom read in
  atomic valenz-charges read in
  non local Contribution for L=           2  read in
    real space projection operators read in
  non local Contribution for L=           2  read in
    real space projection operators read in
  non local Contribution for L=           0  read in
    real space projection operators read in
  non local Contribution for L=           0  read in
    real space projection operators read in
  non local Contribution for L=           1  read in
    real space projection operators read in
  non local Contribution for L=           1  read in
    real space projection operators read in
    PAW grid and wavefunctions read in
 
   number of l-projection  operators is LMAX  =           6
   number of lm-projection operators is LMMAX =          18
 
  PAW Og, JanMewes Oct 18               :
 energy of atom  1       EATOM=-2640.5573
 kinetic energy error for atom=    0.0286 (will be added to EATOM!!)
 
 
 POSCAR: Og_FCC                                  
  positions in direct lattice
  velocities in cartesian coordinates
 exchange correlation table for  LEXCH =        8
   RHO(1)=    0.500       N(1)  =     2000
   RHO(2)=  100.500       N(2)  =     4000
 


--------------------------------------------------------------------------------------------------------


 ion  position               nearest neighbor table
   1  0.000  0.000  0.000-
 
  LATTYP: Found a face centered cubic cell.
 ALAT       =     6.3497831056
  
  Lattice vectors:
  
 A1 = (   4.4899746930,   0.0000000000,   0.0000000000)
 A2 = (   2.2449873465,   3.8884321464,  -0.0000000000)
 A3 = (   2.2449873465,   1.2961440488,   3.6660489854)


Analysis of symmetry for initial positions (statically):
=====================================================================
 Subroutine PRICEL returns:
 Original cell was already a primitive cell.
 

 Routine SETGRP: Setting up the symmetry group for a 
 face centered cubic supercell.


 Subroutine GETGRP returns: Found 48 space group operations
 (whereof 48 operations were pure point group operations)
 out of a pool of 48 trial point group operations.


The static configuration has the point symmetry O_h .


Analysis of symmetry for dynamics (positions and initial velocities):
=====================================================================
 Subroutine PRICEL returns:
 Original cell was already a primitive cell.
 

 Routine SETGRP: Setting up the symmetry group for a 
 face centered cubic supercell.


 Subroutine GETGRP returns: Found 48 space group operations
 (whereof 48 operations were pure point group operations)
 out of a pool of 48 trial point group operations.


The dynamic configuration has the point symmetry O_h .


 Subroutine INISYM returns: Found 48 space group operations
 (whereof 48 operations are pure point group operations),
 and found     1 'primitive' translations

 
 

Automatic generation of k-mesh.
 generate k-points for:    9    9    9
Space group operators:
 irot       det(A)        alpha          n_x          n_y          n_z        tau_x        tau_y        tau_z
    1     1.000000     0.000000     1.000000     0.000000     0.000000     0.000000     0.000000     0.000000
    2    -1.000000     0.000000     1.000000     0.000000     0.000000     0.000000     0.000000     0.000000
    3     1.000000   120.000000    -0.816497    -0.471405    -0.333333     0.000000     0.000000     0.000000
    4    -1.000000   120.000000    -0.816497    -0.471405    -0.333333     0.000000     0.000000     0.000000
    5     1.000000   120.000000     0.816497     0.471405     0.333333     0.000000     0.000000     0.000000
    6    -1.000000   120.000000     0.816497     0.471405     0.333333     0.000000     0.000000     0.000000
    7     1.000000    90.000000    -0.707107    -0.408248     0.577350     0.000000     0.000000     0.000000
    8    -1.000000    90.000000    -0.707107    -0.408248     0.577350     0.000000     0.000000     0.000000
    9     1.000000   180.000000     1.000000     0.000000     0.000000     0.000000     0.000000     0.000000
   10    -1.000000   180.000000     1.000000     0.000000     0.000000     0.000000     0.000000     0.000000
   11     1.000000    90.000000     0.707107    -0.408248     0.577350     0.000000     0.000000     0.000000
   12    -1.000000    90.000000     0.707107    -0.408248     0.577350     0.000000     0.000000     0.000000
   13     1.000000   180.000000     0.707107     0.408248    -0.577350     0.000000     0.000000     0.000000
   14    -1.000000   180.000000     0.707107     0.408248    -0.577350     0.000000     0.000000     0.000000
   15     1.000000   120.000000     0.816497    -0.471405    -0.333333     0.000000     0.000000     0.000000
   16    -1.000000   120.000000     0.816497    -0.471405    -0.333333     0.000000     0.000000     0.000000
   17     1.000000   120.000000     0.000000    -0.942809     0.333333     0.000000     0.000000     0.000000
   18    -1.000000   120.000000     0.000000    -0.942809     0.333333     0.000000     0.000000     0.000000
   19     1.000000    90.000000     0.707107     0.408248    -0.577350     0.000000     0.000000     0.000000
   20    -1.000000    90.000000     0.707107     0.408248    -0.577350     0.000000     0.000000     0.000000
   21     1.000000    90.000000    -0.000000    -0.816497    -0.577350     0.000000     0.000000     0.000000
   22    -1.000000    90.000000    -0.000000    -0.816497    -0.577350     0.000000     0.000000     0.000000
   23     1.000000   180.000000     0.500000     0.866025     0.000000     0.000000     0.000000     0.000000
   24    -1.000000   180.000000     0.500000     0.866025     0.000000     0.000000     0.000000     0.000000
   25     1.000000   120.000000     0.000000     0.942809    -0.333333     0.000000     0.000000     0.000000
   26    -1.000000   120.000000     0.000000     0.942809    -0.333333     0.000000     0.000000     0.000000
   27     1.000000   120.000000    -0.000000     0.000000    -1.000000     0.000000     0.000000     0.000000
   28    -1.000000   120.000000    -0.000000     0.000000    -1.000000     0.000000     0.000000     0.000000
   29     1.000000   180.000000     0.000000    -0.816497    -0.577350     0.000000     0.000000     0.000000
   30    -1.000000   180.000000     0.000000    -0.816497    -0.577350     0.000000     0.000000     0.000000
   31     1.000000    90.000000    -0.707107     0.408248    -0.577350     0.000000     0.000000     0.000000
   32    -1.000000    90.000000    -0.707107     0.408248    -0.577350     0.000000     0.000000     0.000000
   33     1.000000   180.000000     0.500000     0.288675     0.816497     0.000000     0.000000     0.000000
   34    -1.000000   180.000000     0.500000     0.288675     0.816497     0.000000     0.000000     0.000000
   35     1.000000    90.000000    -0.000000     0.816497     0.577350     0.000000     0.000000     0.000000
   36    -1.000000    90.000000    -0.000000     0.816497     0.577350     0.000000     0.000000     0.000000
   37     1.000000   120.000000    -0.816497     0.471405     0.333333     0.000000     0.000000     0.000000
   38    -1.000000   120.000000    -0.816497     0.471405     0.333333     0.000000     0.000000     0.000000
   39     1.000000   180.000000    -0.707107     0.408248    -0.577350     0.000000     0.000000     0.000000
   40    -1.000000   180.000000    -0.707107     0.408248    -0.577350     0.000000     0.000000     0.000000
   41     1.000000   120.000000    -0.000000    -0.000000     1.000000     0.000000     0.000000     0.000000
   42    -1.000000   120.000000    -0.000000    -0.000000     1.000000     0.000000     0.000000     0.000000
   43     1.000000   180.000000    -0.000000    -0.577350     0.816497     0.000000     0.000000     0.000000
   44    -1.000000   180.000000    -0.000000    -0.577350     0.816497     0.000000     0.000000     0.000000
   45     1.000000   180.000000    -0.500000     0.866025     0.000000     0.000000     0.000000     0.000000
   46    -1.000000   180.000000    -0.500000     0.866025     0.000000     0.000000     0.000000     0.000000
   47     1.000000   180.000000    -0.500000     0.288675     0.816497     0.000000     0.000000     0.000000
   48    -1.000000   180.000000    -0.500000     0.288675     0.816497     0.000000     0.000000     0.000000
 
 Subroutine IBZKPT returns following result:
 ===========================================
 
 Found     35 irreducible k-points:
 
 Following reciprocal coordinates:
            Coordinates               Weight
  0.000000  0.000000  0.000000      1.000000
  0.111111  0.000000  0.000000      8.000000
  0.222222  0.000000  0.000000      8.000000
  0.333333 -0.000000  0.000000      8.000000
  0.444444  0.000000  0.000000      8.000000
  0.111111  0.111111  0.000000      6.000000
  0.222222  0.111111  0.000000     24.000000
  0.333333  0.111111  0.000000     24.000000
  0.444444  0.111111  0.000000     24.000000
 -0.444444  0.111111 -0.000000     24.000000
 -0.333333  0.111111 -0.000000     24.000000
 -0.222222  0.111111 -0.000000     24.000000
 -0.111111  0.111111 -0.000000     12.000000
  0.222222  0.222222  0.000000      6.000000
  0.333333  0.222222  0.000000     24.000000
  0.444444  0.222222  0.000000     24.000000
 -0.444444  0.222222 -0.000000     24.000000
 -0.333333  0.222222 -0.000000     24.000000
 -0.222222  0.222222 -0.000000     12.000000
  0.333333  0.333333  0.000000      6.000000
  0.444444  0.333333  0.000000     24.000000
 -0.444444  0.333333 -0.000000     24.000000
 -0.333333  0.333333  0.000000     12.000000
  0.444444  0.444444  0.000000      6.000000
 -0.444444  0.444444 -0.000000     12.000000
  0.333333  0.222222  0.111111     24.000000
  0.444444  0.222222  0.111111     48.000000
 -0.444444  0.222222  0.111111     48.000000
  0.444444  0.333333  0.111111     24.000000
 -0.444444  0.333333  0.111111     48.000000
 -0.333333  0.333333  0.111111     48.000000
 -0.222222  0.333333  0.111111     24.000000
 -0.444444  0.444444  0.111111     24.000000
 -0.333333  0.444444  0.111111     24.000000
 -0.333333  0.444444  0.222222     24.000000
 
 Following cartesian coordinates:
            Coordinates               Weight
  0.000000  0.000000  0.000000      1.000000
  0.024746 -0.014287 -0.010103      8.000000
  0.049493 -0.028575 -0.020205      8.000000
  0.074239 -0.042862 -0.030308      8.000000
  0.098986 -0.057150 -0.040411      8.000000
  0.024746  0.014287 -0.020205      6.000000
  0.049493 -0.000000 -0.030308     24.000000
  0.074239 -0.014287 -0.040411     24.000000
  0.098986 -0.028575 -0.050514     24.000000
 -0.098986  0.085724  0.030308     24.000000
 -0.074239  0.071437  0.020205     24.000000
 -0.049493  0.057150  0.010103     24.000000
 -0.024746  0.042862 -0.000000     12.000000
  0.049493  0.028575 -0.040411      6.000000
  0.074239  0.014287 -0.050514     24.000000
  0.098986  0.000000 -0.060616     24.000000
 -0.098986  0.114299  0.020205     24.000000
 -0.074239  0.100012  0.010103     24.000000
 -0.049493  0.085724  0.000000     12.000000
  0.074239  0.042862 -0.060616      6.000000
  0.098986  0.028575 -0.070719     24.000000
 -0.098986  0.142874  0.010103     24.000000
 -0.074239  0.128587  0.000000     12.000000
  0.098986  0.057150 -0.080822      6.000000
 -0.098986  0.171449  0.000000     12.000000
  0.074239  0.014287 -0.020205     24.000000
  0.098986  0.000000 -0.030308     48.000000
 -0.098986  0.114299  0.050514     48.000000
  0.098986  0.028575 -0.040411     24.000000
 -0.098986  0.142874  0.040411     48.000000
 -0.074239  0.128587  0.030308     48.000000
 -0.049493  0.114299  0.020205     24.000000
 -0.098986  0.171449  0.030308     24.000000
 -0.074239  0.157161  0.020205     24.000000
 -0.074239  0.157161  0.050514     24.000000
 


--------------------------------------------------------------------------------------------------------




 Dimension of arrays:
   k-points           NKPTS =     35   k-points in BZ     NKDIM =     35   number of bands    NBANDS=     13
   number of dos      NEDOS =    301   number of ions     NIONS =      1
   non local maximal  LDIM  =      6   non local SUM 2l+1 LMDIM =     18
   total plane-waves  NPLWV =  46656
   max r-space proj   IRMAX =      1   max aug-charges    IRDMAX= 350341
   dimension x,y,z NGX =    36 NGY =   36 NGZ =   36
   dimension x,y,z NGXF=    72 NGYF=   72 NGZF=   72
   support grid    NGXF=   144 NGYF=  144 NGZF=  144
   ions per type =               1
   NGX,Y,Z   is equivalent  to a cutoff of  13.33, 13.33, 13.33 a.u.
   NGXF,Y,Z  is equivalent  to a cutoff of  26.66, 26.66, 26.66 a.u.

 SYSTEM =  Og_FCC                                  
 POSCAR =  Og_FCC                                  

 Startparameter for this run:
   NWRITE =      2    write-flag & timer
   PREC   = accura    normal or accurate (medium, high low for compatibility)
   ISTART =      0    job   : 0-new  1-cont  2-samecut
   ICHARG =      2    charge: 1-file 2-atom 10-const
   ISPIN  =      1    spin polarized calculation?
   LNONCOLLINEAR =      F non collinear calculations
   LSORBIT =      F    spin-orbit coupling
   INIWAV =      1    electr: 0-lowe 1-rand  2-diag
   LASPH  =      F    aspherical Exc in radial PAW
   METAGGA=      F    non-selfconsistent MetaGGA calc.

 Electronic Relaxation 1
   ENCUT  =  600.0 eV  44.10 Ry    6.64 a.u.   8.97  8.97  8.97*2*pi/ulx,y,z
   ENINI  =  600.0     initial cutoff
   ENAUG  =  361.0 eV  augmentation charge cutoff
   NELM   =    100;   NELMIN=  5; NELMDL= -5     # of ELM steps 
   EDIFF  = 0.1E-07   stopping-criterion for ELM
   LREAL  =      F    real-space projection
   NLSPLINE    = F    spline interpolate recip. space projectors
   LCOMPAT=      F    compatible to vasp.4.4
   GGA_COMPAT  = F    GGA compatible to vasp.4.4-vasp.4.6
   LMAXPAW     = -100 max onsite density
   LMAXMIX     =    2 max onsite mixed and CHGCAR
   VOSKOWN=      0    Vosko Wilk Nusair interpolation
   ROPT   =    0.00000
 Ionic relaxation
   EDIFFG = 0.1E-05   stopping-criterion for IOM
   NSW    =    999    number of steps for IOM
   NBLOCK =      1;   KBLOCK =    999    inner block; outer block 
   IBRION =      1    ionic relax: 0-MD 1-quasi-New 2-CG
   NFREE  =      5    steps in history (QN), initial steepest desc. (CG)
   ISIF   =      7    stress and relaxation
   IWAVPR =     11    prediction:  0-non 1-charg 2-wave 3-comb
   ISYM   =      2    0-nonsym 1-usesym 2-fastsym
   LCORR  =      T    Harris-Foulkes like correction to forces

   POTIM  = 0.1000    time-step for ionic-motion
   TEIN   =    0.0    initial temperature
   TEBEG  =    0.0;   TEEND  =   0.0 temperature during run
   SMASS  =  -3.00    Nose mass-parameter (am)
   estimated Nose-frequenzy (Omega)   =  0.10E-29 period in steps =****** mass=  -0.461E-27a.u.
   SCALEE = 1.0000    scale energy and forces
   NPACO  =    256;   APACO  = 16.0  distance and # of slots for P.C.
   PSTRESS=    0.0 pullay stress

  Mass of Ions in am
   POMASS =   0.01
  Ionic Valenz
   ZVAL   =  18.00
  Atomic Wigner-Seitz radii
   RWIGS  =  -1.00
  virtual crystal weights 
   VCA    =   1.00
   NELECT =      18.0000    total number of electrons
   NUPDOWN=      -1.0000    fix difference up-down

 DOS related values:
   EMIN   =  10.00;   EMAX   =-10.00  energy-range for DOS
   EFERMI =   0.00
   ISMEAR =     1;   SIGMA  =   0.05  broadening in eV -4-tet -1-fermi 0-gaus

 Electronic relaxation 2 (details)
   IALGO  =     68    algorithm
   LDIAG  =      T    sub-space diagonalisation (order eigenvalues)
   LSUBROT=      F    optimize rotation matrix (better conditioning)
   TURBO    =      0    0=normal 1=particle mesh
   IRESTART =      0    0=no restart 2=restart with 2 vectors
   NREBOOT  =      0    no. of reboots
   NMIN     =      0    reboot dimension
   EREF     =   0.00    reference energy to select bands
   IMIX   =      4    mixing-type and parameters
     AMIX     =   0.40;   BMIX     =  1.00
     AMIX_MAG =   1.60;   BMIX_MAG =  1.00
     AMIN     =   0.10
     WC   =   100.;   INIMIX=   1;  MIXPRE=   1;  MAXMIX=  50

 Intra band minimization:
   WEIMIN = 0.0010     energy-eigenvalue tresh-hold
   EBREAK =  0.19E-09  absolut break condition
   DEPER  =   0.30     relativ break condition  

   TIME   =   0.40     timestep for ELM

  volume/ion in A,a.u.               =      64.01       431.93
  Fermi-wavevector in a.u.,A,eV,Ry     =   1.072573  2.026869 15.652311  1.150412
  Thomas-Fermi vector in A             =   2.208347
 
 Write flags
   LWAVE        =      F    write WAVECAR
   LDOWNSAMPLE  =      F    k-point downsampling of WAVECAR
   LCHARG       =      F    write CHGCAR
   LVTOT        =      F    write LOCPOT, total local potential
   LVHAR        =      F    write LOCPOT, Hartree potential only
   LELF         =      F    write electronic localiz. function (ELF)
   LORBIT       =      0    0 simple, 1 ext, 2 COOP (PROOUT), +10 PAW based schemes


 Dipole corrections
   LMONO  =      F    monopole corrections only (constant potential shift)
   LDIPOL =      F    correct potential (dipole corrections)
   IDIPOL =      0    1-x, 2-y, 3-z, 4-all directions 
   EPSILON=  1.0000000 bulk dielectric constant

 Exchange correlation treatment:
   GGA     =    PE    GGA type
   LEXCH   =     8    internal setting for exchange type
   VOSKOWN=      0    Vosko Wilk Nusair interpolation
   LHFCALC =     F    Hartree Fock is set to
   LHFONE  =     F    Hartree Fock one center treatment
   AEXX    =    0.0000 exact exchange contribution

 Linear response parameters
   LEPSILON=     F    determine dielectric tensor
   LRPA    =     F    only Hartree local field effects (RPA)
   LNABLA  =     F    use nabla operator in PAW spheres
   LVEL    =     F    velocity operator in full k-point grid
   LINTERFAST=   F  fast interpolation
   KINTER  =     0    interpolate to denser k-point grid
   CSHIFT  =0.1000    complex shift for real part using Kramers Kronig
   OMEGAMAX=  -1.0    maximum frequency
   DEG_THRESHOLD= 0.2000000E-02 threshold for treating states as degnerate
   RTIME   =   -0.100 relaxation time in fs
  (WPLASMAI=    0.000 imaginary part of plasma frequency in eV, 0.658/RTIME)
   DFIELD  = 0.0000000 0.0000000 0.0000000 field for delta impulse in time
 
 Orbital magnetization related:
   ORBITALMAG=     F  switch on orbital magnetization
   LCHIMAG   =     F  perturbation theory with respect to B field
   DQ        =  0.001000  dq finite difference perturbation B field
   LLRAUG    =     F  two centre corrections for induced B field



--------------------------------------------------------------------------------------------------------


 quasi-Newton-method for relaxation of ions
 charge density and potential will be updated during run
 non-spin polarized calculation
 RMM-DIIS sequential band-by-band and
  variant of blocked Davidson during initial phase
 perform sub-space diagonalisation
    before iterative eigenvector-optimisation
 modified Broyden-mixing scheme, WC =      100.0
 initial mixing is a Kerker type mixing with AMIX =  0.4000 and BMIX =      1.0000
 Hartree-type preconditioning will be used
 using additional bands            4
 reciprocal scheme for non local part
 use partial core corrections
 calculate Harris-corrections to forces 
   (improved forces if not selfconsistent)
 use gradient corrections 
 use of overlap-Matrix (Vanderbilt PP)
 Methfessel and Paxton  Order N= 1 SIGMA  =   0.05


--------------------------------------------------------------------------------------------------------


  energy-cutoff  :      600.00
  volume of cell :       64.01
      direct lattice vectors                 reciprocal lattice vectors
     4.489974693  0.000000000  0.000000000     0.222718405 -0.128586531 -0.090924408
     2.244987346  3.888432146 -0.000000000     0.000000000  0.257173062 -0.090924408
     2.244987346  1.296144049  3.666048985    -0.000000000  0.000000000  0.272773224

  length of vectors
     4.489974693  4.489974693  4.489974693     0.272773224  0.272773224  0.272773224


 
 k-points in units of 2pi/SCALE and weight: read from INCAR                         
   0.00000000  0.00000000  0.00000000       0.001
   0.02474649 -0.01428739 -0.01010271       0.011
   0.04949298 -0.02857478 -0.02020542       0.011
   0.07423947 -0.04286218 -0.03030814       0.011
   0.09898596 -0.05714957 -0.04041085       0.011
   0.02474649  0.01428739 -0.02020542       0.008
   0.04949298 -0.00000000 -0.03030814       0.033
   0.07423947 -0.01428739 -0.04041085       0.033
   0.09898596 -0.02857478 -0.05051356       0.033
  -0.09898596  0.08572435  0.03030814       0.033
  -0.07423947  0.07143696  0.02020542       0.033
  -0.04949298  0.05714957  0.01010271       0.033
  -0.02474649  0.04286218 -0.00000000       0.016
   0.04949298  0.02857478 -0.04041085       0.008
   0.07423947  0.01428739 -0.05051356       0.033
   0.09898596  0.00000000 -0.06061627       0.033
  -0.09898596  0.11429914  0.02020542       0.033
  -0.07423947  0.10001175  0.01010271       0.033
  -0.04949298  0.08572435  0.00000000       0.016
   0.07423947  0.04286218 -0.06061627       0.008
   0.09898596  0.02857478 -0.07071898       0.033
  -0.09898596  0.14287392  0.01010271       0.033
  -0.07423947  0.12858653  0.00000000       0.016
   0.09898596  0.05714957 -0.08082170       0.008
  -0.09898596  0.17144871  0.00000000       0.016
   0.07423947  0.01428739 -0.02020542       0.033
   0.09898596  0.00000000 -0.03030814       0.066
  -0.09898596  0.11429914  0.05051356       0.066
   0.09898596  0.02857478 -0.04041085       0.033
  -0.09898596  0.14287392  0.04041085       0.066
  -0.07423947  0.12858653  0.03030814       0.066
  -0.04949298  0.11429914  0.02020542       0.033
  -0.09898596  0.17144871  0.03030814       0.033
  -0.07423947  0.15716132  0.02020542       0.033
  -0.07423947  0.15716132  0.05051356       0.033
 
 k-points in reciprocal lattice and weights: read from INCAR                         
   0.00000000  0.00000000  0.00000000       0.001
   0.11111111  0.00000000  0.00000000       0.011
   0.22222222  0.00000000  0.00000000       0.011
   0.33333333 -0.00000000  0.00000000       0.011
   0.44444444  0.00000000  0.00000000       0.011
   0.11111111  0.11111111  0.00000000       0.008
   0.22222222  0.11111111  0.00000000       0.033
   0.33333333  0.11111111  0.00000000       0.033
   0.44444444  0.11111111  0.00000000       0.033
  -0.44444444  0.11111111 -0.00000000       0.033
  -0.33333333  0.11111111 -0.00000000       0.033
  -0.22222222  0.11111111 -0.00000000       0.033
  -0.11111111  0.11111111 -0.00000000       0.016
   0.22222222  0.22222222  0.00000000       0.008
   0.33333333  0.22222222  0.00000000       0.033
   0.44444444  0.22222222  0.00000000       0.033
  -0.44444444  0.22222222 -0.00000000       0.033
  -0.33333333  0.22222222 -0.00000000       0.033
  -0.22222222  0.22222222 -0.00000000       0.016
   0.33333333  0.33333333  0.00000000       0.008
   0.44444444  0.33333333  0.00000000       0.033
  -0.44444444  0.33333333 -0.00000000       0.033
  -0.33333333  0.33333333  0.00000000       0.016
   0.44444444  0.44444444  0.00000000       0.008
  -0.44444444  0.44444444 -0.00000000       0.016
   0.33333333  0.22222222  0.11111111       0.033
   0.44444444  0.22222222  0.11111111       0.066
  -0.44444444  0.22222222  0.11111111       0.066
   0.44444444  0.33333333  0.11111111       0.033
  -0.44444444  0.33333333  0.11111111       0.066
  -0.33333333  0.33333333  0.11111111       0.066
  -0.22222222  0.33333333  0.11111111       0.033
  -0.44444444  0.44444444  0.11111111       0.033
  -0.33333333  0.44444444  0.11111111       0.033
  -0.33333333  0.44444444  0.22222222       0.033
 
 position of ions in fractional coordinates (direct lattice) 
   0.00000000  0.00000000  0.00000000
 
 position of ions in cartesian coordinates  (Angst):
   0.00000000  0.00000000  0.00000000
 


--------------------------------------------------------------------------------------------------------


 k-point  1 :   0.0000 0.0000 0.0000  plane waves:    2109
 k-point  2 :   0.1111 0.0000 0.0000  plane waves:    2118
 k-point  3 :   0.2222 0.0000 0.0000  plane waves:    2115
 k-point  4 :   0.3333-0.0000 0.0000  plane waves:    2138
 k-point  5 :   0.4444 0.0000 0.0000  plane waves:    2117
 k-point  6 :   0.1111 0.1111 0.0000  plane waves:    2133
 k-point  7 :   0.2222 0.1111 0.0000  plane waves:    2127
 k-point  8 :   0.3333 0.1111 0.0000  plane waves:    2137
 k-point  9 :   0.4444 0.1111 0.0000  plane waves:    2127
 k-point 10 :  -0.4444 0.1111-0.0000  plane waves:    2134
 k-point 11 :  -0.3333 0.1111-0.0000  plane waves:    2129
 k-point 12 :  -0.2222 0.1111-0.0000  plane waves:    2125
 k-point 13 :  -0.1111 0.1111-0.0000  plane waves:    2127
 k-point 14 :   0.2222 0.2222 0.0000  plane waves:    2121
 k-point 15 :   0.3333 0.2222 0.0000  plane waves:    2122
 k-point 16 :   0.4444 0.2222 0.0000  plane waves:    2135
 k-point 17 :  -0.4444 0.2222-0.0000  plane waves:    2137
 k-point 18 :  -0.3333 0.2222-0.0000  plane waves:    2143
 k-point 19 :  -0.2222 0.2222-0.0000  plane waves:    2131
 k-point 20 :   0.3333 0.3333 0.0000  plane waves:    2129
 k-point 21 :   0.4444 0.3333 0.0000  plane waves:    2142
 k-point 22 :  -0.4444 0.3333-0.0000  plane waves:    2137
 k-point 23 :  -0.3333 0.3333 0.0000  plane waves:    2121
 k-point 24 :   0.4444 0.4444 0.0000  plane waves:    2140
 k-point 25 :  -0.4444 0.4444-0.0000  plane waves:    2145
 k-point 26 :   0.3333 0.2222 0.1111  plane waves:    2134
 k-point 27 :   0.4444 0.2222 0.1111  plane waves:    2132
 k-point 28 :  -0.4444 0.2222 0.1111  plane waves:    2147
 k-point 29 :   0.4444 0.3333 0.1111  plane waves:    2136
 k-point 30 :  -0.4444 0.3333 0.1111  plane waves:    2140
 k-point 31 :  -0.3333 0.3333 0.1111  plane waves:    2142
 k-point 32 :  -0.2222 0.3333 0.1111  plane waves:    2140
 k-point 33 :  -0.4444 0.4444 0.1111  plane waves:    2141
 k-point 34 :  -0.3333 0.4444 0.1111  plane waves:    2146
 k-point 35 :  -0.3333 0.4444 0.2222  plane waves:    2165

 maximum and minimum number of plane-waves per node :      1083     1047

 maximum number of plane-waves:      2165
 maximum index in each direction: 
   IXMAX=    9   IYMAX=    8   IZMAX=    8
   IXMIN=   -9   IYMIN=   -9   IZMIN=   -9


 parallel 3D FFT for wavefunctions:
    minimum data exchange during FFTs selected (reduces bandwidth)
 parallel 3D FFT for charge:
    minimum data exchange during FFTs selected (reduces bandwidth)


 total amount of memory used by VASP MPI-rank0    81826. kBytes
=======================================================================

   base      :      30000. kBytes
   nonl-proj :       5470. kBytes
   fftplans  :      28266. kBytes
   grid      :      10067. kBytes
   one-center:         15. kBytes
   wavefun   :       8008. kBytes
 
     INWAV:  cpu time    0.0000: real time    0.0001
 Broyden mixing: mesh for mixing (old mesh)
   NGX = 17   NGY = 17   NGZ = 17
  (NGX  = 72   NGY  = 72   NGZ  = 72)
  gives a total of   4913 points

 initial charge density was supplied:
 charge density of overlapping atoms calculated
 number of electron      18.0000000 magnetization 
 keeping initial charge density in first step


--------------------------------------------------------------------------------------------------------


 Maximum index for augmentation-charges       170001 (set IRDMAX)


--------------------------------------------------------------------------------------------------------


 First call to EWALD:  gamma=   0.443
 Maximum number of real-space cells 3x 3x 3
 Maximum number of reciprocal cells 3x 3x 3

    FEWALD:  cpu time    0.0025: real time    0.0025


--------------------------------------- Iteration      1(   1)  ---------------------------------------


    POTLOK:  cpu time    0.0784: real time    0.0798
    SETDIJ:  cpu time    0.1435: real time    0.1434
     EDDAV:  cpu time    0.2770: real time    0.2767
       DOS:  cpu time    0.0005: real time    0.0005
    --------------------------------------------
      LOOP:  cpu time    0.4994: real time    0.5004

 eigenvalue-minimisations  :   926
 total energy-change (2. order) : 0.2972862E+03  (-0.9498044E+03)
 number of electron      18.0000000 magnetization 
 augmentation part       18.0000000 magnetization 

 Free energy of the ion-electron system (eV)
  ---------------------------------------------------
  alpha Z        PSCENC =        59.60834591
  Ewald energy   TEWEN  =     -1684.37377873
  -Hartree energ DENC   =      -697.96555248
  -exchange      EXHF   =         0.00000000
  -V(xc)+E(xc)   XCENC  =       -69.40551690
  PAW double counting   =      2268.42939301    -2184.22833953
  entropy T*S    EENTRO =        -0.00037738
  eigenvalues    EBANDS =       -35.30668669
  atomic energy  EATOM  =      2640.52872706
  Solvation  Ediel_sol  =         0.00000000
  ---------------------------------------------------
  free energy    TOTEN  =       297.28621425 eV

  energy without entropy =      297.28659164  energy(sigma->0) =      297.28634005


--------------------------------------------------------------------------------------------------------




--------------------------------------- Iteration      1(   2)  ---------------------------------------


     EDDAV:  cpu time    0.3151: real time    0.3153
       DOS:  cpu time    0.0005: real time    0.0005
    --------------------------------------------
      LOOP:  cpu time    0.3155: real time    0.3157

 eigenvalue-minimisations  :  1145
 total energy-change (2. order) :-0.2871201E+03  (-0.2802099E+03)
 number of electron      18.0000000 magnetization 
 augmentation part       18.0000000 magnetization 

 Free energy of the ion-electron system (eV)
  ---------------------------------------------------
  alpha Z        PSCENC =        59.60834591
  Ewald energy   TEWEN  =     -1684.37377873
  -Hartree energ DENC   =      -697.96555248
  -exchange      EXHF   =         0.00000000
  -V(xc)+E(xc)   XCENC  =       -69.40551690
  PAW double counting   =      2268.42939301    -2184.22833953
  entropy T*S    EENTRO =         0.00019088
  eigenvalues    EBANDS =      -322.42738285
  atomic energy  EATOM  =      2640.52872706
  Solvation  Ediel_sol  =         0.00000000
  ---------------------------------------------------
  free energy    TOTEN  =        10.16608635 eV

  energy without entropy =       10.16589547  energy(sigma->0) =       10.16602273


--------------------------------------------------------------------------------------------------------




--------------------------------------- Iteration      1(   3)  ---------------------------------------


     EDDAV:  cpu time    0.3109: real time    0.3107
       DOS:  cpu time    0.0004: real time    0.0004
    --------------------------------------------
      LOOP:  cpu time    0.3113: real time    0.3112

 eigenvalue-minimisations  :  1110
 total energy-change (2. order) :-0.9940591E+01  (-0.9925297E+01)
 number of electron      18.0000000 magnetization 
 augmentation part       18.0000000 magnetization 

 Free energy of the ion-electron system (eV)
  ---------------------------------------------------
  alpha Z        PSCENC =        59.60834591
  Ewald energy   TEWEN  =     -1684.37377873
  -Hartree energ DENC   =      -697.96555248
  -exchange      EXHF   =         0.00000000
  -V(xc)+E(xc)   XCENC  =       -69.40551690
  PAW double counting   =      2268.42939301    -2184.22833953
  entropy T*S    EENTRO =         0.00019092
  eigenvalues    EBANDS =      -332.36797431
  atomic energy  EATOM  =      2640.52872706
  Solvation  Ediel_sol  =         0.00000000
  ---------------------------------------------------
  free energy    TOTEN  =         0.22549493 eV

  energy without entropy =        0.22530401  energy(sigma->0) =        0.22543129


--------------------------------------------------------------------------------------------------------




--------------------------------------- Iteration      1(   4)  ---------------------------------------


     EDDAV:  cpu time    0.3484: real time    0.3482
       DOS:  cpu time    0.0004: real time    0.0004
    --------------------------------------------
      LOOP:  cpu time    0.3488: real time    0.3486

 eigenvalue-minimisations  :  1311
 total energy-change (2. order) :-0.1839662E+00  (-0.1839064E+00)
 number of electron      18.0000000 magnetization 
 augmentation part       18.0000000 magnetization 

 Free energy of the ion-electron system (eV)
  ---------------------------------------------------
  alpha Z        PSCENC =        59.60834591
  Ewald energy   TEWEN  =     -1684.37377873
  -Hartree energ DENC   =      -697.96555248
  -exchange      EXHF   =         0.00000000
  -V(xc)+E(xc)   XCENC  =       -69.40551690
  PAW double counting   =      2268.42939301    -2184.22833953
  entropy T*S    EENTRO =         0.00018117
  eigenvalues    EBANDS =      -332.55193075
  atomic energy  EATOM  =      2640.52872706
  Solvation  Ediel_sol  =         0.00000000
  ---------------------------------------------------
  free energy    TOTEN  =         0.04152875 eV

  energy without entropy =        0.04134757  energy(sigma->0) =        0.04146836


--------------------------------------------------------------------------------------------------------




--------------------------------------- Iteration      1(   5)  ---------------------------------------


     EDDAV:  cpu time    0.3149: real time    0.3147
       DOS:  cpu time    0.0004: real time    0.0004
    CHARGE:  cpu time    0.1056: real time    0.1055
    MIXING:  cpu time    0.0479: real time    0.0479
    --------------------------------------------
      LOOP:  cpu time    0.4688: real time    0.4686

 eigenvalue-minimisations  :  1198
 total energy-change (2. order) :-0.6258280E-02  (-0.6258061E-02)
 number of electron      18.0000000 magnetization 
 augmentation part        2.9933322 magnetization 

 Broyden mixing:
  rms(total) = 0.15048E-01    rms(broyden)= 0.13284E-01
  rms(prec ) = 0.30380E-01
  weight for this iteration     100.00
  WARNING: grid for Broyden might be to small

 Free energy of the ion-electron system (eV)
  ---------------------------------------------------
  alpha Z        PSCENC =        59.60834591
  Ewald energy   TEWEN  =     -1684.37377873
  -Hartree energ DENC   =      -697.96555248
  -exchange      EXHF   =         0.00000000
  -V(xc)+E(xc)   XCENC  =       -69.40551690
  PAW double counting   =      2268.42939301    -2184.22833953
  entropy T*S    EENTRO =         0.00018098
  eigenvalues    EBANDS =      -332.55818884
  atomic energy  EATOM  =      2640.52872706
  Solvation  Ediel_sol  =         0.00000000
  ---------------------------------------------------
  free energy    TOTEN  =         0.03527047 eV

  energy without entropy =        0.03508949  energy(sigma->0) =        0.03521014


--------------------------------------------------------------------------------------------------------




--------------------------------------- Iteration      1(   6)  ---------------------------------------


    POTLOK:  cpu time    0.0766: real time    0.0767
    SETDIJ:  cpu time    0.1038: real time    0.1037
    EDDIAG:  cpu time    0.0527: real time    0.0526
  RMM-DIIS:  cpu time    0.2592: real time    0.2590
    ORTHCH:  cpu time    0.0014: real time    0.0014
       DOS:  cpu time    0.0005: real time    0.0004
    CHARGE:  cpu time    0.1091: real time    0.1091
    MIXING:  cpu time    0.0235: real time    0.0235
    --------------------------------------------
      LOOP:  cpu time    0.6268: real time    0.6265

 eigenvalue-minimisations  :   983
 total energy-change (2. order) :-0.6939854E-03  (-0.3420997E-03)
 number of electron      18.0000000 magnetization 
 augmentation part        2.9922936 magnetization 

 Broyden mixing:
  rms(total) = 0.79405E-02    rms(broyden)= 0.78158E-02
  rms(prec ) = 0.18359E-01
  weight for this iteration     100.00

 eigenvalues of (default mixing * dielectric matrix)
  average eigenvalue GAMMA=   2.3374
  2.3374

 Free energy of the ion-electron system (eV)
  ---------------------------------------------------
  alpha Z        PSCENC =        59.60834591
  Ewald energy   TEWEN  =     -1684.37377873
  -Hartree energ DENC   =      -697.69879094
  -exchange      EXHF   =         0.00000000
  -V(xc)+E(xc)   XCENC  =       -69.42407980
  PAW double counting   =      2266.22699356    -2182.00099600
  entropy T*S    EENTRO =         0.00018098
  eigenvalues    EBANDS =      -332.83202554
  atomic energy  EATOM  =      2640.52872706
  Solvation  Ediel_sol  =         0.00000000
  ---------------------------------------------------
  free energy    TOTEN  =         0.03457648 eV

  energy without entropy =        0.03439551  energy(sigma->0) =        0.03451616


--------------------------------------------------------------------------------------------------------




--------------------------------------- Iteration      1(   7)  ---------------------------------------


    POTLOK:  cpu time    0.0776: real time    0.0777
    SETDIJ:  cpu time    0.1014: real time    0.1014
    EDDIAG:  cpu time    0.0619: real time    0.0619
  RMM-DIIS:  cpu time    0.2608: real time    0.2606
    ORTHCH:  cpu time    0.0014: real time    0.0014
       DOS:  cpu time    0.0004: real time    0.0004
    CHARGE:  cpu time    0.1029: real time    0.1029
    MIXING:  cpu time    0.0244: real time    0.0243
    --------------------------------------------
      LOOP:  cpu time    0.6308: real time    0.6305

 eigenvalue-minimisations  :   994
 total energy-change (2. order) :-0.3549677E-03  (-0.1137960E-03)
 number of electron      18.0000000 magnetization 
 augmentation part        2.9916504 magnetization 

 Broyden mixing:
  rms(total) = 0.11162E-02    rms(broyden)= 0.10810E-02
  rms(prec ) = 0.23176E-02
  weight for this iteration     100.00

 eigenvalues of (default mixing * dielectric matrix)
  average eigenvalue GAMMA=   2.1292
  1.5764  2.6819

 Free energy of the ion-electron system (eV)
  ---------------------------------------------------
  alpha Z        PSCENC =        59.60834591
  Ewald energy   TEWEN  =     -1684.37377873
  -Hartree energ DENC   =      -697.28252110
  -exchange      EXHF   =         0.00000000
  -V(xc)+E(xc)   XCENC  =       -69.44991429
  PAW double counting   =      2264.00489590    -2179.75596874
  entropy T*S    EENTRO =         0.00018104
  eigenvalues    EBANDS =      -333.24574552
  atomic energy  EATOM  =      2640.52872706
  Solvation  Ediel_sol  =         0.00000000
  ---------------------------------------------------
  free energy    TOTEN  =         0.03422152 eV

  energy without entropy =        0.03404048  energy(sigma->0) =        0.03416117


--------------------------------------------------------------------------------------------------------




--------------------------------------- Iteration      1(   8)  ---------------------------------------


    POTLOK:  cpu time    0.0760: real time    0.0761
    SETDIJ:  cpu time    0.1038: real time    0.1037
    EDDIAG:  cpu time    0.0625: real time    0.0624
  RMM-DIIS:  cpu time    0.2459: real time    0.2457
    ORTHCH:  cpu time    0.0013: real time    0.0013
       DOS:  cpu time    0.0004: real time    0.0004
    CHARGE:  cpu time    0.1027: real time    0.1026
    MIXING:  cpu time    0.0251: real time    0.0251
    --------------------------------------------
      LOOP:  cpu time    0.6178: real time    0.6174

 eigenvalue-minimisations  :  1034
 total energy-change (2. order) :-0.2461833E-04  (-0.1120933E-04)
 number of electron      18.0000000 magnetization 
 augmentation part        2.9914073 magnetization 

 Broyden mixing:
  rms(total) = 0.67336E-03    rms(broyden)= 0.67096E-03
  rms(prec ) = 0.12529E-02
  weight for this iteration     100.00

 eigenvalues of (default mixing * dielectric matrix)
  average eigenvalue GAMMA=   2.0716
  2.9710  2.4082  0.8354

 Free energy of the ion-electron system (eV)
  ---------------------------------------------------
  alpha Z        PSCENC =        59.60834591
  Ewald energy   TEWEN  =     -1684.37377873
  -Hartree energ DENC   =      -697.26501818
  -exchange      EXHF   =         0.00000000
  -V(xc)+E(xc)   XCENC  =       -69.45041223
  PAW double counting   =      2264.83206187    -2180.59743342
  entropy T*S    EENTRO =         0.00018105
  eigenvalues    EBANDS =      -333.24847643
  atomic energy  EATOM  =      2640.52872706
  Solvation  Ediel_sol  =         0.00000000
  ---------------------------------------------------
  free energy    TOTEN  =         0.03419690 eV

  energy without entropy =        0.03401584  energy(sigma->0) =        0.03413655


--------------------------------------------------------------------------------------------------------




--------------------------------------- Iteration      1(   9)  ---------------------------------------


    POTLOK:  cpu time    0.0757: real time    0.0758
    SETDIJ:  cpu time    0.1026: real time    0.1025
    EDDIAG:  cpu time    0.0545: real time    0.0544
  RMM-DIIS:  cpu time    0.2983: real time    0.2981
    ORTHCH:  cpu time    0.0014: real time    0.0014
       DOS:  cpu time    0.0005: real time    0.0004
    CHARGE:  cpu time    0.1036: real time    0.1035
    MIXING:  cpu time    0.0368: real time    0.0367
    --------------------------------------------
      LOOP:  cpu time    0.6734: real time    0.6729

 eigenvalue-minimisations  :  1128
 total energy-change (2. order) :-0.9291506E-05  (-0.2765114E-05)
 number of electron      18.0000000 magnetization 
 augmentation part        2.9913782 magnetization 

 Broyden mixing:
  rms(total) = 0.15308E-03    rms(broyden)= 0.15254E-03
  rms(prec ) = 0.33704E-03
  weight for this iteration     100.00

 eigenvalues of (default mixing * dielectric matrix)
  average eigenvalue GAMMA=   1.9393
  3.0287  2.4190  0.9231  1.3865

 Free energy of the ion-electron system (eV)
  ---------------------------------------------------
  alpha Z        PSCENC =        59.60834591
  Ewald energy   TEWEN  =     -1684.37377873
  -Hartree energ DENC   =      -697.25908783
  -exchange      EXHF   =         0.00000000
  -V(xc)+E(xc)   XCENC  =       -69.44955001
  PAW double counting   =      2265.69923447    -2181.47662192
  entropy T*S    EENTRO =         0.00018106
  eigenvalues    EBANDS =      -333.24326241
  atomic energy  EATOM  =      2640.52872706
  Solvation  Ediel_sol  =         0.00000000
  ---------------------------------------------------
  free energy    TOTEN  =         0.03418761 eV

  energy without entropy =        0.03400654  energy(sigma->0) =        0.03412725


--------------------------------------------------------------------------------------------------------




--------------------------------------- Iteration      1(  10)  ---------------------------------------


    POTLOK:  cpu time    0.0785: real time    0.0786
    SETDIJ:  cpu time    0.1219: real time    0.1218
    EDDIAG:  cpu time    0.0547: real time    0.0546
  RMM-DIIS:  cpu time    0.2811: real time    0.2808
    ORTHCH:  cpu time    0.0013: real time    0.0014
       DOS:  cpu time    0.0005: real time    0.0005
    CHARGE:  cpu time    0.1048: real time    0.1048
    MIXING:  cpu time    0.0369: real time    0.0368
    --------------------------------------------
      LOOP:  cpu time    0.6796: real time    0.6792

 eigenvalue-minimisations  :  1041
 total energy-change (2. order) :-0.5612351E-06  (-0.3466334E-06)
 number of electron      18.0000000 magnetization 
 augmentation part        2.9913883 magnetization 

 Broyden mixing:
  rms(total) = 0.51393E-04    rms(broyden)= 0.51195E-04
  rms(prec ) = 0.10074E-03
  weight for this iteration     100.00

 eigenvalues of (default mixing * dielectric matrix)
  average eigenvalue GAMMA=   1.9049
  3.2501  2.5158  1.8704  0.9960  0.8924

 Free energy of the ion-electron system (eV)
  ---------------------------------------------------
  alpha Z        PSCENC =        59.60834591
  Ewald energy   TEWEN  =     -1684.37377873
  -Hartree energ DENC   =      -697.25091720
  -exchange      EXHF   =         0.00000000
  -V(xc)+E(xc)   XCENC  =       -69.44959580
  PAW double counting   =      2265.69862775    -2181.47475253
  entropy T*S    EENTRO =         0.00018106
  eigenvalues    EBANDS =      -333.25265046
  atomic energy  EATOM  =      2640.52872706
  Solvation  Ediel_sol  =         0.00000000
  ---------------------------------------------------
  free energy    TOTEN  =         0.03418704 eV

  energy without entropy =        0.03400598  energy(sigma->0) =        0.03412669


--------------------------------------------------------------------------------------------------------




--------------------------------------- Iteration      1(  11)  ---------------------------------------


    POTLOK:  cpu time    0.0758: real time    0.0758
    SETDIJ:  cpu time    0.1273: real time    0.1272
    EDDIAG:  cpu time    0.0543: real time    0.0543
  RMM-DIIS:  cpu time    0.2935: real time    0.2933
    ORTHCH:  cpu time    0.0013: real time    0.0014
       DOS:  cpu time    0.0005: real time    0.0005
    CHARGE:  cpu time    0.1039: real time    0.1039
    MIXING:  cpu time    0.0343: real time    0.0343
    --------------------------------------------
      LOOP:  cpu time    0.6911: real time    0.6906

 eigenvalue-minimisations  :  1101
 total energy-change (2. order) :-0.3533614E-06  (-0.8927440E-07)
 number of electron      18.0000000 magnetization 
 augmentation part        2.9914024 magnetization 

 Broyden mixing:
  rms(total) = 0.17020E-04    rms(broyden)= 0.16655E-04
  rms(prec ) = 0.45281E-04
  weight for this iteration     100.00

 eigenvalues of (default mixing * dielectric matrix)
  average eigenvalue GAMMA=   2.0856
  3.3140  0.8750  1.0231  2.5975  2.3521  2.3521

 Free energy of the ion-electron system (eV)
  ---------------------------------------------------
  alpha Z        PSCENC =        59.60834591
  Ewald energy   TEWEN  =     -1684.37377873
  -Hartree energ DENC   =      -697.25042560
  -exchange      EXHF   =         0.00000000
  -V(xc)+E(xc)   XCENC  =       -69.44948164
  PAW double counting   =      2265.72830992    -2181.50450971
  entropy T*S    EENTRO =         0.00018106
  eigenvalues    EBANDS =      -333.25318158
  atomic energy  EATOM  =      2640.52872706
  Solvation  Ediel_sol  =         0.00000000
  ---------------------------------------------------
  free energy    TOTEN  =         0.03418669 eV

  energy without entropy =        0.03400563  energy(sigma->0) =        0.03412634


--------------------------------------------------------------------------------------------------------




--------------------------------------- Iteration      1(  12)  ---------------------------------------


    POTLOK:  cpu time    0.0757: real time    0.0758
    SETDIJ:  cpu time    0.1226: real time    0.1225
    EDDIAG:  cpu time    0.0518: real time    0.0517
  RMM-DIIS:  cpu time    0.2232: real time    0.2231
    ORTHCH:  cpu time    0.0014: real time    0.0014
       DOS:  cpu time    0.0005: real time    0.0005
    CHARGE:  cpu time    0.1044: real time    0.1044
    MIXING:  cpu time    0.0279: real time    0.0278
    --------------------------------------------
      LOOP:  cpu time    0.6075: real time    0.6071

 eigenvalue-minimisations  :   809
 total energy-change (2. order) :-0.1120093E-06  (-0.9833665E-08)
 number of electron      18.0000000 magnetization 
 augmentation part        2.9913933 magnetization 

 Broyden mixing:
  rms(total) = 0.14697E-04    rms(broyden)= 0.14305E-04
  rms(prec ) = 0.50536E-04
  weight for this iteration     100.00

 eigenvalues of (default mixing * dielectric matrix)
  average eigenvalue GAMMA=   1.9230
  3.4695  2.8953  2.5169  1.6613  1.0920  0.8540  0.9718

 Free energy of the ion-electron system (eV)
  ---------------------------------------------------
  alpha Z        PSCENC =        59.60834591
  Ewald energy   TEWEN  =     -1684.37377873
  -Hartree energ DENC   =      -697.25357043
  -exchange      EXHF   =         0.00000000
  -V(xc)+E(xc)   XCENC  =       -69.44941169
  PAW double counting   =      2265.74248317    -2181.51908720
  entropy T*S    EENTRO =         0.00018106
  eigenvalues    EBANDS =      -333.24970257
  atomic energy  EATOM  =      2640.52872706
  Solvation  Ediel_sol  =         0.00000000
  ---------------------------------------------------
  free energy    TOTEN  =         0.03418658 eV

  energy without entropy =        0.03400552  energy(sigma->0) =        0.03412622


--------------------------------------------------------------------------------------------------------




--------------------------------------- Iteration      1(  13)  ---------------------------------------


    POTLOK:  cpu time    0.0773: real time    0.0773
    SETDIJ:  cpu time    0.1186: real time    0.1185
    EDDIAG:  cpu time    0.0546: real time    0.0545
  RMM-DIIS:  cpu time    0.1798: real time    0.1797
    ORTHCH:  cpu time    0.0014: real time    0.0014
       DOS:  cpu time    0.0005: real time    0.0005
    CHARGE:  cpu time    0.1045: real time    0.1044
    MIXING:  cpu time    0.0367: real time    0.0367
    --------------------------------------------
      LOOP:  cpu time    0.5733: real time    0.5730

 eigenvalue-minimisations  :   631
 total energy-change (2. order) : 0.6348637E-07  (-0.2501583E-08)
 number of electron      18.0000000 magnetization 
 augmentation part        2.9914001 magnetization 

 Broyden mixing:
  rms(total) = 0.39343E-05    rms(broyden)= 0.20270E-05
  rms(prec ) = 0.56032E-05
  weight for this iteration     100.00
  WARNING: grid for Broyden might be to small

 eigenvalues of (default mixing * dielectric matrix)
  average eigenvalue GAMMA=   1.8508
  3.4817  3.0152  2.5012  1.5328  1.5328  0.9529  0.9529  0.8370

 Free energy of the ion-electron system (eV)
  ---------------------------------------------------
  alpha Z        PSCENC =        59.60834591
  Ewald energy   TEWEN  =     -1684.37377873
  -Hartree energ DENC   =      -697.25192527
  -exchange      EXHF   =         0.00000000
  -V(xc)+E(xc)   XCENC  =       -69.44946104
  PAW double counting   =      2265.72619600    -2181.50241894
  entropy T*S    EENTRO =         0.00018106
  eigenvalues    EBANDS =      -333.25167941
  atomic energy  EATOM  =      2640.52872706
  Solvation  Ediel_sol  =         0.00000000
  ---------------------------------------------------
  free energy    TOTEN  =         0.03418664 eV

  energy without entropy =        0.03400558  energy(sigma->0) =        0.03412629


--------------------------------------------------------------------------------------------------------




--------------------------------------- Iteration      1(  14)  ---------------------------------------


    POTLOK:  cpu time    0.0760: real time    0.0761
    SETDIJ:  cpu time    0.1238: real time    0.1237
    EDDIAG:  cpu time    0.0539: real time    0.0538
  RMM-DIIS:  cpu time    0.1680: real time    0.1679
    ORTHCH:  cpu time    0.0014: real time    0.0014
       DOS:  cpu time    0.0004: real time    0.0005
    --------------------------------------------
      LOOP:  cpu time    0.4236: real time    0.4234

 eigenvalue-minimisations  :   585
 total energy-change (2. order) : 0.7113613E-08  (-0.6080326E-09)
 number of electron      18.0000000 magnetization 
 augmentation part        2.9914001 magnetization 

 Free energy of the ion-electron system (eV)
  ---------------------------------------------------
  alpha Z        PSCENC =        59.60834591
  Ewald energy   TEWEN  =     -1684.37377873
  -Hartree energ DENC   =      -697.25168466
  -exchange      EXHF   =         0.00000000
  -V(xc)+E(xc)   XCENC  =       -69.44946977
  PAW double counting   =      2265.72377489    -2181.49993987
  entropy T*S    EENTRO =         0.00018106
  eigenvalues    EBANDS =      -333.25196923
  atomic energy  EATOM  =      2640.52872706
  Solvation  Ediel_sol  =         0.00000000
  ---------------------------------------------------
  free energy    TOTEN  =         0.03418665 eV

  energy without entropy =        0.03400559  energy(sigma->0) =        0.03412630


--------------------------------------------------------------------------------------------------------




 average (electrostatic) potential at core
  the test charge radii are     1.2024
  (the norm of the test charge is              1.0000)
       1-113.1456
 
 
 
 E-fermi :   0.8928     XC(G=0):  -7.6880     alpha+bet : -6.8560


 k-point     1 :       0.0000    0.0000    0.0000
  band No.  band energies     occupation 
      1     -28.8087      2.00000
      2     -28.8087      2.00000
      3     -28.8087      2.00000
      4     -28.8064      2.00000
      5     -28.8064      2.00000
      6     -21.7970      2.00000
      7       0.8806      1.39964
      8       0.8806      1.39964
      9       0.8806      1.39964
     10       3.1666      0.00000
     11      10.0675      0.00000
     12      10.0675      0.00000
     13      10.0676      0.00000

 k-point     2 :       0.1111    0.0000    0.0000
  band No.  band energies     occupation 
      1     -28.8085      2.00000
      2     -28.8084      2.00000
      3     -28.8084      2.00000
      4     -28.8063      2.00000
      5     -28.8063      2.00000
      6     -21.7896      2.00000
      7       0.3104      2.00000
      8       0.8396      2.06092
      9       0.8396      2.06092
     10       3.8352      0.00000
     11       9.3542      0.00000
     12      10.1886      0.00000
     13      10.1886      0.00000

 k-point     3 :       0.2222    0.0000    0.0000
  band No.  band energies     occupation 
      1     -28.8080      2.00000
      2     -28.8080      2.00000
      3     -28.8080      2.00000
      4     -28.8057      2.00000
      5     -28.8057      2.00000
      6     -21.7707      2.00000
      7      -0.5750      2.00000
      8       0.7394      2.00013
      9       0.7394      2.00013
     10       4.8641      0.00000
     11       9.1157      0.00000
     12      10.2191      0.00000
     13      10.2192      0.00000

 k-point     4 :       0.3333   -0.0000    0.0000
  band No.  band energies     occupation 
      1     -28.8081      2.00000
      2     -28.8081      2.00000
      3     -28.8076      2.00000
      4     -28.8045      2.00000
      5     -28.8045      2.00000
      6     -21.7492      2.00000
      7      -1.2625      2.00000
      8       0.6307      2.00000
      9       0.6307      2.00000
     10       5.4263      0.00000
     11       9.8019      0.00000
     12       9.9010      0.00000
     13       9.9025      0.00000

 k-point     5 :       0.4444    0.0000    0.0000
  band No.  band energies     occupation 
      1     -28.8082      2.00000
      2     -28.8082      2.00000
      3     -28.8072      2.00000
      4     -28.8036      2.00000
      5     -28.8036      2.00000
      6     -21.7349      2.00000
      7      -1.6271      2.00000
      8       0.5625      2.00000
      9       0.5625      2.00000
     10       5.5525      0.00000
     11       9.6724      0.00000
     12       9.6724      0.00000
     13      10.0979      0.00000

 k-point     6 :       0.1111    0.1111    0.0000
  band No.  band energies     occupation 
      1     -28.8089      2.00000
      2     -28.8080      2.00000
      3     -28.8080      2.00000
      4     -28.8066      2.00000
      5     -28.8061      2.00000
      6     -21.7872      2.00000
      7       0.2797      2.00000
      8       0.7514      2.00047
      9       0.7514      2.00047
     10       4.0640      0.00000
     11       9.0628      0.00000
     12      10.3587      0.00000
     13      10.3703      0.00000

 k-point     7 :       0.2222    0.1111    0.0000
  band No.  band energies     occupation 
      1     -28.8088      2.00000
      2     -28.8074      2.00000
      3     -28.8074      2.00000
      4     -28.8064      2.00000
      5     -28.8055      2.00000
      6     -21.7721      2.00000
      7      -0.3842      2.00000
      8       0.6191      2.00000
      9       0.6558      2.00000
     10       4.9810      0.00000
     11       8.6900      0.00000
     12       9.8296      0.00000
     13      10.6098      0.00000

 k-point     8 :       0.3333    0.1111    0.0000
  band No.  band energies     occupation 
      1     -28.8084      2.00000
      2     -28.8074      2.00000
      3     -28.8074      2.00000
      4     -28.8054      2.00000
      5     -28.8044      2.00000
      6     -21.7514      2.00000
      7      -1.0550      2.00000
      8       0.5067      2.00000
      9       0.5091      2.00000
     10       5.7373      0.00000
     11       9.0286      0.00000
     12       9.1902      0.00000
     13      10.3920      0.00000

 k-point     9 :       0.4444    0.1111    0.0000
  band No.  band energies     occupation 
      1     -28.8083      2.00000
      2     -28.8076      2.00000
      3     -28.8070      2.00000
      4     -28.8043      2.00000
      5     -28.8035      2.00000
      6     -21.7347      2.00000
      7      -1.4810      2.00000
      8       0.3479      2.00000
      9       0.4618      2.00000
     10       5.9936      0.00000
     11       8.8271      0.00000
     12      10.0602      0.00000
     13      10.2203      0.00000

 k-point    10 :      -0.4444    0.1111   -0.0000
  band No.  band energies     occupation 
      1     -28.8082      2.00000
      2     -28.8077      2.00000
      3     -28.8069      2.00000
      4     -28.8037      2.00000
      5     -28.8036      2.00000
      6     -21.7300      2.00000
      7      -1.5880      2.00000
      8       0.2473      2.00000
      9       0.5017      2.00000
     10       6.0331      0.00000
     11       8.7725      0.00000
     12       9.8837      0.00000
     13      10.9849      0.00000

 k-point    11 :      -0.3333    0.1111   -0.0000
  band No.  band energies     occupation 
      1     -28.8080      2.00000
      2     -28.8076      2.00000
      3     -28.8072      2.00000
      4     -28.8046      2.00000
      5     -28.8039      2.00000
      6     -21.7395      2.00000
      7      -1.3645      2.00000
      8       0.2537      2.00000
      9       0.6108      2.00000
     10       5.9634      0.00000
     11       9.0193      0.00000
     12       9.9432      0.00000
     13       9.9530      0.00000

 k-point    12 :      -0.2222    0.1111   -0.0000
  band No.  band energies     occupation 
      1     -28.8079      2.00000
      2     -28.8077      2.00000
      3     -28.8075      2.00000
      4     -28.8060      2.00000
      5     -28.8047      2.00000
      6     -21.7586      2.00000
      7      -0.8534      2.00000
      8       0.3789      2.00000
      9       0.7433      2.00020
     10       5.5277      0.00000
     11       8.9982      0.00000
     12       9.5355      0.00000
     13      10.2447      0.00000

 k-point    13 :      -0.1111    0.1111   -0.0000
  band No.  band energies     occupation 
      1     -28.8084      2.00000
      2     -28.8080      2.00000
      3     -28.8079      2.00000
      4     -28.8065      2.00000
      5     -28.8057      2.00000
      6     -21.7784      2.00000
      7      -0.1896      2.00000
      8       0.6075      2.00000
      9       0.8362      2.06782
     10       4.5973      0.00000
     11       8.9639      0.00000
     12      10.1417      0.00000
     13      10.3415      0.00000

 k-point    14 :       0.2222    0.2222    0.0000
  band No.  band energies     occupation 
      1     -28.8094      2.00000
      2     -28.8071      2.00000
      3     -28.8062      2.00000
      4     -28.8062      2.00000
      5     -28.8053      2.00000
      6     -21.7620      2.00000
      7      -0.5570      2.00000
      8       0.4494      2.00000
      9       0.4494      2.00000
     10       5.5824      0.00000
     11       8.1367      0.00000
     12       9.3618      0.00000
     13      11.1174      0.00000

 k-point    15 :       0.3333    0.2222    0.0000
  band No.  band energies     occupation 
      1     -28.8093      2.00000
      2     -28.8073      2.00000
      3     -28.8059      2.00000
      4     -28.8052      2.00000
      5     -28.8043      2.00000
      6     -21.7452      2.00000
      7      -0.9700      2.00000
      8       0.2516      2.00000
      9       0.3113      2.00000
     10       6.2148      0.00000
     11       8.0244      0.00000
     12       8.9968      0.00000
     13      11.2742      0.00000

 k-point    16 :       0.4444    0.2222    0.0000
  band No.  band energies     occupation 
      1     -28.8088      2.00000
      2     -28.8070      2.00000
      3     -28.8061      2.00000
      4     -28.8046      2.00000
      5     -28.8034      2.00000
      6     -21.7294      2.00000
      7      -1.2812      2.00000
      8      -0.0401      2.00000
      9       0.2610      2.00000
     10       6.5812      0.00000
     11       8.4943      0.00000
     12       8.9215      0.00000
     13      10.9582      0.00000

 k-point    17 :      -0.4444    0.2222   -0.0000
  band No.  band energies     occupation 
      1     -28.8085      2.00000
      2     -28.8063      2.00000
      3     -28.8062      2.00000
      4     -28.8045      2.00000
      5     -28.8035      2.00000
      6     -21.7222      2.00000
      7      -1.3741      2.00000
      8      -0.3051      2.00000
      9       0.3170      2.00000
     10       6.7721      0.00000
     11       8.4241      0.00000
     12      10.1343      0.00000
     13      10.6367      0.00000

 k-point    18 :      -0.3333    0.2222   -0.0000
  band No.  band energies     occupation 
      1     -28.8082      2.00000
      2     -28.8063      2.00000
      3     -28.8063      2.00000
      4     -28.8046      2.00000
      5     -28.8043      2.00000
      6     -21.7269      2.00000
      7      -1.2720      2.00000
      8      -0.3736      2.00000
      9       0.4589      2.00000
     10       6.8920      0.00000
     11       8.4373      0.00000
     12       9.9284      0.00000
     13      10.4718      0.00000

 k-point    19 :      -0.2222    0.2222   -0.0000
  band No.  band energies     occupation 
      1     -28.8079      2.00000
      2     -28.8071      2.00000
      3     -28.8062      2.00000
      4     -28.8062      2.00000
      5     -28.8041      2.00000
      6     -21.7413      2.00000
      7      -1.0853      2.00000
      8      -0.1148      2.00000
      9       0.6283      2.00000
     10       6.4969      0.00000
     11       8.7798      0.00000
     12       9.0400      0.00000
     13      10.4377      0.00000

 k-point    20 :       0.3333    0.3333    0.0000
  band No.  band energies     occupation 
      1     -28.8100      2.00000
      2     -28.8076      2.00000
      3     -28.8045      2.00000
      4     -28.8042      2.00000
      5     -28.8042      2.00000
      6     -21.7334      2.00000
      7      -1.1455      2.00000
      8       0.1409      2.00000
      9       0.1409      2.00000
     10       6.1939      0.00000
     11       7.5128      0.00000
     12       9.6882      0.00000
     13      12.1151      0.00000

 k-point    21 :       0.4444    0.3333    0.0000
  band No.  band energies     occupation 
      1     -28.8098      2.00000
      2     -28.8077      2.00000
      3     -28.8046      2.00000
      4     -28.8036      2.00000
      5     -28.8033      2.00000
      6     -21.7215      2.00000
      7      -1.3044      2.00000
      8      -0.1055      2.00000
      9       0.0647      2.00000
     10       6.2696      0.00000
     11       7.5897      0.00000
     12      10.0852      0.00000
     13      12.1453      0.00000

 k-point    22 :      -0.4444    0.3333   -0.0000
  band No.  band energies     occupation 
      1     -28.8091      2.00000
      2     -28.8070      2.00000
      3     -28.8048      2.00000
      4     -28.8039      2.00000
      5     -28.8033      2.00000
      6     -21.7151      2.00000
      7      -1.2466      2.00000
      8      -0.5392      2.00000
      9       0.1099      2.00000
     10       6.5367      0.00000
     11       8.3429      0.00000
     12      10.0694      0.00000
     13      11.7494      0.00000

 k-point    23 :      -0.3333    0.3333    0.0000
  band No.  band energies     occupation 
      1     -28.8086      2.00000
      2     -28.8056      2.00000
      3     -28.8051      2.00000
      4     -28.8049      2.00000
      5     -28.8041      2.00000
      6     -21.7172      2.00000
      7      -0.9853      2.00000
      8      -0.9145      2.00000
      9       0.2609      2.00000
     10       6.8887      0.00000
     11       8.9489      0.00000
     12      10.3020      0.00000
     13      10.5687      0.00000

 k-point    24 :       0.4444    0.4444    0.0000
  band No.  band energies     occupation 
      1     -28.8104      2.00000
      2     -28.8080      2.00000
      3     -28.8039      2.00000
      4     -28.8029      2.00000
      5     -28.8029      2.00000
      6     -21.7146      2.00000
      7      -1.4358      2.00000
      8      -0.0445      2.00000
      9      -0.0445      2.00000
     10       5.9195      0.00000
     11       7.2000      0.00000
     12      11.6560      0.00000
     13      13.0133      0.00000

 k-point    25 :      -0.4444    0.4444   -0.0000
  band No.  band energies     occupation 
      1     -28.8100      2.00000
      2     -28.8079      2.00000
      3     -28.8040      2.00000
      4     -28.8030      2.00000
      5     -28.8029      2.00000
      6     -21.7121      2.00000
      7      -1.4062      2.00000
      8      -0.2467      2.00000
      9      -0.0275      2.00000
     10       6.0852      0.00000
     11       7.4417      0.00000
     12      11.9666      0.00000
     13      12.0292      0.00000

 k-point    26 :       0.3333    0.2222    0.1111
  band No.  band energies     occupation 
      1     -28.8087      2.00000
      2     -28.8074      2.00000
      3     -28.8065      2.00000
      4     -28.8063      2.00000
      5     -28.8047      2.00000
      6     -21.7562      2.00000
      7      -0.7887      2.00000
      8       0.2756      2.00000
      9       0.6012      2.00000
     10       5.8326      0.00000
     11       8.4664      0.00000
     12       9.1415      0.00000
     13      11.0001      0.00000

 k-point    27 :       0.4444    0.2222    0.1111
  band No.  band energies     occupation 
      1     -28.8082      2.00000
      2     -28.8075      2.00000
      3     -28.8065      2.00000
      4     -28.8051      2.00000
      5     -28.8039      2.00000
      6     -21.7379      2.00000
      7      -1.1788      2.00000
      8      -0.0014      2.00000
      9       0.4750      2.00000
     10       6.5324      0.00000
     11       8.5694      0.00000
     12       8.9090      0.00000
     13      10.6905      0.00000

 k-point    28 :      -0.4444    0.2222    0.1111
  band No.  band energies     occupation 
      1     -28.8081      2.00000
      2     -28.8073      2.00000
      3     -28.8062      2.00000
      4     -28.8045      2.00000
      5     -28.8036      2.00000
      6     -21.7260      2.00000
      7      -1.4094      2.00000
      8      -0.1339      2.00000
      9       0.3646      2.00000
     10       6.7512      0.00000
     11       8.2519      0.00000
     12      10.1389      0.00000
     13      10.5114      0.00000

 k-point    29 :       0.4444    0.3333    0.1111
  band No.  band energies     occupation 
      1     -28.8092      2.00000
      2     -28.8075      2.00000
      3     -28.8056      2.00000
      4     -28.8042      2.00000
      5     -28.8038      2.00000
      6     -21.7308      2.00000
      7      -1.1720      2.00000
      8      -0.0582      2.00000
      9       0.2048      2.00000
     10       6.6181      0.00000
     11       7.9747      0.00000
     12       8.9632      0.00000
     13      11.8261      0.00000

 k-point    30 :      -0.4444    0.3333    0.1111
  band No.  band energies     occupation 
      1     -28.8085      2.00000
      2     -28.8071      2.00000
      3     -28.8056      2.00000
      4     -28.8042      2.00000
      5     -28.8034      2.00000
      6     -21.7198      2.00000
      7      -1.2352      2.00000
      8      -0.3926      2.00000
      9       0.1040      2.00000
     10       6.9925      0.00000
     11       8.4596      0.00000
     12       8.9296      0.00000
     13      11.5748      0.00000

 k-point    31 :      -0.3333    0.3333    0.1111
  band No.  band energies     occupation 
      1     -28.8081      2.00000
      2     -28.8064      2.00000
      3     -28.8053      2.00000
      4     -28.8051      2.00000
      5     -28.8035      2.00000
      6     -21.7172      2.00000
      7      -1.1545      2.00000
      8      -0.6539      2.00000
      9       0.1488      2.00000
     10       7.3085      0.00000
     11       8.3254      0.00000
     12       9.9720      0.00000
     13      10.5061      0.00000

 k-point    32 :      -0.2222    0.3333    0.1111
  band No.  band energies     occupation 
      1     -28.8078      2.00000
      2     -28.8071      2.00000
      3     -28.8059      2.00000
      4     -28.8043      2.00000
      5     -28.8043      2.00000
      6     -21.7244      2.00000
      7      -1.1623      2.00000
      8      -0.4961      2.00000
      9       0.3106      2.00000
     10       7.4216      0.00000
     11       8.1022      0.00000
     12       9.1261      0.00000
     13      11.1555      0.00000

 k-point    33 :      -0.4444    0.4444    0.1111
  band No.  band energies     occupation 
      1     -28.8095      2.00000
      2     -28.8077      2.00000
      3     -28.8044      2.00000
      4     -28.8035      2.00000
      5     -28.8029      2.00000
      6     -21.7143      2.00000
      7      -1.3263      2.00000
      8      -0.2567      2.00000
      9      -0.0851      2.00000
     10       6.4092      0.00000
     11       7.7059      0.00000
     12      10.4010      0.00000
     13      12.1007      0.00000

 k-point    34 :      -0.3333    0.4444    0.1111
  band No.  band energies     occupation 
      1     -28.8086      2.00000
      2     -28.8070      2.00000
      3     -28.8047      2.00000
      4     -28.8046      2.00000
      5     -28.8029      2.00000
      6     -21.7126      2.00000
      7      -1.1558      2.00000
      8      -0.6298      2.00000
      9      -0.0483      2.00000
     10       6.8628      0.00000
     11       8.4443      0.00000
     12       9.9636      0.00000
     13      10.7103      0.00000

 k-point    35 :      -0.3333    0.4444    0.2222
  band No.  band energies     occupation 
      1     -28.8072      2.00000
      2     -28.8072      2.00000
      3     -28.8059      2.00000
      4     -28.8047      2.00000
      5     -28.8029      2.00000
      6     -21.7135      2.00000
      7      -1.0290      2.00000
      8      -0.7187      2.00000
      9      -0.1143      2.00000
     10       7.6375      0.00000
     11       8.5726      0.00000
     12       9.0176      0.00000
     13      10.3087      0.00000


--------------------------------------------------------------------------------------------------------


 soft charge-density along one line, spin component           1
         0         1         2         3         4         5         6         7         8         9
 total charge-density along one line
 
 pseudopotential strength for first ion, spin component:           1
-22.600  -0.000   0.000   0.000   0.000   8.750   0.000  -0.000
 -0.000 -22.600  -0.000  -0.000   0.000   0.000   8.750   0.000
  0.000  -0.000 -22.600  -0.000   0.000  -0.000   0.000   8.750
  0.000  -0.000  -0.000 -22.600  -0.000   0.000   0.000   0.000
  0.000   0.000   0.000  -0.000 -22.600  -0.000   0.000  -0.000
  8.750   0.000  -0.000   0.000  -0.000  19.865  -0.000   0.000
  0.000   8.750   0.000   0.000   0.000  -0.000  19.865   0.000
 -0.000   0.000   8.750   0.000  -0.000   0.000   0.000  19.865
  0.000   0.000   0.000   8.750   0.000   0.000   0.000   0.000
 -0.000   0.000  -0.000   0.000   8.750  -0.000   0.000   0.000
  0.000   0.000  -0.000   0.000   0.000   0.000   0.000  -0.000
  0.000   0.000  -0.000   0.000   0.000  -0.000  -0.000   0.000
  0.000   0.000   0.000  -0.000   0.000   0.000   0.000   0.000
 -0.000  -0.000   0.000   0.000   0.000  -0.000  -0.000  -0.000
 -0.000  -0.000  -0.000   0.000   0.000   0.000  -0.000  -0.000
  0.000   0.000   0.000  -0.000   0.000   0.000   0.000   0.000
 -0.000  -0.000   0.000   0.000   0.000  -0.000  -0.000   0.000
 -0.000  -0.000  -0.000   0.000   0.000   0.000  -0.000  -0.000
 total augmentation occupancy for first ion, spin component:           1
  2.000   0.000   0.000   0.000   0.000   0.000   0.000   0.000  -0.000  -0.000   0.000  -0.000   0.000   0.000   0.000   0.000
  0.000   2.000  -0.000  -0.000   0.000  -0.000   0.000   0.000  -0.000  -0.000   0.000  -0.000   0.000   0.000   0.000   0.000
  0.000  -0.000   2.000   0.000  -0.000   0.000   0.000   0.000   0.000  -0.000   0.000   0.000   0.000   0.000   0.000   0.000
[...]
      9      -0.8775      2.00000
     10       5.3891      0.00000
     11       7.2595      0.00000
     12       7.6334      0.00000
     13       9.4997      0.00000

 k-point    17 :      -0.4444    0.2222   -0.0000
  band No.  band energies     occupation 
      1     -29.8155      2.00000
      2     -29.8147      2.00000
      3     -29.8147      2.00000
      4     -29.8140      2.00000
      5     -29.8135      2.00000
      6     -22.7334      2.00000
      7      -2.0595      2.00000
      8      -1.2683      2.00000
      9      -0.8394      2.00000
     10       5.6305      0.00000
     11       7.1808      0.00000
     12       8.5809      0.00000
     13       9.2307      0.00000

 k-point    18 :      -0.3333    0.2222   -0.0000
  band No.  band energies     occupation 
      1     -29.8155      2.00000
      2     -29.8148      2.00000
      3     -29.8147      2.00000
      4     -29.8141      2.00000
      5     -29.8140      2.00000
      6     -22.7358      2.00000
      7      -1.9795      2.00000
      8      -1.3185      2.00000
      9      -0.7406      2.00000
     10       5.6524      0.00000
     11       7.2306      0.00000
     12       8.3389      0.00000
     13       9.1037      0.00000

 k-point    19 :      -0.2222    0.2222   -0.0000
  band No.  band energies     occupation 
      1     -29.8154      2.00000
      2     -29.8150      2.00000
      3     -29.8147      2.00000
      4     -29.8147      2.00000
      5     -29.8137      2.00000
      6     -22.7430      2.00000
      7      -1.8343      2.00000
      8      -1.1329      2.00000
      9      -0.6229      2.00000
     10       5.1326      0.00000
     11       7.6146      0.00000
     12       7.7195      0.00000
     13       9.1035      0.00000

 k-point    20 :       0.3333    0.3333    0.0000
  band No.  band energies     occupation 
      1     -29.8161      2.00000
      2     -29.8152      2.00000
      3     -29.8141      2.00000
      4     -29.8138      2.00000
      5     -29.8138      2.00000
      6     -22.7391      2.00000
      7      -1.8856      2.00000
      8      -0.9614      2.00000
      9      -0.9614      2.00000
     10       5.0659      0.00000
     11       6.5481      0.00000
     12       8.1059      0.00000
     13      10.4856      0.00000

 k-point    21 :       0.4444    0.3333    0.0000
  band No.  band energies     occupation 
      1     -29.8161      2.00000
      2     -29.8154      2.00000
      3     -29.8141      2.00000
      4     -29.8137      2.00000
      5     -29.8135      2.00000
      6     -22.7331      2.00000
      7      -2.0102      2.00000
      8      -1.1330      2.00000
      9      -1.0170      2.00000
     10       5.2605      0.00000
     11       6.5739      0.00000
     12       8.3948      0.00000
     13      10.5322      0.00000

 k-point    22 :      -0.4444    0.3333   -0.0000
  band No.  band energies     occupation 
      1     -29.8158      2.00000
      2     -29.8151      2.00000
      3     -29.8140      2.00000
      4     -29.8137      2.00000
      5     -29.8134      2.00000
      6     -22.7299      2.00000
      7      -1.9677      2.00000
      8      -1.4393      2.00000
      9      -0.9857      2.00000
     10       5.5652      0.00000
     11       7.1044      0.00000
     12       8.4691      0.00000
     13      10.1411      0.00000

 k-point    23 :      -0.3333    0.3333    0.0000
  band No.  band energies     occupation 
      1     -29.8156      2.00000
      2     -29.8144      2.00000
      3     -29.8141      2.00000
      4     -29.8140      2.00000
      5     -29.8137      2.00000
      6     -22.7310      2.00000
      7      -1.7644      2.00000
      8      -1.7185      2.00000
      9      -0.8791      2.00000
     10       5.8737      0.00000
     11       7.4146      0.00000
     12       8.6555      0.00000
     13       9.1533      0.00000

 k-point    24 :       0.4444    0.4444    0.0000
  band No.  band energies     occupation 
      1     -29.8162      2.00000
      2     -29.8156      2.00000
      3     -29.8138      2.00000
      4     -29.8133      2.00000
      5     -29.8133      2.00000
      6     -22.7296      2.00000
      7      -2.1134      2.00000
      8      -1.0958      2.00000
      9      -1.0958      2.00000
     10       5.0229      0.00000
     11       6.2608      0.00000
     12       9.6327      0.00000
     13      11.3276      0.00000

 k-point    25 :      -0.4444    0.4444   -0.0000
  band No.  band energies     occupation 
      1     -29.8161      2.00000
      2     -29.8155      2.00000
      3     -29.8139      2.00000
      4     -29.8134      2.00000
      5     -29.8133      2.00000
      6     -22.7284      2.00000
      7      -2.0914      2.00000
      8      -1.2348      2.00000
      9      -1.0839      2.00000
     10       5.1774      0.00000
     11       6.4392      0.00000
     12      10.0113      0.00000
     13      10.1432      0.00000

 k-point    26 :       0.3333    0.2222    0.1111
  band No.  band energies     occupation 
      1     -29.8157      2.00000
      2     -29.8152      2.00000
      3     -29.8149      2.00000
      4     -29.8147      2.00000
      5     -29.8141      2.00000
      6     -22.7505      2.00000
      7      -1.6076      2.00000
      8      -0.8594      2.00000
      9      -0.6377      2.00000
     10       4.4729      0.00000
     11       7.3445      0.00000
     12       7.9949      0.00000
     13       9.5370      0.00000

 k-point    27 :       0.4444    0.2222    0.1111
  band No.  band energies     occupation 
      1     -29.8155      2.00000
      2     -29.8152      2.00000
      3     -29.8148      2.00000
      4     -29.8142      2.00000
      5     -29.8137      2.00000
      6     -22.7414      2.00000
      7      -1.9073      2.00000
      8      -1.0533      2.00000
      9      -0.7262      2.00000
     10       5.1985      0.00000
     11       7.4494      0.00000
     12       7.6206      0.00000
     13       9.2728      0.00000

 k-point    28 :      -0.4444    0.2222    0.1111
  band No.  band energies     occupation 
      1     -29.8154      2.00000
      2     -29.8152      2.00000
      3     -29.8147      2.00000
      4     -29.8140      2.00000
      5     -29.8136      2.00000
      6     -22.7354      2.00000
      7      -2.0854      2.00000
      8      -1.1466      2.00000
      9      -0.8040      2.00000
     10       5.5107      0.00000
     11       7.1633      0.00000
     12       8.5469      0.00000
     13       9.0893      0.00000

 k-point    29 :       0.4444    0.3333    0.1111
  band No.  band energies     occupation 
      1     -29.8159      2.00000
      2     -29.8151      2.00000
      3     -29.8145      2.00000
      4     -29.8138      2.00000
      5     -29.8137      2.00000
      6     -22.7378      2.00000
      7      -1.9055      2.00000
      8      -1.0980      2.00000
      9      -0.9134      2.00000
     10       5.3953      0.00000
     11       6.8981      0.00000
     12       7.6063      0.00000
     13      10.1809      0.00000

 k-point    30 :      -0.4444    0.3333    0.1111
  band No.  band energies     occupation 
      1     -29.8156      2.00000
      2     -29.8151      2.00000
      3     -29.8145      2.00000
      4     -29.8138      2.00000
      5     -29.8135      2.00000
      6     -22.7322      2.00000
      7      -1.9561      2.00000
      8      -1.3350      2.00000
      9      -0.9838      2.00000
     10       5.8553      0.00000
     11       7.1871      0.00000
     12       7.5937      0.00000
     13       9.8973      0.00000

 k-point    31 :      -0.3333    0.3333    0.1111
  band No.  band energies     occupation 
      1     -29.8154      2.00000
      2     -29.8148      2.00000
      3     -29.8144      2.00000
      4     -29.8142      2.00000
      5     -29.8135      2.00000
      6     -22.7310      2.00000
      7      -1.8944      2.00000
      8      -1.5241      2.00000
      9      -0.9527      2.00000
     10       6.1722      0.00000
     11       7.0047      0.00000
     12       8.4232      0.00000
     13       9.0235      0.00000

 k-point    32 :      -0.2222    0.3333    0.1111
  band No.  band energies     occupation 
      1     -29.8153      2.00000
      2     -29.8151      2.00000
      3     -29.8146      2.00000
      4     -29.8139      2.00000
      5     -29.8138      2.00000
      6     -22.7346      2.00000
      7      -1.8970      2.00000
      8      -1.4095      2.00000
      9      -0.8399      2.00000
     10       6.0499      0.00000
     11       6.9716      0.00000
     12       7.7722      0.00000
     13       9.5861      0.00000

 k-point    33 :      -0.4444    0.4444    0.1111
  band No.  band energies     occupation 
      1     -29.8159      2.00000
      2     -29.8154      2.00000
      3     -29.8140      2.00000
      4     -29.8135      2.00000
      5     -29.8133      2.00000
      6     -22.7295      2.00000
      7      -2.0293      2.00000
      8      -1.2428      2.00000
      9      -1.1180      2.00000
     10       5.4262      0.00000
     11       6.6544      0.00000
     12       8.7264      0.00000
     13      10.2571      0.00000

 k-point    34 :      -0.3333    0.4444    0.1111
  band No.  band energies     occupation 
      1     -29.8157      2.00000
      2     -29.8152      2.00000
      3     -29.8141      2.00000
      4     -29.8140      2.00000
      5     -29.8133      2.00000
      6     -22.7286      2.00000
      7      -1.9006      2.00000
      8      -1.5068      2.00000
      9      -1.0911      2.00000
     10       5.8394      0.00000
     11       7.1954      0.00000
     12       8.4641      0.00000
     13       9.0173      0.00000

 k-point    35 :      -0.3333    0.4444    0.2222
  band No.  band energies     occupation 
      1     -29.8153      2.00000
      2     -29.8153      2.00000
      3     -29.8147      2.00000
      4     -29.8142      2.00000
      5     -29.8134      2.00000
      6     -22.7291      2.00000
      7      -1.8033      2.00000
      8      -1.5747      2.00000
      9      -1.1320      2.00000
     10       6.4782      0.00000
     11       7.2094      0.00000
     12       7.6903      0.00000
     13       8.7739      0.00000


--------------------------------------------------------------------------------------------------------


 soft charge-density along one line, spin component           1
         0         1         2         3         4         5         6         7         8         9
 total charge-density along one line
 
 pseudopotential strength for first ion, spin component:           1
-22.940  -0.000   0.000   0.000   0.000   9.198   0.000  -0.000
 -0.000 -22.940  -0.000  -0.000   0.000   0.000   9.198   0.000
  0.000  -0.000 -22.940  -0.000   0.000  -0.000   0.000   9.198
  0.000  -0.000  -0.000 -22.940  -0.000  -0.000   0.000   0.000
  0.000   0.000   0.000  -0.000 -22.940  -0.000  -0.000  -0.000
  9.198   0.000  -0.000  -0.000  -0.000  19.723  -0.000   0.000
  0.000   9.198   0.000   0.000  -0.000  -0.000  19.723   0.000
 -0.000   0.000   9.198   0.000  -0.000   0.000   0.000  19.723
 -0.000   0.000   0.000   9.198   0.000   0.000   0.000   0.000
 -0.000  -0.000  -0.000   0.000   9.198  -0.000   0.000   0.000
  0.000   0.000  -0.000   0.000   0.000   0.000   0.000  -0.000
  0.000   0.000  -0.000   0.000   0.000  -0.000  -0.000   0.000
  0.000  -0.000   0.000  -0.000   0.000   0.000  -0.000   0.000
 -0.000  -0.000  -0.000   0.000   0.000  -0.000  -0.000  -0.000
 -0.000  -0.000  -0.000  -0.000   0.000  -0.000  -0.000  -0.000
  0.000  -0.000   0.000  -0.000   0.000   0.000  -0.000   0.000
 -0.000  -0.000  -0.000   0.000   0.000  -0.000  -0.000  -0.000
 -0.000  -0.000  -0.000  -0.000   0.000  -0.000  -0.000  -0.000
 total augmentation occupancy for first ion, spin component:           1
  2.000   0.000  -0.000   0.000  -0.000   0.001   0.000  -0.000  -0.000  -0.000  -0.000  -0.000   0.000   0.000   0.000   0.000
  0.000   2.000  -0.000   0.000   0.000   0.000   0.001   0.000   0.000  -0.000  -0.000   0.000   0.000   0.000   0.000   0.000
 -0.000  -0.000   2.000   0.000  -0.000  -0.000   0.000   0.001   0.000  -0.000   0.000   0.000   0.000   0.000   0.000   0.000
  0.000   0.000   0.000   2.000   0.000  -0.000   0.000   0.000   0.001   0.000  -0.000  -0.000   0.000   0.000   0.000   0.000
 -0.000   0.000  -0.000   0.000   2.000   0.000  -0.000  -0.000   0.000   0.001  -0.000   0.000   0.000   0.000   0.000   0.000
  0.001   0.000  -0.000  -0.000  -0.000   0.000   0.000  -0.000   0.000   0.000  -0.000   0.000   0.000   0.000   0.000   0.000
  0.000   0.001   0.000  -0.000  -0.000   0.000   0.000  -0.000   0.000   0.000   0.000  -0.000   0.000   0.000   0.000   0.000
 -0.000   0.000   0.001   0.000  -0.000  -0.000  -0.000   0.000   0.000  -0.000   0.000   0.000   0.000   0.000   0.000   0.000
 -0.000  -0.000   0.000   0.001   0.000   0.000   0.000   0.000   0.000   0.000  -0.000   0.000   0.000   0.000   0.000   0.000
  0.000  -0.000  -0.000   0.000   0.001  -0.000   0.000  -0.000   0.000   0.000   0.000   0.000   0.000   0.000   0.000   0.000
 -0.000  -0.000   0.000  -0.000  -0.000  -0.000   0.000   0.000  -0.000   0.000   2.006  -0.001   0.000   0.000   0.000   0.000
  0.000   0.000   0.000  -0.000   0.000   0.000   0.000   0.000   0.000   0.000  -0.001   0.000   0.000   0.000   0.000   0.000
  0.000   0.000   0.000   0.000   0.000   0.000   0.000   0.000   0.000   0.000   0.000   0.000   1.992  -0.000   0.000   0.001
  0.000   0.000   0.000   0.000   0.000   0.000   0.000   0.000   0.000   0.000   0.000   0.000  -0.000   1.992   0.000  -0.000
  0.000   0.000   0.000   0.000   0.000   0.000   0.000   0.000   0.000   0.000   0.000   0.000   0.000   0.000   1.992   0.000
  0.000   0.000   0.000   0.000   0.000   0.000   0.000   0.000   0.000   0.000   0.000   0.000   0.001  -0.000   0.000   0.000
  0.000   0.000   0.000   0.000   0.000   0.000   0.000   0.000   0.000   0.000   0.000   0.000  -0.000   0.001   0.000  -0.000
  0.000   0.000   0.000   0.000   0.000   0.000   0.000   0.000   0.000   0.000   0.000   0.000   0.000   0.000   0.001   0.000


------------------------ aborting loop because EDIFF is reached ----------------------------------------


    CHARGE:  cpu time    0.0963: real time    0.0962
    FORLOC:  cpu time    0.0029: real time    0.0029
    FORNL :  cpu time    0.4884: real time    0.4881
    STRESS:  cpu time    1.4977: real time    1.4966
    FORCOR:  cpu time    0.0792: real time    0.0791
    FORHAR:  cpu time    0.0165: real time    0.0165
    MIXING:  cpu time    0.7898: real time    0.7892
    OFIELD:  cpu time    0.0000: real time    0.0000

  FORCE on cell =-STRESS in cart. coord.  units (eV):
  Direction    XX          YY          ZZ          XY          YZ          ZX
  --------------------------------------------------------------------------------------
  Alpha Z    50.85005    50.85005    50.85005
  Ewald    -532.49066  -532.49066  -532.49066     0.00000    -0.00000     0.00000
  Hartree   252.44343   252.44343   252.44343     0.00000    -0.00000     0.00000
  E(xc)    -110.40519  -110.40519  -110.40519     0.00000    -0.00000    -0.00000
  Local    -227.09971  -227.09972  -227.09972     0.00001     0.00000     0.00001
  n-local    97.94180   100.81307   102.49625     1.02182    -0.27032     2.88523
  augment    79.59483    79.59484    79.59484    -0.00001    -0.00000    -0.00000
  Kinetic   384.63470   387.00256   388.43500     0.99415    -0.00728     2.49949
  Fock        0.00000     0.00000     0.00000     0.00000     0.00000     0.00000
  -------------------------------------------------------------------------------------
  Total       0.00055     0.00055     0.00055     0.00000    -0.00000     0.00000
  in kB       0.01165     0.01165     0.01165     0.00000    -0.00000     0.00000
  external pressure =        0.01 kB  Pullay stress =        0.00 kB


 VOLUME and BASIS-vectors are now :
 -----------------------------------------------------------------------------
  energy-cutoff  :      600.00
  volume of cell :       75.03
      direct lattice vectors                 reciprocal lattice vectors
     4.734227569  0.000000000  0.000000000     0.211227700 -0.121952369 -0.086233347
     2.367113784  4.099961342 -0.000000000     0.000000000  0.243904739 -0.086233347
     2.367113784  1.366653781  3.865480623    -0.000000000  0.000000000  0.258700042

  length of vectors
     4.734227569  4.734227569  4.734227569     0.258700042  0.258700042  0.258700042


 FORCES acting on ions
    electron-ion (+dipol)            ewald-force                    non-local-force                 convergence-correction
 -----------------------------------------------------------------------------------------------
   -.348E-13 0.270E-14 -.757E-13   -.205E-14 -.744E-15 -.448E-16   0.165E-23 -.579E-23 0.000E+00   -.103E-12 0.218E-12 0.238E-12
 -----------------------------------------------------------------------------------------------
   -.348E-13 0.270E-14 -.757E-13   -.205E-14 -.744E-15 -.448E-16   0.165E-23 -.579E-23 0.000E+00   -.103E-12 0.218E-12 0.238E-12
 
 
 POSITION                                       TOTAL-FORCE (eV/Angst)
 -----------------------------------------------------------------------------------
      0.00000      0.00000      0.00000         0.000000      0.000000      0.000000
 -----------------------------------------------------------------------------------
    total drift:                               -0.000000      0.000000      0.000000


--------------------------------------------------------------------------------------------------------



  FREE ENERGIE OF THE ION-ELECTRON SYSTEM (eV)
  ---------------------------------------------------
  free  energy   TOTEN  =         0.00338475 eV

  energy  without entropy=        0.00319211  energy(sigma->0) =        0.00332053
 
 d Force = 0.0000000E+00[ 0.000E+00, 0.000E+00]  d Energy = 0.9329091E-04-0.933E-04
 d Force = 0.0000000E+00[ 0.000E+00, 0.000E+00]  d Ewald  =-0.4614840E+01 0.461E+01


--------------------------------------------------------------------------------------------------------


    POTLOK:  cpu time    0.1730: real time    0.1729


--------------------------------------------------------------------------------------------------------


 Quasi-Newton relaxation of ions (Broydens 2nd method)
  g(Force)  = 0.000E+00   g(Stress)= 0.862E-08

 retain information from N=  1 steps
 eigenvalues of (default step * inverse Hessian matrix)
  average eigenvalue of G=  14.7082
 eigenvalue spectrum of G is 14.7082


--------------------------------------------------------------------------------------------------------


  
 reached required accuracy - stopping structural energy minimisation
     LOOP+:  cpu time   10.4163: real time   10.4130
    4ORBIT:  cpu time    0.0000: real time    0.0000

 total amount of memory used by VASP MPI-rank0    81826. kBytes
=======================================================================

   base      :      30000. kBytes
   nonl-proj :       5470. kBytes
   fftplans  :      28266. kBytes
   grid      :      10067. kBytes
   one-center:         15. kBytes
   wavefun   :       8008. kBytes
 
  
  
 General timing and accounting informations for this job:
 ========================================================
  
                  Total CPU time used (sec):       47.656
                            User time (sec):       42.318
                          System time (sec):        5.338
                         Elapsed time (sec):       47.686
  
                   Maximum memory used (kb):      210172.
                   Average memory used (kb):           0.
  
                          Minor page faults:       786940
                          Major page faults:            3
                 Voluntary context switches:          592
