Og_FCC                                  
           1
     4.938326    0.000000    0.000000
     2.469163    4.276716   -0.000000
     2.469163    1.425572    4.032126
   Og
   1
Direct configuration=     1
   0.00000000  0.00000000  0.00000000
Og_FCC                                  
           1
     4.938467    0.000000    0.000000
     2.469233    4.276838   -0.000000
     2.469233    1.425613    4.032241
   Og
   1
Direct configuration=     2
   0.00000000  0.00000000  0.00000000
Og_FCC                                  
           1
     4.938888    0.000000    0.000000
     2.469444    4.277203   -0.000000
     2.469444    1.425734    4.032585
   Og
   1
Direct configuration=     3
   0.00000000  0.00000000  0.00000000
Og_FCC                                  
           1
     4.939731    0.000000    0.000000
     2.469866    4.277933   -0.000000
     2.469866    1.425978    4.033274
   Og
   1
Direct configuration=     4
   0.00000000  0.00000000  0.00000000
Og_FCC                                  
           1
     4.941418    0.000000    0.000000
     2.470709    4.279393   -0.000000
     2.470709    1.426464    4.034651
   Og
   1
Direct configuration=     5
   0.00000000  0.00000000  0.00000000
Og_FCC                                  
           1
     4.944791    0.000000    0.000000
     2.472395    4.282314   -0.000000
     2.472395    1.427438    4.037405
   Og
   1
Direct configuration=     6
   0.00000000  0.00000000  0.00000000
