Og_FCC                                  
           1
     4.489975    0.000000    0.000000
     2.244987    3.888432   -0.000000
     2.244987    1.296144    3.666049
   Og
   1
Direct configuration=     1
   0.00000000  0.00000000  0.00000000
Og_FCC                                  
           1
     4.507104    0.000000    0.000000
     2.253552    3.903267   -0.000000
     2.253552    1.301089    3.680035
   Og
   1
Direct configuration=     2
   0.00000000  0.00000000  0.00000000
Og_FCC                                  
           1
     4.720591    0.000000    0.000000
     2.360295    4.088151   -0.000000
     2.360295    1.362717    3.854346
   Og
   1
Direct configuration=     3
   0.00000000  0.00000000  0.00000000
Og_FCC                                  
           1
     4.734228    0.000000    0.000000
     2.367114    4.099961   -0.000000
     2.367114    1.366654    3.865481
   Og
   1
Direct configuration=     4
   0.00000000  0.00000000  0.00000000
