Og_FCC                                  
           1
     4.944914    0.000000    0.000000
     2.472457    4.282421   -0.000000
     2.472457    1.427474    4.037505
   Og
   1
Direct configuration=     1
   0.00000000  0.00000000  0.00000000
