Og_FCC                                  
           1
     4.944791    0.000000    0.000000
     2.472395    4.282314   -0.000000
     2.472395    1.427438    4.037405
   Og
   1
Direct configuration=     1
   0.00000000  0.00000000  0.00000000
Og_FCC                                  
           1
     4.944822    0.000000    0.000000
     2.472411    4.282341   -0.000000
     2.472411    1.427447    4.037430
   Og
   1
Direct configuration=     2
   0.00000000  0.00000000  0.00000000
Og_FCC                                  
           1
     4.944914    0.000000    0.000000
     2.472457    4.282421   -0.000000
     2.472457    1.427474    4.037505
   Og
   1
Direct configuration=     3
   0.00000000  0.00000000  0.00000000
