   1   1   0   0
  0.5925390E+02  0.4376000E-09  0.4376000E-09  0.4376000E-09  0.1000000E-15
  1.000000000000000E-004
  CAR 
 Og_FCC                                  
     17.27826275    -33.08179046  301      3.57822493      1.00000000
    -33.082  0.0000E+00  0.0000E+00
    -32.914  0.0000E+00  0.0000E+00
    -32.746  0.0000E+00  0.0000E+00
    -32.578  0.0000E+00  0.0000E+00
    -32.410  0.0000E+00  0.0000E+00
    -32.242  0.0000E+00  0.0000E+00
    -32.075  0.0000E+00  0.0000E+00
    -31.907  0.0000E+00  0.0000E+00
    -31.739 -0.6190E-37 -0.1039E-37
    -31.571 -0.2004E-24 -0.3364E-25
    -31.403 -0.2209E-14 -0.3708E-15
    -31.235 -0.7642E-07 -0.1283E-07
    -31.067 -0.7847E-02 -0.1317E-02
    -30.900 -0.7508E+00 -0.1273E+00
    -30.732  0.2261E+02  0.3668E+01
    -30.564  0.2048E+01  0.4012E+01
    -30.396 -0.7182E-01  0.4000E+01
    -30.228 -0.4148E-05  0.4000E+01
    -30.060 -0.6339E-12  0.4000E+01
    -29.892  0.0000E+00  0.4000E+01
    -29.724  0.0000E+00  0.4000E+01
    -29.557  0.0000E+00  0.4000E+01
    -29.389  0.0000E+00  0.4000E+01
    -29.221  0.0000E+00  0.4000E+01
    -29.053  0.0000E+00  0.4000E+01
    -28.885  0.0000E+00  0.4000E+01
    -28.717  0.0000E+00  0.4000E+01
    -28.549  0.0000E+00  0.4000E+01
    -28.382  0.0000E+00  0.4000E+01
    -28.214  0.0000E+00  0.4000E+01
    -28.046  0.0000E+00  0.4000E+01
    -27.878  0.0000E+00  0.4000E+01
    -27.710  0.0000E+00  0.4000E+01
    -27.542  0.0000E+00  0.4000E+01
    -27.374  0.0000E+00  0.4000E+01
    -27.206  0.0000E+00  0.4000E+01
    -27.039  0.0000E+00  0.4000E+01
    -26.871  0.0000E+00  0.4000E+01
    -26.703  0.0000E+00  0.4000E+01
    -26.535  0.0000E+00  0.4000E+01
    -26.367  0.0000E+00  0.4000E+01
    -26.199  0.0000E+00  0.4000E+01
    -26.031  0.0000E+00  0.4000E+01
    -25.864  0.0000E+00  0.4000E+01
    -25.696  0.0000E+00  0.4000E+01
    -25.528  0.0000E+00  0.4000E+01
    -25.360  0.0000E+00  0.4000E+01
    -25.192  0.0000E+00  0.4000E+01
    -25.024 -0.6243E-35  0.4000E+01
    -24.856 -0.9219E-23  0.4000E+01
    -24.688 -0.4520E-13  0.4000E+01
    -24.521 -0.7378E-06  0.4000E+01
    -24.353 -0.3393E-01  0.3994E+01
    -24.185 -0.1417E+00  0.3971E+01
    -24.017  0.3565E+02  0.9955E+01
    -23.849  0.3142E+00  0.1001E+02
    -23.681 -0.4367E-01  0.1000E+02
    -23.513 -0.1164E-05  0.1000E+02
    -23.346 -0.8800E-13  0.1000E+02
    -23.178  0.0000E+00  0.1000E+02
    -23.010  0.0000E+00  0.1000E+02
    -22.842  0.0000E+00  0.1000E+02
    -22.674  0.0000E+00  0.1000E+02
    -22.506  0.0000E+00  0.1000E+02
    -22.338  0.0000E+00  0.1000E+02
    -22.170  0.0000E+00  0.1000E+02
    -22.003  0.0000E+00  0.1000E+02
    -21.835  0.0000E+00  0.1000E+02
    -21.667  0.0000E+00  0.1000E+02
    -21.499  0.0000E+00  0.1000E+02
    -21.331 -0.4128E-29  0.1000E+02
    -21.163 -0.1741E-18  0.1000E+02
    -20.995 -0.2656E-10  0.1000E+02
    -20.828 -0.1607E-04  0.1000E+02
    -20.660 -0.4222E-01  0.9993E+01
    -20.492  0.9593E+00  0.1015E+02
    -20.324  0.1100E+02  0.1200E+02
    -20.156  0.7327E-02  0.1200E+02
    -19.988 -0.1164E-01  0.1200E+02
    -19.820 -0.3766E-06  0.1200E+02
    -19.652 -0.3735E-13  0.1200E+02
    -19.485  0.0000E+00  0.1200E+02
    -19.317  0.0000E+00  0.1200E+02
    -19.149  0.0000E+00  0.1200E+02
    -18.981  0.0000E+00  0.1200E+02
    -18.813  0.0000E+00  0.1200E+02
    -18.645  0.0000E+00  0.1200E+02
    -18.477  0.0000E+00  0.1200E+02
    -18.310  0.0000E+00  0.1200E+02
    -18.142  0.0000E+00  0.1200E+02
    -17.974  0.0000E+00  0.1200E+02
    -17.806  0.0000E+00  0.1200E+02
    -17.638  0.0000E+00  0.1200E+02
    -17.470  0.0000E+00  0.1200E+02
    -17.302  0.0000E+00  0.1200E+02
    -17.134  0.0000E+00  0.1200E+02
    -16.967  0.0000E+00  0.1200E+02
    -16.799  0.0000E+00  0.1200E+02
    -16.631  0.0000E+00  0.1200E+02
    -16.463  0.0000E+00  0.1200E+02
    -16.295  0.0000E+00  0.1200E+02
    -16.127  0.0000E+00  0.1200E+02
    -15.959  0.0000E+00  0.1200E+02
    -15.792  0.0000E+00  0.1200E+02
    -15.624  0.0000E+00  0.1200E+02
    -15.456  0.0000E+00  0.1200E+02
    -15.288  0.0000E+00  0.1200E+02
    -15.120  0.0000E+00  0.1200E+02
    -14.952  0.0000E+00  0.1200E+02
    -14.784  0.0000E+00  0.1200E+02
    -14.616  0.0000E+00  0.1200E+02
    -14.449  0.0000E+00  0.1200E+02
    -14.281  0.0000E+00  0.1200E+02
    -14.113  0.0000E+00  0.1200E+02
    -13.945  0.0000E+00  0.1200E+02
    -13.777  0.0000E+00  0.1200E+02
    -13.609  0.0000E+00  0.1200E+02
    -13.441  0.0000E+00  0.1200E+02
    -13.274  0.0000E+00  0.1200E+02
    -13.106  0.0000E+00  0.1200E+02
    -12.938  0.0000E+00  0.1200E+02
    -12.770  0.0000E+00  0.1200E+02
    -12.602  0.0000E+00  0.1200E+02
    -12.434  0.0000E+00  0.1200E+02
    -12.266  0.0000E+00  0.1200E+02
    -12.098  0.0000E+00  0.1200E+02
    -11.931  0.0000E+00  0.1200E+02
    -11.763  0.0000E+00  0.1200E+02
    -11.595  0.0000E+00  0.1200E+02
    -11.427  0.0000E+00  0.1200E+02
    -11.259  0.0000E+00  0.1200E+02
    -11.091  0.0000E+00  0.1200E+02
    -10.923  0.0000E+00  0.1200E+02
    -10.756  0.0000E+00  0.1200E+02
    -10.588  0.0000E+00  0.1200E+02
    -10.420  0.0000E+00  0.1200E+02
    -10.252  0.0000E+00  0.1200E+02
    -10.084  0.0000E+00  0.1200E+02
     -9.916  0.0000E+00  0.1200E+02
     -9.748  0.0000E+00  0.1200E+02
     -9.580  0.0000E+00  0.1200E+02
     -9.413  0.0000E+00  0.1200E+02
     -9.245  0.0000E+00  0.1200E+02
     -9.077  0.0000E+00  0.1200E+02
     -8.909  0.0000E+00  0.1200E+02
     -8.741  0.0000E+00  0.1200E+02
     -8.573 -0.1350E-31  0.1200E+02
     -8.405 -0.2687E-20  0.1200E+02
     -8.237 -0.1825E-11  0.1200E+02
     -8.070 -0.4329E-05  0.1200E+02
     -7.902 -0.3077E-01  0.1199E+02
     -7.734  0.7729E+00  0.1212E+02
     -7.566  0.8403E+01  0.1354E+02
     -7.398  0.2355E+01  0.1393E+02
     -7.230  0.4296E+00  0.1400E+02
     -7.062 -0.1541E-01  0.1400E+02
     -6.895 -0.1296E-03  0.1400E+02
     -6.727 -0.3115E-08  0.1400E+02
     -6.559 -0.3302E-15  0.1400E+02
     -6.391  0.0000E+00  0.1400E+02
     -6.223  0.0000E+00  0.1400E+02
     -6.055  0.0000E+00  0.1400E+02
     -5.887  0.0000E+00  0.1400E+02
     -5.719  0.0000E+00  0.1400E+02
     -5.552  0.0000E+00  0.1400E+02
     -5.384  0.0000E+00  0.1400E+02
     -5.216  0.0000E+00  0.1400E+02
     -5.048  0.0000E+00  0.1400E+02
     -4.880  0.0000E+00  0.1400E+02
     -4.712  0.0000E+00  0.1400E+02
     -4.544  0.0000E+00  0.1400E+02
     -4.377  0.0000E+00  0.1400E+02
     -4.209  0.0000E+00  0.1400E+02
     -4.041  0.0000E+00  0.1400E+02
     -3.873  0.0000E+00  0.1400E+02
     -3.705  0.0000E+00  0.1400E+02
     -3.537  0.0000E+00  0.1400E+02
     -3.369  0.0000E+00  0.1400E+02
     -3.201  0.0000E+00  0.1400E+02
     -3.034  0.0000E+00  0.1400E+02
     -2.866  0.0000E+00  0.1400E+02
     -2.698  0.0000E+00  0.1400E+02
     -2.530  0.0000E+00  0.1400E+02
     -2.362  0.0000E+00  0.1400E+02
     -2.194  0.0000E+00  0.1400E+02
     -2.026  0.0000E+00  0.1400E+02
     -1.859  0.0000E+00  0.1400E+02
     -1.691  0.0000E+00  0.1400E+02
     -1.523  0.0000E+00  0.1400E+02
     -1.355  0.0000E+00  0.1400E+02
     -1.187  0.0000E+00  0.1400E+02
     -1.019  0.0000E+00  0.1400E+02
     -0.851  0.0000E+00  0.1400E+02
     -0.683  0.0000E+00  0.1400E+02
     -0.516 -0.4941E-39  0.1400E+02
     -0.348 -0.1847E-26  0.1400E+02
     -0.180 -0.2356E-16  0.1400E+02
     -0.012 -0.9716E-09  0.1400E+02
      0.156 -0.1354E-03  0.1400E+02
      0.324 -0.5975E-01  0.1399E+02
      0.492  0.1555E+01  0.1425E+02
      0.659  0.6053E+01  0.1527E+02
      0.827  0.1714E+01  0.1555E+02
      0.995  0.7293E+00  0.1568E+02
      1.163  0.7558E+00  0.1580E+02
      1.331  0.1536E+00  0.1583E+02
      1.499  0.7314E+00  0.1595E+02
      1.667  0.9437E+00  0.1611E+02
      1.835  0.2341E+01  0.1650E+02
      2.002  0.9018E+00  0.1666E+02
      2.170  0.1567E+01  0.1692E+02
      2.338  0.1355E+01  0.1715E+02
      2.506  0.1170E+01  0.1734E+02
      2.674  0.6073E+00  0.1744E+02
      2.842  0.1346E+01  0.1767E+02
      3.010  0.6558E+00  0.1778E+02
      3.177  0.6546E+00  0.1789E+02
      3.345  0.4113E+00  0.1796E+02
      3.513  0.1816E+00  0.1799E+02
      3.681  0.8041E-01  0.1800E+02
      3.849 -0.2875E-02  0.1800E+02
      4.017 -0.1121E-04  0.1800E+02
      4.185 -0.2915E-08  0.1800E+02
      4.353 -0.1282E-03  0.1800E+02
      4.520 -0.3284E-03  0.1800E+02
      4.688  0.1300E+00  0.1802E+02
      4.856  0.2000E-01  0.1803E+02
      5.024  0.8274E-01  0.1804E+02
      5.192 -0.7171E-02  0.1804E+02
      5.360  0.9544E-01  0.1806E+02
      5.528  0.2102E+00  0.1809E+02
      5.695  0.1818E+00  0.1812E+02
      5.863  0.4654E+00  0.1820E+02
      6.031  0.9044E-01  0.1822E+02
      6.199  0.7068E+00  0.1833E+02
      6.367  0.1398E+01  0.1857E+02
      6.535  0.1442E+01  0.1881E+02
      6.703  0.6383E+00  0.1892E+02
      6.871  0.1293E+01  0.1914E+02
      7.038  0.2401E+01  0.1954E+02
      7.206  0.1147E+01  0.1973E+02
      7.374  0.1286E+01  0.1995E+02
      7.542  0.4318E+00  0.2002E+02
      7.710  0.2462E+00  0.2006E+02
      7.878  0.6063E+00  0.2016E+02
      8.046  0.1986E+00  0.2020E+02
      8.213  0.4473E+00  0.2027E+02
      8.381  0.3381E+01  0.2084E+02
      8.549  0.2018E+01  0.2118E+02
      8.717  0.9503E+00  0.2134E+02
      8.885  0.5741E+00  0.2143E+02
      9.053  0.1342E+01  0.2166E+02
      9.221  0.1398E+01  0.2189E+02
      9.389  0.1804E+01  0.2220E+02
      9.556  0.2646E+01  0.2264E+02
      9.724  0.6668E+00  0.2275E+02
      9.892  0.6311E+00  0.2286E+02
     10.060  0.1253E+01  0.2307E+02
     10.228  0.2870E+01  0.2355E+02
     10.396  0.1728E+01  0.2384E+02
     10.564  0.1008E+01  0.2401E+02
     10.731  0.6359E+00  0.2412E+02
     10.899  0.1528E+01  0.2437E+02
     11.067  0.1287E+01  0.2459E+02
     11.235  0.3425E+01  0.2516E+02
     11.403  0.1658E+01  0.2544E+02
     11.571  0.1035E+01  0.2562E+02
     11.739  0.1761E+01  0.2591E+02
     11.907  0.1155E+01  0.2611E+02
     12.074  0.1103E+01  0.2629E+02
     12.242  0.8866E+00  0.2644E+02
     12.410  0.1751E+01  0.2673E+02
     12.578  0.1583E+01  0.2700E+02
     12.746  0.1221E+01  0.2720E+02
     12.914  0.3775E+00  0.2727E+02
     13.082  0.1069E+01  0.2745E+02
     13.249  0.1720E+01  0.2774E+02
     13.417  0.3756E+00  0.2780E+02
     13.585  0.7003E-03  0.2780E+02
     13.753  0.2105E+00  0.2783E+02
     13.921  0.2851E+00  0.2788E+02
     14.089  0.3324E+00  0.2794E+02
     14.257  0.1725E+00  0.2797E+02
     14.425  0.1206E+00  0.2799E+02
     14.592  0.3243E-01  0.2799E+02
     14.760  0.1471E-01  0.2799E+02
     14.928  0.1705E-01  0.2800E+02
     15.096  0.1543E-01  0.2800E+02
     15.264 -0.5111E-03  0.2800E+02
     15.432 -0.5856E-05  0.2800E+02
     15.600 -0.6047E-10  0.2800E+02
     15.767 -0.3629E-17  0.2800E+02
     15.935  0.0000E+00  0.2800E+02
     16.103  0.0000E+00  0.2800E+02
     16.271  0.0000E+00  0.2800E+02
     16.439  0.0000E+00  0.2800E+02
     16.607  0.0000E+00  0.2800E+02
     16.775  0.0000E+00  0.2800E+02
     16.943  0.0000E+00  0.2800E+02
     17.110  0.0000E+00  0.2800E+02
     17.278  0.0000E+00  0.2800E+02
