 running on   16 total cores
 distrk:  each k-point on    4 cores,    4 groups
 distr:  one band on    4 cores,    1 groups
 using from now: INCAR     
 vasp.5.4.4.18Apr17-6-g9f103f2a35 (build Jul 09 2018 16:43:14) complex          
  
 POSCAR found type information on POSCAR  Og
 POSCAR found :  1 types and       1 ions
 scaLAPACK will be used

 ----------------------------------------------------------------------------- 
|                                                                             |
|           W    W    AA    RRRRR   N    N  II  N    N   GGGG   !!!           |
|           W    W   A  A   R    R  NN   N  II  NN   N  G    G  !!!           |
|           W    W  A    A  R    R  N N  N  II  N N  N  G       !!!           |
|           W WW W  AAAAAA  RRRRR   N  N N  II  N  N N  G  GGG   !            |
|           WW  WW  A    A  R   R   N   NN  II  N   NN  G    G                |
|           W    W  A    A  R    R  N    N  II  N    N   GGGG   !!!           |
|                                                                             |
|      You have enabled k-point parallelism (KPAR>1).                         |
|      This developmental code was originally  written by Paul Kent at ORNL,  |
|      and carefully double checked in Vienna.                                |
|      GW as well as linear response parallelism added by Martijn Marsman     |
|      and Georg Kresse.                                                      |
|      Carefully verify results versus KPAR=1.                                |
|      Report problems to Paul Kent and Vienna.                               |
|                                                                             |
 ----------------------------------------------------------------------------- 


 ----------------------------------------------------------------------------- 
|                                                                             |
|  ADVICE TO THIS USER RUNNING 'VASP/VAMP'   (HEAR YOUR MASTER'S VOICE ...):  |
|                                                                             |
|      You enforced a specific xc-type in the INCAR file,                     |
|      a different type was found on the POTCAR file                          |
|          I HOPE YOU KNOW, WHAT YOU ARE  DOING                               |
|                                                                             |
 ----------------------------------------------------------------------------- 

 LDA part: xc-table for Pade appr. of Perdew
 generate k-points for:    9    9    9
 POSCAR, INCAR and KPOINTS ok, starting setup
 FFT: planning ...
 WAVECAR not read
 entering main loop
       N       E                     dE             d eps       ncg     rms          rms(c)
DAV:   1     0.307096459296E+03    0.30710E+03   -0.95982E+03 21064   0.127E+03
DAV:   2     0.151477345752E+01   -0.30558E+03   -0.29614E+03 26944   0.456E+02
DAV:   3    -0.132500720518E+02   -0.14765E+02   -0.14708E+02 24800   0.124E+02
DAV:   4    -0.136920163033E+02   -0.44194E+00   -0.44170E+00 30492   0.265E+01
DAV:   5    -0.137072489542E+02   -0.15233E-01   -0.15231E-01 27680   0.406E+00    0.633E+00
RMM:   6    -0.135747510035E+02    0.13250E+00   -0.89044E-01 24241   0.113E+01    0.213E+00
RMM:   7    -0.135780400883E+02   -0.32891E-02   -0.18236E-01 23431   0.445E+00    0.851E-01
RMM:   8    -0.135884748220E+02   -0.10435E-01   -0.38531E-02 23716   0.262E+00    0.447E-01
RMM:   9    -0.135939037530E+02   -0.54289E-02   -0.69538E-03 26783   0.101E+00    0.278E-01
RMM:  10    -0.135949233550E+02   -0.10196E-02   -0.28090E-03 27962   0.702E-01    0.620E-02
RMM:  11    -0.135949652372E+02   -0.41882E-04   -0.49665E-04 26936   0.275E-01    0.155E-02
RMM:  12    -0.135950013605E+02   -0.36123E-04   -0.11801E-04 25990   0.158E-01    0.836E-03
RMM:  13    -0.135950097453E+02   -0.83849E-05   -0.26910E-05 28547   0.545E-02    0.314E-03
RMM:  14    -0.135950114745E+02   -0.17292E-05   -0.61528E-06 28300   0.317E-02    0.659E-04
RMM:  15    -0.135950117617E+02   -0.28719E-06   -0.13631E-06 29548   0.111E-02    0.587E-04
RMM:  16    -0.135950111387E+02    0.62300E-06   -0.28841E-07 24343   0.673E-03    0.250E-04
RMM:  17    -0.135950110750E+02    0.63707E-07   -0.83004E-08 19540   0.382E-03
   1 F= -.13595011E+02 E0= -.13595002E+02  d E =-.258153E-04  mag=     0.0000     0.0000     0.0000
