Og_FCC                                  
           1
     4.376000    0.000000    0.000000
     2.188000    3.789727   -0.000000
     2.188000    1.263242    3.572989
   Og
   1
Direct configuration=     1
   0.00000000  0.00000000  0.00000000
