   1   1   0   0
  0.5789729E+02  0.4342346E-09  0.4342346E-09  0.4342346E-09  0.1000000E-15
  1.000000000000000E-004
  CAR 
 Og_FCC                                  
    133.40472045    -38.28095945  301      3.96099059      1.00000000
    -38.281  0.0000E+00  0.0000E+00
    -37.709  0.0000E+00  0.0000E+00
    -37.136  0.0000E+00  0.0000E+00
    -36.564  0.0000E+00  0.0000E+00
    -35.992  0.0000E+00  0.0000E+00
    -35.420  0.0000E+00  0.0000E+00
    -34.847  0.0000E+00  0.0000E+00
    -34.275  0.0000E+00  0.0000E+00
    -33.703  0.0000E+00  0.0000E+00
    -33.130  0.0000E+00  0.0000E+00
    -32.558  0.0000E+00  0.0000E+00
    -31.986  0.0000E+00  0.0000E+00
    -31.414  0.0000E+00  0.0000E+00
    -30.841  0.0000E+00  0.0000E+00
    -30.269  0.0000E+00  0.4000E+01
    -29.697  0.0000E+00  0.4000E+01
    -29.124  0.0000E+00  0.4000E+01
    -28.552  0.0000E+00  0.4000E+01
    -27.980  0.0000E+00  0.4000E+01
    -27.408  0.0000E+00  0.4000E+01
    -26.835  0.0000E+00  0.4000E+01
    -26.263  0.0000E+00  0.4000E+01
    -25.691  0.0000E+00  0.4000E+01
    -25.118  0.0000E+00  0.4000E+01
    -24.546  0.0000E+00  0.4000E+01
    -23.974  0.0000E+00  0.4000E+01
    -23.402  0.0000E+00  0.1000E+02
    -22.829  0.0000E+00  0.1000E+02
    -22.257  0.0000E+00  0.1000E+02
    -21.685  0.0000E+00  0.1000E+02
    -21.112  0.0000E+00  0.1000E+02
    -20.540  0.0000E+00  0.1000E+02
    -19.968  0.0000E+00  0.1200E+02
    -19.396  0.0000E+00  0.1200E+02
    -18.823  0.0000E+00  0.1200E+02
    -18.251  0.0000E+00  0.1200E+02
    -17.679  0.0000E+00  0.1200E+02
    -17.106  0.0000E+00  0.1200E+02
    -16.534  0.0000E+00  0.1200E+02
    -15.962  0.0000E+00  0.1200E+02
    -15.390  0.0000E+00  0.1200E+02
    -14.817  0.0000E+00  0.1200E+02
    -14.245  0.0000E+00  0.1200E+02
    -13.673  0.0000E+00  0.1200E+02
    -13.100  0.0000E+00  0.1200E+02
    -12.528  0.0000E+00  0.1200E+02
    -11.956  0.0000E+00  0.1200E+02
    -11.384  0.0000E+00  0.1200E+02
    -10.811  0.0000E+00  0.1200E+02
    -10.239  0.0000E+00  0.1200E+02
     -9.667  0.0000E+00  0.1200E+02
     -9.094  0.0000E+00  0.1200E+02
     -8.522  0.0000E+00  0.1200E+02
     -7.950  0.0000E+00  0.1200E+02
     -7.378  0.0000E+00  0.1200E+02
     -6.805  0.0000E+00  0.1400E+02
     -6.233  0.0000E+00  0.1400E+02
     -5.661  0.0000E+00  0.1400E+02
     -5.088  0.0000E+00  0.1400E+02
     -4.516  0.0000E+00  0.1400E+02
     -3.944  0.0000E+00  0.1400E+02
     -3.372  0.0000E+00  0.1400E+02
     -2.799  0.0000E+00  0.1400E+02
     -2.227  0.0000E+00  0.1400E+02
     -1.655  0.0000E+00  0.1400E+02
     -1.082  0.0000E+00  0.1400E+02
     -0.510  0.0000E+00  0.1400E+02
      0.062  0.0000E+00  0.1400E+02
      0.634  0.0000E+00  0.1400E+02
      1.207  0.0000E+00  0.1553E+02
      1.779  0.0000E+00  0.1586E+02
      2.351  0.0000E+00  0.1669E+02
      2.924  0.0000E+00  0.1741E+02
      3.496  0.0000E+00  0.1783E+02
      4.068  0.0000E+00  0.1801E+02
      4.640  0.0000E+00  0.1801E+02
      5.213  0.0000E+00  0.1801E+02
      5.785  0.0000E+00  0.1808E+02
      6.357  0.0000E+00  0.1828E+02
      6.930  0.3816E-11  0.1867E+02
      7.502  0.0000E+00  0.1956E+02
      8.074  0.0000E+00  0.2003E+02
      8.646  0.0000E+00  0.2031E+02
      9.219  0.9705E-01  0.2169E+02
      9.791  0.0000E+00  0.2225E+02
     10.363  0.0000E+00  0.2286E+02
     10.936  0.0000E+00  0.2385E+02
     11.508  0.0000E+00  0.2489E+02
     12.080  0.2898E+00  0.2583E+02
     12.652  0.0000E+00  0.2624E+02
     13.225  0.8090E-02  0.2749E+02
     13.797  0.0000E+00  0.2890E+02
     14.369  0.0000E+00  0.3019E+02
     14.942  0.0000E+00  0.3077E+02
     15.514  0.2467E+00  0.3174E+02
     16.086  0.0000E+00  0.3258E+02
     16.658  0.1294E+00  0.3354E+02
     17.231  0.0000E+00  0.3457E+02
     17.803  0.0000E+00  0.3610E+02
     18.375  0.0000E+00  0.3869E+02
     18.948  0.0000E+00  0.4144E+02
     19.520  0.0000E+00  0.4253E+02
     20.092  0.0000E+00  0.4401E+02
     20.664  0.0000E+00  0.4552E+02
     21.237  0.0000E+00  0.4641E+02
     21.809  0.9707E-01  0.4670E+02
     22.381  0.0000E+00  0.4762E+02
     22.954  0.2206E-07  0.4834E+02
     23.526  0.0000E+00  0.4933E+02
     24.098  0.0000E+00  0.5083E+02
     24.670  0.0000E+00  0.5214E+02
     25.243  0.0000E+00  0.5440E+02
     25.815  0.9708E-01  0.5621E+02
     26.387  0.0000E+00  0.5742E+02
     26.960  0.0000E+00  0.5778E+02
     27.532  0.0000E+00  0.5942E+02
     28.104  0.0000E+00  0.6035E+02
     28.676  0.0000E+00  0.6161E+02
     29.249  0.0000E+00  0.6224E+02
     29.821  0.0000E+00  0.6362E+02
     30.393  0.0000E+00  0.6482E+02
     30.966  0.9708E-01  0.6598E+02
     31.538  0.0000E+00  0.6712E+02
     32.110  0.0000E+00  0.6952E+02
     32.682  0.0000E+00  0.7052E+02
     33.255  0.3883E+00  0.7275E+02
     33.827  0.2192E-01  0.7378E+02
     34.399  0.8981E-18  0.7444E+02
     34.972  0.0000E+00  0.7602E+02
     35.544  0.0000E+00  0.7839E+02
     36.116  0.0000E+00  0.7996E+02
     36.688  0.5333E-01  0.8119E+02
     37.261  0.0000E+00  0.8330E+02
     37.833  0.4780E-01  0.8427E+02
     38.405  0.0000E+00  0.8562E+02
     38.978  0.0000E+00  0.8630E+02
     39.550  0.1908E+00  0.8850E+02
     40.122  0.0000E+00  0.8965E+02
     40.694  0.1294E+00  0.9111E+02
     41.267  0.0000E+00  0.9270E+02
     41.839  0.3883E+00  0.9414E+02
     42.411  0.0000E+00  0.9579E+02
     42.984  0.0000E+00  0.9735E+02
     43.556  0.0000E+00  0.9862E+02
     44.128  0.0000E+00  0.1002E+03
     44.700  0.0000E+00  0.1017E+03
     45.273  0.5211E-09  0.1033E+03
     45.845  0.0000E+00  0.1054E+03
     46.417  0.0000E+00  0.1067E+03
     46.990  0.3883E+00  0.1086E+03
     47.562  0.0000E+00  0.1104E+03
     48.134  0.0000E+00  0.1116E+03
     48.706  0.0000E+00  0.1133E+03
     49.279  0.0000E+00  0.1148E+03
     49.851  0.3726E+00  0.1165E+03
     50.423  0.7766E+00  0.1184E+03
     50.996  0.0000E+00  0.1196E+03
     51.568  0.0000E+00  0.1218E+03
     52.140  0.0000E+00  0.1241E+03
     52.712  0.3403E-06  0.1262E+03
     53.285  0.0000E+00  0.1273E+03
     53.857  0.0000E+00  0.1287E+03
     54.429  0.0000E+00  0.1311E+03
     55.002  0.0000E+00  0.1326E+03
     55.574  0.0000E+00  0.1340E+03
     56.146  0.0000E+00  0.1362E+03
     56.718  0.0000E+00  0.1377E+03
     57.291  0.0000E+00  0.1391E+03
     57.863  0.0000E+00  0.1413E+03
     58.435  0.0000E+00  0.1430E+03
     59.008  0.3883E+00  0.1444E+03
     59.580  0.0000E+00  0.1463E+03
     60.152  0.5469E-07  0.1488E+03
     60.724  0.0000E+00  0.1502E+03
     61.297  0.0000E+00  0.1518E+03
     61.869  0.0000E+00  0.1538E+03
     62.441  0.0000E+00  0.1555E+03
     63.014  0.1724E-12  0.1568E+03
     63.586  0.0000E+00  0.1589E+03
     64.158  0.4841E-01  0.1612E+03
     64.730  0.0000E+00  0.1633E+03
     65.303  0.6508E-01  0.1650E+03
     65.875  0.0000E+00  0.1678E+03
     66.447  0.0000E+00  0.1696E+03
     67.020  0.0000E+00  0.1709E+03
     67.592  0.1596E-09  0.1727E+03
     68.164  0.0000E+00  0.1748E+03
     68.736  0.0000E+00  0.1770E+03
     69.309  0.0000E+00  0.1784E+03
     69.881  0.4202E-01  0.1805E+03
     70.453  0.1294E+00  0.1824E+03
     71.026  0.0000E+00  0.1846E+03
     71.598  0.3016E+00  0.1867E+03
     72.170  0.0000E+00  0.1882E+03
     72.742  0.6397E-01  0.1906E+03
     73.315  0.1761E-10  0.1927E+03
     73.887  0.0000E+00  0.1946E+03
     74.459  0.0000E+00  0.1964E+03
     75.032  0.0000E+00  0.1985E+03
     75.604  0.0000E+00  0.2005E+03
     76.176  0.6472E-01  0.2026E+03
     76.748  0.0000E+00  0.2046E+03
     77.321  0.0000E+00  0.2065E+03
     77.893  0.2400E-13  0.2090E+03
     78.465  0.0000E+00  0.2126E+03
     79.038  0.0000E+00  0.2146E+03
     79.610  0.1294E+00  0.2164E+03
     80.182  0.0000E+00  0.2191E+03
     80.754  0.0000E+00  0.2208E+03
     81.327  0.3363E-03  0.2233E+03
     81.899  0.9708E-01  0.2259E+03
     82.471  0.3883E+00  0.2282E+03
     83.044  0.0000E+00  0.2298E+03
     83.616  0.0000E+00  0.2314E+03
     84.188  0.0000E+00  0.2335E+03
     84.760  0.0000E+00  0.2356E+03
     85.333  0.1940E+00  0.2379E+03
     85.905  0.2941E-04  0.2391E+03
     86.477  0.0000E+00  0.2419E+03
     87.050  0.0000E+00  0.2444E+03
     87.622  0.0000E+00  0.2466E+03
     88.194  0.4368E+00  0.2490E+03
     88.766  0.0000E+00  0.2518E+03
     89.339  0.4866E-01  0.2537E+03
     89.911  0.5030E-16  0.2552E+03
     90.483  0.0000E+00  0.2581E+03
     91.056  0.0000E+00  0.2600E+03
     91.628  0.0000E+00  0.2619E+03
     92.200  0.9708E-01  0.2642E+03
     92.772  0.0000E+00  0.2659E+03
     93.345  0.0000E+00  0.2683E+03
     93.917  0.3883E+00  0.2708E+03
     94.489  0.0000E+00  0.2728E+03
     95.062  0.0000E+00  0.2752E+03
     95.634  0.1679E-07  0.2765E+03
     96.206  0.3740E+00  0.2790E+03
     96.778  0.0000E+00  0.2820E+03
     97.351  0.1618E-01  0.2846E+03
     97.923  0.0000E+00  0.2873E+03
     98.495  0.0000E+00  0.2901E+03
     99.068  0.0000E+00  0.2926E+03
     99.640  0.0000E+00  0.2939E+03
    100.212  0.0000E+00  0.2960E+03
    100.784  0.0000E+00  0.2983E+03
    101.357  0.0000E+00  0.3006E+03
    101.929  0.0000E+00  0.3022E+03
    102.501  0.0000E+00  0.3046E+03
    103.074  0.0000E+00  0.3067E+03
    103.646  0.7766E+00  0.3086E+03
    104.218  0.0000E+00  0.3119E+03
    104.790  0.0000E+00  0.3145E+03
    105.363  0.0000E+00  0.3169E+03
    105.935  0.0000E+00  0.3197E+03
    106.507  0.0000E+00  0.3218E+03
    107.080  0.0000E+00  0.3247E+03
    107.652  0.0000E+00  0.3268E+03
    108.224  0.1598E+00  0.3288E+03
    108.796  0.1648E-02  0.3314E+03
    109.369  0.8575E+00  0.3340E+03
    109.941  0.5782E-02  0.3370E+03
    110.513  0.0000E+00  0.3390E+03
    111.086  0.0000E+00  0.3404E+03
    111.658  0.0000E+00  0.3427E+03
    112.230  0.0000E+00  0.3446E+03
    112.802  0.0000E+00  0.3473E+03
    113.375  0.4854E-01  0.3499E+03
    113.947  0.0000E+00  0.3515E+03
    114.519  0.3883E+00  0.3542E+03
    115.092  0.1234E+00  0.3566E+03
    115.664  0.3883E+00  0.3594E+03
    116.236  0.0000E+00  0.3630E+03
    116.808  0.0000E+00  0.3657E+03
    117.381  0.0000E+00  0.3693E+03
    117.953  0.3554E+00  0.3721E+03
    118.525  0.0000E+00  0.3742E+03
    119.098  0.0000E+00  0.3757E+03
    119.670  0.0000E+00  0.3775E+03
    120.242  0.4639E+00  0.3798E+03
    120.814  0.6527E-14  0.3817E+03
    121.387  0.0000E+00  0.3827E+03
    121.959  0.0000E+00  0.3834E+03
    122.531  0.0000E+00  0.3835E+03
    123.104  0.0000E+00  0.3837E+03
    123.676  0.0000E+00  0.3838E+03
    124.248  0.0000E+00  0.3840E+03
    124.820  0.0000E+00  0.3840E+03
    125.393  0.0000E+00  0.3840E+03
    125.965  0.0000E+00  0.3840E+03
    126.537  0.0000E+00  0.3840E+03
    127.110  0.0000E+00  0.3840E+03
    127.682  0.0000E+00  0.3840E+03
    128.254  0.0000E+00  0.3840E+03
    128.826  0.0000E+00  0.3840E+03
    129.399  0.0000E+00  0.3840E+03
    129.971  0.0000E+00  0.3840E+03
    130.543  0.0000E+00  0.3840E+03
    131.116  0.0000E+00  0.3840E+03
    131.688  0.0000E+00  0.3840E+03
    132.260  0.0000E+00  0.3840E+03
    132.832  0.0000E+00  0.3840E+03
    133.405  0.0000E+00  0.3840E+03
