    1    1    1    1
  0.5789729E+02  0.4342346E-09  0.4342346E-09  0.4342346E-09  0.1000000E-15
  1.000000000000000E-004
  CAR 
 Og_FCC                                  
     18    216    384
 
  0.0000000E+00  0.0000000E+00  0.0000000E+00  0.4629630E-02
    1      -30.471045   1.000000
    2      -30.470983   1.000000
    3      -30.470833   1.000000
    4      -30.470770   1.000000
    5      -23.804709   1.000000
    6      -23.804264   1.000000
    7      -23.804018   1.000000
    8      -23.803570   1.000000
    9      -23.803444   1.000000
   10      -23.802650   1.000000
   11      -20.209525   1.000000
   12      -20.208752   1.000000
   13       -6.915573   1.000000
   14       -6.914532   1.000000
   15        3.712224   1.000000
   16        3.712678   1.000000
   17        3.958520   0.999762
   18        3.958584   0.999667
   19        3.963397   0.000333
   20        3.963461   0.000238
   21       10.878209   0.000000
   22       10.878435   0.000000
   23       10.878933   0.000000
   24       10.879160   0.000000
   25       11.115645   0.000000
   26       11.116258   0.000000
   27       11.302464   0.000000
   28       11.303839   0.000000
   29       13.214858   0.000000
   30       13.217881   0.000000
   31       13.519578   0.000000
   32       13.519720   0.000000
   33       13.520666   0.000000
   34       13.520808   0.000000
   35       14.353895   0.000000
   36       14.355287   0.000000
   37       14.356309   0.000000
   38       14.357701   0.000000
   39       16.260498   0.000000
   40       16.260800   0.000000
   41       20.396152   0.000000
   42       20.396438   0.000000
   43       20.397079   0.000000
   44       20.397450   0.000000
   45       20.398091   0.000000
   46       20.398377   0.000000
   47       22.956815   0.000000
   48       22.957616   0.000000
   49       26.244581   0.000000
   50       26.244725   0.000000
   51       26.246635   0.000000
   52       26.246779   0.000000
   53       26.449494   0.000000
   54       26.450209   0.000000
   55       27.768782   0.000000
   56       27.770494   0.000000
   57       29.415982   0.000000
   58       29.416883   0.000000
   59       29.417587   0.000000
   60       29.418490   0.000000
   61       30.178128   0.000000
   62       30.178772   0.000000
   63       30.343112   0.000000
   64       30.343484   0.000000
   65       30.344233   0.000000
   66       30.344609   0.000000
   67       30.787745   0.000000
   68       30.787870   0.000000
   69       31.610824   0.000000
   70       31.610990   0.000000
   71       31.612134   0.000000
   72       31.612301   0.000000
   73       37.790831   0.000000
   74       37.791433   0.000000
   75       37.791675   0.000000
   76       37.791966   0.000000
   77       37.792208   0.000000
   78       37.792810   0.000000
   79       38.585645   0.000000
   80       38.587111   0.000000
   81       38.618527   0.000000
   82       38.618715   0.000000
   83       38.619099   0.000000
   84       38.621698   0.000000
   85       38.622083   0.000000
   86       38.622271   0.000000
   87       41.120234   0.000000
   88       41.120581   0.000000
   89       41.120767   0.000000
   90       41.121117   0.000000
   91       41.305583   0.000000
   92       41.306049   0.000000
   93       42.577733   0.000000
   94       42.578474   0.000000
   95       42.856741   0.000000
   96       42.857856   0.000000
   97       42.858419   0.000000
   98       42.859533   0.000000
   99       43.169101   0.000000
  100       43.169488   0.000000
  101       43.170046   0.000000
  102       43.170432   0.000000
  103       44.061059   0.000000
  104       44.061155   0.000000
  105       44.063289   0.000000
  106       44.063385   0.000000
  107       44.139470   0.000000
  108       44.140074   0.000000
  109       44.140831   0.000000
  110       44.141435   0.000000
  111       44.331747   0.000000
  112       44.332594   0.000000
  113       45.276472   0.000000
  114       45.277317   0.000000
  115       45.684213   0.000000
  116       45.685686   0.000000
  117       46.139686   0.000000
  118       46.139810   0.000000
  119       46.140963   0.000000
  120       46.141087   0.000000
  121       46.665448   0.000000
  122       46.665710   0.000000
  123       47.026287   0.000000
  124       47.026442   0.000000
  125       47.026928   0.000000
  126       47.027083   0.000000
  127       47.155578   0.000000
  128       47.156736   0.000000
  129       51.447545   0.000000
  130       51.448010   0.000000
  131       51.448032   0.000000
  132       51.449249   0.000000
  133       51.449271   0.000000
  134       51.449736   0.000000
  135       54.145043   0.000000
  136       54.147156   0.000000
  137       54.315780   0.000000
  138       54.315920   0.000000
  139       54.317166   0.000000
  140       54.317306   0.000000
  141       58.425975   0.000000
  142       58.426700   0.000000
  143       58.486737   0.000000
  144       58.486828   0.000000
  145       58.487643   0.000000
  146       58.487734   0.000000
  147       59.142455   0.000000
  148       59.142952   0.000000
  149       65.406582   0.000000
  150       65.407388   0.000000
  151       66.032199   0.000000
  152       66.032425   0.000000
  153       66.033630   0.000000
  154       66.033852   0.000000
  155       66.103435   0.000000
  156       66.103740   0.000000
  157       66.353774   0.000000
  158       66.354296   0.000000
  159       66.354789   0.000000
  160       66.355311   0.000000
  161       67.563227   0.000000
  162       67.563919   0.000000
  163       67.564705   0.000000
  164       67.565397   0.000000
  165       68.034993   0.000000
  166       68.035061   0.000000
  167       68.035254   0.000000
  168       68.037299   0.000000
  169       68.037492   0.000000
  170       68.037560   0.000000
  171       70.350219   0.000000
  172       70.351316   0.000000
  173       72.352178   0.000000
  174       72.352332   0.000000
  175       72.353946   0.000000
  176       72.354101   0.000000
  177       72.850353   0.000000
  178       72.851505   0.000000
  179       72.852392   0.000000
  180       72.853544   0.000000
  181       74.067999   0.000000
  182       74.068435   0.000000
  183       74.068548   0.000000
  184       74.069174   0.000000
  185       74.069287   0.000000
  186       74.069722   0.000000
  187       74.164999   0.000000
  188       74.165193   0.000000
  189       74.165785   0.000000
  190       74.166467   0.000000
  191       74.167059   0.000000
  192       74.167253   0.000000
  193       74.288951   0.000000
  194       74.289327   0.000000
  195       74.449092   0.000000
  196       74.449868   0.000000
  197       76.588905   0.000000
  198       76.590133   0.000000
  199       76.649253   0.000000
  200       76.649331   0.000000
  201       76.650851   0.000000
  202       76.650929   0.000000
  203       77.085737   0.000000
  204       77.085961   0.000000
  205       77.086767   0.000000
  206       77.086992   0.000000
  207       77.233321   0.000000
  208       77.234023   0.000000
  209       77.301699   0.000000
  210       77.302043   0.000000
  211       78.011848   0.000000
  212       78.012856   0.000000
  213       78.430115   0.000000
  214       78.431338   0.000000
  215       78.431713   0.000000
  216       78.432935   0.000000
  217       78.515279   0.000000
  218       78.515664   0.000000
  219       78.515731   0.000000
  220       78.517051   0.000000
  221       78.517118   0.000000
  222       78.517503   0.000000
  223       80.074536   0.000000
  224       80.074699   0.000000
  225       80.075602   0.000000
  226       80.075765   0.000000
  227       80.532347   0.000000
  228       80.532892   0.000000
  229       82.293189   0.000000
  230       82.293332   0.000000
  231       82.293696   0.000000
  232       82.293839   0.000000
  233       82.709836   0.000000
  234       82.710514   0.000000
  235       82.830381   0.000000
  236       82.830672   0.000000
  237       82.853402   0.000000
  238       82.854593   0.000000
  239       82.855122   0.000000
  240       82.856313   0.000000
  241       85.888563   0.000000
  242       85.890006   0.000000
  243       86.324969   0.000000
  244       86.325031   0.000000
  245       86.325863   0.000000
  246       86.325925   0.000000
  247       88.151453   0.000000
  248       88.151722   0.000000
  249       88.152380   0.000000
  250       88.152651   0.000000
  251       88.187709   0.000000
  252       88.187843   0.000000
  253       88.187974   0.000000
  254       88.189294   0.000000
  255       88.189425   0.000000
  256       88.189558   0.000000
  257       88.206297   0.000000
  258       88.207880   0.000000
  259       88.369359   0.000000
  260       88.369532   0.000000
  261       88.369607   0.000000
  262       88.370111   0.000000
  263       88.370185   0.000000
  264       88.370357   0.000000
  265       89.550654   0.000000
  266       89.551521   0.000000
  267       89.552357   0.000000
  268       89.553224   0.000000
  269       90.422929   0.000000
  270       90.423540   0.000000
  271       93.199166   0.000000
  272       93.199427   0.000000
  273       94.122014   0.000000
  274       94.122120   0.000000
  275       94.123958   0.000000
  276       94.124065   0.000000
  277       94.436326   0.000000
  278       94.437591   0.000000
  279       94.438587   0.000000
  280       94.439853   0.000000
  281       97.260083   0.000000
  282       97.261158   0.000000
  283       98.185838   0.000000
  284       98.185993   0.000000
  285       98.186627   0.000000
  286       98.186782   0.000000
  287       98.613723   0.000000
  288       98.614372   0.000000
  289      101.459301   0.000000
  290      101.459416   0.000000
  291      101.460653   0.000000
  292      101.460780   0.000000
  293      101.467590   0.000000
  294      101.467688   0.000000
  295      101.467822   0.000000
  296      101.468465   0.000000
  297      101.468569   0.000000
  298      101.468689   0.000000
  299      102.028623   0.000000
  300      102.030312   0.000000
  301      102.080213   0.000000
  302      102.080486   0.000000
  303      102.080554   0.000000
  304      102.080837   0.000000
  305      102.098320   0.000000
  306      102.098433   0.000000
  307      102.114301   0.000000
  308      102.114925   0.000000
  309      102.131459   0.000000
  310      102.131554   0.000000
  311      102.131877   0.000000
  312      102.133886   0.000000
  313      102.134208   0.000000
  314      102.134303   0.000000
  315      102.144066   0.000000
  316      102.144118   0.000000
  317      102.145122   0.000000
  318      102.145173   0.000000
  319      102.514560   0.000000
  320      102.515128   0.000000
  321      103.034123   0.000000
  322      103.034472   0.000000
  323      103.035177   0.000000
  324      103.035527   0.000000
  325      105.621218   0.000000
  326      105.622609   0.000000
  327      106.751856   0.000000
  328      106.752656   0.000000
  329      106.783427   0.000000
  330      106.783570   0.000000
  331      106.783719   0.000000
  332      106.784116   0.000000
  333      106.784144   0.000000
  334      106.784302   0.000000
  335      106.822243   0.000000
  336      106.822355   0.000000
  337      106.822649   0.000000
  338      106.822760   0.000000
  339      107.086698   0.000000
  340      107.087104   0.000000
  341      107.087903   0.000000
  342      107.088312   0.000000
  343      107.199150   0.000000
  344      107.199519   0.000000
  345      107.199590   0.000000
  346      107.201255   0.000000
  347      107.201326   0.000000
  348      107.201695   0.000000
  349      107.226498   0.000000
  350      107.226906   0.000000
  351      108.573617   0.000000
  352      108.573776   0.000000
  353      108.574780   0.000000
  354      108.574939   0.000000
  355      110.247317   0.000000
  356      110.248221   0.000000
  357      119.878033   0.000000
  358      119.879168   0.000000
  359      119.879940   0.000000
  360      119.881074   0.000000
  361      120.723395   0.000000
  362      120.724236   0.000000
  363      120.904398   0.000000
  364      120.907012   0.000000
  365      121.064895   0.000000
  366      121.065110   0.000000
  367      121.065795   0.000000
  368      121.066007   0.000000
  369      121.177825   0.000000
  370      121.178076   0.000000
  371      121.935471   0.000000
  372      121.935943   0.000000
  373      121.936322   0.000000
  374      121.936793   0.000000
  375      123.027186   0.000000
  376      123.027317   0.000000
  377      123.335101   0.000000
  378      123.335114   0.000000
  379      123.335356   0.000000
  380      123.337203   0.000000
  381      123.337445   0.000000
  382      123.337458   0.000000
  383      125.600794   0.000000
  384      125.600826   0.000000
 
  0.1666667E+00  0.1566927E-17  0.2081668E-16  0.4629630E-02
    1      -30.449621   1.000000
    2      -30.449468   1.000000
    3      -30.447644   1.000000
    4      -30.447374   1.000000
    5      -23.789810   1.000000
    6      -23.788678   1.000000
    7      -23.788390   1.000000
    8      -23.788157   1.000000
    9      -23.787300   1.000000
   10      -23.786531   1.000000
   11      -20.181846   1.000000
   12      -20.181073   1.000000
   13       -7.006575   1.000000
   14       -7.005559   1.000000
   15        2.191269   1.000000
   16        2.194380   1.000000
   17        3.802150   1.000000
   18        3.806708   1.000000
   19        5.528270   0.000000
   20        5.529804   0.000000
   21        9.815124   0.000000
   22        9.816426   0.000000
   23       11.051761   0.000000
   24       11.052391   0.000000
   25       11.374970   0.000000
   26       11.375198   0.000000
   27       12.162144   0.000000
   28       12.162596   0.000000
   29       12.503382   0.000000
   30       12.505091   0.000000
   31       12.674644   0.000000
   32       12.676806   0.000000
   33       13.774434   0.000000
   34       13.776222   0.000000
   35       15.886668   0.000000
   36       15.888061   0.000000
   37       16.037815   0.000000
   38       16.040577   0.000000
   39       18.037861   0.000000
   40       18.037948   0.000000
   41       19.916116   0.000000
   42       19.917915   0.000000
   43       20.049676   0.000000
   44       20.051824   0.000000
   45       20.484906   0.000000
   46       20.485291   0.000000
   47       21.800482   0.000000
   48       21.800822   0.000000
   49       25.034438   0.000000
   50       25.035546   0.000000
   51       25.660210   0.000000
   52       25.662444   0.000000
   53       25.967487   0.000000
   54       25.969175   0.000000
   55       27.171535   0.000000
   56       27.172873   0.000000
   57       27.841316   0.000000
   58       27.841641   0.000000
   59       28.706803   0.000000
   60       28.707558   0.000000
   61       30.196362   0.000000
   62       30.198763   0.000000
   63       30.282404   0.000000
   64       30.283554   0.000000
   65       30.906296   0.000000
   66       30.907349   0.000000
   67       31.000057   0.000000
   68       31.000183   0.000000
   69       32.924919   0.000000
   70       32.926797   0.000000
   71       35.326569   0.000000
   72       35.327229   0.000000
   73       35.468998   0.000000
   74       35.470262   0.000000
   75       36.529185   0.000000
   76       36.530486   0.000000
   77       36.542636   0.000000
   78       36.542841   0.000000
   79       36.943299   0.000000
   80       36.944198   0.000000
   81       38.346673   0.000000
   82       38.347360   0.000000
   83       39.144614   0.000000
   84       39.147527   0.000000
   85       39.342187   0.000000
   86       39.342956   0.000000
   87       39.532371   0.000000
   88       39.532648   0.000000
   89       39.546250   0.000000
   90       39.546882   0.000000
   91       40.428075   0.000000
   92       40.428280   0.000000
   93       40.574702   0.000000
   94       40.575711   0.000000
   95       41.388659   0.000000
   96       41.390001   0.000000
   97       41.589777   0.000000
   98       41.590739   0.000000
   99       42.722934   0.000000
  100       42.723565   0.000000
  101       43.213760   0.000000
  102       43.213903   0.000000
  103       43.323721   0.000000
  104       43.324103   0.000000
  105       44.154326   0.000000
  106       44.154877   0.000000
  107       44.675828   0.000000
  108       44.675894   0.000000
  109       44.770417   0.000000
  110       44.771947   0.000000
  111       44.908337   0.000000
  112       44.909351   0.000000
  113       46.557173   0.000000
  114       46.558481   0.000000
  115       47.133136   0.000000
  116       47.133673   0.000000
  117       47.552073   0.000000
  118       47.552991   0.000000
  119       48.444647   0.000000
  120       48.445366   0.000000
  121       49.353492   0.000000
  122       49.353940   0.000000
  123       49.385995   0.000000
  124       49.387170   0.000000
  125       50.410996   0.000000
  126       50.412246   0.000000
  127       51.587058   0.000000
  128       51.587262   0.000000
  129       52.051223   0.000000
  130       52.051992   0.000000
  131       52.507114   0.000000
  132       52.508517   0.000000
  133       52.565124   0.000000
  134       52.565307   0.000000
  135       53.839412   0.000000
  136       53.839703   0.000000
  137       54.061079   0.000000
  138       54.061642   0.000000
  139       54.181879   0.000000
  140       54.183195   0.000000
  141       57.546693   0.000000
  142       57.547686   0.000000
  143       59.434755   0.000000
  144       59.435790   0.000000
  145       59.505523   0.000000
  146       59.506524   0.000000
  147       60.566103   0.000000
  148       60.566225   0.000000
  149       62.234359   0.000000
  150       62.235767   0.000000
  151       62.654726   0.000000
  152       62.656335   0.000000
  153       63.702542   0.000000
  154       63.703302   0.000000
  155       63.806520   0.000000
  156       63.808628   0.000000
  157       65.384709   0.000000
  158       65.385841   0.000000
  159       65.522563   0.000000
  160       65.523439   0.000000
  161       66.014196   0.000000
  162       66.014301   0.000000
  163       67.046093   0.000000
  164       67.048178   0.000000
  165       67.116208   0.000000
  166       67.116853   0.000000
  167       69.433622   0.000000
  168       69.433720   0.000000
  169       69.739858   0.000000
  170       69.740148   0.000000
  171       69.909642   0.000000
  172       69.911085   0.000000
  173       70.450331   0.000000
  174       70.450863   0.000000
  175       70.457298   0.000000
  176       70.457817   0.000000
  177       70.726777   0.000000
  178       70.726948   0.000000
  179       71.223290   0.000000
  180       71.224387   0.000000
  181       71.230096   0.000000
  182       71.230674   0.000000
  183       71.708729   0.000000
  184       71.710200   0.000000
  185       72.602541   0.000000
  186       72.603003   0.000000
  187       72.892335   0.000000
  188       72.894087   0.000000
  189       73.966119   0.000000
  190       73.966313   0.000000
  191       74.197382   0.000000
  192       74.197654   0.000000
  193       75.353645   0.000000
  194       75.354465   0.000000
  195       75.495664   0.000000
  196       75.497127   0.000000
  197       75.737341   0.000000
  198       75.738518   0.000000
  199       76.520417   0.000000
  200       76.522138   0.000000
  201       76.622053   0.000000
  202       76.622664   0.000000
  203       78.001081   0.000000
  204       78.002021   0.000000
  205       78.057851   0.000000
  206       78.060437   0.000000
  207       78.212962   0.000000
  208       78.212977   0.000000
  209       78.382677   0.000000
  210       78.383528   0.000000
  211       78.514988   0.000000
  212       78.515673   0.000000
  213       78.666068   0.000000
  214       78.666259   0.000000
  215       78.977605   0.000000
  216       78.978705   0.000000
  217       79.606867   0.000000
  218       79.607097   0.000000
  219       79.646571   0.000000
  220       79.647581   0.000000
  221       80.050345   0.000000
  222       80.050768   0.000000
  223       80.827937   0.000000
  224       80.829587   0.000000
  225       81.219473   0.000000
  226       81.222136   0.000000
  227       81.238713   0.000000
  228       81.239770   0.000000
  229       82.890719   0.000000
  230       82.892036   0.000000
  231       83.148665   0.000000
  232       83.148778   0.000000
  233       83.495563   0.000000
  234       83.495719   0.000000
  235       83.523623   0.000000
  236       83.524791   0.000000
  237       84.319425   0.000000
  238       84.319471   0.000000
  239       84.541858   0.000000
  240       84.542248   0.000000
  241       84.727679   0.000000
  242       84.728237   0.000000
  243       85.751179   0.000000
  244       85.751403   0.000000
  245       85.917918   0.000000
  246       85.918521   0.000000
  247       86.654996   0.000000
  248       86.655305   0.000000
  249       86.824234   0.000000
  250       86.825261   0.000000
  251       87.960245   0.000000
  252       87.960757   0.000000
  253       88.254605   0.000000
  254       88.256987   0.000000
  255       88.520024   0.000000
  256       88.520552   0.000000
  257       89.614060   0.000000
  258       89.614403   0.000000
  259       90.297612   0.000000
  260       90.298395   0.000000
  261       91.155123   0.000000
  262       91.155358   0.000000
  263       91.177989   0.000000
  264       91.180013   0.000000
  265       91.835610   0.000000
  266       91.835840   0.000000
  267       91.998259   0.000000
  268       91.998750   0.000000
  269       92.280420   0.000000
  270       92.280863   0.000000
  271       92.673934   0.000000
  272       92.675019   0.000000
  273       92.937285   0.000000
  274       92.938774   0.000000
  275       93.877249   0.000000
  276       93.878113   0.000000
  277       94.070395   0.000000
  278       94.071052   0.000000
  279       95.737297   0.000000
  280       95.737797   0.000000
  281       96.074046   0.000000
  282       96.074763   0.000000
  283       96.088855   0.000000
  284       96.090837   0.000000
  285       96.954605   0.000000
  286       96.955919   0.000000
  287       97.085768   0.000000
  288       97.086943   0.000000
  289       97.111395   0.000000
  290       97.112795   0.000000
  291       97.518325   0.000000
  292       97.519353   0.000000
  293       97.521036   0.000000
  294       97.521791   0.000000
  295       98.238602   0.000000
  296       98.238729   0.000000
  297       99.162867   0.000000
  298       99.163315   0.000000
  299       99.168279   0.000000
  300       99.168958   0.000000
  301       99.314118   0.000000
  302       99.314857   0.000000
  303      100.433648   0.000000
  304      100.434050   0.000000
  305      100.562912   0.000000
  306      100.564358   0.000000
  307      101.106064   0.000000
  308      101.106370   0.000000
  309      101.346891   0.000000
  310      101.347501   0.000000
  311      101.510832   0.000000
  312      101.511045   0.000000
  313      102.485904   0.000000
  314      102.486491   0.000000
  315      103.114730   0.000000
  316      103.115345   0.000000
  317      104.130447   0.000000
  318      104.131061   0.000000
  319      104.682516   0.000000
  320      104.682973   0.000000
  321      105.859370   0.000000
  322      105.860459   0.000000
  323      105.898815   0.000000
  324      105.899070   0.000000
  325      107.138748   0.000000
  326      107.139327   0.000000
  327      107.454679   0.000000
  328      107.454765   0.000000
  329      107.537442   0.000000
  330      107.538572   0.000000
  331      108.715104   0.000000
  332      108.715649   0.000000
  333      108.868394   0.000000
  334      108.869037   0.000000
  335      109.309794   0.000000
  336      109.310485   0.000000
  337      109.647678   0.000000
  338      109.648596   0.000000
  339      109.711702   0.000000
  340      109.713251   0.000000
  341      109.715882   0.000000
  342      109.716587   0.000000
  343      111.608246   0.000000
  344      111.609682   0.000000
  345      112.271087   0.000000
  346      112.272667   0.000000
  347      112.422443   0.000000
  348      112.424615   0.000000
  349      113.409995   0.000000
  350      113.410618   0.000000
  351      114.389607   0.000000
  352      114.389951   0.000000
  353      114.452438   0.000000
  354      114.453030   0.000000
  355      114.472263   0.000000
  356      114.472908   0.000000
  357      115.493308   0.000000
  358      115.494310   0.000000
  359      115.838885   0.000000
  360      115.840175   0.000000
  361      116.532562   0.000000
  362      116.533639   0.000000
  363      117.493065   0.000000
  364      117.494391   0.000000
  365      117.551193   0.000000
  366      117.552502   0.000000
  367      118.000412   0.000000
  368      118.000547   0.000000
  369      119.326337   0.000000
  370      119.326906   0.000000
  371      120.007224   0.000000
  372      120.007844   0.000000
  373      120.034642   0.000000
  374      120.035532   0.000000
  375      120.558025   0.000000
  376      120.558177   0.000000
  377      120.820422   0.000000
  378      120.823369   0.000000
  379      120.926564   0.000000
  380      120.926783   0.000000
  381      123.992945   0.000000
  382      123.993192   0.000000
  383      124.006517   0.000000
  384      124.007244   0.000000
 
  0.3333333E+00  0.3133854E-17  0.0000000E+00  0.4629630E-02
    1      -30.460609   1.000000
    2      -30.460457   1.000000
    3      -30.455000   1.000000
    4      -30.454730   1.000000
    5      -23.794590   1.000000
    6      -23.793968   1.000000
    7      -23.792751   1.000000
    8      -23.792659   1.000000
    9      -23.791203   1.000000
   10      -23.790070   1.000000
   11      -20.126485   1.000000
   12      -20.125710   1.000000
   13       -7.189587   1.000000
   14       -7.188629   1.000000
   15        1.095607   1.000000
   16        1.098987   1.000000
   17        3.521903   1.000000
   18        3.526105   1.000000
   19        6.211381   0.000000
   20        6.211554   0.000000
   21       10.411897   0.000000
   22       10.412788   0.000000
   23       10.606221   0.000000
   24       10.606946   0.000000
   25       11.039210   0.000000
   26       11.039651   0.000000
   27       11.277720   0.000000
   28       11.277767   0.000000
   29       13.305396   0.000000
   30       13.305867   0.000000
   31       13.574195   0.000000
   32       13.575642   0.000000
   33       16.652318   0.000000
   34       16.654269   0.000000
   35       17.704923   0.000000
   36       17.706760   0.000000
   37       17.956434   0.000000
   38       17.959452   0.000000
   39       18.322134   0.000000
   40       18.323758   0.000000
   41       18.758151   0.000000
   42       18.760193   0.000000
   43       19.058405   0.000000
   44       19.060627   0.000000
   45       20.619659   0.000000
   46       20.620076   0.000000
   47       21.151468   0.000000
   48       21.151538   0.000000
   49       23.984087   0.000000
   50       23.984455   0.000000
   51       25.230598   0.000000
   52       25.232202   0.000000
   53       25.323880   0.000000
   54       25.325545   0.000000
   55       26.398360   0.000000
   56       26.399398   0.000000
   57       27.083190   0.000000
   58       27.083263   0.000000
   59       27.639656   0.000000
   60       27.640455   0.000000
   61       29.627248   0.000000
   62       29.627383   0.000000
   63       31.024834   0.000000
   64       31.027408   0.000000
   65       31.462324   0.000000
   66       31.462412   0.000000
   67       31.904021   0.000000
   68       31.904815   0.000000
   69       32.062968   0.000000
   70       32.064648   0.000000
   71       32.186020   0.000000
   72       32.186369   0.000000
   73       33.689392   0.000000
   74       33.690738   0.000000
   75       33.847913   0.000000
   76       33.848629   0.000000
   77       34.923531   0.000000
   78       34.924875   0.000000
   79       35.706037   0.000000
   80       35.708327   0.000000
   81       36.027388   0.000000
   82       36.028134   0.000000
   83       36.473425   0.000000
   84       36.474956   0.000000
   85       39.337705   0.000000
   86       39.339506   0.000000
   87       39.371584   0.000000
   88       39.372377   0.000000
   89       40.110789   0.000000
   90       40.110972   0.000000
   91       40.686942   0.000000
   92       40.687474   0.000000
   93       40.900653   0.000000
   94       40.901566   0.000000
   95       42.097682   0.000000
   96       42.098211   0.000000
   97       42.853574   0.000000
   98       42.853640   0.000000
   99       43.086008   0.000000
  100       43.087282   0.000000
  101       43.885888   0.000000
  102       43.887207   0.000000
  103       44.708285   0.000000
  104       44.708448   0.000000
  105       44.948580   0.000000
  106       44.949259   0.000000
  107       46.002085   0.000000
  108       46.002236   0.000000
  109       46.457613   0.000000
  110       46.458973   0.000000
  111       46.519899   0.000000
  112       46.521276   0.000000
  113       47.096012   0.000000
  114       47.096764   0.000000
  115       49.705406   0.000000
  116       49.705859   0.000000
  117       51.172921   0.000000
  118       51.173608   0.000000
  119       51.434413   0.000000
  120       51.435502   0.000000
  121       51.958891   0.000000
  122       51.959318   0.000000
  123       52.012153   0.000000
  124       52.012672   0.000000
  125       52.277879   0.000000
  126       52.278359   0.000000
  127       52.597561   0.000000
  128       52.598222   0.000000
  129       53.642670   0.000000