   1   1   0   0
  0.6497030E+02  0.4512425E-09  0.4512425E-09  0.4512425E-09  0.1000000E-15
  1.000000000000000E-004
  CAR 
 Og_FCC                                  
     14.72458727    -31.13434650  301      0.66053209      1.00000000
    -31.134  0.0000E+00  0.0000E+00
    -30.981  0.0000E+00  0.0000E+00
    -30.829  0.0000E+00  0.0000E+00
    -30.676  0.0000E+00  0.0000E+00
    -30.523  0.0000E+00  0.0000E+00
    -30.370  0.0000E+00  0.0000E+00
    -30.217  0.0000E+00  0.0000E+00
    -30.064  0.0000E+00  0.0000E+00
    -29.911 -0.4844E-30 -0.7405E-31
    -29.759 -0.1181E-19 -0.1806E-20
    -29.606 -0.2493E-11 -0.3811E-12
    -29.453 -0.4575E-05 -0.6993E-06
    -29.300 -0.6311E-01 -0.9648E-02
    -29.147 -0.1656E+01 -0.2628E+00
    -28.994  0.5920E+02  0.8787E+01
    -28.841  0.8384E+01  0.1007E+02
    -28.689 -0.4516E+00  0.1000E+02
    -28.536 -0.1746E-03  0.1000E+02
    -28.383 -0.4549E-09  0.1000E+02
    -28.230  0.0000E+00  0.1000E+02
    -28.077  0.0000E+00  0.1000E+02
    -27.924  0.0000E+00  0.1000E+02
    -27.771  0.0000E+00  0.1000E+02
    -27.618  0.0000E+00  0.1000E+02
    -27.466  0.0000E+00  0.1000E+02
    -27.313  0.0000E+00  0.1000E+02
    -27.160  0.0000E+00  0.1000E+02
    -27.007  0.0000E+00  0.1000E+02
    -26.854  0.0000E+00  0.1000E+02
    -26.701  0.0000E+00  0.1000E+02
    -26.548  0.0000E+00  0.1000E+02
    -26.396  0.0000E+00  0.1000E+02
    -26.243  0.0000E+00  0.1000E+02
    -26.090  0.0000E+00  0.1000E+02
    -25.937  0.0000E+00  0.1000E+02
    -25.784  0.0000E+00  0.1000E+02
    -25.631  0.0000E+00  0.1000E+02
    -25.478  0.0000E+00  0.1000E+02
    -25.326  0.0000E+00  0.1000E+02
    -25.173  0.0000E+00  0.1000E+02
    -25.020  0.0000E+00  0.1000E+02
    -24.867  0.0000E+00  0.1000E+02
    -24.714  0.0000E+00  0.1000E+02
    -24.561  0.0000E+00  0.1000E+02
    -24.408  0.0000E+00  0.1000E+02
    -24.256  0.0000E+00  0.1000E+02
    -24.103  0.0000E+00  0.1000E+02
    -23.950  0.0000E+00  0.1000E+02
    -23.797  0.0000E+00  0.1000E+02
    -23.644  0.0000E+00  0.1000E+02
    -23.491  0.0000E+00  0.1000E+02
    -23.338  0.0000E+00  0.1000E+02
    -23.185  0.0000E+00  0.1000E+02
    -23.033  0.0000E+00  0.1000E+02
    -22.880 -0.1340E-30  0.1000E+02
    -22.727 -0.1819E-20  0.1000E+02
    -22.574 -0.2357E-12  0.1000E+02
    -22.421 -0.3190E-06  0.1000E+02
    -22.268 -0.4601E-02  0.9999E+01
    -22.115 -0.3877E+00  0.9940E+01
    -21.963  0.9178E+01  0.1134E+02
    -21.810  0.4524E+01  0.1203E+02
    -21.657 -0.2255E+00  0.1200E+02
    -21.504 -0.3444E-03  0.1200E+02
    -21.351 -0.3309E-08  0.1200E+02
    -21.198  0.0000E+00  0.1200E+02
    -21.045  0.0000E+00  0.1200E+02
    -20.893  0.0000E+00  0.1200E+02
    -20.740  0.0000E+00  0.1200E+02
    -20.587  0.0000E+00  0.1200E+02
    -20.434  0.0000E+00  0.1200E+02
    -20.281  0.0000E+00  0.1200E+02
    -20.128  0.0000E+00  0.1200E+02
    -19.975  0.0000E+00  0.1200E+02
    -19.822  0.0000E+00  0.1200E+02
    -19.670  0.0000E+00  0.1200E+02
    -19.517  0.0000E+00  0.1200E+02
    -19.364  0.0000E+00  0.1200E+02
    -19.211  0.0000E+00  0.1200E+02
    -19.058  0.0000E+00  0.1200E+02
    -18.905  0.0000E+00  0.1200E+02
    -18.752  0.0000E+00  0.1200E+02
    -18.600  0.0000E+00  0.1200E+02
    -18.447  0.0000E+00  0.1200E+02
    -18.294  0.0000E+00  0.1200E+02
    -18.141  0.0000E+00  0.1200E+02
    -17.988  0.0000E+00  0.1200E+02
    -17.835  0.0000E+00  0.1200E+02
    -17.682  0.0000E+00  0.1200E+02
    -17.530  0.0000E+00  0.1200E+02
    -17.377  0.0000E+00  0.1200E+02
    -17.224  0.0000E+00  0.1200E+02
    -17.071  0.0000E+00  0.1200E+02
    -16.918  0.0000E+00  0.1200E+02
    -16.765  0.0000E+00  0.1200E+02
    -16.612  0.0000E+00  0.1200E+02
    -16.459  0.0000E+00  0.1200E+02
    -16.307  0.0000E+00  0.1200E+02
    -16.154  0.0000E+00  0.1200E+02
    -16.001  0.0000E+00  0.1200E+02
    -15.848  0.0000E+00  0.1200E+02
    -15.695  0.0000E+00  0.1200E+02
    -15.542  0.0000E+00  0.1200E+02
    -15.389  0.0000E+00  0.1200E+02
    -15.237  0.0000E+00  0.1200E+02
    -15.084  0.0000E+00  0.1200E+02
    -14.931  0.0000E+00  0.1200E+02
    -14.778  0.0000E+00  0.1200E+02
    -14.625  0.0000E+00  0.1200E+02
    -14.472  0.0000E+00  0.1200E+02
    -14.319  0.0000E+00  0.1200E+02
    -14.167  0.0000E+00  0.1200E+02
    -14.014  0.0000E+00  0.1200E+02
    -13.861  0.0000E+00  0.1200E+02
    -13.708  0.0000E+00  0.1200E+02
    -13.555  0.0000E+00  0.1200E+02
    -13.402  0.0000E+00  0.1200E+02
    -13.249  0.0000E+00  0.1200E+02
    -13.096  0.0000E+00  0.1200E+02
    -12.944  0.0000E+00  0.1200E+02
    -12.791  0.0000E+00  0.1200E+02
    -12.638  0.0000E+00  0.1200E+02
    -12.485  0.0000E+00  0.1200E+02
    -12.332  0.0000E+00  0.1200E+02
    -12.179  0.0000E+00  0.1200E+02
    -12.026  0.0000E+00  0.1200E+02
    -11.874  0.0000E+00  0.1200E+02
    -11.721  0.0000E+00  0.1200E+02
    -11.568  0.0000E+00  0.1200E+02
    -11.415  0.0000E+00  0.1200E+02
    -11.262  0.0000E+00  0.1200E+02
    -11.109  0.0000E+00  0.1200E+02
    -10.956  0.0000E+00  0.1200E+02
    -10.804  0.0000E+00  0.1200E+02
    -10.651  0.0000E+00  0.1200E+02
    -10.498  0.0000E+00  0.1200E+02
    -10.345  0.0000E+00  0.1200E+02
    -10.192  0.0000E+00  0.1200E+02
    -10.039  0.0000E+00  0.1200E+02
     -9.886  0.0000E+00  0.1200E+02
     -9.734  0.0000E+00  0.1200E+02
     -9.581  0.0000E+00  0.1200E+02
     -9.428  0.0000E+00  0.1200E+02
     -9.275  0.0000E+00  0.1200E+02
     -9.122  0.0000E+00  0.1200E+02
     -8.969  0.0000E+00  0.1200E+02
     -8.816  0.0000E+00  0.1200E+02
     -8.663  0.0000E+00  0.1200E+02
     -8.511  0.0000E+00  0.1200E+02
     -8.358  0.0000E+00  0.1200E+02
     -8.205  0.0000E+00  0.1200E+02
     -8.052  0.0000E+00  0.1200E+02
     -7.899  0.0000E+00  0.1200E+02
     -7.746  0.0000E+00  0.1200E+02
     -7.593  0.0000E+00  0.1200E+02
     -7.441  0.0000E+00  0.1200E+02
     -7.288  0.0000E+00  0.1200E+02
     -7.135  0.0000E+00  0.1200E+02
     -6.982  0.0000E+00  0.1200E+02
     -6.829  0.0000E+00  0.1200E+02
     -6.676  0.0000E+00  0.1200E+02
     -6.523  0.0000E+00  0.1200E+02
     -6.371  0.0000E+00  0.1200E+02
     -6.218  0.0000E+00  0.1200E+02
     -6.065  0.0000E+00  0.1200E+02
     -5.912  0.0000E+00  0.1200E+02
     -5.759  0.0000E+00  0.1200E+02
     -5.606  0.0000E+00  0.1200E+02
     -5.453  0.0000E+00  0.1200E+02
     -5.300  0.0000E+00  0.1200E+02
     -5.148  0.0000E+00  0.1200E+02
     -4.995  0.0000E+00  0.1200E+02
     -4.842  0.0000E+00  0.1200E+02
     -4.689  0.0000E+00  0.1200E+02
     -4.536  0.0000E+00  0.1200E+02
     -4.383  0.0000E+00  0.1200E+02
     -4.230  0.0000E+00  0.1200E+02
     -4.078  0.0000E+00  0.1200E+02
     -3.925  0.0000E+00  0.1200E+02
     -3.772  0.0000E+00  0.1200E+02
     -3.619  0.0000E+00  0.1200E+02
     -3.466  0.0000E+00  0.1200E+02
     -3.313  0.0000E+00  0.1200E+02
     -3.160  0.0000E+00  0.1200E+02
     -3.008  0.0000E+00  0.1200E+02
     -2.855  0.0000E+00  0.1200E+02
     -2.702 -0.3939E-32  0.1200E+02
     -2.549 -0.7699E-22  0.1200E+02
     -2.396 -0.1319E-13  0.1200E+02
     -2.243 -0.2072E-07  0.1200E+02
     -2.090 -0.2865E-03  0.1200E+02
     -1.937 -0.1780E-01  0.1200E+02
     -1.785  0.3983E+00  0.1206E+02
     -1.632  0.1274E+01  0.1225E+02
     -1.479  0.3315E+01  0.1276E+02
     -1.326  0.4338E+01  0.1342E+02
     -1.173  0.1651E+01  0.1368E+02
     -1.020  0.9324E+00  0.1382E+02
     -0.867  0.1410E+01  0.1403E+02
     -0.715  0.1457E+01  0.1426E+02
     -0.562  0.1938E+01  0.1455E+02
     -0.409  0.1434E+01  0.1477E+02
     -0.256  0.3766E+01  0.1535E+02
     -0.103  0.2868E+01  0.1579E+02
      0.050  0.3947E+01  0.1639E+02
      0.203  0.3985E+01  0.1700E+02
      0.355  0.3578E+01  0.1754E+02
      0.508  0.2189E+01  0.1788E+02
      0.661  0.7897E+00  0.1800E+02
      0.814  0.1013E-02  0.1800E+02
      0.967 -0.1822E-02  0.1800E+02
      1.120 -0.5343E-06  0.1800E+02
      1.273 -0.1587E-11  0.1800E+02
      1.425  0.0000E+00  0.1800E+02
      1.578  0.0000E+00  0.1800E+02
      1.731  0.0000E+00  0.1800E+02
      1.884 -0.4952E-40  0.1800E+02
      2.037 -0.1526E-28  0.1800E+02
      2.190 -0.4229E-19  0.1800E+02
      2.343 -0.9903E-12  0.1800E+02
      2.496 -0.1944E-06  0.1800E+02
      2.648 -0.2376E-03  0.1800E+02
      2.801  0.4837E-02  0.1800E+02
      2.954  0.1398E-01  0.1800E+02
      3.107 -0.6302E-03  0.1800E+02
      3.260 -0.3158E-03  0.1800E+02
      3.413  0.7981E-03  0.1800E+02
      3.566  0.1347E+00  0.1802E+02
      3.718  0.6018E-01  0.1803E+02
      3.871  0.5884E-01  0.1804E+02
      4.024 -0.3652E-02  0.1804E+02
      4.177  0.7234E-02  0.1804E+02
      4.330  0.2050E+00  0.1807E+02
      4.483  0.2340E-01  0.1808E+02
      4.636  0.3675E+00  0.1813E+02
      4.788  0.1974E+00  0.1816E+02
      4.941 -0.1533E-01  0.1816E+02
      5.094  0.7762E-01  0.1817E+02
      5.247  0.6514E+00  0.1827E+02
      5.400  0.3730E+00  0.1833E+02
      5.553  0.6098E+00  0.1842E+02
      5.706  0.1164E+01  0.1860E+02
      5.859  0.7385E+00  0.1871E+02
      6.011  0.6694E+00  0.1882E+02
      6.164  0.9863E+00  0.1897E+02
      6.317  0.1761E+01  0.1924E+02
      6.470  0.1224E+01  0.1942E+02
      6.623  0.1423E+01  0.1964E+02
      6.776  0.6514E+00  0.1974E+02
      6.929  0.2116E+00  0.1977E+02
      7.081  0.1054E+01  0.1993E+02
      7.234  0.6110E+00  0.2003E+02
      7.387  0.9791E+00  0.2018E+02
      7.540  0.1213E+00  0.2020E+02
      7.693  0.6538E+00  0.2029E+02
      7.846  0.7788E+00  0.2041E+02
      7.999  0.1763E+01  0.2068E+02
      8.151  0.2976E+01  0.2114E+02
      8.304  0.1733E+01  0.2140E+02
      8.457  0.9004E+00  0.2154E+02
      8.610  0.3154E+01  0.2202E+02
      8.763  0.3329E+01  0.2253E+02
      8.916  0.1010E+01  0.2269E+02
      9.069  0.2143E+00  0.2272E+02
      9.222  0.3605E+00  0.2277E+02
      9.374  0.4280E+00  0.2284E+02
      9.527  0.1011E+01  0.2299E+02
      9.680  0.3371E+01  0.2351E+02
      9.833  0.2862E+01  0.2395E+02
      9.986  0.1873E+01  0.2423E+02
     10.139  0.2120E+01  0.2456E+02
     10.292  0.2459E+01  0.2493E+02
     10.444  0.1399E+01  0.2515E+02
     10.597  0.4426E+00  0.2521E+02
     10.750  0.9291E+00  0.2536E+02
     10.903  0.5694E+00  0.2544E+02
     11.056  0.2843E+00  0.2549E+02
     11.209  0.6028E+00  0.2558E+02
     11.362  0.4705E+00  0.2565E+02
     11.514  0.7490E+00  0.2577E+02
     11.667  0.5920E+00  0.2586E+02
     11.820  0.7263E+00  0.2597E+02
     11.973  0.1115E+00  0.2598E+02
     12.126 -0.6436E-02  0.2598E+02
     12.279 -0.5382E-05  0.2598E+02
     12.432 -0.6488E-03  0.2598E+02
     12.585  0.1150E-01  0.2599E+02
     12.737  0.9921E-01  0.2600E+02
     12.890 -0.2252E-02  0.2600E+02
     13.043 -0.1239E-03  0.2600E+02
     13.196 -0.1018E-07  0.2600E+02
     13.349 -0.6241E-14  0.2600E+02
     13.502  0.0000E+00  0.2600E+02
     13.655  0.0000E+00  0.2600E+02
     13.807  0.0000E+00  0.2600E+02
     13.960  0.0000E+00  0.2600E+02
     14.113  0.0000E+00  0.2600E+02
     14.266  0.0000E+00  0.2600E+02
     14.419  0.0000E+00  0.2600E+02
     14.572  0.0000E+00  0.2600E+02
     14.725  0.0000E+00  0.2600E+02
