    1    1  999    1
  0.1860368E+02  0.2974208E-09  0.2974208E-09  0.2974208E-09  0.1000000E-15
  1.000000000000000E-004
  CAR 
 Ne_FCC                                  
      8     84      8
 
  0.0000000E+00  0.0000000E+00  0.0000000E+00  0.4551661E-03
    1      -33.953766   1.000000
    2      -10.340080   0.668208
    3      -10.340080   0.668206
    4      -10.340080   0.668204
    5        1.500942   0.000000
    6       20.935202   0.000000
    7       20.935211   0.000000
    8       20.935212   0.000000
 
  0.7692308E-01  0.6938894E-17  0.6938894E-17  0.3641329E-02
    1      -33.945542   1.000000
    2      -10.405378   1.027235
    3      -10.345960   0.756714
    4      -10.345959   0.756712
    5        1.694473   0.000000
    6       19.338367   0.000000
    7       20.910764   0.000000
    8       20.910769   0.000000
 
  0.1538462E+00  0.1387779E-16  0.0000000E+00  0.3641329E-02
    1      -33.922439   1.000000
    2      -10.579992   1.000000
    3      -10.362121   0.938848
    4      -10.362121   0.938847
    5        2.253732   0.000000
    6       16.977832   0.000000
    7       20.781807   0.000000
    8       20.781810   0.000000
 
  0.2307692E+00  0.0000000E+00  0.0000000E+00  0.3641329E-02
    1      -33.889844   1.000000
    2      -10.814010   1.000000
    3      -10.384707   1.032429
    4      -10.384707   1.032429
    5        3.126183   0.000000
    6       14.673695   0.000000
    7       20.472022   0.000000
    8       20.472024   0.000000
 
  0.3076923E+00  0.0000000E+00  0.2775558E-16  0.3641329E-02
    1      -33.854917   1.000000
    2      -11.048282   1.000000
    3      -10.408476   1.024396
    4      -10.408476   1.024396
    5        4.251300   0.000000
    6       12.524375   0.000000
    7       20.050938   0.000000
    8       20.050939   0.000000
 
  0.3846154E+00  0.0000000E+00  0.0000000E+00  0.3641329E-02
    1      -33.825778   1.000000
    2      -11.233218   1.000000
    3      -10.428063   1.008993
    4      -10.428063   1.008993
    5        5.577997   0.000000
    6       10.547742   0.000000
    7       19.678616   0.000000
    8       19.678617   0.000000
 
  0.4615385E+00  0.0000000E+00  0.0000000E+00  0.3641329E-02
    1      -33.809367   1.000000
    2      -11.334579   1.000000
    3      -10.439143   1.004211
    4      -10.439143   1.004211
    5        7.068898   0.000000
    6        8.743295   0.000000
    7       19.468255   0.000000
    8       19.468255   0.000000
 
  0.7692308E-01  0.7692308E-01  0.0000000E+00  0.2730997E-02
    1      -33.942810   1.000000
    2      -10.407234   1.025543
    3      -10.357629   0.898461
    4      -10.357629   0.898461
    5        1.758197   0.000000
    6       19.476669   0.000000
    7       20.532892   0.000000
    8       20.532900   0.000000
 
  0.1538462E+00  0.7692308E-01  0.0000000E+00  0.1092399E-01
    1      -33.924650   1.000000
    2      -10.536648   1.000000
    3      -10.378989   1.023102
    4      -10.369087   0.985700
    5        2.193238   0.000000
    6       17.673308   0.000000
    7       20.206049   0.000000
    8       20.413154   0.000000
 
  0.2307692E+00  0.7692308E-01  0.0000000E+00  0.1092399E-01
    1      -33.895259   1.000000
    2      -10.745371   1.000000
    3      -10.404906   1.027658
    4      -10.387502   1.034554
    5        2.957435   0.000000
    6       15.453982   0.000000
    7       19.836516   0.000000
    8       19.898044   0.000000
 
  0.3076923E+00  0.7692308E-01  0.2775558E-16  0.1092399E-01
    1      -33.861166   1.000000
    2      -10.972714   1.000000
    3      -10.429385   1.008271
    4      -10.414346   1.019044
    5        3.993039   0.000000
    6       13.293883   0.000000
    7       19.113194   0.000000
    8       19.607840   0.000000
 
  0.3846154E+00  0.7692308E-01  0.2775558E-16  0.1092399E-01
    1      -33.830083   1.000000
    2      -11.167493   1.000000
    3      -10.446951   1.002290
    4      -10.443271   1.003074
    5        5.245860   0.000000
    6       11.281447   0.000000
    7       18.537015   0.000000
    8       19.381748   0.000000
 
  0.4615385E+00  0.7692308E-01  0.2775558E-16  0.1092399E-01
    1      -33.809401   1.000000
    2      -11.291971   1.000000
    3      -10.467807   1.000339
    4      -10.453713   1.001288
    5        6.673872   0.000000
    6        9.435328   0.000000
    7       18.151798   0.000000
    8       19.286958   0.000000
 
 -0.4615385E+00  0.7692308E-01 -0.2775558E-16  0.1092399E-01
    1      -33.803888   1.000000
    2      -11.324122   1.000000
    3      -10.482135   1.000073
    4      -10.448076   1.002087
    5        7.678230   0.000000
    6        8.329658   0.000000
    7       17.954823   0.000000
    8       19.381753   0.000000
 
 -0.3846154E+00  0.7692308E-01  0.0000000E+00  0.1092399E-01
    1      -33.814830   1.000000
    2      -11.258715   1.000000
    3      -10.482782   1.000068
    4      -10.431368   1.007269
    5        6.181300   0.000000
    6       10.034365   0.000000
    7       17.942513   0.000000
    8       19.702688   0.000000
 
 -0.3076923E+00  0.7692308E-01 -0.2775558E-16  0.1092399E-01
    1      -33.839785   1.000000
    2      -11.107468   1.000000
    3      -10.469377   1.000289
    4      -10.407398   1.025392
    5        4.807865   0.000000
    6       11.937068   0.000000
    7       18.116312   0.000000
    8       20.256608   0.000000
 
 -0.2307692E+00  0.7692308E-01 -0.6938894E-17  0.1092399E-01
    1      -33.872726   1.000000
    2      -10.898308   1.000000
    3      -10.444156   1.002867
    4      -10.381465   1.028057
    5        3.621939   0.000000
    6       13.995439   0.000000
    7       18.478055   0.000000
    8       20.982966   0.000000
 
 -0.1538462E+00  0.7692308E-01 -0.1734723E-16  0.1092399E-01
    1      -33.906054   1.000000
    2      -10.675037   1.000000
    3      -10.411642   1.021475
    4      -10.359525   0.916500
    5        2.669893   0.000000
    6       16.152304   0.000000
    7       19.035358   0.000000
    8       21.518718   0.000000
 
 -0.7692308E-01  0.7692308E-01 -0.1046977E-16  0.5461994E-02
    1      -33.932351   1.000000
    2      -10.494106   1.000017
    3      -10.376179   1.015541
    4      -10.346787   0.768369
    5        2.009026   0.000000
    6       18.138736   0.000000
    7       19.886168   0.000000
    8       21.329876   0.000000
 
  0.1538462E+00  0.1538462E+00  0.0000000E+00  0.2730997E-02
    1      -33.912072   1.000000
    2      -10.580389   1.000000
    3      -10.406083   1.026596
    4      -10.406083   1.026596
    5        2.493202   0.000000
    6       17.600752   0.000000
    7       19.766573   0.000000
    8       19.766580   0.000000
 
  0.2307692E+00  0.1538462E+00 -0.2775558E-16  0.1092399E-01
    1      -33.887751   1.000000
    2      -10.728776   1.000000
    3      -10.437242   1.004840
    4      -10.431954   1.006991
    5        3.125984   0.000000
    6       16.130013   0.000000
    7       18.626504   0.000000
    8       19.428580   0.000000
 
  0.3076923E+00  0.1538462E+00  0.2775558E-16  0.1092399E-01
    1      -33.856888   1.000000
    2      -10.917527   1.000000
    3      -10.465142   1.000442
    4      -10.464386   1.000477
    5        4.043933   0.000000
    6       14.154334   0.000000
    7       17.541125   0.000000
    8       19.172570   0.000000
 
  0.3846154E+00  0.1538462E+00 -0.2775558E-16  0.1092399E-01
    1      -33.826728   1.000000
    2      -11.091765   1.000000
    3      -10.507051   1.000003
    4      -10.483547   1.000062
    5        5.195396   0.000000
    6       12.177871   0.000000
    7       16.789354   0.000000
    8       19.006625   0.000000
 
  0.4615385E+00  0.1538462E+00  0.0000000E+00  0.1092399E-01
    1      -33.804050   1.000000
    2      -11.214022   1.000000
    3      -10.551214   1.000000
    4      -10.488272   1.000036
    5        6.533968   0.000000
    6       10.334457   0.000000
    7       16.265283   0.000000
    8       18.963539   0.000000
 
 -0.4615385E+00  0.1538462E+00 -0.1387779E-16  0.1092399E-01
    1      -33.794297   1.000000
    2      -11.262745   1.000000
    3      -10.585779   1.000000
    4      -10.478364   1.000111
    5        7.940702   0.000000
    6        8.737989   0.000000
    7       15.920684   0.000000
    8       19.087031   0.000000
 
 -0.3846154E+00  0.1538462E+00 -0.1387779E-16  0.1092399E-01
    1      -33.799775   1.000000
    2      -11.231211   1.000000
    3      -10.601063   1.000000
    4      -10.456108   1.001040
    5        7.014843   0.000000
    6        9.776649   0.000000
    7       15.751950   0.000000
    8       19.418975   0.000000
 
 -0.3076923E+00  0.1538462E+00 -0.2081668E-16  0.1092399E-01
    1      -33.819108   1.000000
    2      -11.128077   1.000000
    3      -10.590251   1.000000
    4      -10.426354   1.009993
    5        5.629891   0.000000
    6       11.570604   0.000000
    7       15.796113   0.000000
    8       19.992592   0.000000
 
 -0.2307692E+00  0.1538462E+00 -0.2428613E-16  0.1092399E-01
    1      -33.847803   1.000000
    2      -10.976977   1.000000
    3      -10.550935   1.000000
    4      -10.395972   1.034205
    5        4.410581   0.000000
    6       13.452074   0.000000
    7       16.152776   0.000000
    8       20.828808   0.000000
 
 -0.1538462E+00  0.1538462E+00 -0.1308226E-16  0.5461994E-02
    1      -33.879190   1.000000
    2      -10.813677   1.000000
    3      -10.486397   1.000044
    4      -10.371815   0.999150
    5        3.406220   0.000000
    6       15.096781   0.000000
    7       17.144634   0.000000
    8       21.902937   0.000000
 
  0.2307692E+00  0.2307692E+00  0.2775558E-16  0.2730997E-02
    1      -33.869018   1.000000
    2      -10.798657   1.000000
    3      -10.474362   1.000171
    4      -10.474362   1.000171
    5        3.616644   0.000000
    6       16.040887   0.000000
    7       17.554059   0.000000
    8       19.074729   0.000000
 
  0.3076923E+00  0.2307692E+00  0.2775558E-16  0.1092399E-01
    1      -33.843315   1.000000
    2      -10.926970   1.000000
    3      -10.513803   1.000001
    4      -10.507502   1.000003
    5        4.395434   0.000000
    6       14.862177   0.000000
    7       16.133612   0.000000
    8       18.824411   0.000000
 
  0.3846154E+00  0.2307692E+00  0.0000000E+00  0.1092399E-01
    1      -33.816451   1.000000
    2      -11.054499   1.000000
    3      -10.570204   1.000000
    4      -10.529267   1.000000
    5        5.419714   0.000000
    6       13.108473   0.000000
    7       15.219072   0.000000
    8       18.674513   0.000000
 
  0.4615385E+00  0.2307692E+00  0.0000000E+00  0.1092399E-01
    1      -33.794539   1.000000
    2      -11.142893   1.000000
    3      -10.641594   1.000000
    4      -10.534778   1.000000
    5        6.644176   0.000000
    6       11.348413   0.000000
    7       14.576114   0.000000
    8       18.638456   0.000000
 
 -0.4615385E+00  0.2307692E+00  0.0000000E+00  0.1092399E-01
    1      -33.782825   1.000000
    2      -11.175199   1.000000
    3      -10.711538   1.000000
    4      -10.522927   1.000000
    5        7.984003   0.000000
    6        9.769468   0.000000
    7       14.091021   0.000000
    8       18.742595   0.000000
 
 -0.3846154E+00  0.2307692E+00  0.0000000E+00  0.1092399E-01
    1      -33.783923   1.000000
    2      -11.154150   1.000000
    3      -10.755268   1.000000
    4      -10.496288   1.000013
    5        7.980868   0.000000
    6        9.821163   0.000000
    7       13.768887   0.000000
    8       19.016989   0.000000
 
 -0.3076923E+00  0.2307692E+00 -0.1387779E-16  0.1092399E-01
    1      -33.797603   1.000000
    2      -11.101910   1.000000
    3      -10.744628   1.000000
    4      -10.460810   1.000673
    5        6.663632   0.000000
    6       11.429336   0.000000
    7       13.699911   0.000000
    8       19.483529   0.000000
 
 -0.2307692E+00  0.2307692E+00 -0.3009518E-16  0.5461994E-02
    1      -33.820727   1.000000
    2      -11.042707   1.000000
    3      -10.667173   1.000000
    4      -10.424624   1.011082
    5        5.442980   0.000000
    6       12.825690   0.000000
    7       14.315662   0.000000
    8       20.133460   0.000000
 
  0.3076923E+00  0.3076923E+00 -0.2775558E-16  0.2730997E-02
    1      -33.823393   1.000000
    2      -11.002027   1.000000
    3      -10.546570   1.000000
    4      -10.546570   1.000000
    5        5.025417   0.000000
    6       14.858363   0.000000
    7       14.869586   0.000000
    8       18.575964   0.000000
 
  0.3846154E+00  0.3076923E+00 -0.2775558E-16  0.1092399E-01
    1      -33.801572   1.000000
    2      -11.087679   1.000000
    3      -10.593615   1.000000
    4      -10.573497   1.000000
    5        5.903435   0.000000
    6       13.548218   0.000000
    7       14.129710   0.000000
    8       18.426270   0.000000
 
  0.4615385E+00  0.3076923E+00  0.0000000E+00  0.1092399E-01
    1      -33.783011   1.000000
    2      -11.136851   1.000000
    3      -10.673993   1.000000
    4      -10.582363   1.000000
    5        6.991923   0.000000
    6       12.136833   0.000000
    7       13.335148   0.000000
    8       18.379767   0.000000
 
 -0.4615385E+00  0.3076923E+00 -0.2775558E-16  0.1092399E-01
    1      -33.771866   1.000000
    2      -11.127089   1.000000
    3      -10.781526   1.000000
    4      -10.571229   1.000000
    5        8.220087   0.000000
    6       10.791519   0.000000
    7       12.638387   0.000000
    8       18.449877   0.000000
 
 -0.3846154E+00  0.3076923E+00 -0.3122502E-16  0.1092399E-01
    1      -33.770895   1.000000
    2      -11.061204   1.000000
    3      -10.891353   1.000000
    4      -10.542630   1.000000
    5        8.868109   0.000000
    6       10.238767   0.000000
    7       12.103732   0.000000
    8       18.654302   0.000000
 
 -0.3076923E+00  0.3076923E+00 -0.1366402E-16  0.5461994E-02
    1      -33.780095   1.000000
    2      -11.041025   1.000000
    3      -10.889611   1.000000
    4      -10.502684   1.000006
    5        7.830354   0.000000
    6       11.299881   0.000000
    7       12.095837   0.000000
    8       19.004415   0.000000
 
  0.3846154E+00  0.3846154E+00  0.0000000E+00  0.2730997E-02
    1      -33.785532   1.000000
    2      -11.151436   1.000000
    3      -10.606248   1.000000
    4      -10.606248   1.000000
    5        6.626288   0.000000
    6       12.522740   0.000000
    7       14.066685   0.000000
    8       18.270313   0.000000
 
  0.4615385E+00  0.3846154E+00  0.0000000E+00  0.1092399E-01
    1      -33.771892   1.000000
    2      -11.188019   1.000000
    3      -10.651356   1.000000
    4      -10.620193   1.000000
    5        7.559630   0.000000
    6       11.497770   0.000000
    7       13.485957   0.000000
    8       18.208673   0.000000
 
 -0.4615385E+00  0.3846154E+00 -0.2428613E-16  0.1092399E-01
    1      -33.764089   1.000000
    2      -11.169571   1.000000
    3      -10.740525   1.000000
    4      -10.612338   1.000000
    5        8.636395   0.000000
    6       10.667374   0.000000
    7       12.547707   0.000000
    8       18.246708   0.000000
 
 -0.3846154E+00  0.3846154E+00 -0.3204275E-16  0.5461994E-02
    1      -33.763703   1.000000
    2      -11.096626   1.000000
    3      -10.855238   1.000000
    4      -10.584443   1.000000
    5        9.355449   0.000000
    6       10.396767   0.000000
    7       11.600461   0.000000
    8       18.393329   0.000000
 
  0.4615385E+00  0.4615385E+00  0.5551115E-16  0.2730997E-02
    1      -33.764138   1.000000
    2      -11.228817   1.000000
    3      -10.639912   1.000000
    4      -10.639912   1.000000
    5        8.304372   0.000000
    6       10.512008   0.000000
    7       13.670107   0.000000
    8       18.128669   0.000000
 
 -0.4615385E+00  0.4615385E+00 -0.6019036E-16  0.5461994E-02
    1      -33.761339   1.000000
    2      -11.221880   1.000000
    3      -10.672576   1.000000
    4      -10.637150   1.000000
    5        8.930431   0.000000
    6        9.985738   0.000000
    7       13.293381   0.000000
    8       18.140466   0.000000
 
  0.2307692E+00  0.1538462E+00  0.7692308E-01  0.1092399E-01
    1      -33.903382   1.000000
    2      -10.662397   1.000000
    3      -10.427465   1.009335
    4      -10.378656   1.022318
    5        2.728041   0.000000
    6       16.533527   0.000000
    7       18.617214   0.000000
    8       21.028434   0.000000
 
  0.3076923E+00  0.1538462E+00  0.7692308E-01  0.2184797E-01
    1      -33.873311   1.000000
    2      -10.845380   1.000000
    3      -10.476625   1.000134
    4      -10.396689   1.033839
    5        3.568388   0.000000
    6       14.751645   0.000000
    7       17.537162   0.000000
    8       20.555058   0.000000
 
  0.3846154E+00  0.1538462E+00  0.7692308E-01  0.2184797E-01
    1      -33.841178   1.000000
    2      -11.035673   1.000000
    3      -10.515168   1.000001
    4      -10.423108   1.012099
    5        4.659653   0.000000
    6       12.758816   0.000000
    7       16.956351   0.000000
    8       19.835551   0.000000
 
  0.4615385E+00  0.1538462E+00  0.7692308E-01  0.2184797E-01
    1      -33.814318   1.000000
    2      -11.188307   1.000000
    3      -10.540298   1.000000
    4      -10.449735   1.001816
    5        5.951947   0.000000
    6       10.847047   0.000000
    7       16.639285   0.000000
    8       19.318443   0.000000
 
 -0.4615385E+00  0.1538462E+00  0.7692308E-01  0.2184797E-01
    1      -33.799116   1.000000
    2      -11.272417   1.000000
    3      -10.551914   1.000000
    4      -10.466942   1.000370
    5        7.394321   0.000000
    6        9.098616   0.000000
    7       16.500538   0.000000
    8       19.046931   0.000000
 
  0.3076923E+00  0.2307692E+00  0.7692308E-01  0.1092399E-01
    1      -33.862690   1.000000
    2      -10.853702   1.000000
    3      -10.499588   1.000009
    4      -10.447113   1.002259
    5        3.832604   0.000000
    6       15.185947   0.000000
    7       16.874234   0.000000
    8       19.525119   0.000000
 
  0.3846154E+00  0.2307692E+00  0.7692308E-01  0.2184797E-01
    1      -33.833894   1.000000
    2      -10.995848   1.000000
    3      -10.559025   1.000000
    4      -10.471464   1.000233
    5        4.802665   0.000000
    6       13.616090   0.000000
    7       15.763913   0.000000
    8       18.983476   0.000000
 
  0.4615385E+00  0.2307692E+00  0.7692308E-01  0.2184797E-01
    1      -33.807814   1.000000
    2      -11.116764   1.000000
    3      -10.610143   1.000000
    4      -10.497446   1.000012
    5        5.988038   0.000000
    6       11.798336   0.000000
    7       15.211904   0.000000
    8       18.550950   0.000000
 
 -0.4615385E+00  0.2307692E+00  0.7692308E-01  0.2184797E-01
    1      -33.790704   1.000000
    2      -11.190025   1.000000
    3      -10.652959   1.000000
    4      -10.510219   1.000002
    5        7.334889   0.000000
    6       10.077787   0.000000
    7       14.873183   0.000000
    8       18.346772   0.000000
 
 -0.3846154E+00  0.2307692E+00  0.7692308E-01  0.2184797E-01
    1      -33.786450   1.000000
    2      -11.203249   1.000000
    3      -10.680471   1.000000
    4      -10.502555   1.000006
    5        8.182753   0.000000
    6        9.150068   0.000000
    7       14.661297   0.000000
    8       18.419928   0.000000
 
 -0.3076923E+00  0.2307692E+00  0.7692308E-01  0.2184797E-01
    1      -33.796027   1.000000
    2      -11.158163   1.000000
    3      -10.680375   1.000000
    4      -10.478096   1.000114
    5        6.878502   0.000000
    6       10.661200   0.000000
    7       14.595273   0.000000
    8       18.771895   0.000000
 
 -0.2307692E+00  0.2307692E+00  0.7692308E-01  0.2184797E-01
    1      -33.817267   1.000000
    2      -11.069235   1.000000
    3      -10.643173   1.000000
    4      -10.445693   1.002536
    5        5.580802   0.000000
    6       12.408431   0.000000
    7       14.787199   0.000000
    8       19.367628   0.000000
 
 -0.1538462E+00  0.2307692E+00  0.7692308E-01  0.1092399E-01
    1      -33.845187   1.000000
    2      -10.958265   1.000000
    3      -10.569305   1.000000
    4      -10.415605   1.017948
    5        4.459880   0.000000
    6       13.903679   0.000000
    7       15.636579   0.000000
    8       20.124822   0.000000
 
  0.3846154E+00  0.3076923E+00  0.7692308E-01  0.1092399E-01
    1      -33.819582   1.000000
    2      -11.022176   1.000000
    3      -10.575959   1.000000
    4      -10.529316   1.000000
    5        5.224403   0.000000
    6       14.153802   0.000000
    7       14.694720   0.000000
    8       18.390728   0.000000
 
  0.4615385E+00  0.3076923E+00  0.7692308E-01  0.2184797E-01
    1      -33.796842   1.000000
    2      -11.097325   1.000000
    3      -10.645692   1.000000
    4      -10.554507   1.000000
    5        6.279426   0.000000
    6       12.707009   0.000000
    7       13.891096   0.000000
    8       17.911403   0.000000
 
 -0.4615385E+00  0.3076923E+00  0.7692308E-01  0.2184797E-01
    1      -33.780463   1.000000
    2      -11.128590   1.000000
    3      -10.728606   1.000000
    4      -10.564540   1.000000
    5        7.508764   0.000000
    6       11.118113   0.000000
    7       13.400940   0.000000
    8       17.665696   0.000000
 
 -0.3846154E+00  0.3076923E+00  0.7692308E-01  0.2184797E-01
    1      -33.774123   1.000000
    2      -11.112577   1.000000
    3      -10.808344   1.000000
    4      -10.551640   1.000000
    5        8.659778   0.000000
    6        9.870478   0.000000
    7       13.001333   0.000000
    8       17.727872   0.000000
 
 -0.3076923E+00  0.3076923E+00  0.7692308E-01  0.2184797E-01
    1      -33.779384   1.000000
    2      -11.079036   1.000000
    3      -10.838562   1.000000
    4      -10.520881   1.000000
    5        7.942953   0.000000
    6       10.732362   0.000000
    7       12.755293   0.000000
    8       18.085501   0.000000
 
 -0.2307692E+00  0.3076923E+00  0.7692308E-01  0.1092399E-01
    1      -33.794988   1.000000
    2      -11.073475   1.000000
    3      -10.770358   1.000000
    4      -10.481825   1.000075
    5        6.701837   0.000000
    6       12.025653   0.000000
    7       13.086597   0.000000
    8       18.670594   0.000000
 
  0.4615385E+00  0.3846154E+00  0.7692308E-01  0.1092399E-01
    1      -33.783893   1.000000
    2      -11.139828   1.000000
    3      -10.638967   1.000000
    4      -10.602478   1.000000
    5        6.810755   0.000000
    6       12.539429   0.000000
    7       13.457624   0.000000
    8       17.757290   0.000000
 
 -0.4615385E+00  0.3846154E+00  0.7692308E-01  0.2184797E-01
    1      -33.770744   1.000000
    2      -11.145790   1.000000
    3      -10.719019   1.000000
    4      -10.615496   1.000000
    5        7.902621   0.000000
    6       11.519504   0.000000
    7       12.665373   0.000000
    8       17.272290   0.000000
 
 -0.3846154E+00  0.3846154E+00  0.7692308E-01  0.2184797E-01
    1      -33.765037   1.000000
    2      -11.093005   1.000000
    3      -10.835083   1.000000
    4      -10.600879   1.000000
    5        9.024498   0.000000
    6       10.629842   0.000000
    7       11.883622   0.000000
    8       17.200758   0.000000
 
 -0.3076923E+00  0.3846154E+00  0.7692308E-01  0.1092399E-01
    1      -33.768155   1.000000
    2      -10.987878   1.000000
    3      -10.960843   1.000000
    4      -10.565927   1.000000
    5        8.973908   0.000000
    6       10.829836   0.000000
    7       11.467708   0.000000
    8       17.512779   0.000000
 
 -0.4615385E+00  0.4615385E+00  0.7692308E-01  0.1092399E-01
    1      -33.763750   1.000000
    2      -11.198144   1.000000
    3      -10.674529   1.000000
    4      -10.645552   1.000000
    5        8.476329   0.000000
    6       10.607906   0.000000
    7       13.107309   0.000000
    8       17.446242   0.000000
 
 -0.3846154E+00  0.4615385E+00  0.7692308E-01  0.1092399E-01
    1      -33.761257   1.000000
    2      -11.157526   1.000000
    3      -10.749464   1.000000
    4      -10.637103   1.000000
    5        9.244327   0.000000
    6       10.186312   0.000000
    7       12.398769   0.000000
    8       17.052490   0.000000
 
  0.4615385E+00  0.3076923E+00  0.1538462E+00  0.1092399E-01
    1      -33.809281   1.000000
    2      -11.059186   1.000000
    3      -10.656911   1.000000
    4      -10.497429   1.000012
    5        5.801643   0.000000
    6       13.007886   0.000000
    7       14.074027   0.000000
    8       18.291237   0.000000
 
 -0.4615385E+00  0.3076923E+00  0.1538462E+00  0.2184797E-01
    1      -33.788850   1.000000
    2      -11.099461   1.000000
    3      -10.736763   1.000000
    4      -10.530587   1.000000
    5        6.989197   0.000000
    6       11.634056   0.000000
    7       13.470780   0.000000
    8       17.633902   0.000000
 
 -0.3846154E+00  0.3076923E+00  0.1538462E+00  0.2184797E-01
    1      -33.777167   1.000000
    2      -11.117374   1.000000
    3      -10.781337   1.000000
    4      -10.553494   1.000000
    5        8.259329   0.000000
    6       10.121529   0.000000
    7       13.361960   0.000000
    8       17.252809   0.000000
 
 -0.4615385E+00  0.3846154E+00  0.1538462E+00  0.1092399E-01
    1      -33.779667   1.000000
    2      -11.105375   1.000000
    3      -10.729254   1.000000
    4      -10.590575   1.000000
    5        7.337160   0.000000
    6       12.413243   0.000000
    7       12.461234   0.000000
    8       16.953764   0.000000
 
 -0.3846154E+00  0.3846154E+00  0.1538462E+00  0.2184797E-01
    1      -33.768796   1.000000
    2      -11.073661   1.000000
    3      -10.818876   1.000000
    4      -10.615365   1.000000
    5        8.508806   0.000000
    6       11.090182   0.000000
    7       12.212144   0.000000
    8       16.377294   0.000000
 
 -0.3076923E+00  0.3846154E+00  0.1538462E+00  0.2184797E-01
    1      -33.766689   1.000000
    2      -11.020482   1.000000
    3      -10.897552   1.000000
    4      -10.608202   1.000000
    5        9.115215   0.000000
    6       10.505503   0.000000
    7       11.988154   0.000000
    8       16.343297   0.000000
 
 -0.2307692E+00  0.3846154E+00  0.1538462E+00  0.1092399E-01
    1      -33.773925   1.000000
    2      -11.046158   1.000000
    3      -10.855384   1.000000
    4      -10.573972   1.000000
    5        8.123508   0.000000
    6       11.502371   0.000000
    7       12.031512   0.000000
    8       16.815705   0.000000
 
 -0.3846154E+00  0.4615385E+00  0.1538462E+00  0.1092399E-01
    1      -33.763019   1.000000
    2      -11.113091   1.000000
    3      -10.770028   1.000000
    4      -10.656924   1.000000
    5        8.933333   0.000000
    6       10.853831   0.000000
    7       12.116924   0.000000
    8       16.246074   0.000000
 
 -0.3076923E+00  0.4615385E+00  0.1538462E+00  0.1092399E-01
    1      -33.761457   1.000000
    2      -11.042938   1.000000
    3      -10.862318   1.000000
    4      -10.651821   1.000000
    5        9.606705   0.000000
    6       10.600140   0.000000
    7       11.532989   0.000000
    8       15.923968   0.000000
 
 -0.3076923E+00  0.4615385E+00  0.2307692E+00  0.1092399E-01
    1      -33.762076   1.000000
    2      -10.992395   1.000000
    3      -10.903143   1.000000
    4      -10.661098   1.000000
    5        9.469608   0.000000
    6       11.116054   0.000000
    7       11.244529   0.000000
    8       15.561795   0.000000
