       N       E                     dE             d eps       ncg     rms          rms(c)
DAV:   1     0.522655793629E+02    0.52266E+02   -0.35530E+03  9360   0.831E+02
DAV:   2     0.366664826400E+01   -0.48599E+02   -0.44249E+02 13396   0.170E+02
DAV:   3     0.720161917915E+00   -0.29465E+01   -0.29324E+01 12010   0.421E+01
DAV:   4     0.694375712952E+00   -0.25786E-01   -0.25776E-01 13616   0.488E+00
DAV:   5     0.693325304706E+00   -0.10504E-02   -0.10503E-02 14300   0.974E-01    0.663E+00
RMM:   6     0.161526530777E+00   -0.53180E+00   -0.24290E-01  9360   0.384E+00    0.202E+00
RMM:   7     0.136007906362E-01   -0.14793E+00   -0.77796E-02  9360   0.213E+00    0.120E-01
RMM:   8     0.138052687628E-01    0.20448E-03   -0.12925E-03  9360   0.372E-01    0.292E-02
RMM:   9     0.138052671150E-01   -0.16478E-08   -0.62349E-05 10161   0.752E-02    0.906E-03
RMM:  10     0.137947932276E-01   -0.10474E-04   -0.10457E-05  9653   0.352E-02    0.554E-03
RMM:  11     0.137936547096E-01   -0.11385E-05   -0.28424E-06  9636   0.179E-02    0.172E-03
RMM:  12     0.137934748432E-01   -0.17987E-06   -0.50531E-07  9775   0.644E-03    0.668E-04
RMM:  13     0.137933870940E-01   -0.87749E-07   -0.79879E-08  7590   0.304E-03
   1 F= -.26337779E+00 E0= -.26386070E+00  d E =-.263378E+00  mag=    -0.0000    -0.0000    -0.0000
       N       E                     dE             d eps       ncg     rms          rms(c)
DAV:   1     0.137309007096E-01   -0.62574E-04   -0.38885E-05 11596   0.679E-02    0.710E-03
RMM:   2     0.137322601108E-01    0.13594E-05   -0.48575E-06  9360   0.196E-02    0.179E-03
RMM:   3     0.137323895854E-01    0.12947E-06   -0.32576E-07  9360   0.534E-03    0.638E-04
RMM:   4     0.137324991244E-01    0.10954E-06   -0.16272E-08  7267   0.145E-03    0.298E-04
RMM:   5     0.137326309680E-01    0.13184E-06   -0.89120E-09  5684   0.101E-03    0.119E-04
RMM:   6     0.137327171975E-01    0.86230E-07   -0.28971E-09  5335   0.754E-04
   2 F= -.26337887E+00 E0= -.26386216E+00  d E =-.108676E-05  mag=     0.0000     0.0000     0.0000
