Cn_FCC                                  
           1
     4.105628    0.000000    0.000000
     2.052814    3.555578   -0.000000
     2.052814    1.185193    3.352231
   Ar
   1
Direct configuration=     1
   0.00000000  0.00000000  0.00000000
Cn_FCC                                  
           1
     4.096055    0.000000    0.000000
     2.048028    3.547288   -0.000000
     2.048028    1.182429    3.344415
   Ar
   1
Direct configuration=     2
   0.00000000  0.00000000  0.00000000
Cn_FCC                                  
           1
     3.167554    0.000000    0.000000
     1.583777    2.743182   -0.000000
     1.583777    0.914394    2.586297
   Ar
   1
Direct configuration=     3
   0.00000000  0.00000000  0.00000000
Cn_FCC                                  
           1
     3.893616    0.000000    0.000000
     1.946808    3.371970   -0.000000
     1.946808    1.123990    3.179124
   Ar
   1
Direct configuration=     4
   0.00000000  0.00000000  0.00000000
Cn_FCC                                  
           1
     3.762887    0.000000    0.000000
     1.881444    3.258756   -0.000000
     1.881444    1.086252    3.072384
   Ar
   1
Direct configuration=     5
   0.00000000  0.00000000  0.00000000
Cn_FCC                                  
           1
     3.484459    0.000000    0.000000
     1.742229    3.017630   -0.000000
     1.742229    1.005877    2.845049
   Ar
   1
Direct configuration=     6
   0.00000000  0.00000000  0.00000000
