Ne_FCC                                  
           1
     2.973803    0.000000    0.000000
     1.486902    2.575389    0.000000
     1.486902    0.858463    2.428100
   Ne
   1
Direct configuration=     1
   0.00000000  0.00000000  0.00000000
Ne_FCC                                  
           1
     2.974208    0.000000    0.000000
     1.487104    2.575739    0.000000
     1.487104    0.858580    2.428430
   Ne
   1
Direct configuration=     2
   0.00000000  0.00000000  0.00000000
