Ne_FCC                                  
           1
     2.974208    0.000000    0.000000
     1.487104    2.575739    0.000000
     1.487104    0.858580    2.428430
   Ne
   1
Direct configuration=     1
   0.00000000  0.00000000  0.00000000
Ne_FCC                                  
           1
     2.974603    0.000000    0.000000
     1.487302    2.576082    0.000000
     1.487302    0.858694    2.428753
   Ne
   1
Direct configuration=     2
   0.00000000  0.00000000  0.00000000
