Cn_FCC                                  
           1
     3.484459    0.000000    0.000000
     1.742229    3.017630   -0.000000
     1.742229    1.005877    2.845049
   Ar
   1
Direct configuration=     1
   0.00000000  0.00000000  0.00000000
Cn_FCC                                  
           1
     3.490218    0.000000    0.000000
     1.745109    3.022618   -0.000000
     1.745109    1.007539    2.849751
   Ar
   1
Direct configuration=     2
   0.00000000  0.00000000  0.00000000
Cn_FCC                                  
           1
     3.581474    0.000000    0.000000
     1.790737    3.101647   -0.000000
     1.790737    1.033882    2.924261
   Ar
   1
Direct configuration=     3
   0.00000000  0.00000000  0.00000000
Cn_FCC                                  
           1
     3.599491    0.000000    0.000000
     1.799745    3.117250   -0.000000
     1.799745    1.039083    2.938972
   Ar
   1
Direct configuration=     4
   0.00000000  0.00000000  0.00000000
