   1   1   0   0
  0.6532254E+02  0.4520565E-09  0.4520565E-09  0.4520565E-09  0.1000000E-15
  1.000000000000000E-004
  CAR 
 Og_FCC                                  
     14.40578857    -46.89821548  301     -1.27781913      1.00000000
    -46.898  0.0000E+00  0.0000E+00
    -46.694  0.0000E+00  0.0000E+00
    -46.490  0.0000E+00  0.0000E+00
    -46.285  0.0000E+00  0.0000E+00
    -46.081  0.0000E+00  0.0000E+00
    -45.876  0.0000E+00  0.0000E+00
    -45.672  0.0000E+00  0.0000E+00
    -45.468  0.0000E+00  0.0000E+00
    -45.263  0.0000E+00  0.0000E+00
    -45.059  0.0000E+00  0.0000E+00
    -44.855  0.0000E+00  0.0000E+00
    -44.650  0.0000E+00  0.0000E+00
    -44.446  0.0000E+00  0.0000E+00
    -44.242  0.0000E+00  0.0000E+00
    -44.037  0.0000E+00  0.4000E+01
    -43.833  0.0000E+00  0.4000E+01
    -43.629  0.0000E+00  0.4000E+01
    -43.424  0.0000E+00  0.4000E+01
    -43.220  0.0000E+00  0.4000E+01
    -43.016  0.0000E+00  0.4000E+01
    -42.811  0.0000E+00  0.4000E+01
    -42.607  0.0000E+00  0.4000E+01
    -42.403  0.0000E+00  0.4000E+01
    -42.198  0.0000E+00  0.4000E+01
    -41.994  0.0000E+00  0.4000E+01
    -41.790  0.0000E+00  0.4000E+01
    -41.585  0.0000E+00  0.4000E+01
    -41.381  0.0000E+00  0.4000E+01
    -41.177  0.0000E+00  0.4000E+01
    -40.972  0.0000E+00  0.4000E+01
    -40.768  0.0000E+00  0.4000E+01
    -40.563  0.0000E+00  0.4000E+01
    -40.359  0.0000E+00  0.4000E+01
    -40.155  0.0000E+00  0.4000E+01
    -39.950  0.0000E+00  0.4000E+01
    -39.746  0.0000E+00  0.4000E+01
    -39.542  0.0000E+00  0.1000E+02
    -39.337  0.0000E+00  0.1000E+02
    -39.133  0.0000E+00  0.1000E+02
    -38.929  0.0000E+00  0.1000E+02
    -38.724  0.0000E+00  0.1000E+02
    -38.520  0.0000E+00  0.1000E+02
    -38.316  0.0000E+00  0.1000E+02
    -38.111  0.0000E+00  0.1000E+02
    -37.907  0.0000E+00  0.1000E+02
    -37.703  0.0000E+00  0.1000E+02
    -37.498  0.0000E+00  0.1000E+02
    -37.294  0.0000E+00  0.1000E+02
    -37.090  0.0000E+00  0.1000E+02
    -36.885  0.0000E+00  0.1000E+02
    -36.681  0.0000E+00  0.1000E+02
    -36.477  0.0000E+00  0.1000E+02
    -36.272  0.0000E+00  0.1000E+02
    -36.068  0.0000E+00  0.1000E+02
    -35.863  0.0000E+00  0.1000E+02
    -35.659  0.0000E+00  0.1000E+02
    -35.455  0.0000E+00  0.1000E+02
    -35.250  0.0000E+00  0.1000E+02
    -35.046  0.0000E+00  0.1000E+02
    -34.842  0.0000E+00  0.1000E+02
    -34.637  0.0000E+00  0.1000E+02
    -34.433  0.0000E+00  0.1000E+02
    -34.229  0.0000E+00  0.1000E+02
    -34.024  0.0000E+00  0.1000E+02
    -33.820  0.0000E+00  0.1000E+02
    -33.616  0.0000E+00  0.1000E+02
    -33.411  0.0000E+00  0.1000E+02
    -33.207  0.0000E+00  0.1000E+02
    -33.003  0.0000E+00  0.1000E+02
    -32.798  0.0000E+00  0.1000E+02
    -32.594  0.0000E+00  0.1000E+02
    -32.390  0.0000E+00  0.1000E+02
    -32.185  0.0000E+00  0.1000E+02
    -31.981  0.0000E+00  0.1000E+02
    -31.777  0.0000E+00  0.1000E+02
    -31.572  0.0000E+00  0.1000E+02
    -31.368  0.0000E+00  0.1000E+02
    -31.164  0.0000E+00  0.1000E+02
    -30.959  0.0000E+00  0.1000E+02
    -30.755  0.0000E+00  0.1000E+02
    -30.550  0.0000E+00  0.1000E+02
    -30.346  0.0000E+00  0.1000E+02
    -30.142  0.0000E+00  0.1000E+02
    -29.937  0.0000E+00  0.1000E+02
    -29.733  0.0000E+00  0.1000E+02
    -29.529  0.0000E+00  0.1000E+02
    -29.324  0.0000E+00  0.1000E+02
    -29.120  0.0000E+00  0.1000E+02
    -28.916  0.0000E+00  0.1000E+02
    -28.711  0.0000E+00  0.1000E+02
    -28.507  0.0000E+00  0.1000E+02
    -28.303  0.0000E+00  0.1000E+02
    -28.098  0.0000E+00  0.1000E+02
    -27.894  0.0000E+00  0.1000E+02
    -27.690  0.0000E+00  0.1000E+02
    -27.485  0.0000E+00  0.1000E+02
    -27.281  0.0000E+00  0.1000E+02
    -27.077  0.0000E+00  0.1000E+02
    -26.872  0.0000E+00  0.1000E+02
    -26.668  0.0000E+00  0.1000E+02
    -26.464  0.0000E+00  0.1000E+02
    -26.259  0.0000E+00  0.1000E+02
    -26.055  0.0000E+00  0.1000E+02
    -25.851  0.0000E+00  0.1000E+02
    -25.646  0.0000E+00  0.1000E+02
    -25.442  0.0000E+00  0.1000E+02
    -25.237  0.0000E+00  0.1000E+02
    -25.033  0.0000E+00  0.1000E+02
    -24.829  0.0000E+00  0.1000E+02
    -24.624  0.0000E+00  0.1000E+02
    -24.420  0.0000E+00  0.1000E+02
    -24.216  0.0000E+00  0.1000E+02
    -24.011  0.0000E+00  0.1000E+02
    -23.807  0.0000E+00  0.1000E+02
    -23.603  0.0000E+00  0.1000E+02
    -23.398  0.0000E+00  0.1000E+02
    -23.194  0.0000E+00  0.1000E+02
    -22.990  0.0000E+00  0.1000E+02
    -22.785  0.0000E+00  0.1000E+02
    -22.581  0.0000E+00  0.1000E+02
    -22.377  0.0000E+00  0.1000E+02
    -22.172  0.0000E+00  0.1000E+02
    -21.968  0.0000E+00  0.1000E+02
    -21.764  0.0000E+00  0.1000E+02
    -21.559  0.0000E+00  0.1000E+02
    -21.355  0.0000E+00  0.1000E+02
    -21.151  0.0000E+00  0.1000E+02
    -20.946  0.0000E+00  0.1000E+02
    -20.742  0.0000E+00  0.1000E+02
    -20.537  0.0000E+00  0.1000E+02
    -20.333  0.0000E+00  0.1000E+02
    -20.129  0.0000E+00  0.1000E+02
    -19.924  0.0000E+00  0.1000E+02
    -19.720  0.0000E+00  0.1000E+02
    -19.516  0.0000E+00  0.1000E+02
    -19.311  0.0000E+00  0.1000E+02
    -19.107  0.0000E+00  0.1000E+02
    -18.903  0.0000E+00  0.1000E+02
    -18.698  0.0000E+00  0.1000E+02
    -18.494  0.0000E+00  0.1000E+02
    -18.290  0.0000E+00  0.1000E+02
    -18.085  0.0000E+00  0.1000E+02
    -17.881  0.0000E+00  0.1000E+02
    -17.677  0.0000E+00  0.1000E+02
    -17.472  0.0000E+00  0.1000E+02
    -17.268  0.1386E-09  0.1025E+02
    -17.064  0.0000E+00  0.1200E+02
    -16.859  0.0000E+00  0.1200E+02
    -16.655  0.0000E+00  0.1200E+02
    -16.451  0.0000E+00  0.1200E+02
    -16.246  0.0000E+00  0.1200E+02
    -16.042  0.0000E+00  0.1200E+02
    -15.838  0.0000E+00  0.1200E+02
    -15.633  0.0000E+00  0.1200E+02
    -15.429  0.0000E+00  0.1200E+02
    -15.224  0.0000E+00  0.1200E+02
    -15.020  0.0000E+00  0.1200E+02
    -14.816  0.0000E+00  0.1200E+02
    -14.611  0.0000E+00  0.1200E+02
    -14.407  0.0000E+00  0.1200E+02
    -14.203  0.0000E+00  0.1200E+02
    -13.998  0.0000E+00  0.1200E+02
    -13.794  0.0000E+00  0.1200E+02
    -13.590  0.0000E+00  0.1200E+02
    -13.385  0.0000E+00  0.1200E+02
    -13.181  0.0000E+00  0.1200E+02
    -12.977  0.0000E+00  0.1200E+02
    -12.772  0.0000E+00  0.1200E+02
    -12.568  0.0000E+00  0.1200E+02
    -12.364  0.0000E+00  0.1200E+02
    -12.159  0.0000E+00  0.1200E+02
    -11.955  0.0000E+00  0.1200E+02
    -11.751  0.0000E+00  0.1200E+02
    -11.546  0.0000E+00  0.1200E+02
    -11.342  0.0000E+00  0.1200E+02
    -11.138  0.0000E+00  0.1200E+02
    -10.933  0.0000E+00  0.1200E+02
    -10.729  0.0000E+00  0.1200E+02
    -10.525  0.0000E+00  0.1200E+02
    -10.320  0.0000E+00  0.1200E+02
    -10.116  0.0000E+00  0.1200E+02
     -9.911  0.0000E+00  0.1200E+02
     -9.707  0.0000E+00  0.1200E+02
     -9.503  0.0000E+00  0.1200E+02
     -9.298  0.0000E+00  0.1200E+02
     -9.094  0.0000E+00  0.1200E+02
     -8.890  0.0000E+00  0.1200E+02
     -8.685  0.0000E+00  0.1200E+02
     -8.481  0.0000E+00  0.1200E+02
     -8.277  0.0000E+00  0.1200E+02
     -8.072  0.0000E+00  0.1200E+02
     -7.868  0.0000E+00  0.1200E+02
     -7.664  0.0000E+00  0.1200E+02
     -7.459  0.0000E+00  0.1200E+02
     -7.255  0.0000E+00  0.1200E+02
     -7.051  0.0000E+00  0.1200E+02
     -6.846  0.0000E+00  0.1200E+02
     -6.642  0.0000E+00  0.1200E+02
     -6.438  0.0000E+00  0.1200E+02
     -6.233  0.0000E+00  0.1200E+02
     -6.029  0.0000E+00  0.1200E+02
     -5.825  0.0000E+00  0.1200E+02
     -5.620  0.0000E+00  0.1295E+02
     -5.416  0.0000E+00  0.1375E+02
     -5.211  0.3625E+00  0.1399E+02
     -5.007  0.0000E+00  0.1400E+02
     -4.803  0.0000E+00  0.1400E+02
     -4.598  0.0000E+00  0.1400E+02
     -4.394  0.0000E+00  0.1400E+02
     -4.190  0.0000E+00  0.1400E+02
     -3.985  0.0000E+00  0.1400E+02
     -3.781  0.0000E+00  0.1400E+02
     -3.577  0.0000E+00  0.1400E+02
     -3.372  0.0000E+00  0.1400E+02
     -3.168  0.0000E+00  0.1400E+02
     -2.964  0.0000E+00  0.1400E+02
     -2.759  0.1811E+00  0.1495E+02
     -2.555  0.0000E+00  0.1545E+02
     -2.351  0.0000E+00  0.1575E+02
     -2.146  0.7855E+00  0.1647E+02
     -1.942  0.0000E+00  0.1683E+02
     -1.738  0.0000E+00  0.1763E+02
     -1.533  0.0000E+00  0.1791E+02
     -1.329  0.0000E+00  0.1800E+02
     -1.125  0.0000E+00  0.1800E+02
     -0.920  0.0000E+00  0.1800E+02
     -0.716  0.0000E+00  0.1800E+02
     -0.512  0.0000E+00  0.1800E+02
     -0.307  0.0000E+00  0.1800E+02
     -0.103  0.0000E+00  0.1800E+02
      0.102  0.0000E+00  0.1800E+02
      0.306  0.0000E+00  0.1800E+02
      0.510  0.0000E+00  0.1800E+02
      0.715  0.0000E+00  0.1800E+02
      0.919  0.0000E+00  0.1800E+02
      1.123  0.0000E+00  0.1800E+02
      1.328  0.0000E+00  0.1800E+02
      1.532  0.0000E+00  0.1800E+02
      1.736  0.0000E+00  0.1800E+02
      1.941  0.0000E+00  0.1800E+02
      2.145  0.0000E+00  0.1800E+02
      2.349  0.0000E+00  0.1800E+02
      2.554  0.0000E+00  0.1801E+02
      2.758  0.0000E+00  0.1801E+02
      2.962  0.0000E+00  0.1801E+02
      3.167  0.0000E+00  0.1801E+02
      3.371  0.0000E+00  0.1808E+02
      3.575  0.0000E+00  0.1814E+02
      3.780  0.0000E+00  0.1814E+02
      3.984  0.0000E+00  0.1814E+02
      4.188  0.0000E+00  0.1824E+02
      4.393  0.0000E+00  0.1839E+02
      4.597  0.0000E+00  0.1867E+02
      4.801  0.0000E+00  0.1889E+02
      5.006  0.0000E+00  0.1944E+02
      5.210  0.0000E+00  0.1958E+02
      5.415  0.0000E+00  0.1981E+02
      5.619  0.0000E+00  0.2008E+02
      5.823  0.0000E+00  0.2031E+02
      6.028  0.0000E+00  0.2064E+02
      6.232  0.0000E+00  0.2086E+02
      6.436  0.0000E+00  0.2164E+02
      6.641  0.0000E+00  0.2203E+02
      6.845  0.0000E+00  0.2203E+02
      7.049  0.0000E+00  0.2232E+02
      7.254  0.1465E+00  0.2265E+02
      7.458  0.0000E+00  0.2303E+02
      7.662  0.4125E-07  0.2351E+02
      7.867  0.0000E+00  0.2426E+02
      8.071  0.0000E+00  0.2461E+02
      8.275  0.0000E+00  0.2467E+02
      8.480  0.0000E+00  0.2550E+02
      8.684  0.0000E+00  0.2550E+02
      8.888  0.1087E+01  0.2583E+02
      9.093  0.0000E+00  0.2586E+02
      9.297  0.0000E+00  0.2586E+02
      9.501  0.1087E+01  0.2663E+02
      9.706  0.0000E+00  0.2667E+02
      9.910  0.0000E+00  0.2717E+02
     10.115  0.0000E+00  0.2739E+02
     10.319  0.0000E+00  0.2761E+02
     10.523  0.0000E+00  0.2783E+02
     10.728  0.0000E+00  0.2783E+02
     10.932  0.0000E+00  0.2783E+02
     11.136  0.0000E+00  0.2786E+02
     11.341  0.0000E+00  0.2797E+02
     11.545  0.1869E-01  0.2799E+02
     11.749  0.0000E+00  0.2800E+02
     11.954  0.0000E+00  0.2800E+02
     12.158  0.0000E+00  0.2800E+02
     12.362  0.0000E+00  0.2800E+02
     12.567  0.0000E+00  0.2800E+02
     12.771  0.0000E+00  0.2800E+02
     12.975  0.0000E+00  0.2800E+02
     13.180  0.0000E+00  0.2800E+02
     13.384  0.0000E+00  0.2800E+02
     13.588  0.0000E+00  0.2800E+02
     13.793  0.0000E+00  0.2800E+02
     13.997  0.0000E+00  0.2800E+02
     14.201  0.0000E+00  0.2800E+02
     14.406  0.0000E+00  0.2800E+02
