<?xml version="1.0" encoding="ISO-8859-1"?>
<modeling>
 <generator>
  <i name="program" type="string">vasp </i>
  <i name="version" type="string">5.4.4.18Apr17-6-g9f103f2a35  </i>
  <i name="subversion" type="string">(build Nov 03 2018 10:20:46) complex            parallel </i>
  <i name="platform" type="string">LinuxIFC </i>
  <i name="date" type="string">2018 11 14 </i>
  <i name="time" type="string">20:50:07 </i>
 </generator>
 <incar>
  <i type="string" name="SYSTEM">   Og_FCC</i>
  <i type="string" name="PREC">accurate</i>
  <i type="string" name="ALGO">   Normal</i>
  <i type="logical" name="ADDGRID"> T  </i>
  <i type="logical" name="LSORBIT"> T  </i>
  <i type="int" name="ISPIN">     1</i>
  <i type="int" name="MAXMIX">    50</i>
  <i type="int" name="NELM">    50</i>
  <i type="int" name="NELMDL">    -5</i>
  <i type="int" name="NELMIN">     2</i>
  <i type="int" name="IBRION">    -1</i>
  <i type="int" name="NFREE">     5</i>
  <i name="EDIFF">      0.00000001</i>
  <i name="EDIFFG">      0.00001000</i>
  <i type="int" name="NSW">     1</i>
  <i type="int" name="ISIF">     3</i>
  <i type="int" name="ISYM">     0</i>
  <i name="SYMPREC">      0.00000010</i>
  <i name="ENCUT">    300.00000000</i>
  <i name="POTIM">      0.10000000</i>
  <i type="logical" name="LREAL"> F  </i>
  <i type="int" name="ISMEAR">     0</i>
  <i name="SIGMA">      0.00100000</i>
  <i type="int" name="NWRITE">     2</i>
  <i type="logical" name="LWAVE"> T  </i>
  <i type="logical" name="LCHARG"> F  </i>
  <i type="logical" name="LVTOT"> F  </i>
  <i type="logical" name="LOPTICS"> T  </i>
  <i type="logical" name="GGA_COMPAT"> F  </i>
  <v type="int" name="KPOINT_BSE">    -1     0     0     0</v>
  <i type="int" name="NELM">    50</i>
  <i type="string" name="GGA"> PE</i>
 </incar>
 <structure name="primitive_cell" >
  <crystal>
   <varray name="basis" >
    <v>       4.52056477       0.00000000       0.00000000 </v>
    <v>       2.26028238       3.91492393      -0.00000000 </v>
    <v>       2.26028238       1.30497464       3.69102568 </v>
   </varray>
   <i name="volume">     65.32254404 </i>
   <varray name="rec_basis" >
    <v>       0.22121130      -0.12771640      -0.09030913 </v>
    <v>       0.00000000       0.25543280      -0.09030913 </v>
    <v>      -0.00000000       0.00000000       0.27092740 </v>
   </varray>
  </crystal>
  <varray name="positions" >
   <v>       0.00000000       0.00000000       0.00000000 </v>
  </varray>
 </structure>
 <varray name="primitive_index" >
  <v type="int" >        1 </v>
 </varray>
 <kpoints>
  <generation param="Gamma">
   <v type="int" name="divisions">       6        6        6 </v>
   <v name="usershift">      0.00000000       0.00000000       0.00000000 </v>
   <v name="genvec1">      0.16666667      -0.00000000      -0.00000000 </v>
   <v name="genvec2">      0.00000000       0.16666667       0.00000000 </v>
   <v name="genvec3">      0.00000000       0.00000000       0.16666667 </v>
   <v name="shift">      0.00000000       0.00000000       0.00000000 </v>
  </generation>
  <varray name="kpointlist" >
   <v>       0.00000000       0.00000000       0.00000000 </v>
   <v>       0.16666667       0.00000000       0.00000000 </v>
   <v>       0.33333333       0.00000000       0.00000000 </v>
   <v>       0.50000000       0.00000000       0.00000000 </v>
   <v>      -0.33333333      -0.00000000      -0.00000000 </v>
   <v>      -0.16666667      -0.00000000       0.00000000 </v>
   <v>       0.00000000       0.16666667       0.00000000 </v>
   <v>       0.16666667       0.16666667       0.00000000 </v>
   <v>       0.33333333       0.16666667       0.00000000 </v>
   <v>       0.50000000       0.16666667       0.00000000 </v>
   <v>      -0.33333333       0.16666667       0.00000000 </v>
   <v>      -0.16666667       0.16666667       0.00000000 </v>
   <v>       0.00000000       0.33333333       0.00000000 </v>
   <v>       0.16666667       0.33333333       0.00000000 </v>
   <v>       0.33333333       0.33333333       0.00000000 </v>
   <v>       0.50000000       0.33333333       0.00000000 </v>
   <v>      -0.33333333       0.33333333      -0.00000000 </v>
   <v>      -0.16666667       0.33333333      -0.00000000 </v>
   <v>       0.00000000       0.50000000       0.00000000 </v>
   <v>       0.16666667       0.50000000       0.00000000 </v>
   <v>       0.33333333       0.50000000       0.00000000 </v>
   <v>       0.50000000       0.50000000      -0.00000000 </v>
   <v>      -0.33333333       0.50000000      -0.00000000 </v>
   <v>      -0.16666667       0.50000000       0.00000000 </v>
   <v>      -0.00000000      -0.33333333       0.00000000 </v>
   <v>       0.16666667      -0.33333333       0.00000000 </v>
   <v>       0.33333333      -0.33333333       0.00000000 </v>
   <v>       0.50000000      -0.33333333      -0.00000000 </v>
   <v>      -0.33333333      -0.33333333      -0.00000000 </v>
   <v>      -0.16666667      -0.33333333       0.00000000 </v>
   <v>      -0.00000000      -0.16666667      -0.00000000 </v>
   <v>       0.16666667      -0.16666667       0.00000000 </v>
   <v>       0.33333333      -0.16666667       0.00000000 </v>
   <v>       0.50000000      -0.16666667       0.00000000 </v>
   <v>      -0.33333333      -0.16666667      -0.00000000 </v>
   <v>      -0.16666667      -0.16666667       0.00000000 </v>
   <v>      -0.00000000      -0.00000000       0.16666667 </v>
   <v>       0.16666667       0.00000000       0.16666667 </v>
   <v>       0.33333333       0.00000000       0.16666667 </v>
   <v>       0.50000000       0.00000000       0.16666667 </v>
   <v>      -0.33333333      -0.00000000       0.16666667 </v>
   <v>      -0.16666667      -0.00000000       0.16666667 </v>
   <v>       0.00000000       0.16666667       0.16666667 </v>
   <v>       0.16666667       0.16666667       0.16666667 </v>
   <v>       0.33333333       0.16666667       0.16666667 </v>
   <v>       0.50000000       0.16666667       0.16666667 </v>
   <v>      -0.33333333       0.16666667       0.16666667 </v>
   <v>      -0.16666667       0.16666667       0.16666667 </v>
   <v>       0.00000000       0.33333333       0.16666667 </v>
   <v>       0.16666667       0.33333333       0.16666667 </v>
   <v>       0.33333333       0.33333333       0.16666667 </v>
   <v>       0.50000000       0.33333333       0.16666667 </v>
   <v>      -0.33333333       0.33333333       0.16666667 </v>
   <v>      -0.16666667       0.33333333       0.16666667 </v>
   <v>       0.00000000       0.50000000       0.16666667 </v>
   <v>       0.16666667       0.50000000       0.16666667 </v>
   <v>       0.33333333       0.50000000       0.16666667 </v>
   <v>       0.50000000       0.50000000       0.16666667 </v>
   <v>      -0.33333333       0.50000000       0.16666667 </v>
   <v>      -0.16666667       0.50000000       0.16666667 </v>
   <v>      -0.00000000      -0.33333333       0.16666667 </v>
   <v>       0.16666667      -0.33333333       0.16666667 </v>
   <v>       0.33333333      -0.33333333       0.16666667 </v>
   <v>       0.50000000      -0.33333333       0.16666667 </v>
   <v>      -0.33333333      -0.33333333       0.16666667 </v>
   <v>      -0.16666667      -0.33333333       0.16666667 </v>
   <v>      -0.00000000      -0.16666667       0.16666667 </v>
   <v>       0.16666667      -0.16666667       0.16666667 </v>
   <v>       0.33333333      -0.16666667       0.16666667 </v>
   <v>       0.50000000      -0.16666667       0.16666667 </v>
   <v>      -0.33333333      -0.16666667       0.16666667 </v>
   <v>      -0.16666667      -0.16666667       0.16666667 </v>
   <v>       0.00000000      -0.00000000       0.33333333 </v>
   <v>       0.16666667       0.00000000       0.33333333 </v>
   <v>       0.33333333       0.00000000       0.33333333 </v>
   <v>       0.50000000       0.00000000       0.33333333 </v>
   <v>      -0.33333333      -0.00000000       0.33333333 </v>
   <v>      -0.16666667      -0.00000000       0.33333333 </v>
   <v>       0.00000000       0.16666667       0.33333333 </v>
   <v>       0.16666667       0.16666667       0.33333333 </v>
   <v>       0.33333333       0.16666667       0.33333333 </v>
   <v>       0.50000000       0.16666667       0.33333333 </v>
   <v>      -0.33333333       0.16666667       0.33333333 </v>
   <v>      -0.16666667       0.16666667       0.33333333 </v>
   <v>      -0.00000000       0.33333333       0.33333333 </v>
   <v>       0.16666667       0.33333333       0.33333333 </v>
   <v>       0.33333333       0.33333333       0.33333333 </v>
   <v>       0.50000000       0.33333333       0.33333333 </v>
   <v>      -0.33333333       0.33333333       0.33333333 </v>
   <v>      -0.16666667       0.33333333       0.33333333 </v>
   <v>       0.00000000       0.50000000       0.33333333 </v>
   <v>       0.16666667       0.50000000       0.33333333 </v>
   <v>       0.33333333       0.50000000       0.33333333 </v>
   <v>       0.50000000       0.50000000       0.33333333 </v>
   <v>      -0.33333333       0.50000000       0.33333333 </v>
   <v>      -0.16666667       0.50000000       0.33333333 </v>
   <v>      -0.00000000      -0.33333333       0.33333333 </v>
   <v>       0.16666667      -0.33333333       0.33333333 </v>
   <v>       0.33333333      -0.33333333       0.33333333 </v>
   <v>       0.50000000      -0.33333333       0.33333333 </v>
   <v>      -0.33333333      -0.33333333       0.33333333 </v>
   <v>      -0.16666667      -0.33333333       0.33333333 </v>
   <v>      -0.00000000      -0.16666667       0.33333333 </v>
   <v>       0.16666667      -0.16666667       0.33333333 </v>
   <v>       0.33333333      -0.16666667       0.33333333 </v>
   <v>       0.50000000      -0.16666667       0.33333333 </v>
   <v>      -0.33333333      -0.16666667       0.33333333 </v>
   <v>      -0.16666667      -0.16666667       0.33333333 </v>
   <v>      -0.00000000      -0.00000000       0.50000000 </v>
   <v>       0.16666667       0.00000000       0.50000000 </v>
   <v>       0.33333333       0.00000000       0.50000000 </v>
   <v>       0.50000000       0.00000000       0.50000000 </v>
   <v>      -0.33333333      -0.00000000       0.50000000 </v>
   <v>      -0.16666667      -0.00000000       0.50000000 </v>
   <v>      -0.00000000       0.16666667       0.50000000 </v>
   <v>       0.16666667       0.16666667       0.50000000 </v>
   <v>       0.33333333       0.16666667       0.50000000 </v>
   <v>       0.50000000       0.16666667       0.50000000 </v>
   <v>      -0.33333333       0.16666667       0.50000000 </v>
   <v>      -0.16666667       0.16666667       0.50000000 </v>
   <v>      -0.00000000       0.33333333       0.50000000 </v>
   <v>       0.16666667       0.33333333       0.50000000 </v>
   <v>       0.33333333       0.33333333       0.50000000 </v>
   <v>       0.50000000       0.33333333       0.50000000 </v>
   <v>      -0.33333333       0.33333333       0.50000000 </v>
   <v>      -0.16666667       0.33333333       0.50000000 </v>
   <v>       0.00000000       0.50000000       0.50000000 </v>
   <v>       0.16666667       0.50000000       0.50000000 </v>
   <v>       0.33333333       0.50000000       0.50000000 </v>
   <v>       0.50000000       0.50000000       0.50000000 </v>
   <v>      -0.33333333       0.50000000       0.50000000 </v>
   <v>      -0.16666667       0.50000000       0.50000000 </v>
   <v>      -0.00000000      -0.33333333       0.50000000 </v>
   <v>       0.16666667      -0.33333333       0.50000000 </v>
   <v>       0.33333333      -0.33333333       0.50000000 </v>
   <v>       0.50000000      -0.33333333       0.50000000 </v>
   <v>      -0.33333333      -0.33333333       0.50000000 </v>
   <v>      -0.16666667      -0.33333333       0.50000000 </v>
   <v>      -0.00000000      -0.16666667       0.50000000 </v>
   <v>       0.16666667      -0.16666667       0.50000000 </v>
   <v>       0.33333333      -0.16666667       0.50000000 </v>
   <v>       0.50000000      -0.16666667       0.50000000 </v>
   <v>      -0.33333333      -0.16666667       0.50000000 </v>
   <v>      -0.16666667      -0.16666667       0.50000000 </v>
   <v>       0.00000000       0.00000000      -0.33333333 </v>
   <v>       0.16666667       0.00000000      -0.33333333 </v>
   <v>       0.33333333       0.00000000      -0.33333333 </v>
   <v>       0.50000000       0.00000000      -0.33333333 </v>
   <v>      -0.33333333      -0.00000000      -0.33333333 </v>
   <v>      -0.16666667      -0.00000000      -0.33333333 </v>
   <v>       0.00000000       0.16666667      -0.33333333 </v>
   <v>       0.16666667       0.16666667      -0.33333333 </v>
   <v>       0.33333333       0.16666667      -0.33333333 </v>
   <v>       0.50000000       0.16666667      -0.33333333 </v>
   <v>      -0.33333333       0.16666667      -0.33333333 </v>
   <v>      -0.16666667       0.16666667      -0.33333333 </v>
   <v>       0.00000000       0.33333333      -0.33333333 </v>
   <v>       0.16666667       0.33333333      -0.33333333 </v>
   <v>       0.33333333       0.33333333      -0.33333333 </v>
   <v>       0.50000000       0.33333333      -0.33333333 </v>
   <v>      -0.33333333       0.33333333      -0.33333333 </v>
   <v>      -0.16666667       0.33333333      -0.33333333 </v>
   <v>       0.00000000       0.50000000      -0.33333333 </v>
   <v>       0.16666667       0.50000000      -0.33333333 </v>
   <v>       0.33333333       0.50000000      -0.33333333 </v>
   <v>       0.50000000       0.50000000      -0.33333333 </v>
   <v>      -0.33333333       0.50000000      -0.33333333 </v>
   <v>      -0.16666667       0.50000000      -0.33333333 </v>
   <v>       0.00000000      -0.33333333      -0.33333333 </v>
   <v>       0.16666667      -0.33333333      -0.33333333 </v>
   <v>       0.33333333      -0.33333333      -0.33333333 </v>
   <v>       0.50000000      -0.33333333      -0.33333333 </v>
   <v>      -0.33333333      -0.33333333      -0.33333333 </v>
   <v>      -0.16666667      -0.33333333      -0.33333333 </v>
   <v>       0.00000000      -0.16666667      -0.33333333 </v>
   <v>       0.16666667      -0.16666667      -0.33333333 </v>
   <v>       0.33333333      -0.16666667      -0.33333333 </v>
   <v>       0.50000000      -0.16666667      -0.33333333 </v>
   <v>      -0.33333333      -0.16666667      -0.33333333 </v>
   <v>      -0.16666667      -0.16666667      -0.33333333 </v>
   <v>       0.00000000       0.00000000      -0.16666667 </v>
   <v>       0.16666667       0.00000000      -0.16666667 </v>
   <v>       0.33333333       0.00000000      -0.16666667 </v>
   <v>       0.50000000       0.00000000      -0.16666667 </v>
   <v>      -0.33333333      -0.00000000      -0.16666667 </v>
   <v>      -0.16666667       0.00000000      -0.16666667 </v>
   <v>       0.00000000       0.16666667      -0.16666667 </v>
   <v>       0.16666667       0.16666667      -0.16666667 </v>
   <v>       0.33333333       0.16666667      -0.16666667 </v>
   <v>       0.50000000       0.16666667      -0.16666667 </v>
   <v>      -0.33333333       0.16666667      -0.16666667 </v>
   <v>      -0.16666667       0.16666667      -0.16666667 </v>
   <v>       0.00000000       0.33333333      -0.16666667 </v>
   <v>       0.16666667       0.33333333      -0.16666667 </v>
   <v>       0.33333333       0.33333333      -0.16666667 </v>
   <v>       0.50000000       0.33333333      -0.16666667 </v>
   <v>      -0.33333333       0.33333333      -0.16666667 </v>
   <v>      -0.16666667       0.33333333      -0.16666667 </v>
   <v>       0.00000000       0.50000000      -0.16666667 </v>
   <v>       0.16666667       0.50000000      -0.16666667 </v>
   <v>       0.33333333       0.50000000      -0.16666667 </v>
   <v>       0.50000000       0.50000000      -0.16666667 </v>
   <v>      -0.33333333       0.50000000      -0.16666667 </v>
   <v>      -0.16666667       0.50000000      -0.16666667 </v>
   <v>      -0.00000000      -0.33333333      -0.16666667 </v>
   <v>       0.16666667      -0.33333333      -0.16666667 </v>
   <v>       0.33333333      -0.33333333      -0.16666667 </v>
   <v>       0.50000000      -0.33333333      -0.16666667 </v>
   <v>      -0.33333333      -0.33333333      -0.16666667 </v>
   <v>      -0.16666667      -0.33333333      -0.16666667 </v>
   <v>       0.00000000      -0.16666667      -0.16666667 </v>
   <v>       0.16666667      -0.16666667      -0.16666667 </v>
   <v>       0.33333333      -0.16666667      -0.16666667 </v>
   <v>       0.50000000      -0.16666667      -0.16666667 </v>
   <v>      -0.33333333      -0.16666667      -0.16666667 </v>
   <v>      -0.16666667      -0.16666667      -0.16666667 </v>
  </varray>
  <varray name="weights" >
   <v>       0.00462963 </v>
   <v>       0.00462963 </v>
   <v>       0.00462963 </v>
   <v>       0.00462963 </v>
   <v>       0.00462963 </v>
   <v>       0.00462963 </v>
   <v>       0.00462963 </v>
   <v>       0.00462963 </v>
   <v>       0.00462963 </v>
   <v>       0.00462963 </v>
   <v>       0.00462963 </v>
   <v>       0.00462963 </v>
   <v>       0.00462963 </v>
   <v>       0.00462963 </v>
   <v>       0.00462963 </v>
   <v>       0.00462963 </v>
   <v>       0.00462963 </v>
   <v>       0.00462963 </v>
   <v>       0.00462963 </v>
   <v>       0.00462963 </v>
   <v>       0.00462963 </v>
   <v>       0.00462963 </v>
   <v>       0.00462963 </v>
   <v>       0.00462963 </v>
   <v>       0.00462963 </v>
   <v>       0.00462963 </v>
   <v>       0.00462963 </v>
   <v>       0.00462963 </v>
   <v>       0.00462963 </v>
   <v>       0.00462963 </v>
   <v>       0.00462963 </v>
   <v>       0.00462963 </v>
   <v>       0.00462963 </v>
   <v>       0.00462963 </v>
   <v>       0.00462963 </v>
   <v>       0.00462963 </v>
   <v>       0.00462963 </v>
   <v>       0.00462963 </v>
   <v>       0.00462963 </v>
   <v>       0.00462963 </v>
   <v>       0.00462963 </v>
   <v>       0.00462963 </v>
   <v>       0.00462963 </v>
   <v>       0.00462963 </v>
   <v>       0.00462963 </v>
   <v>       0.00462963 </v>
   <v>       0.00462963 </v>
   <v>       0.00462963 </v>
   <v>       0.00462963 </v>
   <v>       0.00462963 </v>
   <v>       0.00462963 </v>
   <v>       0.00462963 </v>
   <v>       0.00462963 </v>
   <v>       0.00462963 </v>
   <v>       0.00462963 </v>
   <v>       0.00462963 </v>
   <v>       0.00462963 </v>
   <v>       0.00462963 </v>
   <v>       0.00462963 </v>
   <v>       0.00462963 </v>
   <v>       0.00462963 </v>
   <v>       0.00462963 </v>
   <v>       0.00462963 </v>
   <v>       0.00462963 </v>
   <v>       0.00462963 </v>
   <v>       0.00462963 </v>
   <v>       0.00462963 </v>
   <v>       0.00462963 </v>
   <v>       0.00462963 </v>
   <v>       0.00462963 </v>
   <v>       0.00462963 </v>
   <v>       0.00462963 </v>
   <v>       0.00462963 </v>
   <v>       0.00462963 </v>
   <v>       0.00462963 </v>
   <v>       0.00462963 </v>
   <v>       0.00462963 </v>
   <v>       0.00462963 </v>
   <v>       0.00462963 </v>
   <v>       0.00462963 </v>
   <v>       0.00462963 </v>
   <v>       0.00462963 </v>
   <v>       0.00462963 </v>
   <v>       0.00462963 </v>
   <v>       0.00462963 </v>
   <v>       0.00462963 </v>
   <v>       0.00462963 </v>
   <v>       0.00462963 </v>
   <v>       0.00462963 </v>
   <v>       0.00462963 </v>
   <v>       0.00462963 </v>
   <v>       0.00462963 </v>
   <v>       0.00462963 </v>
   <v>       0.00462963 </v>
   <v>       0.00462963 </v>
   <v>       0.00462963 </v>
   <v>       0.00462963 </v>
   <v>       0.00462963 </v>
   <v>       0.00462963 </v>
   <v>       0.00462963 </v>
   <v>       0.00462963 </v>
   <v>       0.00462963 </v>
   <v>       0.00462963 </v>
   <v>       0.00462963 </v>
   <v>       0.00462963 </v>
   <v>       0.00462963 </v>
   <v>       0.00462963 </v>
   <v>       0.00462963 </v>
   <v>       0.00462963 </v>
   <v>       0.00462963 </v>
   <v>       0.00462963 </v>
   <v>       0.00462963 </v>
   <v>       0.00462963 </v>
   <v>       0.00462963 </v>
   <v>       0.00462963 </v>
   <v>       0.00462963 </v>
   <v>       0.00462963 </v>
   <v>       0.00462963 </v>
   <v>       0.00462963 </v>
   <v>       0.00462963 </v>
   <v>       0.00462963 </v>
   <v>       0.00462963 </v>
   <v>       0.00462963 </v>
   <v>       0.00462963 </v>
   <v>       0.00462963 </v>
   <v>       0.00462963 </v>
   <v>       0.00462963 </v>
   <v>       0.00462963 </v>
   <v>       0.00462963 </v>
   <v>       0.00462963 </v>
   <v>       0.00462963 </v>
   <v>       0.00462963 </v>
   <v>       0.00462963 </v>
   <v>       0.00462963 </v>
   <v>       0.00462963 </v>
   <v>       0.00462963 </v>
   <v>       0.00462963 </v>
   <v>       0.00462963 </v>
   <v>       0.00462963 </v>
   <v>       0.00462963 </v>
   <v>       0.00462963 </v>
   <v>       0.00462963 </v>
   <v>       0.00462963 </v>
   <v>       0.00462963 </v>
   <v>       0.00462963 </v>
   <v>       0.00462963 </v>
   <v>       0.00462963 </v>
   <v>       0.00462963 </v>
   <v>       0.00462963 </v>
   <v>       0.00462963 </v>
   <v>       0.00462963 </v>
   <v>       0.00462963 </v>
   <v>       0.00462963 </v>
   <v>       0.00462963 </v>
   <v>       0.00462963 </v>
   <v>       0.00462963 </v>
   <v>       0.00462963 </v>
   <v>       0.00462963 </v>
   <v>       0.00462963 </v>
   <v>       0.00462963 </v>
   <v>       0.00462963 </v>
   <v>       0.00462963 </v>
   <v>       0.00462963 </v>
   <v>       0.00462963 </v>
   <v>       0.00462963 </v>
   <v>       0.00462963 </v>
   <v>       0.00462963 </v>
   <v>       0.00462963 </v>
   <v>       0.00462963 </v>
   <v>       0.00462963 </v>
   <v>       0.00462963 </v>
   <v>       0.00462963 </v>
   <v>       0.00462963 </v>
   <v>       0.00462963 </v>
   <v>       0.00462963 </v>
   <v>       0.00462963 </v>
   <v>       0.00462963 </v>
   <v>       0.00462963 </v>
   <v>       0.00462963 </v>
   <v>       0.00462963 </v>
   <v>       0.00462963 </v>
   <v>       0.00462963 </v>
   <v>       0.00462963 </v>
   <v>       0.00462963 </v>
   <v>       0.00462963 </v>
   <v>       0.00462963 </v>
   <v>       0.00462963 </v>
   <v>       0.00462963 </v>
   <v>       0.00462963 </v>
   <v>       0.00462963 </v>
   <v>       0.00462963 </v>
   <v>       0.00462963 </v>
   <v>       0.00462963 </v>
   <v>       0.00462963 </v>
   <v>       0.00462963 </v>
   <v>       0.00462963 </v>
   <v>       0.00462963 </v>
   <v>       0.00462963 </v>
   <v>       0.00462963 </v>
   <v>       0.00462963 </v>
   <v>       0.00462963 </v>
   <v>       0.00462963 </v>
   <v>       0.00462963 </v>
   <v>       0.00462963 </v>
   <v>       0.00462963 </v>
   <v>       0.00462963 </v>
   <v>       0.00462963 </v>
   <v>       0.00462963 </v>
   <v>       0.00462963 </v>
   <v>       0.00462963 </v>
   <v>       0.00462963 </v>
   <v>       0.00462963 </v>
   <v>       0.00462963 </v>
   <v>       0.00462963 </v>
   <v>       0.00462963 </v>
   <v>       0.00462963 </v>
  </varray>
 </kpoints>
 <parameters>
  <separator name="general" >
   <i type="string" name="SYSTEM">Og_FCC</i>
   <i type="logical" name="LCOMPAT"> F  </i>
  </separator>
  <separator name="electronic" >
   <i type="string" name="PREC">accura</i>
   <i name="ENMAX">    300.00000000</i>
   <i name="ENAUG">    715.60700000</i>
   <i name="EDIFF">      0.00000001</i>
   <i type="int" name="IALGO">    38</i>
   <i type="int" name="IWAVPR">    10</i>
   <i type="int" name="NBANDS">    28</i>
   <i name="NELECT">     18.00000000</i>
   <i type="int" name="TURBO">     0</i>
   <i type="int" name="IRESTART">     0</i>
   <i type="int" name="NREBOOT">     0</i>
   <i type="int" name="NMIN">     0</i>
   <i name="EREF">      0.00000000</i>
   <separator name="electronic smearing" >
    <i type="int" name="ISMEAR">     0</i>
    <i name="SIGMA">      0.00100000</i>
    <i name="KSPACING">      0.50000000</i>
    <i type="logical" name="KGAMMA"> T  </i>
   </separator>
   <separator name="electronic projectors" >
    <i type="logical" name="LREAL"> F  </i>
    <v name="ROPT">      0.00000000</v>
    <i type="int" name="LMAXPAW">  -100</i>
    <i type="int" name="LMAXMIX">     2</i>
    <i type="logical" name="NLSPLINE"> F  </i>
   </separator>
   <separator name="electronic startup" >
    <i type="int" name="ISTART">     0</i>
    <i type="int" name="ICHARG">     2</i>
    <i type="int" name="INIWAV">     1</i>
   </separator>
   <separator name="electronic spin" >
    <i type="int" name="ISPIN">     1</i>
    <i type="logical" name="LNONCOLLINEAR"> T  </i>
    <v name="MAGMOM">      1.00000000      1.00000000      1.00000000</v>
    <i name="NUPDOWN">     -1.00000000</i>
    <i type="logical" name="LSORBIT"> T  </i>
    <v name="SAXIS">      0.00000000      0.00000000      1.00000000</v>
    <i type="logical" name="LSPIRAL"> F  </i>
    <v name="QSPIRAL">      0.00000000      0.00000000      0.00000000</v>
    <i type="logical" name="LZEROZ"> F  </i>
   </separator>
   <separator name="electronic exchange-correlation" >
    <i type="logical" name="LASPH"> F  </i>
    <i type="logical" name="LMETAGGA"> F  </i>
   </separator>
   <separator name="electronic convergence" >
    <i type="int" name="NELM">    50</i>
    <i type="int" name="NELMDL">    -5</i>
    <i type="int" name="NELMIN">     2</i>
    <i name="ENINI">    300.00000000</i>
    <separator name="electronic convergence detail" >
     <i type="logical" name="LDIAG"> T  </i>
     <i type="logical" name="LSUBROT"> F  </i>
     <i name="WEIMIN">      0.00000000</i>
     <i name="EBREAK">      0.00000000</i>
     <i name="DEPER">      0.30000000</i>
     <i type="int" name="NRMM">     4</i>
     <i name="TIME">      0.40000000</i>
    </separator>
   </separator>
   <separator name="electronic mixer" >
    <i name="AMIX">      0.40000000</i>
    <i name="BMIX">      1.00000000</i>
    <i name="AMIN">      0.10000000</i>
    <i name="AMIX_MAG">      1.60000000</i>
    <i name="BMIX_MAG">      1.00000000</i>
    <separator name="electronic mixer details" >
     <i type="int" name="IMIX">     4</i>
     <i type="logical" name="MIXFIRST"> F  </i>
     <i type="int" name="MAXMIX">    50</i>
     <i name="WC">    100.00000000</i>
     <i type="int" name="INIMIX">     1</i>
     <i type="int" name="MIXPRE">     1</i>
     <i type="int" name="MREMOVE">     5</i>
    </separator>
   </separator>
   <separator name="electronic dipolcorrection" >
    <i type="logical" name="LDIPOL"> F  </i>
    <i type="logical" name="LMONO"> F  </i>
    <i type="int" name="IDIPOL">     0</i>
    <i name="EPSILON">      1.00000000</i>
    <v name="DIPOL">   -100.00000000   -100.00000000   -100.00000000</v>
    <i name="EFIELD">      0.00000000</i>
   </separator>
  </separator>
  <separator name="grids" >
   <i type="int" name="NGX">    28</i>
   <i type="int" name="NGY">    28</i>
   <i type="int" name="NGZ">    28</i>
   <i type="int" name="NGXF">    56</i>
   <i type="int" name="NGYF">    56</i>
   <i type="int" name="NGZF">    56</i>
   <i type="logical" name="ADDGRID"> T  </i>
  </separator>
  <separator name="ionic" >
   <i type="int" name="NSW">     1</i>
   <i type="int" name="IBRION">    -1</i>
   <i type="int" name="MDALGO">     0</i>
   <i type="int" name="ISIF">     3</i>
   <i name="PSTRESS">      0.00000000</i>
   <i name="EDIFFG">      0.00001000</i>
   <i type="int" name="NFREE">     5</i>
   <i name="POTIM">      0.10000000</i>
   <i name="SMASS">     -3.00000000</i>
   <i name="SCALEE">      1.00000000</i>
  </separator>
  <separator name="ionic md" >
   <i name="TEBEG">      0.00010000</i>
   <i name="TEEND">      0.00010000</i>
   <i type="int" name="NBLOCK">     1</i>
   <i type="int" name="KBLOCK">     1</i>
   <i type="int" name="NPACO">   256</i>
   <i name="APACO">     16.00000000</i>
  </separator>
  <separator name="symmetry" >
   <i type="int" name="ISYM">     0</i>
   <i name="SYMPREC">      0.00000010</i>
  </separator>
  <separator name="dos" >
   <i type="int" name="LORBIT">     0</i>
   <v name="RWIGS">     -1.00000000</v>
   <i type="int" name="NEDOS">   301</i>
   <i name="EMIN">     10.00000000</i>
   <i name="EMAX">    -10.00000000</i>
   <i name="EFERMI">      0.00000000</i>
  </separator>
  <separator name="writing" >
   <i type="int" name="NWRITE">     2</i>
   <i type="logical" name="LWAVE"> T  </i>
   <i type="logical" name="LDOWNSAMPLE"> F  </i>
   <i type="logical" name="LCHARG"> F  </i>
   <i type="logical" name="LPARD"> F  </i>
   <i type="logical" name="LVTOT"> F  </i>
   <i type="logical" name="LVHAR"> F  </i>
   <i type="logical" name="LELF"> F  </i>
   <i type="logical" name="LOPTICS"> T  </i>
   <v name="STM">      0.00000000      0.00000000      0.00000000      0.00000000      0.00000000      0.00000000      0.00000000</v>
  </separator>
  <separator name="performance" >
   <i type="int" name="NPAR">     4</i>
   <i type="int" name="NSIM">     4</i>
   <i type="int" name="NBLK">    -1</i>
   <i type="logical" name="LPLANE"> T  </i>
   <i type="logical" name="LSCALAPACK"> T  </i>
   <i type="logical" name="LSCAAWARE"> F  </i>
   <i type="logical" name="LSCALU"> F  </i>
   <i type="logical" name="LASYNC"> F  </i>
   <i type="logical" name="LORBITALREAL"> F  </i>
  </separator>
  <separator name="miscellaneous" >
   <i type="int" name="IDIOT">     3</i>
   <i type="int" name="ISPECIAL">     0</i>
   <i type="logical" name="LMUSIC"> F  </i>
   <v name="POMASS">    220.17000000</v>
   <v name="DARWINR">      0.00000000</v>
   <v name="DARWINV">      1.00000000</v>
   <i type="logical" name="LCORR"> T  </i>
  </separator>
  <i type="logical" name="GGA_COMPAT"> F  </i>
  <i type="logical" name="LBERRY"> F  </i>
  <i type="int" name="ICORELEVEL">     0</i>
  <i type="logical" name="LDAU"> F  </i>
  <i type="int" name="I_CONSTRAINED_M">     0</i>
  <separator name="electronic exchange-correlation" >
   <i type="string" name="GGA">PE</i>
   <i type="int" name="VOSKOWN">     0</i>
   <i type="logical" name="LHFCALC"> F  </i>
   <i type="string" name="PRECFOCK"></i>
   <i type="logical" name="LSYMGRAD"> F  </i>
   <i type="logical" name="LHFONE"> F  </i>
   <i type="logical" name="LRHFCALC"> F  </i>
   <i type="logical" name="LTHOMAS"> F  </i>
   <i type="logical" name="LMODELHF"> F  </i>
   <i name="ENCUT4O">     -1.00000000</i>
   <i type="int" name="EXXOEP">     0</i>
   <i type="int" name="FOURORBIT">     0</i>
   <i name="AEXX">      0.00000000</i>
   <i name="HFALPHA">      0.00000000</i>
   <i name="MCALPHA">      0.00000000</i>
   <i name="ALDAX">      1.00000000</i>
   <i name="AGGAX">      1.00000000</i>
   <i name="ALDAC">      1.00000000</i>
   <i name="AGGAC">      1.00000000</i>
   <i type="int" name="NKREDX">     1</i>
   <i type="int" name="NKREDY">     1</i>
   <i type="int" name="NKREDZ">     1</i>
   <i type="logical" name="SHIFTRED"> F  </i>
   <i type="logical" name="ODDONLY"> F  </i>
   <i type="logical" name="EVENONLY"> F  </i>
   <i type="int" name="LMAXFOCK">     0</i>
   <i type="int" name="NMAXFOCKAE">     0</i>
   <i type="logical" name="LFOCKAEDFT"> F  </i>
   <i name="HFSCREEN">      0.00000000</i>
   <i name="HFSCREENC">      0.00000000</i>
   <i type="int" name="NBANDSGWLOW">     0</i>
  </separator>
  <separator name="vdW DFT" >
   <i type="logical" name="LUSE_VDW"> F  </i>
   <i name="Zab_VDW">     -0.84910000</i>
   <i name="PARAM1">      0.12340000</i>
   <i name="PARAM2">      1.00000000</i>
   <i name="PARAM3">      0.00000000</i>
  </separator>
  <separator name="model GW" >
   <i type="int" name="MODEL_GW">     0</i>
   <i name="MODEL_EPS0">     39.19352642</i>
   <i name="MODEL_ALPHA">      1.00000000</i>
  </separator>
  <separator name="linear response parameters" >
   <i type="logical" name="LEPSILON"> F  </i>
   <i type="logical" name="LRPA"> F  </i>
   <i type="logical" name="LNABLA"> F  </i>
   <i type="logical" name="LVEL"> F  </i>
   <i type="int" name="KINTER">     0</i>
   <i name="CSHIFT">      0.10000000</i>
   <i name="OMEGAMAX">     -1.00000000</i>
   <i name="DEG_THRESHOLD">      0.00200000</i>
   <i name="RTIME">     -0.10000000</i>
   <i name="WPLASMAI">      0.00000000</i>
   <v name="DFIELD">      0.00000000      0.00000000      0.00000000</v>
   <v name="WPLASMA">      0.00000000      0.00000000      0.00000000      0.00000000      0.00000000      0.00000000      0.00000000      0.00000000      0.00000000</v>
  </separator>
  <separator name="orbital magnetization" >
   <i type="logical" name="NUCIND"> F  </i>
   <v name="MAGPOS">      0.00000000      0.00000000      0.00000000</v>
   <i type="logical" name="LNICSALL"> T  </i>
   <i type="logical" name="ORBITALMAG"> F  </i>
   <i type="logical" name="LMAGBLOCH"> F  </i>
   <i type="logical" name="LCHIMAG"> F  </i>
   <i type="logical" name="LGAUGE"> T  </i>
   <i type="int" name="MAGATOM">     0</i>
   <v name="MAGDIPOL">      0.00000000      0.00000000      0.00000000</v>
   <v name="AVECCONST">      0.00000000      0.00000000      0.00000000</v>
  </separator>
  <separator name="response functions" >
   <i type="logical" name="LADDER"> F  </i>
   <i type="logical" name="LRPAFORCE"> F  </i>
   <i type="logical" name="LFXC"> F  </i>
   <i type="logical" name="LHARTREE"> T  </i>
   <i type="int" name="IBSE">     0</i>
   <v type="int" name="KPOINT">    -1     0     0     0</v>
   <i type="logical" name="LTCTE"> F  </i>
   <i type="logical" name="LTETE"> F  </i>
   <i type="logical" name="LTRIPLET"> F  </i>
   <i type="logical" name="LFXCEPS"> F  </i>
   <i type="logical" name="LFXHEG"> F  </i>
   <i type="int" name="NATURALO">     2</i>
   <i type="logical" name="L2ORDER"> F  </i>
   <i type="logical" name="LMP2LT"> F  </i>
   <i type="logical" name="LUSEW"> F  </i>
   <i name="ENCUTGW">     -2.00000000</i>
   <i name="ENCUTGWSOFT">     -2.00000000</i>
   <i name="ENCUTLF">     -1.00000000</i>
   <i type="int" name="LMAXMP2">    -1</i>
   <i name="SCISSOR">      0.00000000</i>
   <i type="int" name="NOMEGA">     0</i>
   <i type="int" name="NOMEGAR">     0</i>
   <i type="int" name="NBANDSGW">    -1</i>
   <i type="int" name="NBANDSO">    -1</i>
   <i type="int" name="NBANDSV">    -1</i>
   <i type="int" name="NELM">    50</i>
   <i type="int" name="NELMHF">     1</i>
   <i type="int" name="DIM">     3</i>
   <i type="int" name="ANTIRES">     0</i>
   <i name="OMEGAMAX">    -30.00000000</i>
   <i name="OMEGAMIN">    -30.00000000</i>
   <i name="OMEGATL">   -200.00000000</i>
   <i type="int" name="OMEGAGRID">   140</i>
   <i name="CSHIFT">     -0.10000000</i>
   <i type="logical" name="SELFENERGY"> F  </i>
   <i type="logical" name="LSPECTRAL"> F  </i>
   <i type="logical" name="LSPECTRALGW"> F  </i>
   <i type="logical" name="LSINGLES"> F  </i>
   <i type="logical" name="LFERMIGW"> F  </i>
   <i type="logical" name="ODDONLYGW"> F  </i>
   <i type="logical" name="EVENONLYGW"> F  </i>
   <i type="int" name="NKREDLFX">     1</i>
   <i type="int" name="NKREDLFY">     1</i>
   <i type="int" name="NKREDLFZ">     1</i>
   <i type="int" name="MAXMEM">  2800</i>
   <i type="int" name="TELESCOPE">     0</i>
   <i type="int" name="TAUPAR">     1</i>
   <i type="int" name="OMEGAPAR">    -1</i>
   <i name="LAMBDA">      1.00000000</i>
  </separator>
  <separator name="External order field" >
   <i name="OFIELD_KAPPA">      0.00000000</i>
   <v name="OFIELD_K">      0.00000000      0.00000000      0.00000000</v>
   <i name="OFIELD_Q6_NEAR">      0.00000000</i>
   <i name="OFIELD_Q6_FAR">      0.00000000</i>
   <i name="OFIELD_A">      0.00000000</i>
  </separator>
 </parameters>
 <atominfo>
  <atoms>       1 </atoms>
  <types>       1 </types>
  <array name="atoms" >
   <dimension dim="1">ion</dimension>
   <field type="string">element</field>
   <field type="int">atomtype</field>
   <set>
    <rc><c>Rn</c><c>   1</c></rc>
   </set>
  </array>
  <array name="atomtypes" >
   <dimension dim="1">type</dimension>
   <field type="int">atomspertype</field>
   <field type="string">element</field>
   <field>mass</field>
   <field>valence</field>
   <field type="string">pseudopotential</field>
   <set>
    <rc><c>   1</c><c>Rn</c><c>    220.17000000</c><c>     18.00000000</c><c>  PAW_PBE Rn_d_GW 14Apr2014             </c></rc>
   </set>
  </array>
 </atominfo>
 <structure name="initialpos" >
  <crystal>
   <varray name="basis" >
    <v>       4.52056477       0.00000000       0.00000000 </v>
    <v>       2.26028238       3.91492393      -0.00000000 </v>
    <v>       2.26028238       1.30497464       3.69102568 </v>
   </varray>
   <i name="volume">     65.32254404 </i>
   <varray name="rec_basis" >
    <v>       0.22121130      -0.12771640      -0.09030913 </v>
    <v>       0.00000000       0.25543280      -0.09030913 </v>
    <v>      -0.00000000       0.00000000       0.27092740 </v>
   </varray>
  </crystal>
  <varray name="positions" >
   <v>       0.00000000       0.00000000       0.00000000 </v>
  </varray>
  <varray name="velocities" >
   <v>       0.00000000       0.00000000       0.00000000 </v>
  </varray>
 </structure>
 <calculation>
  <scstep>
   <time name="dav">    1.73    1.73</time>
   <time name="total">    1.80    1.80</time>
   <energy>
    <i name="alphaZ">     64.91123397 </i>
    <i name="ewald">  -1672.97583954 </i>
    <i name="hartreedc">  -1018.49848612 </i>
    <i name="XCdc">     36.96089189 </i>
    <i name="pawpsdc">   2507.45732061 </i>
    <i name="pawaedc">  -2477.96017598 </i>
    <i name="eentropy">     -0.00000003 </i>
    <i name="bandstr">   -252.92046221 </i>
    <i name="atom">   3030.62410580 </i>
    <i name="e_fr_energy">    217.59858839 </i>
    <i name="e_wo_entrp">    217.59858842 </i>
    <i name="e_0_energy">    217.59858841 </i>
   </energy>
  </scstep>
  <scstep>
   <time name="dav">    1.62    1.62</time>
   <time name="total">    1.63    1.63</time>
   <energy>
    <i name="e_fr_energy">     73.33132273 </i>
    <i name="e_wo_entrp">     73.33132273 </i>
    <i name="e_0_energy">     73.33132273 </i>
   </energy>
  </scstep>
  <scstep>
   <time name="dav">    1.59    1.59</time>
   <time name="total">    1.59    1.59</time>
   <energy>
    <i name="e_fr_energy">     15.49740818 </i>
    <i name="e_wo_entrp">     15.49740818 </i>
    <i name="e_0_energy">     15.49740818 </i>
   </energy>
  </scstep>
  <scstep>
   <time name="dav">    1.81    1.81</time>
   <time name="total">    1.81    1.81</time>
   <energy>
    <i name="e_fr_energy">      2.82110814 </i>
    <i name="e_wo_entrp">      2.82110814 </i>
    <i name="e_0_energy">      2.82110814 </i>
   </energy>
  </scstep>
  <scstep>
   <time name="dav">    2.30    2.30</time>
   <time name="total">    2.42    2.42</time>
   <energy>
    <i name="e_fr_energy">     -1.44063585 </i>
    <i name="e_wo_entrp">     -1.44063585 </i>
    <i name="e_0_energy">     -1.44063585 </i>
   </energy>
  </scstep>
  <scstep>
   <time name="dav">    1.73    1.73</time>
   <time name="total">    1.91    1.90</time>
   <energy>
    <i name="e_fr_energy">     -1.63898584 </i>
    <i name="e_wo_entrp">     -1.63898584 </i>
    <i name="e_0_energy">     -1.63898584 </i>
   </energy>
  </scstep>
  <scstep>
   <time name="dav">    1.82    1.82</time>
   <time name="total">    1.99    1.99</time>
   <energy>
    <i name="e_fr_energy">     -1.79460056 </i>
    <i name="e_wo_entrp">     -1.79460056 </i>
    <i name="e_0_energy">     -1.79460056 </i>
   </energy>
  </scstep>
  <scstep>
   <time name="dav">    2.05    2.05</time>
   <time name="total">    2.23    2.23</time>
   <energy>
    <i name="e_fr_energy">     -1.79681205 </i>
    <i name="e_wo_entrp">     -1.79681205 </i>
    <i name="e_0_energy">     -1.79681205 </i>
   </energy>
  </scstep>
  <scstep>
   <time name="dav">    1.99    1.99</time>
   <time name="total">    2.16    2.16</time>
   <energy>
    <i name="e_fr_energy">     -1.79695952 </i>
    <i name="e_wo_entrp">     -1.79695952 </i>
    <i name="e_0_energy">     -1.79695952 </i>
   </energy>
  </scstep>
  <scstep>
   <time name="dav">    1.98    1.98</time>
   <time name="total">    2.15    2.15</time>
   <energy>
    <i name="e_fr_energy">     -1.79706833 </i>
    <i name="e_wo_entrp">     -1.79706833 </i>
    <i name="e_0_energy">     -1.79706833 </i>
   </energy>
  </scstep>
  <scstep>
   <time name="dav">    1.84    1.84</time>
   <time name="total">    2.01    2.01</time>
   <energy>
    <i name="e_fr_energy">     -1.79708551 </i>
    <i name="e_wo_entrp">     -1.79708551 </i>
    <i name="e_0_energy">     -1.79708551 </i>
   </energy>
  </scstep>
  <scstep>
   <time name="dav">    1.92    1.92</time>
   <time name="total">    2.09    2.09</time>
   <energy>
    <i name="e_fr_energy">     -1.79708735 </i>
    <i name="e_wo_entrp">     -1.79708735 </i>
    <i name="e_0_energy">     -1.79708735 </i>
   </energy>
  </scstep>
  <scstep>
   <time name="dav">    1.66    1.66</time>
   <time name="total">    1.83    1.83</time>
   <energy>
    <i name="e_fr_energy">     -1.79708812 </i>
    <i name="e_wo_entrp">     -1.79708812 </i>
    <i name="e_0_energy">     -1.79708812 </i>
   </energy>
  </scstep>
  <scstep>
   <time name="dav">    1.78    1.78</time>
   <time name="total">    1.96    1.96</time>
   <energy>
    <i name="e_fr_energy">     -1.79708832 </i>
    <i name="e_wo_entrp">     -1.79708832 </i>
    <i name="e_0_energy">     -1.79708832 </i>
   </energy>
  </scstep>
  <scstep>
   <time name="dav">    1.52    1.52</time>
   <time name="total">    1.69    1.69</time>
   <energy>
    <i name="e_fr_energy">     -1.79708838 </i>
    <i name="e_wo_entrp">     -1.79708838 </i>
    <i name="e_0_energy">     -1.79708838 </i>
   </energy>
  </scstep>
  <scstep>
   <time name="dav">    1.44    1.44</time>
   <time name="total">    1.50    1.49</time>
   <energy>
    <i name="alphaZ">     64.91123397 </i>
    <i name="ewald">  -1672.97583954 </i>
    <i name="hartreedc">  -1020.84494554 </i>
    <i name="XCdc">     36.83491151 </i>
    <i name="pawpsdc">   2508.91839426 </i>
    <i name="pawaedc">  -2479.82399305 </i>
    <i name="eentropy">      0.00000000 </i>
    <i name="bandstr">   -469.44095580 </i>
    <i name="atom">   3030.62410580 </i>
    <i name="e_fr_energy">     -1.79708838 </i>
    <i name="e_wo_entrp">     -1.79708838 </i>
    <i name="e_0_energy">     -1.79708838 </i>
   </energy>
  </scstep>
  <structure>
   <crystal>
    <varray name="basis" >
     <v>       4.52056477       0.00000000       0.00000000 </v>
     <v>       2.26028238       3.91492393      -0.00000000 </v>
     <v>       2.26028238       1.30497464       3.69102568 </v>
    </varray>
    <i name="volume">     65.32254404 </i>
    <varray name="rec_basis" >
     <v>       0.22121130      -0.12771640      -0.09030913 </v>
     <v>       0.00000000       0.25543280      -0.09030913 </v>
     <v>      -0.00000000       0.00000000       0.27092740 </v>
    </varray>
   </crystal>
   <varray name="positions" >
    <v>       0.00000000       0.00000000       0.00000000 </v>
   </varray>
  </structure>
  <varray name="forces" >
   <v>       0.00000042       0.00000297       0.00000134 </v>
  </varray>
  <varray name="stress" >
   <v>      -3.12436951      -0.00002589      -0.00010953 </v>
   <v>      -0.00002626      -3.12468102      -0.00015944 </v>
   <v>      -0.00010935      -0.00015960      -3.12455818 </v>
  </varray>
  <energy>
   <i name="e_fr_energy">     -2.00285832 </i>
   <i name="e_wo_entrp">     -2.00285832 </i>
   <i name="e_0_energy">      0.00000000 </i>
  </energy>
  <time name="totalsc">   32.78   33.04</time>
  <eigenvalues>
   <array>
    <dimension dim="1">band</dimension>
    <dimension dim="2">kpoint</dimension>
    <dimension dim="3">spin</dimension>
    <field>eigene</field>
    <field>occ</field>
    <set>
     <set comment="spin 1">
      <set comment="kpoint 1">
       <r>  -44.1117    1.0000 </r>
       <r>  -44.1117    1.0000 </r>
       <r>  -44.1117    1.0000 </r>
       <r>  -44.1117    1.0000 </r>
       <r>  -39.7075    1.0000 </r>
       <r>  -39.7075    1.0000 </r>
       <r>  -39.7071    1.0000 </r>
       <r>  -39.7071    1.0000 </r>
       <r>  -39.7071    1.0000 </r>
       <r>  -39.7071    1.0000 </r>
       <r>  -17.3606    1.0000 </r>
       <r>  -17.3606    1.0000 </r>
       <r>   -5.0838    1.0000 </r>
       <r>   -5.0838    1.0000 </r>
       <r>   -1.3740    1.0000 </r>
       <r>   -1.3740    1.0000 </r>
       <r>   -1.3740    1.0000 </r>
       <r>   -1.3740    1.0000 </r>
       <r>    2.4228    0.0000 </r>
       <r>    2.4228    0.0000 </r>
       <r>    7.6187    0.0000 </r>
       <r>    7.6187    0.0000 </r>
       <r>    7.6187    0.0000 </r>
       <r>    7.6187    0.0000 </r>
       <r>    7.7745    0.0000 </r>
       <r>    7.7745    0.0000 </r>
       <r>    9.4401    0.0000 </r>
       <r>    9.4532    0.0000 </r>
      </set>
      <set comment="kpoint 2">
       <r>  -44.1116    1.0000 </r>
       <r>  -44.1116    1.0000 </r>
       <r>  -44.1116    1.0000 </r>
       <r>  -44.1116    1.0000 </r>
       <r>  -39.7080    1.0000 </r>
       <r>  -39.7080    1.0000 </r>
       <r>  -39.7078    1.0000 </r>
       <r>  -39.7078    1.0000 </r>
       <r>  -39.7077    1.0000 </r>
       <r>  -39.7077    1.0000 </r>
       <r>  -17.3295    1.0000 </r>
       <r>  -17.3295    1.0000 </r>
       <r>   -5.2170    1.0000 </r>
       <r>   -5.2170    1.0000 </r>
       <r>   -1.8766    1.0000 </r>
       <r>   -1.8766    1.0000 </r>
       <r>   -1.4415    1.0000 </r>
       <r>   -1.4415    1.0000 </r>
       <r>    3.2314    0.0000 </r>
       <r>    3.2314    0.0000 </r>
       <r>    6.9534    0.0000 </r>
       <r>    6.9534    0.0000 </r>
       <r>    7.7989    0.0000 </r>
       <r>    7.7989    0.0000 </r>
       <r>    7.9490    0.0000 </r>
       <r>    7.9490    0.0000 </r>
       <r>    9.3234    0.0000 </r>
       <r>    9.3647    0.0000 </r>
      </set>
      <set comment="kpoint 3">
       <r>  -44.1116    1.0000 </r>
       <r>  -44.1116    1.0000 </r>
       <r>  -44.1114    1.0000 </r>
       <r>  -44.1114    1.0000 </r>
       <r>  -39.7077    1.0000 </r>
       <r>  -39.7077    1.0000 </r>
       <r>  -39.7070    1.0000 </r>
       <r>  -39.7070    1.0000 </r>
       <r>  -39.7068    1.0000 </r>
       <r>  -39.7068    1.0000 </r>
       <r>  -17.2628    1.0000 </r>
       <r>  -17.2628    1.0000 </r>
       <r>   -5.4993    1.0000 </r>
       <r>   -5.4993    1.0000 </r>
       <r>   -2.5268    1.0000 </r>
       <r>   -2.5268    1.0000 </r>
       <r>   -1.5690    1.0000 </r>
       <r>   -1.5690    1.0000 </r>
       <r>    4.1411    0.0000 </r>
       <r>    4.1411    0.0000 </r>
       <r>    7.1589    0.0000 </r>
       <r>    7.1589    0.0000 </r>
       <r>    7.4999    0.0000 </r>
       <r>    7.4999    0.0000 </r>
       <r>    7.6660    0.0000 </r>
       <r>    7.6660    0.0000 </r>
       <r>    9.4670    0.0000 </r>
       <r>    9.4677    0.0000 </r>
      </set>
      <set comment="kpoint 4">
       <r>  -44.1115    1.0000 </r>
       <r>  -44.1115    1.0000 </r>
       <r>  -44.1113    1.0000 </r>
       <r>  -44.1113    1.0000 </r>
       <r>  -39.7079    1.0000 </r>
       <r>  -39.7079    1.0000 </r>
       <r>  -39.7069    1.0000 </r>
       <r>  -39.7069    1.0000 </r>
       <r>  -39.7069    1.0000 </r>
       <r>  -39.7069    1.0000 </r>
       <r>  -17.2293    1.0000 </r>
       <r>  -17.2293    1.0000 </r>
       <r>   -5.6470    1.0000 </r>
       <r>   -5.6470    1.0000 </r>
       <r>   -2.7615    1.0000 </r>
       <r>   -2.7615    1.0000 </r>
       <r>   -1.6294    1.0000 </r>
       <r>   -1.6294    1.0000 </r>
       <r>    4.2397    0.0000 </r>
       <r>    4.2397    0.0000 </r>
       <r>    7.2530    0.0000 </r>
       <r>    7.2530    0.0000 </r>
       <r>    7.4092    0.0000 </r>
       <r>    7.4092    0.0000 </r>
       <r>    7.8084    0.0000 </r>
       <r>    7.8084    0.0000 </r>
       <r>    9.6795    0.0000 </r>
       <r>    9.6795    0.0000 </r>
      </set>
      <set comment="kpoint 5">
       <r>  -44.1116    1.0000 </r>
       <r>  -44.1116    1.0000 </r>
       <r>  -44.1114    1.0000 </r>
       <r>  -44.1114    1.0000 </r>
       <r>  -39.7077    1.0000 </r>
       <r>  -39.7077    1.0000 </r>
       <r>  -39.7070    1.0000 </r>
       <r>  -39.7070    1.0000 </r>
       <r>  -39.7068    1.0000 </r>
       <r>  -39.7068    1.0000 </r>
       <r>  -17.2628    1.0000 </r>
       <r>  -17.2628    1.0000 </r>
       <r>   -5.4993    1.0000 </r>
       <r>   -5.4993    1.0000 </r>
       <r>   -2.5268    1.0000 </r>
       <r>   -2.5268    1.0000 </r>
       <r>   -1.5690    1.0000 </r>
       <r>   -1.5690    1.0000 </r>
       <r>    4.1411    0.0000 </r>
       <r>    4.1411    0.0000 </r>
       <r>    7.1589    0.0000 </r>
       <r>    7.1589    0.0000 </r>
       <r>    7.4999    0.0000 </r>
       <r>    7.4999    0.0000 </r>
       <r>    7.6660    0.0000 </r>
       <r>    7.6660    0.0000 </r>
       <r>    9.4670    0.0000 </r>
       <r>    9.4676    0.0000 </r>
      </set>
      <set comment="kpoint 6">
       <r>  -44.1116    1.0000 </r>
       <r>  -44.1116    1.0000 </r>
       <r>  -44.1116    1.0000 </r>
       <r>  -44.1116    1.0000 </r>
       <r>  -39.7080    1.0000 </r>
       <r>  -39.7080    1.0000 </r>
       <r>  -39.7078    1.0000 </r>
       <r>  -39.7078    1.0000 </r>
       <r>  -39.7077    1.0000 </r>
       <r>  -39.7077    1.0000 </r>
       <r>  -17.3295    1.0000 </r>
       <r>  -17.3295    1.0000 </r>
       <r>   -5.2170    1.0000 </r>
       <r>   -5.2170    1.0000 </r>
       <r>   -1.8766    1.0000 </r>
       <r>   -1.8766    1.0000 </r>
       <r>   -1.4415    1.0000 </r>
       <r>   -1.4415    1.0000 </r>
       <r>    3.2314    0.0000 </r>
       <r>    3.2314    0.0000 </r>
       <r>    6.9534    0.0000 </r>
       <r>    6.9534    0.0000 </r>
       <r>    7.7989    0.0000 </r>
       <r>    7.7989    0.0000 </r>
       <r>    7.9490    0.0000 </r>
       <r>    7.9490    0.0000 </r>
       <r>    9.3302    0.0000 </r>
       <r>    9.3789    0.0000 </r>
      </set>
      <set comment="kpoint 7">
       <r>  -44.1116    1.0000 </r>
       <r>  -44.1116    1.0000 </r>
       <r>  -44.1116    1.0000 </r>
       <r>  -44.1116    1.0000 </r>
       <r>  -39.7080    1.0000 </r>
       <r>  -39.7080    1.0000 </r>
       <r>  -39.7078    1.0000 </r>
       <r>  -39.7078    1.0000 </r>
       <r>  -39.7077    1.0000 </r>
       <r>  -39.7077    1.0000 </r>
       <r>  -17.3295    1.0000 </r>
       <r>  -17.3295    1.0000 </r>
       <r>   -5.2170    1.0000 </r>
       <r>   -5.2170    1.0000 </r>
       <r>   -1.8766    1.0000 </r>
       <r>   -1.8766    1.0000 </r>
       <r>   -1.4415    1.0000 </r>
       <r>   -1.4415    1.0000 </r>
       <r>    3.2314    0.0000 </r>
       <r>    3.2314    0.0000 </r>
       <r>    6.9534    0.0000 </r>
       <r>    6.9534    0.0000 </r>
       <r>    7.7989    0.0000 </r>
       <r>    7.7989    0.0000 </r>
       <r>    7.9490    0.0000 </r>
       <r>    7.9490    0.0000 </r>
       <r>    9.3311    0.0000 </r>
       <r>    9.3776    0.0000 </r>
      </set>
      <set comment="kpoint 8">
       <r>  -44.1116    1.0000 </r>
       <r>  -44.1116    1.0000 </r>
       <r>  -44.1116    1.0000 </r>
       <r>  -44.1116    1.0000 </r>
       <r>  -39.7081    1.0000 </r>
       <r>  -39.7081    1.0000 </r>
       <r>  -39.7077    1.0000 </r>
       <r>  -39.7077    1.0000 </r>
       <r>  -39.7075    1.0000 </r>
       <r>  -39.7075    1.0000 </r>
       <r>  -17.3187    1.0000 </r>
       <r>  -17.3187    1.0000 </r>
       <r>   -5.2535    1.0000 </r>
       <r>   -5.2535    1.0000 </r>
       <r>   -1.9225    1.0000 </r>
       <r>   -1.9225    1.0000 </r>
       <r>   -1.5817    1.0000 </r>
       <r>   -1.5817    1.0000 </r>
       <r>    3.5173    0.0000 </r>
       <r>    3.5173    0.0000 </r>
       <r>    6.5173    0.0000 </r>
       <r>    6.5173    0.0000 </r>
       <r>    7.8987    0.0000 </r>
       <r>    7.8987    0.0000 </r>
       <r>    8.1837    0.0000 </r>
       <r>    8.1837    0.0000 </r>
       <r>    8.3303    0.0000 </r>
       <r>    8.3303    0.0000 </r>
      </set>
      <set comment="kpoint 9">
       <r>  -44.1115    1.0000 </r>
       <r>  -44.1115    1.0000 </r>
       <r>  -44.1114    1.0000 </r>
       <r>  -44.1114    1.0000 </r>
       <r>  -39.7077    1.0000 </r>
       <r>  -39.7077    1.0000 </r>
       <r>  -39.7074    1.0000 </r>
       <r>  -39.7074    1.0000 </r>
       <r>  -39.7068    1.0000 </r>
       <r>  -39.7068    1.0000 </r>
       <r>  -17.2635    1.0000 </r>
       <r>  -17.2635    1.0000 </r>
       <r>   -5.4676    1.0000 </r>
       <r>   -5.4676    1.0000 </r>
       <r>   -2.4413    1.0000 </r>
       <r>   -2.4413    1.0000 </r>
       <r>   -1.7546    1.0000 </r>
       <r>   -1.7546    1.0000 </r>
       <r>    4.4970    0.0000 </r>
       <r>    4.4970    0.0000 </r>
       <r>    6.2607    0.0000 </r>
       <r>    6.2607    0.0000 </r>
       <r>    6.9455    0.0000 </r>
       <r>    6.9455    0.0000 </r>
       <r>    8.3481    0.0000 </r>
       <r>    8.3481    0.0000 </r>
       <r>    9.3953    0.0000 </r>
       <r>    9.3954    0.0000 </r>
      </set>
      <set comment="kpoint 10">
       <r>  -44.1115    1.0000 </r>
       <r>  -44.1115    1.0000 </r>
       <r>  -44.1114    1.0000 </r>
       <r>  -44.1114    1.0000 </r>
       <r>  -39.7078    1.0000 </r>
       <r>  -39.7078    1.0000 </r>
       <r>  -39.7069    1.0000 </r>
       <r>  -39.7069    1.0000 </r>
       <r>  -39.7066    1.0000 </r>
       <r>  -39.7066    1.0000 </r>
       <r>  -17.2185    1.0000 </r>
       <r>  -17.2185    1.0000 </r>
       <r>   -5.6435    1.0000 </r>
       <r>   -5.6435    1.0000 </r>
       <r>   -2.7728    1.0000 </r>
       <r>   -2.7728    1.0000 </r>
       <r>   -1.8855    1.0000 </r>
       <r>   -1.8855    1.0000 </r>
       <r>    4.8609    0.0000 </r>
       <r>    4.8609    0.0000 </r>
       <r>    6.2842    0.0000 </r>
       <r>    6.2842    0.0000 </r>
       <r>    7.5568    0.0000 </r>
       <r>    7.5568    0.0000 </r>
       <r>    7.9566    0.0000 </r>
       <r>    7.9566    0.0000 </r>
       <r>   10.2669    0.0000 </r>
       <r>   10.2674    0.0000 </r>
      </set>
      <set comment="kpoint 11">
       <r>  -44.1115    1.0000 </r>
       <r>  -44.1115    1.0000 </r>
       <r>  -44.1114    1.0000 </r>
       <r>  -44.1114    1.0000 </r>
       <r>  -39.7077    1.0000 </r>
       <r>  -39.7077    1.0000 </r>
       <r>  -39.7070    1.0000 </r>
       <r>  -39.7070    1.0000 </r>
       <r>  -39.7067    1.0000 </r>
       <r>  -39.7067    1.0000 </r>
       <r>  -17.2297    1.0000 </r>
       <r>  -17.2297    1.0000 </r>
       <r>   -5.6009    1.0000 </r>
       <r>   -5.6009    1.0000 </r>
       <r>   -2.7131    1.0000 </r>
       <r>   -2.7131    1.0000 </r>
       <r>   -1.8433    1.0000 </r>
       <r>   -1.8433    1.0000 </r>
       <r>    4.9332    0.0000 </r>
       <r>    4.9332    0.0000 </r>
       <r>    6.4435    0.0000 </r>
       <r>    6.4435    0.0000 </r>
       <r>    7.2726    0.0000 </r>
       <r>    7.2727    0.0000 </r>
       <r>    7.8555    0.0000 </r>
       <r>    7.8555    0.0000 </r>
       <r>    9.8004    0.0000 </r>
       <r>    9.8008    0.0000 </r>
      </set>
      <set comment="kpoint 12">
       <r>  -44.1116    1.0000 </r>
       <r>  -44.1116    1.0000 </r>
       <r>  -44.1115    1.0000 </r>
       <r>  -44.1115    1.0000 </r>
       <r>  -39.7075    1.0000 </r>
       <r>  -39.7075    1.0000 </r>
       <r>  -39.7074    1.0000 </r>
       <r>  -39.7074    1.0000 </r>
       <r>  -39.7069    1.0000 </r>
       <r>  -39.7069    1.0000 </r>
       <r>  -17.2852    1.0000 </r>
       <r>  -17.2852    1.0000 </r>
       <r>   -5.3884    1.0000 </r>
       <r>   -5.3884    1.0000 </r>
       <r>   -2.2968    1.0000 </r>
       <r>   -2.2968    1.0000 </r>
       <r>   -1.6352    1.0000 </r>
       <r>   -1.6352    1.0000 </r>
       <r>    4.1971    0.0000 </r>
       <r>    4.1971    0.0000 </r>
       <r>    6.5724    0.0000 </r>
       <r>    6.5724    0.0000 </r>
       <r>    7.2958    0.0000 </r>
       <r>    7.2958    0.0000 </r>
       <r>    8.2902    0.0000 </r>
       <r>    8.2902    0.0000 </r>
       <r>    8.3928    0.0000 </r>
       <r>    8.3928    0.0000 </r>
      </set>
      <set comment="kpoint 13">
       <r>  -44.1116    1.0000 </r>
       <r>  -44.1116    1.0000 </r>
       <r>  -44.1114    1.0000 </r>
       <r>  -44.1114    1.0000 </r>
       <r>  -39.7077    1.0000 </r>
       <r>  -39.7077    1.0000 </r>
       <r>  -39.7070    1.0000 </r>
       <r>  -39.7070    1.0000 </r>
       <r>  -39.7068    1.0000 </r>
       <r>  -39.7068    1.0000 </r>
       <r>  -17.2628    1.0000 </r>
       <r>  -17.2628    1.0000 </r>
       <r>   -5.4993    1.0000 </r>
       <r>   -5.4993    1.0000 </r>
       <r>   -2.5268    1.0000 </r>
       <r>   -2.5268    1.0000 </r>
       <r>   -1.5691    1.0000 </r>
       <r>   -1.5690    1.0000 </r>
       <r>    4.1411    0.0000 </r>
       <r>    4.1411    0.0000 </r>
       <r>    7.1589    0.0000 </r>
       <r>    7.1589    0.0000 </r>
       <r>    7.4999    0.0000 </r>
       <r>    7.4999    0.0000 </r>
       <r>    7.6660    0.0000 </r>
       <r>    7.6660    0.0000 </r>
       <r>    9.4672    0.0000 </r>
       <r>    9.4737    0.0000 </r>
      </set>
      <set comment="kpoint 14">
       <r>  -44.1115    1.0000 </r>
       <r>  -44.1115    1.0000 </r>
       <r>  -44.1114    1.0000 </r>
       <r>  -44.1114    1.0000 </r>
       <r>  -39.7077    1.0000 </r>
       <r>  -39.7077    1.0000 </r>
       <r>  -39.7074    1.0000 </r>
       <r>  -39.7074    1.0000 </r>
       <r>  -39.7068    1.0000 </r>
       <r>  -39.7068    1.0000 </r>
       <r>  -17.2635    1.0000 </r>
       <r>  -17.2635    1.0000 </r>
       <r>   -5.4676    1.0000 </r>
       <r>   -5.4676    1.0000 </r>
       <r>   -2.4413    1.0000 </r>
       <r>   -2.4413    1.0000 </r>
       <r>   -1.7546    1.0000 </r>
       <r>   -1.7546    1.0000 </r>
       <r>    4.4970    0.0000 </r>
       <r>    4.4970    0.0000 </r>
       <r>    6.2607    0.0000 </r>
       <r>    6.2607    0.0000 </r>
       <r>    6.9455    0.0000 </r>
       <r>    6.9455    0.0000 </r>
       <r>    8.3481    0.0000 </r>
       <r>    8.3481    0.0000 </r>
       <r>    9.3953    0.0000 </r>
       <r>    9.3956    0.0000 </r>
      </set>
      <set comment="kpoint 15">
       <r>  -44.1115    1.0000 </r>
       <r>  -44.1115    1.0000 </r>
       <r>  -44.1114    1.0000 </r>
       <r>  -44.1114    1.0000 </r>
       <r>  -39.7076    1.0000 </r>
       <r>  -39.7076    1.0000 </r>
       <r>  -39.7071    1.0000 </r>
       <r>  -39.7071    1.0000 </r>
       <r>  -39.7064    1.0000 </r>
       <r>  -39.7064    1.0000 </r>
       <r>  -17.2306    1.0000 </r>
       <r>  -17.2305    1.0000 </r>
       <r>   -5.5697    1.0000 </r>
       <r>   -5.5697    1.0000 </r>
       <r>   -2.6075    1.0000 </r>
       <r>   -2.6075    1.0000 </r>
       <r>   -1.9526    1.0000 </r>
       <r>   -1.9526    1.0000 </r>
       <r>    4.4897    0.0000 </r>
       <r>    4.4897    0.0000 </r>
       <r>    5.4656    0.0000 </r>
       <r>    5.4656    0.0000 </r>
       <r>    7.4779    0.0000 </r>
       <r>    7.4779    0.0000 </r>
       <r>    9.4835    0.0000 </r>
       <r>    9.4835    0.0000 </r>
       <r>    9.8655    0.0000 </r>
       <r>    9.8659    0.0000 </r>
      </set>
      <set comment="kpoint 16">
       <r>  -44.1115    1.0000 </r>
       <r>  -44.1115    1.0000 </r>
       <r>  -44.1114    1.0000 </r>
       <r>  -44.1114    1.0000 </r>
       <r>  -39.7075    1.0000 </r>
       <r>  -39.7075    1.0000 </r>
       <r>  -39.7069    1.0000 </r>
       <r>  -39.7069    1.0000 </r>
       <r>  -39.7063    1.0000 </r>
       <r>  -39.7063    1.0000 </r>
       <r>  -17.1968    1.0000 </r>
       <r>  -17.1968    1.0000 </r>
       <r>   -5.6790    1.0000 </r>
       <r>   -5.6790    1.0000 </r>
       <r>   -2.7980    1.0000 </r>
       <r>   -2.7980    1.0000 </r>
       <r>   -2.1467    1.0000 </r>
       <r>   -2.1467    1.0000 </r>
       <r>    4.6174    0.0000 </r>
       <r>    4.6174    0.0000 </r>
       <r>    5.6410    0.0000 </r>
       <r>    5.6410    0.0000 </r>
       <r>    7.7824    0.0000 </r>
       <r>    7.7824    0.0000 </r>
       <r>    9.4940    0.0000 </r>
       <r>    9.4940    0.0000 </r>
       <r>   10.4329    0.0000 </r>
       <r>   10.4331    0.0000 </r>
      </set>
      <set comment="kpoint 17">
       <r>  -44.1115    1.0000 </r>
       <r>  -44.1115    1.0000 </r>
       <r>  -44.1114    1.0000 </r>
       <r>  -44.1114    1.0000 </r>
       <r>  -39.7077    1.0000 </r>
       <r>  -39.7077    1.0000 </r>
       <r>  -39.7069    1.0000 </r>
       <r>  -39.7069    1.0000 </r>
       <r>  -39.7067    1.0000 </r>
       <r>  -39.7067    1.0000 </r>
       <r>  -17.1966    1.0000 </r>
       <r>  -17.1966    1.0000 </r>
       <r>   -5.6792    1.0000 </r>
       <r>   -5.6792    1.0000 </r>
       <r>   -2.8385    1.0000 </r>
       <r>   -2.8385    1.0000 </r>
       <r>   -2.1713    1.0000 </r>
       <r>   -2.1713    1.0000 </r>
       <r>    5.1526    0.0000 </r>
       <r>    5.1527    0.0000 </r>
       <r>    6.2904    0.0000 </r>
       <r>    6.2904    0.0000 </r>
       <r>    7.5350    0.0000 </r>
       <r>    7.5350    0.0000 </r>
       <r>    8.7747    0.0000 </r>
       <r>    8.7747    0.0000 </r>
       <r>    9.3620    0.0000 </r>
       <r>    9.3624    0.0000 </r>
      </set>
      <set comment="kpoint 18">
       <r>  -44.1115    1.0000 </r>
       <r>  -44.1115    1.0000 </r>
       <r>  -44.1114    1.0000 </r>
       <r>  -44.1114    1.0000 </r>
       <r>  -39.7077    1.0000 </r>
       <r>  -39.7077    1.0000 </r>
       <r>  -39.7070    1.0000 </r>
       <r>  -39.7070    1.0000 </r>
       <r>  -39.7067    1.0000 </r>
       <r>  -39.7067    1.0000 </r>
       <r>  -17.2297    1.0000 </r>
       <r>  -17.2297    1.0000 </r>
       <r>   -5.6009    1.0000 </r>
       <r>   -5.6009    1.0000 </r>
       <r>   -2.7131    1.0000 </r>
       <r>   -2.7131    1.0000 </r>
       <r>   -1.8433    1.0000 </r>
       <r>   -1.8433    1.0000 </r>
       <r>    4.9332    0.0000 </r>
       <r>    4.9332    0.0000 </r>
       <r>    6.4435    0.0000 </r>
       <r>    6.4435    0.0000 </r>
       <r>    7.2726    0.0000 </r>
       <r>    7.2727    0.0000 </r>
       <r>    7.8555    0.0000 </r>
       <r>    7.8555    0.0000 </r>
       <r>    9.8004    0.0000 </r>
       <r>    9.8004    0.0000 </r>
      </set>
      <set comment="kpoint 19">
       <r>  -44.1115    1.0000 </r>
       <r>  -44.1115    1.0000 </r>
       <r>  -44.1113    1.0000 </r>
       <r>  -44.1113    1.0000 </r>
       <r>  -39.7079    1.0000 </r>
       <r>  -39.7079    1.0000 </r>
       <r>  -39.7069    1.0000 </r>
       <r>  -39.7069    1.0000 </r>
       <r>  -39.7069    1.0000 </r>
       <r>  -39.7069    1.0000 </r>
       <r>  -17.2293    1.0000 </r>
       <r>  -17.2293    1.0000 </r>
       <r>   -5.6470    1.0000 </r>
       <r>   -5.6470    1.0000 </r>
       <r>   -2.7615    1.0000 </r>
       <r>   -2.7615    1.0000 </r>
       <r>   -1.6294    1.0000 </r>
       <r>   -1.6294    1.0000 </r>
       <r>    4.2397    0.0000 </r>
       <r>    4.2397    0.0000 </r>
       <r>    7.2530    0.0000 </r>
       <r>    7.2530    0.0000 </r>
       <r>    7.4092    0.0000 </r>
       <r>    7.4092    0.0000 </r>
       <r>    7.8084    0.0000 </r>
       <r>    7.8084    0.0000 </r>
       <r>    9.6795    0.0000 </r>
       <r>    9.6795    0.0000 </r>
      </set>
      <set comment="kpoint 20">
       <r>  -44.1115    1.0000 </r>
       <r>  -44.1115    1.0000 </r>
       <r>  -44.1114    1.0000 </r>
       <r>  -44.1114    1.0000 </r>
       <r>  -39.7078    1.0000 </r>
       <r>  -39.7078    1.0000 </r>
       <r>  -39.7069    1.0000 </r>
       <r>  -39.7069    1.0000 </r>
       <r>  -39.7066    1.0000 </r>
       <r>  -39.7066    1.0000 </r>
       <r>  -17.2185    1.0000 </r>
       <r>  -17.2185    1.0000 </r>
       <r>   -5.6435    1.0000 </r>
       <r>   -5.6435    1.0000 </r>
       <r>   -2.7728    1.0000 </r>
       <r>   -2.7728    1.0000 </r>
       <r>   -1.8855    1.0000 </r>
       <r>   -1.8855    1.0000 </r>
       <r>    4.8609    0.0000 </r>
       <r>    4.8609    0.0000 </r>
       <r>    6.2842    0.0000 </r>
       <r>    6.2842    0.0000 </r>
       <r>    7.5568    0.0000 </r>
       <r>    7.5568    0.0000 </r>
       <r>    7.9566    0.0000 </r>
       <r>    7.9566    0.0000 </r>
       <r>   10.2670    0.0000 </r>
       <r>   10.3315    0.0000 </r>
      </set>
      <set comment="kpoint 21">
       <r>  -44.1115    1.0000 </r>
       <r>  -44.1115    1.0000 </r>
       <r>  -44.1114    1.0000 </r>
       <r>  -44.1114    1.0000 </r>
       <r>  -39.7075    1.0000 </r>
       <r>  -39.7075    1.0000 </r>
       <r>  -39.7069    1.0000 </r>
       <r>  -39.7069    1.0000 </r>
       <r>  -39.7063    1.0000 </r>
       <r>  -39.7063    1.0000 </r>
       <r>  -17.1968    1.0000 </r>
       <r>  -17.1968    1.0000 </r>
       <r>   -5.6790    1.0000 </r>
       <r>   -5.6790    1.0000 </r>
       <r>   -2.7980    1.0000 </r>
       <r>   -2.7980    1.0000 </r>
       <r>   -2.1467    1.0000 </r>
       <r>   -2.1467    1.0000 </r>
       <r>    4.6174    0.0000 </r>
       <r>    4.6174    0.0000 </r>
       <r>    5.6410    0.0000 </r>
       <r>    5.6410    0.0000 </r>
       <r>    7.7824    0.0000 </r>
       <r>    7.7824    0.0000 </r>
       <r>    9.4940    0.0000 </r>
       <r>    9.4940    0.0000 </r>
       <r>   10.4329    0.0000 </r>
       <r>   10.4330    0.0000 </r>
      </set>
      <set comment="kpoint 22">
       <r>  -44.1114    1.0000 </r>
       <r>  -44.1114    1.0000 </r>
       <r>  -44.1113    1.0000 </r>
       <r>  -44.1113    1.0000 </r>
       <r>  -39.7079    1.0000 </r>
       <r>  -39.7079    1.0000 </r>
       <r>  -39.7068    1.0000 </r>
       <r>  -39.7068    1.0000 </r>
       <r>  -39.7061    1.0000 </r>
       <r>  -39.7061    1.0000 </r>
       <r>  -17.1861    1.0000 </r>
       <r>  -17.1861    1.0000 </r>
       <r>   -5.7171    1.0000 </r>
       <r>   -5.7171    1.0000 </r>
       <r>   -2.8572    1.0000 </r>
       <r>   -2.8572    1.0000 </r>
       <r>   -2.1204    1.0000 </r>
       <r>   -2.1204    1.0000 </r>
       <r>    4.1476    0.0000 </r>
       <r>    4.1476    0.0000 </r>
       <r>    5.1028    0.0000 </r>
       <r>    5.1028    0.0000 </r>
       <r>    8.9319    0.0000 </r>
       <r>    8.9319    0.0000 </r>
       <r>   10.9934    0.0000 </r>
       <r>   10.9989    0.0000 </r>
       <r>   11.4411    0.0000 </r>
       <r>   11.4740    0.0000 </r>
      </set>
      <set comment="kpoint 23">
       <r>  -44.1115    1.0000 </r>
       <r>  -44.1115    1.0000 </r>
       <r>  -44.1114    1.0000 </r>
       <r>  -44.1114    1.0000 </r>
       <r>  -39.7075    1.0000 </r>
       <r>  -39.7075    1.0000 </r>
       <r>  -39.7069    1.0000 </r>
       <r>  -39.7069    1.0000 </r>
       <r>  -39.7063    1.0000 </r>
       <r>  -39.7063    1.0000 </r>
       <r>  -17.1968    1.0000 </r>
       <r>  -17.1968    1.0000 </r>
       <r>   -5.6790    1.0000 </r>
       <r>   -5.6790    1.0000 </r>
       <r>   -2.7980    1.0000 </r>
       <r>   -2.7980    1.0000 </r>
       <r>   -2.1467    1.0000 </r>
       <r>   -2.1467    1.0000 </r>
       <r>    4.6174    0.0000 </r>
       <r>    4.6174    0.0000 </r>
       <r>    5.6410    0.0000 </r>
       <r>    5.6410    0.0000 </r>
       <r>    7.7824    0.0000 </r>
       <r>    7.7824    0.0000 </r>
       <r>    9.4940    0.0000 </r>
       <r>    9.4940    0.0000 </r>
       <r>   10.4329    0.0000 </r>
       <r>   10.4329    0.0000 </r>
      </set>
      <set comment="kpoint 24">
       <r>  -44.1115    1.0000 </r>
       <r>  -44.1115    1.0000 </r>
       <r>  -44.1114    1.0000 </r>
       <r>  -44.1114    1.0000 </r>
       <r>  -39.7078    1.0000 </r>
       <r>  -39.7078    1.0000 </r>
       <r>  -39.7069    1.0000 </r>
       <r>  -39.7069    1.0000 </r>
       <r>  -39.7066    1.0000 </r>
       <r>  -39.7066    1.0000 </r>
       <r>  -17.2185    1.0000 </r>
       <r>  -17.2185    1.0000 </r>
       <r>   -5.6435    1.0000 </r>
       <r>   -5.6435    1.0000 </r>
       <r>   -2.7728    1.0000 </r>
       <r>   -2.7728    1.0000 </r>
       <r>   -1.8855    1.0000 </r>
       <r>   -1.8855    1.0000 </r>
       <r>    4.8609    0.0000 </r>
       <r>    4.8609    0.0000 </r>
       <r>    6.2842    0.0000 </r>
       <r>    6.2842    0.0000 </r>
       <r>    7.5568    0.0000 </r>
       <r>    7.5568    0.0000 </r>
       <r>    7.9566    0.0000 </r>
       <r>    7.9566    0.0000 </r>
       <r>   10.2669    0.0000 </r>
       <r>   10.2671    0.0000 </r>
      </set>
      <set comment="kpoint 25">
       <r>  -44.1116    1.0000 </r>
       <r>  -44.1116    1.0000 </r>
       <r>  -44.1114    1.0000 </r>
       <r>  -44.1114    1.0000 </r>
       <r>  -39.7077    1.0000 </r>
       <r>  -39.7077    1.0000 </r>
       <r>  -39.7070    1.0000 </r>
       <r>  -39.7070    1.0000 </r>
       <r>  -39.7068    1.0000 </r>
       <r>  -39.7068    1.0000 </r>
       <r>  -17.2628    1.0000 </r>
       <r>  -17.2628    1.0000 </r>
       <r>   -5.4993    1.0000 </r>
       <r>   -5.4993    1.0000 </r>
       <r>   -2.5268    1.0000 </r>
       <r>   -2.5268    1.0000 </r>
       <r>   -1.5691    1.0000 </r>
       <r>   -1.5690    1.0000 </r>
       <r>    4.1411    0.0000 </r>
       <r>    4.1411    0.0000 </r>
       <r>    7.1589    0.0000 </r>
       <r>    7.1589    0.0000 </r>
       <r>    7.4999    0.0000 </r>
       <r>    7.4999    0.0000 </r>
       <r>    7.6660    0.0000 </r>
       <r>    7.6660    0.0000 </r>
       <r>    9.4670    0.0000 </r>
       <r>    9.4692    0.0000 </r>
      </set>
      <set comment="kpoint 26">
       <r>  -44.1115    1.0000 </r>
       <r>  -44.1115    1.0000 </r>
       <r>  -44.1114    1.0000 </r>
       <r>  -44.1114    1.0000 </r>
       <r>  -39.7077    1.0000 </r>
       <r>  -39.7077    1.0000 </r>
       <r>  -39.7070    1.0000 </r>
       <r>  -39.7070    1.0000 </r>
       <r>  -39.7067    1.0000 </r>
       <r>  -39.7067    1.0000 </r>
       <r>  -17.2297    1.0000 </r>
       <r>  -17.2297    1.0000 </r>
       <r>   -5.6009    1.0000 </r>
       <r>   -5.6009    1.0000 </r>
       <r>   -2.7131    1.0000 </r>
       <r>   -2.7131    1.0000 </r>
       <r>   -1.8433    1.0000 </r>
       <r>   -1.8433    1.0000 </r>
       <r>    4.9332    0.0000 </r>
       <r>    4.9332    0.0000 </r>
       <r>    6.4435    0.0000 </r>
       <r>    6.4435    0.0000 </r>
       <r>    7.2726    0.0000 </r>
       <r>    7.2727    0.0000 </r>
       <r>    7.8555    0.0000 </r>
       <r>    7.8555    0.0000 </r>
       <r>    9.8004    0.0000 </r>
       <r>    9.8004    0.0000 </r>
      </set>
      <set comment="kpoint 27">
       <r>  -44.1115    1.0000 </r>
       <r>  -44.1115    1.0000 </r>
       <r>  -44.1114    1.0000 </r>
       <r>  -44.1114    1.0000 </r>
       <r>  -39.7077    1.0000 </r>
       <r>  -39.7077    1.0000 </r>
       <r>  -39.7069    1.0000 </r>
       <r>  -39.7069    1.0000 </r>
       <r>  -39.7067    1.0000 </r>
       <r>  -39.7067    1.0000 </r>
       <r>  -17.1966    1.0000 </r>
       <r>  -17.1966    1.0000 </r>
       <r>   -5.6792    1.0000 </r>
       <r>   -5.6792    1.0000 </r>
       <r>   -2.8385    1.0000 </r>
       <r>   -2.8385    1.0000 </r>
       <r>   -2.1713    1.0000 </r>
       <r>   -2.1713    1.0000 </r>
       <r>    5.1526    0.0000 </r>
       <r>    5.1527    0.0000 </r>
       <r>    6.2904    0.0000 </r>
       <r>    6.2904    0.0000 </r>
       <r>    7.5350    0.0000 </r>
       <r>    7.5350    0.0000 </r>
       <r>    8.7747    0.0000 </r>
       <r>    8.7747    0.0000 </r>
       <r>    9.3620    0.0000 </r>
       <r>    9.3630    0.0000 </r>
      </set>
      <set comment="kpoint 28">
       <r>  -44.1115    1.0000 </r>
       <r>  -44.1115    1.0000 </r>
       <r>  -44.1114    1.0000 </r>
       <r>  -44.1114    1.0000 </r>
       <r>  -39.7075    1.0000 </r>
       <r>  -39.7075    1.0000 </r>
       <r>  -39.7069    1.0000 </r>
       <r>  -39.7069    1.0000 </r>
       <r>  -39.7063    1.0000 </r>
       <r>  -39.7063    1.0000 </r>
       <r>  -17.1968    1.0000 </r>
       <r>  -17.1968    1.0000 </r>
       <r>   -5.6790    1.0000 </r>
       <r>   -5.6790    1.0000 </r>
       <r>   -2.7980    1.0000 </r>
       <r>   -2.7980    1.0000 </r>
       <r>   -2.1467    1.0000 </r>
       <r>   -2.1467    1.0000 </r>
       <r>    4.6174    0.0000 </r>
       <r>    4.6174    0.0000 </r>
       <r>    5.6410    0.0000 </r>
       <r>    5.6410    0.0000 </r>
       <r>    7.7824    0.0000 </r>
       <r>    7.7824    0.0000 </r>
       <r>    9.4940    0.0000 </r>
       <r>    9.4940    0.0000 </r>
       <r>   10.4329    0.0000 </r>
       <r>   10.4330    0.0000 </r>
      </set>
      <set comment="kpoint 29">
       <r>  -44.1115    1.0000 </r>
       <r>  -44.1115    1.0000 </r>
       <r>  -44.1114    1.0000 </r>
       <r>  -44.1114    1.0000 </r>
       <r>  -39.7076    1.0000 </r>
       <r>  -39.7076    1.0000 </r>
       <r>  -39.7071    1.0000 </r>
       <r>  -39.7071    1.0000 </r>
       <r>  -39.7064    1.0000 </r>
       <r>  -39.7064    1.0000 </r>
       <r>  -17.2306    1.0000 </r>
       <r>  -17.2305    1.0000 </r>
       <r>   -5.5697    1.0000 </r>
       <r>   -5.5697    1.0000 </r>
       <r>   -2.6075    1.0000 </r>
       <r>   -2.6075    1.0000 </r>
       <r>   -1.9526    1.0000 </r>
       <r>   -1.9526    1.0000 </r>
       <r>    4.4897    0.0000 </r>
       <r>    4.4897    0.0000 </r>
       <r>    5.4656    0.0000 </r>
       <r>    5.4656    0.0000 </r>
       <r>    7.4779    0.0000 </r>
       <r>    7.4779    0.0000 </r>
       <r>    9.4835    0.0000 </r>
       <r>    9.4835    0.0000 </r>
       <r>    9.8655    0.0000 </r>
       <r>    9.8664    0.0000 </r>
      </set>
      <set comment="kpoint 30">
       <r>  -44.1115    1.0000 </r>
       <r>  -44.1115    1.0000 </r>
       <r>  -44.1114    1.0000 </r>
       <r>  -44.1114    1.0000 </r>
       <r>  -39.7077    1.0000 </r>
       <r>  -39.7077    1.0000 </r>
       <r>  -39.7074    1.0000 </r>
       <r>  -39.7074    1.0000 </r>
       <r>  -39.7068    1.0000 </r>
       <r>  -39.7068    1.0000 </r>
       <r>  -17.2635    1.0000 </r>
       <r>  -17.2635    1.0000 </r>
       <r>   -5.4676    1.0000 </r>
       <r>   -5.4676    1.0000 </r>
       <r>   -2.4413    1.0000 </r>
       <r>   -2.4413    1.0000 </r>
       <r>   -1.7546    1.0000 </r>
       <r>   -1.7546    1.0000 </r>
       <r>    4.4970    0.0000 </r>
       <r>    4.4970    0.0000 </r>
       <r>    6.2607    0.0000 </r>
       <r>    6.2607    0.0000 </r>
       <r>    6.9455    0.0000 </r>
       <r>    6.9455    0.0000 </r>
       <r>    8.3481    0.0000 </r>
       <r>    8.3481    0.0000 </r>
       <r>    9.3953    0.0000 </r>
       <r>    9.3954    0.0000 </r>
      </set>
      <set comment="kpoint 31">
       <r>  -44.1116    1.0000 </r>
       <r>  -44.1116    1.0000 </r>
       <r>  -44.1116    1.0000 </r>
       <r>  -44.1116    1.0000 </r>
       <r>  -39.7080    1.0000 </r>
       <r>  -39.7080    1.0000 </r>
       <r>  -39.7078    1.0000 </r>
       <r>  -39.7078    1.0000 </r>
       <r>  -39.7077    1.0000 </r>
       <r>  -39.7077    1.0000 </r>
       <r>  -17.3295    1.0000 </r>
       <r>  -17.3295    1.0000 </r>
       <r>   -5.2170    1.0000 </r>
       <r>   -5.2170    1.0000 </r>
       <r>   -1.8766    1.0000 </r>
       <r>   -1.8766    1.0000 </r>
       <r>   -1.4415    1.0000 </r>
       <r>   -1.4415    1.0000 </r>
       <r>    3.2314    0.0000 </r>
       <r>    3.2314    0.0000 </r>
       <r>    6.9534    0.0000 </r>
       <r>    6.9534    0.0000 </r>
       <r>    7.7989    0.0000 </r>
       <r>    7.7989    0.0000 </r>
       <r>    7.9490    0.0000 </r>
       <r>    7.9490    0.0000 </r>
       <r>    9.3453    0.0000 </r>
       <r>    9.3852    0.0000 </r>
      </set>
      <set comment="kpoint 32">
       <r>  -44.1116    1.0000 </r>
       <r>  -44.1116    1.0000 </r>
       <r>  -44.1115    1.0000 </r>
       <r>  -44.1115    1.0000 </r>
       <r>  -39.7075    1.0000 </r>
       <r>  -39.7075    1.0000 </r>
       <r>  -39.7074    1.0000 </r>
       <r>  -39.7074    1.0000 </r>
       <r>  -39.7069    1.0000 </r>
       <r>  -39.7069    1.0000 </r>
       <r>  -17.2852    1.0000 </r>
       <r>  -17.2852    1.0000 </r>
       <r>   -5.3884    1.0000 </r>
       <r>   -5.3884    1.0000 </r>
       <r>   -2.2968    1.0000 </r>
       <r>   -2.2968    1.0000 </r>
       <r>   -1.6352    1.0000 </r>
       <r>   -1.6352    1.0000 </r>
       <r>    4.1971    0.0000 </r>
       <r>    4.1971    0.0000 </r>
       <r>    6.5724    0.0000 </r>
       <r>    6.5724    0.0000 </r>
       <r>    7.2958    0.0000 </r>
       <r>    7.2958    0.0000 </r>
       <r>    8.2902    0.0000 </r>
       <r>    8.2902    0.0000 </r>
       <r>    8.3928    0.0000 </r>
       <r>    8.3928    0.0000 </r>
      </set>
      <set comment="kpoint 33">
       <r>  -44.1115    1.0000 </r>
       <r>  -44.1115    1.0000 </r>
       <r>  -44.1114    1.0000 </r>
       <r>  -44.1114    1.0000 </r>
       <r>  -39.7077    1.0000 </r>
       <r>  -39.7077    1.0000 </r>
       <r>  -39.7070    1.0000 </r>
       <r>  -39.7070    1.0000 </r>
       <r>  -39.7067    1.0000 </r>
       <r>  -39.7067    1.0000 </r>
       <r>  -17.2297    1.0000 </r>
       <r>  -17.2297    1.0000 </r>
       <r>   -5.6009    1.0000 </r>
       <r>   -5.6009    1.0000 </r>
       <r>   -2.7131    1.0000 </r>
       <r>   -2.7131    1.0000 </r>
       <r>   -1.8433    1.0000 </r>
       <r>   -1.8433    1.0000 </r>
       <r>    4.9332    0.0000 </r>
       <r>    4.9332    0.0000 </r>
       <r>    6.4435    0.0000 </r>
       <r>    6.4435    0.0000 </r>
       <r>    7.2726    0.0000 </r>
       <r>    7.2727    0.0000 </r>
       <r>    7.8555    0.0000 </r>
       <r>    7.8555    0.0000 </r>
       <r>    9.8004    0.0000 </r>
       <r>    9.8004    0.0000 </r>
      </set>
      <set comment="kpoint 34">
       <r>  -44.1115    1.0000 </r>
       <r>  -44.1115    1.0000 </r>
       <r>  -44.1114    1.0000 </r>
       <r>  -44.1114    1.0000 </r>
       <r>  -39.7078    1.0000 </r>
       <r>  -39.7078    1.0000 </r>
       <r>  -39.7069    1.0000 </r>
       <r>  -39.7069    1.0000 </r>
       <r>  -39.7066    1.0000 </r>
       <r>  -39.7066    1.0000 </r>
       <r>  -17.2185    1.0000 </r>
       <r>  -17.2185    1.0000 </r>
       <r>   -5.6435    1.0000 </r>
       <r>   -5.6435    1.0000 </r>
       <r>   -2.7728    1.0000 </r>
       <r>   -2.7728    1.0000 </r>
       <r>   -1.8855    1.0000 </r>
       <r>   -1.8855    1.0000 </r>
       <r>    4.8609    0.0000 </r>
       <r>    4.8609    0.0000 </r>
       <r>    6.2842    0.0000 </r>
       <r>    6.2842    0.0000 </r>
       <r>    7.5568    0.0000 </r>
       <r>    7.5568    0.0000 </r>
       <r>    7.9566    0.0000 </r>
       <r>    7.9566    0.0000 </r>
       <r>   10.2669    0.0000 </r>
       <r>   10.2680    0.0000 </r>
      </set>
      <set comment="kpoint 35">
       <r>  -44.1115    1.0000 </r>
       <r>  -44.1115    1.0000 </r>
       <r>  -44.1114    1.0000 </r>
       <r>  -44.1114    1.0000 </r>
       <r>  -39.7077    1.0000 </r>
       <r>  -39.7077    1.0000 </r>
       <r>  -39.7074    1.0000 </r>
       <r>  -39.7074    1.0000 </r>
       <r>  -39.7068    1.0000 </r>
       <r>  -39.7068    1.0000 </r>
[...]
       <r>    -3.3724     0.0000     0.0000 </r>
       <r>    -3.1680     0.0000     0.0000 </r>
       <r>    -2.9637     0.0000     0.0000 </r>
       <r>    -2.7593     0.0000     0.0000 </r>
       <r>    -2.5550     0.0000     0.0000 </r>
       <r>    -2.3506     0.0000     0.0000 </r>
       <r>    -2.1463     0.0000     0.0000 </r>
       <r>    -1.9419     0.0000     0.0000 </r>
       <r>    -1.7376     0.0000     0.0000 </r>
       <r>    -1.5333     0.0000     0.0000 </r>
       <r>    -1.3289     0.0000     0.0000 </r>
       <r>    -1.1246     0.0000     0.0000 </r>
       <r>    -0.9202     0.0000     0.0000 </r>
       <r>    -0.7159     0.0000     0.0000 </r>
       <r>    -0.5115     0.0000     0.0000 </r>
       <r>    -0.3072     0.0000     0.0000 </r>
       <r>    -0.1028     0.0000     0.0000 </r>
       <r>     0.1015     0.0000     0.0000 </r>
       <r>     0.3059     0.0000     0.0000 </r>
       <r>     0.5102     0.0000     0.0000 </r>
       <r>     0.7146     0.0000     0.0000 </r>
       <r>     0.9189     0.0000     0.0000 </r>
       <r>     1.1233     0.0000     0.0000 </r>
       <r>     1.3276     0.0000     0.0000 </r>
       <r>     1.5319     0.0000     0.0000 </r>
       <r>     1.7363     0.0000     0.0000 </r>
       <r>     1.9406     0.0000     0.0000 </r>
       <r>     2.1450     0.0000     0.0000 </r>
       <r>     2.3493     0.0000     0.0000 </r>
       <r>     2.5537     0.0000     0.0000 </r>
       <r>     2.7580     0.0000     0.0000 </r>
       <r>     2.9624     0.0000     0.0000 </r>
       <r>     3.1667     0.0000     0.0000 </r>
       <r>     3.3711     0.0000     0.0000 </r>
       <r>     3.5754     0.0000     0.0000 </r>
       <r>     3.7798     0.0000     0.0000 </r>
       <r>     3.9841     0.0000     0.0000 </r>
       <r>     4.1885     0.0000     0.0000 </r>
       <r>     4.3928     0.0000     0.0000 </r>
       <r>     4.5971     0.0000     0.0000 </r>
       <r>     4.8015     0.0000     0.0000 </r>
       <r>     5.0058     0.0000     0.0000 </r>
       <r>     5.2102     0.0000     0.0000 </r>
       <r>     5.4145     0.0000     0.0000 </r>
       <r>     5.6189     0.0000     0.0000 </r>
       <r>     5.8232     0.0000     0.0000 </r>
       <r>     6.0276     0.0000     0.0000 </r>
       <r>     6.2319     0.0000     0.0000 </r>
       <r>     6.4363     0.0000     0.0000 </r>
       <r>     6.6406     0.0000     0.0000 </r>
       <r>     6.8450     0.0000     0.0000 </r>
       <r>     7.0493     0.0000     0.0000 </r>
       <r>     7.2537     0.0000     0.0000 </r>
       <r>     7.4580     0.0000     0.0000 </r>
       <r>     7.6623     0.0000     0.0000 </r>
       <r>     7.8667     0.0000     0.0000 </r>
       <r>     8.0710     0.0000     0.0000 </r>
       <r>     8.2754     0.0000     0.0000 </r>
       <r>     8.4797     0.0000     0.0000 </r>
       <r>     8.6841     0.0000     0.0000 </r>
       <r>     8.8884     0.0000     0.0000 </r>
       <r>     9.0928     0.0000     0.0000 </r>
       <r>     9.2971     0.0000     0.0000 </r>
       <r>     9.5015     0.0000     0.0000 </r>
       <r>     9.7058     0.0000     0.0000 </r>
       <r>     9.9102     0.0000     0.0000 </r>
       <r>    10.1145     0.0000     0.0000 </r>
       <r>    10.3189     0.0000     0.0000 </r>
       <r>    10.5232     0.0000     0.0000 </r>
       <r>    10.7275     0.0000     0.0000 </r>
       <r>    10.9319     0.0000     0.0000 </r>
       <r>    11.1362     0.0000     0.0000 </r>
       <r>    11.3406     0.0000     0.0000 </r>
       <r>    11.5449     0.0000     0.0000 </r>
       <r>    11.7493     0.0000     0.0000 </r>
       <r>    11.9536     0.0000     0.0000 </r>
       <r>    12.1580     0.0000     0.0000 </r>
       <r>    12.3623     0.0000     0.0000 </r>
       <r>    12.5667     0.0000     0.0000 </r>
       <r>    12.7710     0.0000     0.0000 </r>
       <r>    12.9754     0.0000     0.0000 </r>
       <r>    13.1797     0.0000     0.0000 </r>
       <r>    13.3841     0.0000     0.0000 </r>
       <r>    13.5884     0.0000     0.0000 </r>
       <r>    13.7927     0.0000     0.0000 </r>
       <r>    13.9971     0.0000     0.0000 </r>
       <r>    14.2014     0.0000     0.0000 </r>
       <r>    14.4058     0.0000     0.0000 </r>
      </set>
      <set comment="spin 4">
       <r>   -46.8982     0.0000     0.0000 </r>
       <r>   -46.6939     0.0000     0.0000 </r>
       <r>   -46.4895     0.0000     0.0000 </r>
       <r>   -46.2852     0.0000     0.0000 </r>
       <r>   -46.0808     0.0000     0.0000 </r>
       <r>   -45.8765     0.0000     0.0000 </r>
       <r>   -45.6721     0.0000     0.0000 </r>
       <r>   -45.4678     0.0000     0.0000 </r>
       <r>   -45.2634     0.0000     0.0000 </r>
       <r>   -45.0591     0.0000     0.0000 </r>
       <r>   -44.8547     0.0000     0.0000 </r>
       <r>   -44.6504     0.0000     0.0000 </r>
       <r>   -44.4461     0.0000     0.0000 </r>
       <r>   -44.2417     0.0000     0.0000 </r>
       <r>   -44.0374     0.0000     0.0000 </r>
       <r>   -43.8330     0.0000     0.0000 </r>
       <r>   -43.6287     0.0000     0.0000 </r>
       <r>   -43.4243     0.0000     0.0000 </r>
       <r>   -43.2200     0.0000     0.0000 </r>
       <r>   -43.0156     0.0000     0.0000 </r>
       <r>   -42.8113     0.0000     0.0000 </r>
       <r>   -42.6069     0.0000     0.0000 </r>
       <r>   -42.4026     0.0000     0.0000 </r>
       <r>   -42.1982     0.0000     0.0000 </r>
       <r>   -41.9939     0.0000     0.0000 </r>
       <r>   -41.7895     0.0000     0.0000 </r>
       <r>   -41.5852     0.0000     0.0000 </r>
       <r>   -41.3809     0.0000     0.0000 </r>
       <r>   -41.1765     0.0000     0.0000 </r>
       <r>   -40.9722     0.0000     0.0000 </r>
       <r>   -40.7678     0.0000     0.0000 </r>
       <r>   -40.5635     0.0000     0.0000 </r>
       <r>   -40.3591     0.0000     0.0000 </r>
       <r>   -40.1548     0.0000     0.0000 </r>
       <r>   -39.9504     0.0000     0.0000 </r>
       <r>   -39.7461     0.0000     0.0000 </r>
       <r>   -39.5417     0.0000     0.0000 </r>
       <r>   -39.3374     0.0000     0.0000 </r>
       <r>   -39.1330     0.0000     0.0000 </r>
       <r>   -38.9287     0.0000     0.0000 </r>
       <r>   -38.7243     0.0000     0.0000 </r>
       <r>   -38.5200     0.0000     0.0000 </r>
       <r>   -38.3157     0.0000     0.0000 </r>
       <r>   -38.1113     0.0000     0.0000 </r>
       <r>   -37.9070     0.0000     0.0000 </r>
       <r>   -37.7026     0.0000     0.0000 </r>
       <r>   -37.4983     0.0000     0.0000 </r>
       <r>   -37.2939     0.0000     0.0000 </r>
       <r>   -37.0896     0.0000     0.0000 </r>
       <r>   -36.8852     0.0000     0.0000 </r>
       <r>   -36.6809     0.0000     0.0000 </r>
       <r>   -36.4765     0.0000     0.0000 </r>
       <r>   -36.2722     0.0000     0.0000 </r>
       <r>   -36.0678     0.0000     0.0000 </r>
       <r>   -35.8635     0.0000     0.0000 </r>
       <r>   -35.6591     0.0000     0.0000 </r>
       <r>   -35.4548     0.0000     0.0000 </r>
       <r>   -35.2505     0.0000     0.0000 </r>
       <r>   -35.0461     0.0000     0.0000 </r>
       <r>   -34.8418     0.0000     0.0000 </r>
       <r>   -34.6374     0.0000     0.0000 </r>
       <r>   -34.4331     0.0000     0.0000 </r>
       <r>   -34.2287     0.0000     0.0000 </r>
       <r>   -34.0244     0.0000     0.0000 </r>
       <r>   -33.8200     0.0000     0.0000 </r>
       <r>   -33.6157     0.0000     0.0000 </r>
       <r>   -33.4113     0.0000     0.0000 </r>
       <r>   -33.2070     0.0000     0.0000 </r>
       <r>   -33.0026     0.0000     0.0000 </r>
       <r>   -32.7983     0.0000     0.0000 </r>
       <r>   -32.5939     0.0000     0.0000 </r>
       <r>   -32.3896     0.0000     0.0000 </r>
       <r>   -32.1853     0.0000     0.0000 </r>
       <r>   -31.9809     0.0000     0.0000 </r>
       <r>   -31.7766     0.0000     0.0000 </r>
       <r>   -31.5722     0.0000     0.0000 </r>
       <r>   -31.3679     0.0000     0.0000 </r>
       <r>   -31.1635     0.0000     0.0000 </r>
       <r>   -30.9592     0.0000     0.0000 </r>
       <r>   -30.7548     0.0000     0.0000 </r>
       <r>   -30.5505     0.0000     0.0000 </r>
       <r>   -30.3461     0.0000     0.0000 </r>
       <r>   -30.1418     0.0000     0.0000 </r>
       <r>   -29.9374     0.0000     0.0000 </r>
       <r>   -29.7331     0.0000     0.0000 </r>
       <r>   -29.5287     0.0000     0.0000 </r>
       <r>   -29.3244     0.0000     0.0000 </r>
       <r>   -29.1201     0.0000     0.0000 </r>
       <r>   -28.9157     0.0000     0.0000 </r>
       <r>   -28.7114     0.0000     0.0000 </r>
       <r>   -28.5070     0.0000     0.0000 </r>
       <r>   -28.3027     0.0000     0.0000 </r>
       <r>   -28.0983     0.0000     0.0000 </r>
       <r>   -27.8940     0.0000     0.0000 </r>
       <r>   -27.6896     0.0000     0.0000 </r>
       <r>   -27.4853     0.0000     0.0000 </r>
       <r>   -27.2809     0.0000     0.0000 </r>
       <r>   -27.0766     0.0000     0.0000 </r>
       <r>   -26.8722     0.0000     0.0000 </r>
       <r>   -26.6679     0.0000     0.0000 </r>
       <r>   -26.4635     0.0000     0.0000 </r>
       <r>   -26.2592     0.0000     0.0000 </r>
       <r>   -26.0549     0.0000     0.0000 </r>
       <r>   -25.8505     0.0000     0.0000 </r>
       <r>   -25.6462     0.0000     0.0000 </r>
       <r>   -25.4418     0.0000     0.0000 </r>
       <r>   -25.2375     0.0000     0.0000 </r>
       <r>   -25.0331     0.0000     0.0000 </r>
       <r>   -24.8288     0.0000     0.0000 </r>
       <r>   -24.6244     0.0000     0.0000 </r>
       <r>   -24.4201     0.0000     0.0000 </r>
       <r>   -24.2157     0.0000     0.0000 </r>
       <r>   -24.0114     0.0000     0.0000 </r>
       <r>   -23.8070     0.0000     0.0000 </r>
       <r>   -23.6027     0.0000     0.0000 </r>
       <r>   -23.3983     0.0000     0.0000 </r>
       <r>   -23.1940     0.0000     0.0000 </r>
       <r>   -22.9897     0.0000     0.0000 </r>
       <r>   -22.7853     0.0000     0.0000 </r>
       <r>   -22.5810     0.0000     0.0000 </r>
       <r>   -22.3766     0.0000     0.0000 </r>
       <r>   -22.1723     0.0000     0.0000 </r>
       <r>   -21.9679     0.0000     0.0000 </r>
       <r>   -21.7636     0.0000     0.0000 </r>
       <r>   -21.5592     0.0000     0.0000 </r>
       <r>   -21.3549     0.0000     0.0000 </r>
       <r>   -21.1505     0.0000     0.0000 </r>
       <r>   -20.9462     0.0000     0.0000 </r>
       <r>   -20.7418     0.0000     0.0000 </r>
       <r>   -20.5375     0.0000     0.0000 </r>
       <r>   -20.3331     0.0000     0.0000 </r>
       <r>   -20.1288     0.0000     0.0000 </r>
       <r>   -19.9245     0.0000     0.0000 </r>
       <r>   -19.7201     0.0000     0.0000 </r>
       <r>   -19.5158     0.0000     0.0000 </r>
       <r>   -19.3114     0.0000     0.0000 </r>
       <r>   -19.1071     0.0000     0.0000 </r>
       <r>   -18.9027     0.0000     0.0000 </r>
       <r>   -18.6984     0.0000     0.0000 </r>
       <r>   -18.4940     0.0000     0.0000 </r>
       <r>   -18.2897     0.0000     0.0000 </r>
       <r>   -18.0853     0.0000     0.0000 </r>
       <r>   -17.8810     0.0000     0.0000 </r>
       <r>   -17.6766     0.0000     0.0000 </r>
       <r>   -17.4723     0.0000     0.0000 </r>
       <r>   -17.2679     0.0000     0.0000 </r>
       <r>   -17.0636     0.0000     0.0000 </r>
       <r>   -16.8593     0.0000     0.0000 </r>
       <r>   -16.6549     0.0000     0.0000 </r>
       <r>   -16.4506     0.0000     0.0000 </r>
       <r>   -16.2462     0.0000     0.0000 </r>
       <r>   -16.0419     0.0000     0.0000 </r>
       <r>   -15.8375     0.0000     0.0000 </r>
       <r>   -15.6332     0.0000     0.0000 </r>
       <r>   -15.4288     0.0000     0.0000 </r>
       <r>   -15.2245     0.0000     0.0000 </r>
       <r>   -15.0201     0.0000     0.0000 </r>
       <r>   -14.8158     0.0000     0.0000 </r>
       <r>   -14.6114     0.0000     0.0000 </r>
       <r>   -14.4071     0.0000     0.0000 </r>
       <r>   -14.2027     0.0000     0.0000 </r>
       <r>   -13.9984     0.0000     0.0000 </r>
       <r>   -13.7941     0.0000     0.0000 </r>
       <r>   -13.5897     0.0000     0.0000 </r>
       <r>   -13.3854     0.0000     0.0000 </r>
       <r>   -13.1810     0.0000     0.0000 </r>
       <r>   -12.9767     0.0000     0.0000 </r>
       <r>   -12.7723     0.0000     0.0000 </r>
       <r>   -12.5680     0.0000     0.0000 </r>
       <r>   -12.3636     0.0000     0.0000 </r>
       <r>   -12.1593     0.0000     0.0000 </r>
       <r>   -11.9549     0.0000     0.0000 </r>
       <r>   -11.7506     0.0000     0.0000 </r>
       <r>   -11.5462     0.0000     0.0000 </r>
       <r>   -11.3419     0.0000     0.0000 </r>
       <r>   -11.1375     0.0000     0.0000 </r>
       <r>   -10.9332     0.0000     0.0000 </r>
       <r>   -10.7289     0.0000     0.0000 </r>
       <r>   -10.5245     0.0000     0.0000 </r>
       <r>   -10.3202     0.0000     0.0000 </r>
       <r>   -10.1158     0.0000     0.0000 </r>
       <r>    -9.9115     0.0000     0.0000 </r>
       <r>    -9.7071     0.0000     0.0000 </r>
       <r>    -9.5028     0.0000     0.0000 </r>
       <r>    -9.2984     0.0000     0.0000 </r>
       <r>    -9.0941     0.0000     0.0000 </r>
       <r>    -8.8897     0.0000     0.0000 </r>
       <r>    -8.6854     0.0000     0.0000 </r>
       <r>    -8.4810     0.0000     0.0000 </r>
       <r>    -8.2767     0.0000     0.0000 </r>
       <r>    -8.0723     0.0000     0.0000 </r>
       <r>    -7.8680     0.0000     0.0000 </r>
       <r>    -7.6637     0.0000     0.0000 </r>
       <r>    -7.4593     0.0000     0.0000 </r>
       <r>    -7.2550     0.0000     0.0000 </r>
       <r>    -7.0506     0.0000     0.0000 </r>
       <r>    -6.8463     0.0000     0.0000 </r>
       <r>    -6.6419     0.0000     0.0000 </r>
       <r>    -6.4376     0.0000     0.0000 </r>
       <r>    -6.2332     0.0000     0.0000 </r>
       <r>    -6.0289     0.0000     0.0000 </r>
       <r>    -5.8245     0.0000     0.0000 </r>
       <r>    -5.6202     0.0000     0.0000 </r>
       <r>    -5.4158     0.0000     0.0000 </r>
       <r>    -5.2115     0.0000     0.0000 </r>
       <r>    -5.0071     0.0000     0.0000 </r>
       <r>    -4.8028     0.0000     0.0000 </r>
       <r>    -4.5985     0.0000     0.0000 </r>
       <r>    -4.3941     0.0000     0.0000 </r>
       <r>    -4.1898     0.0000     0.0000 </r>
       <r>    -3.9854     0.0000     0.0000 </r>
       <r>    -3.7811     0.0000     0.0000 </r>
       <r>    -3.5767     0.0000     0.0000 </r>
       <r>    -3.3724     0.0000     0.0000 </r>
       <r>    -3.1680     0.0000     0.0000 </r>
       <r>    -2.9637     0.0000     0.0000 </r>
       <r>    -2.7593     0.0000     0.0000 </r>
       <r>    -2.5550     0.0000     0.0000 </r>
       <r>    -2.3506     0.0000     0.0000 </r>
       <r>    -2.1463     0.0000     0.0000 </r>
       <r>    -1.9419     0.0000     0.0000 </r>
       <r>    -1.7376     0.0000     0.0000 </r>
       <r>    -1.5333     0.0000     0.0000 </r>
       <r>    -1.3289     0.0000     0.0000 </r>
       <r>    -1.1246     0.0000     0.0000 </r>
       <r>    -0.9202     0.0000     0.0000 </r>
       <r>    -0.7159     0.0000     0.0000 </r>
       <r>    -0.5115     0.0000     0.0000 </r>
       <r>    -0.3072     0.0000     0.0000 </r>
       <r>    -0.1028     0.0000     0.0000 </r>
       <r>     0.1015     0.0000     0.0000 </r>
       <r>     0.3059     0.0000     0.0000 </r>
       <r>     0.5102     0.0000     0.0000 </r>
       <r>     0.7146     0.0000     0.0000 </r>
       <r>     0.9189     0.0000     0.0000 </r>
       <r>     1.1233     0.0000     0.0000 </r>
       <r>     1.3276     0.0000     0.0000 </r>
       <r>     1.5319     0.0000     0.0000 </r>
       <r>     1.7363     0.0000     0.0000 </r>
       <r>     1.9406     0.0000     0.0000 </r>
       <r>     2.1450     0.0000     0.0000 </r>
       <r>     2.3493     0.0000     0.0000 </r>
       <r>     2.5537     0.0000     0.0000 </r>
       <r>     2.7580     0.0000     0.0000 </r>
       <r>     2.9624     0.0000     0.0000 </r>
       <r>     3.1667     0.0000     0.0000 </r>
       <r>     3.3711     0.0000     0.0000 </r>
       <r>     3.5754     0.0000     0.0000 </r>
       <r>     3.7798     0.0000     0.0000 </r>
       <r>     3.9841     0.0000     0.0000 </r>
       <r>     4.1885     0.0000     0.0000 </r>
       <r>     4.3928     0.0000     0.0000 </r>
       <r>     4.5971     0.0000     0.0000 </r>
       <r>     4.8015     0.0000     0.0000 </r>
       <r>     5.0058     0.0000     0.0000 </r>
       <r>     5.2102     0.0000     0.0000 </r>
       <r>     5.4145     0.0000     0.0000 </r>
       <r>     5.6189     0.0000     0.0000 </r>
       <r>     5.8232     0.0000     0.0000 </r>
       <r>     6.0276     0.0000     0.0000 </r>
       <r>     6.2319     0.0000     0.0000 </r>
       <r>     6.4363     0.0000     0.0000 </r>
       <r>     6.6406     0.0000     0.0000 </r>
       <r>     6.8450     0.0000     0.0000 </r>
       <r>     7.0493     0.0000     0.0000 </r>
       <r>     7.2537     0.0000     0.0000 </r>
       <r>     7.4580     0.0000     0.0000 </r>
       <r>     7.6623     0.0000     0.0000 </r>
       <r>     7.8667     0.0000     0.0000 </r>
       <r>     8.0710     0.0000     0.0000 </r>
       <r>     8.2754     0.0000     0.0000 </r>
       <r>     8.4797     0.0000     0.0000 </r>
       <r>     8.6841     0.0000     0.0000 </r>
       <r>     8.8884     0.0000     0.0000 </r>
       <r>     9.0928     0.0000     0.0000 </r>
       <r>     9.2971     0.0000     0.0000 </r>
       <r>     9.5015     0.0000     0.0000 </r>
       <r>     9.7058     0.0000     0.0000 </r>
       <r>     9.9102     0.0000     0.0000 </r>
       <r>    10.1145     0.0000     0.0000 </r>
       <r>    10.3189     0.0000     0.0000 </r>
       <r>    10.5232     0.0000     0.0000 </r>
       <r>    10.7275     0.0000     0.0000 </r>
       <r>    10.9319     0.0000     0.0000 </r>
       <r>    11.1362     0.0000     0.0000 </r>
       <r>    11.3406     0.0000     0.0000 </r>
       <r>    11.5449     0.0000     0.0000 </r>
       <r>    11.7493     0.0000     0.0000 </r>
       <r>    11.9536     0.0000     0.0000 </r>
       <r>    12.1580     0.0000     0.0000 </r>
       <r>    12.3623     0.0000     0.0000 </r>
       <r>    12.5667     0.0000     0.0000 </r>
       <r>    12.7710     0.0000     0.0000 </r>
       <r>    12.9754     0.0000     0.0000 </r>
       <r>    13.1797     0.0000     0.0000 </r>
       <r>    13.3841     0.0000     0.0000 </r>
       <r>    13.5884     0.0000     0.0000 </r>
       <r>    13.7927     0.0000     0.0000 </r>
       <r>    13.9971     0.0000     0.0000 </r>
       <r>    14.2014     0.0000     0.0000 </r>
       <r>    14.4058     0.0000     0.0000 </r>
      </set>
     </set>
    </array>
   </total>
  </dos>
 </calculation>
 <structure name="finalpos" >
  <crystal>
   <varray name="basis" >
    <v>       4.52056477       0.00000000       0.00000000 </v>
    <v>       2.26028238       3.91492393      -0.00000000 </v>
    <v>       2.26028238       1.30497464       3.69102568 </v>
   </varray>
   <i name="volume">     65.32254404 </i>
   <varray name="rec_basis" >
    <v>       0.22121130      -0.12771640      -0.09030913 </v>
    <v>       0.00000000       0.25543280      -0.09030913 </v>
    <v>      -0.00000000       0.00000000       0.27092740 </v>
   </varray>
  </crystal>
  <varray name="positions" >
   <v>       0.00000000       0.00000000       0.00000000 </v>
  </varray>
  <varray name="velocities" >
   <v>       0.00000000       0.00000000       0.00000000 </v>
  </varray>
 </structure>
</modeling>
