    1    1  999    1
  0.6544352E+02  0.4523354E-09  0.4523354E-09  0.4523354E-09  0.1000000E-15
  1.000000000000000E-004
  CAR 
 Cn_FCC                                  
     18     35     16
 
  0.0000000E+00  0.0000000E+00  0.0000000E+00  0.1371742E-02
    1      -42.549153   1.000000
    2      -42.549153   1.000000
    3      -42.549153   1.000000
    4      -42.548658   1.000000
    5      -42.548658   1.000000
    6      -18.231717   1.000000
    7       -2.866546   0.737204
    8       -2.866543   0.737183
    9       -2.866542   0.737177
   10        2.659666   0.000000
   11        7.978873   0.000000
   12        7.978882   0.000000
   13        7.978883   0.000000
   14        9.710419   0.000000
   15       10.411051   0.000000
   16       10.411051   0.000000
 
  0.1111111E+00  0.1488060E-16  0.1387779E-16  0.1097394E-01
    1      -42.549143   1.000000
    2      -42.549128   1.000000
    3      -42.549128   1.000000
    4      -42.548665   1.000000
    5      -42.548665   1.000000
    6      -18.215587   1.000000
    7       -3.138342   1.000087
    8       -2.892780   0.899410
    9       -2.892777   0.899394
   10        3.049708   0.000000
   11        7.485482   0.000000
   12        8.102367   0.000000
   13        8.102377   0.000000
   14        9.898538   0.000000
   15        9.898538   0.000000
   16       10.445623   0.000000
 
  0.2222222E+00  0.2005632E-17 -0.1387779E-16  0.1097394E-01
    1      -42.549082   1.000000
    2      -42.549049   1.000000
    3      -42.549049   1.000000
    4      -42.548606   1.000000
    5      -42.548606   1.000000
    6      -18.174075   1.000000
    7       -3.716399   1.000000
    8       -2.957673   1.035397
    9       -2.957670   1.035397
   10        3.859643   0.000000
   11        7.064621   0.000000
   12        8.156022   0.000000
   13        8.156034   0.000000
   14        9.719910   0.000000
   15        9.719913   0.000000
   16       10.132851   0.000000
 
  0.3333333E+00  0.3076402E-16  0.4163336E-16  0.1097394E-01
    1      -42.549024   1.000000
    2      -42.549024   1.000000
    3      -42.548997   1.000000
    4      -42.548493   1.000000
    5      -42.548493   1.000000
    6      -18.125983   1.000000
    7       -4.256702   1.000000
    8       -3.028938   1.010331
    9       -3.028935   1.010332
   10        4.386418   0.000000
   11        7.359372   0.000000
   12        7.850874   0.000000
   13        7.850885   0.000000
   14        9.687783   0.000000
   15       10.528053   0.000000
   16       10.528054   0.000000
 
  0.4444444E+00  0.4011265E-17 -0.2775558E-16  0.1097394E-01
    1      -42.549013   1.000000
    2      -42.549012   1.000000
    3      -42.548973   1.000000
    4      -42.548363   1.000000
    5      -42.548362   1.000000
    6      -18.094011   1.000000
    7       -4.566596   1.000000
    8       -3.074110   1.002033
    9       -3.074107   1.002033
   10        4.486971   0.000000
   11        7.617496   0.000000
   12        7.617506   0.000000
   13        7.863673   0.000000
   14        9.896995   0.000000
   15       11.871767   0.000000
   16       11.871768   0.000000
 
  0.1111111E+00  0.1111111E+00  0.2775558E-16  0.8230453E-02
    1      -42.549198   1.000000
    2      -42.549078   1.000000
    3      -42.549078   1.000000
    4      -42.548696   1.000000
    5      -42.548648   1.000000
    6      -18.210209   1.000000
    7       -3.137705   1.000091
    8       -2.946311   1.032205
    9       -2.946310   1.032204
   10        3.183204   0.000000
   11        7.246526   0.000000
   12        8.235531   0.000000
   13        8.235536   0.000000
   14        9.036978   0.000000
   15       10.555733   0.000000
   16       10.760596   0.000000
 
  0.2222222E+00  0.1111111E+00  0.1387779E-16  0.3292181E-01
    1      -42.549181   1.000000
    2      -42.548987   1.000000
    3      -42.548986   1.000000
    4      -42.548704   1.000000
    5      -42.548570   1.000000
    6      -18.177159   1.000000
    7       -3.570226   1.000000
    8       -3.030642   1.009811
    9       -3.002405   1.020660
   10        3.876801   0.000000
   11        6.810074   0.000000
   12        7.956875   0.000000
   13        8.447986   0.000000
   14        8.941364   0.000000
   15       10.476357   0.000000
   16       11.199367   0.000000
 
  0.3333333E+00  0.1111111E+00  0.5551115E-16  0.3292181E-01
    1      -42.549104   1.000000
    2      -42.548933   1.000000
    3      -42.548924   1.000000
    4      -42.548610   1.000000
    5      -42.548451   1.000000
    6      -18.131144   1.000000
    7       -4.088155   1.000000
    8       -3.105014   1.000503
    9       -3.092624   1.000904
   10        4.563416   0.000000
   11        6.846463   0.000000
   12        7.377953   0.000000
   13        8.283686   0.000000
   14        9.815421   0.000000
   15       10.673092   0.000000
   16       11.026735   0.000000
 
  0.4444444E+00  0.1111111E+00 -0.2775558E-16  0.3292181E-01
    1      -42.549058   1.000000
    2      -42.548939   1.000000
    3      -42.548916   1.000000
    4      -42.548487   1.000000
    5      -42.548372   1.000000
    6      -18.093714   1.000000
    7       -4.448029   1.000000
    8       -3.193793   1.000003
    9       -3.136687   1.000096
   10        4.797097   0.000000
   11        6.829346   0.000000
   12        7.829760   0.000000
   13        7.970837   0.000000
   14       10.234714   0.000000
   15       11.213650   0.000000
   16       12.238482   0.000000
 
 -0.4444444E+00  0.1111111E+00 -0.1387779E-16  0.3292181E-01
    1      -42.549017   1.000000
    2      -42.548949   1.000000
    3      -42.548912   1.000000
    4      -42.548397   1.000000
    5      -42.548370   1.000000
    6      -18.082946   1.000000
    7       -4.541947   1.000000
    8       -3.258092   1.000000
    9       -3.112737   1.000343
   10        4.835613   0.000000
   11        6.783531   0.000000
   12        7.815628   0.000000
   13        8.246136   0.000000
   14       10.467767   0.000000
   15       11.660595   0.000000
   16       11.741013   0.000000
 
 -0.3333333E+00  0.1111111E+00 -0.5551115E-16  0.3292181E-01
    1      -42.548999   1.000000
    2      -42.548961   1.000000
    3      -42.548956   1.000000
    4      -42.548514   1.000000
    5      -42.548407   1.000000
    6      -18.104325   1.000000
    7       -4.348026   1.000000
    8       -3.254687   1.000000
    9       -3.043211   1.006542
   10        4.799634   0.000000
   11        7.003869   0.000000
   12        7.591453   0.000000
   13        7.907444   0.000000
   14       10.216674   0.000000
   15       10.537601   0.000000
   16       12.087681   0.000000
 
 -0.2222222E+00  0.1111111E+00  0.2081668E-16  0.3292181E-01
    1      -42.549061   1.000000
    2      -42.548989   1.000000
    3      -42.548989   1.000000
    4      -42.548656   1.000000
    5      -42.548507   1.000000
    6      -18.147196   1.000000
    7       -3.925374   1.000000
    8       -3.176431   1.000009
    9       -2.958204   1.035426
   10        4.400418   0.000000
   11        6.901390   0.000000
   12        7.591292   0.000000
   13        8.243015   0.000000
   14        9.159492   0.000000
   15       10.674796   0.000000
   16       11.118847   0.000000
 
 -0.1111111E+00  0.1111111E+00 -0.1268831E-16  0.1646091E-01
    1      -42.549135   1.000000
    2      -42.549075   1.000000
    3      -42.549051   1.000000
    4      -42.548677   1.000000
    5      -42.548618   1.000000
    6      -18.190985   1.000000
    7       -3.437878   1.000000
    8       -3.034501   1.008703
    9       -2.897726   0.922555
   10        3.597872   0.000000
   11        7.075477   0.000000
   12        8.089534   0.000000
   13        8.298849   0.000000
   14        9.074403   0.000000
   15       10.025506   0.000000
   16       11.257155   0.000000
 
  0.2222222E+00  0.2222222E+00  0.0000000E+00  0.8230453E-02
    1      -42.549263   1.000000
    2      -42.548860   1.000000
    3      -42.548860   1.000000
    4      -42.548765   1.000000
    5      -42.548539   1.000000
    6      -18.155043   1.000000
    7       -3.684698   1.000000
    8       -3.138724   1.000086
    9       -3.138722   1.000086
   10        4.274207   0.000000
   11        6.316769   0.000000
   12        7.628105   0.000000
   13        8.954941   0.000000
   14        8.954945   0.000000
   15       10.983247   0.000000
   16       12.624092   0.000000
 
  0.3333333E+00  0.2222222E+00  0.5551115E-16  0.3292181E-01
    1      -42.549244   1.000000
    2      -42.548811   1.000000
    3      -42.548757   1.000000
    4      -42.548671   1.000000
    5      -42.548444   1.000000
    6      -18.117535   1.000000
    7       -4.016983   1.000000
    8       -3.261275   1.000000
    9       -3.230098   1.000000
   10        4.763312   0.000000
   11        6.112431   0.000000
   12        7.245093   0.000000
   13        9.126223   0.000000
   14        9.747557   0.000000
   15       11.464080   0.000000
   16       12.441540   0.000000
 
  0.4444444E+00  0.2222222E+00  0.0000000E+00  0.3292181E-01
    1      -42.549163   1.000000
    2      -42.548805   1.000000
    3      -42.548741   1.000000
    4      -42.548578   1.000000
    5      -42.548353   1.000000
    6      -18.082039   1.000000
    7       -4.290508   1.000000
    8       -3.443195   1.000000
    9       -3.265437   1.000000
   10        5.079390   0.000000
   11        6.307161   0.000000
   12        7.206301   0.000000
   13        8.828596   0.000000
   14       10.674213   0.000000
   15       12.271066   0.000000
   16       12.593367   0.000000
 
 -0.4444444E+00  0.2222222E+00  0.1387779E-16  0.3292181E-01
    1      -42.549075   1.000000
    2      -42.548791   1.000000
    3      -42.548754   1.000000
    4      -42.548533   1.000000
    5      -42.548379   1.000000
    6      -18.065548   1.000000
    7       -4.383249   1.000000
    8       -3.615295   1.000000
    9       -3.230661   1.000000
   10        5.318705   0.000000
   11        6.296425   0.000000
   12        7.822126   0.000000
   13        8.523645   0.000000
   14       10.469808   0.000000
   15       11.677064   0.000000
   16       12.175538   0.000000
 
 -0.3333333E+00  0.2222222E+00 -0.7632783E-16  0.3292181E-01
    1      -42.549013   1.000000
    2      -42.548837   1.000000
    3      -42.548767   1.000000
    4      -42.548523   1.000000
    5      -42.548460   1.000000
    6      -18.076100   1.000000
    7       -4.292531   1.000000
    8       -3.666263   1.000000
    9       -3.139797   1.000081
   10        5.594669   0.000000
   11        6.297313   0.000000
   12        7.474633   0.000000
   13        8.389613   0.000000
   14       10.229102   0.000000
   15       11.061454   0.000000
   16       12.227667   0.000000
 
 -0.2222222E+00  0.2222222E+00 -0.2270853E-18  0.1646091E-01
    1      -42.548981   1.000000
    2      -42.548957   1.000000
    3      -42.548855   1.000000
    4      -42.548654   1.000000
    5      -42.548433   1.000000
    6      -18.108535   1.000000
    7       -4.117096   1.000000
    8       -3.498273   1.000000
    9       -3.031829   1.009460
   10        5.272506   0.000000
   11        6.746951   0.000000
   12        6.849161   0.000000
   13        8.408721   0.000000
   14        9.246719   0.000000
   15       12.153971   0.000000
   16       12.731451   0.000000
 
  0.3333333E+00  0.3333333E+00  0.5551115E-16  0.8230453E-02
    1      -42.549322   1.000000
    2      -42.548815   1.000000
    3      -42.548565   1.000000
    4      -42.548565   1.000000
    5      -42.548418   1.000000
    6      -18.091191   1.000000
    7       -4.165728   1.000000
    8       -3.343000   1.000000
    9       -3.342997   1.000000
   10        4.609795   0.000000
   11        5.658585   0.000000
   12        7.887378   0.000000
   13       10.026914   0.000000
   14       10.026917   0.000000
   15       11.662918   0.000000
   16       14.357065   0.000000
 
  0.4444444E+00  0.3333333E+00  0.0000000E+00  0.3292181E-01
    1      -42.549305   1.000000
    2      -42.548814   1.000000
    3      -42.548512   1.000000
    4      -42.548486   1.000000
    5      -42.548340   1.000000
    6      -18.064328   1.000000
    7       -4.314340   1.000000
    8       -3.501324   1.000000
    9       -3.395236   1.000000
   10        4.618076   0.000000
   11        5.651592   0.000000
   12        8.200945   0.000000
   13       10.066635   0.000000
   14       10.846572   0.000000
   15       12.627030   0.000000
   16       13.549353   0.000000
 
 -0.4444444E+00  0.3333333E+00  0.1387779E-16  0.3292181E-01
    1      -42.549186   1.000000
    2      -42.548758   1.000000
    3      -42.548531   1.000000
    4      -42.548523   1.000000
    5      -42.548369   1.000000
    6      -18.049781   1.000000
    7       -4.291087   1.000000
    8       -3.786346   1.000000
    9       -3.366358   1.000000
   10        4.863268   0.000000
   11        6.122304   0.000000
   12        8.178747   0.000000
   13        9.604783   0.000000
   14       10.306507   0.000000
   15       11.977668   0.000000
   16       13.936345   0.000000
 
 -0.3333333E+00  0.3333333E+00 -0.1069218E-15  0.1646091E-01
    1      -42.549078   1.000000
    2      -42.548662   1.000000
    3      -42.548614   1.000000
    4      -42.548569   1.000000
    5      -42.548494   1.000000
    6      -18.054469   1.000000
    7       -4.092062   1.000000
    8       -4.053142   1.000000
    9       -3.267538   1.000000
   10        5.296245   0.000000
   11        6.568380   0.000000
   12        7.768556   0.000000
   13        9.042425   0.000000
   14        9.818382   0.000000
   15       10.770345   0.000000
   16       14.044867   0.000000
 
  0.4444444E+00  0.4444444E+00  0.0000000E+00  0.8230453E-02
    1      -42.549375   1.000000
    2      -42.548862   1.000000
    3      -42.548392   1.000000
    4      -42.548392   1.000000
    5      -42.548341   1.000000
    6      -18.048946   1.000000
    7       -4.429766   1.000000
    8       -3.469107   1.000000
    9       -3.469105   1.000000
   10        4.278152   0.000000
   11        5.323984   0.000000
   12        9.307128   0.000000
   13       11.243321   0.000000
   14       11.243324   0.000000
   15       12.438871   0.000000
   16       13.688586   0.000000
 
 -0.4444444E+00  0.4444444E+00 -0.4541706E-18  0.1646091E-01
    1      -42.549323   1.000000
    2      -42.548852   1.000000
    3      -42.548415   1.000000
    4      -42.548406   1.000000
    5      -42.548347   1.000000
    6      -18.043199   1.000000
    7       -4.414524   1.000000
    8       -3.597346   1.000000
    9       -3.458088   1.000000
   10        4.404454   0.000000
   11        5.495179   0.000000
   12        9.263298   0.000000
   13       10.766943   0.000000
   14       10.883533   0.000000
   15       12.676338   0.000000
   16       13.534685   0.000000
 
  0.3333333E+00  0.2222222E+00  0.1111111E+00  0.3292181E-01
    1      -42.549169   1.000000
    2      -42.548926   1.000000
    3      -42.548859   1.000000
    4      -42.548697   1.000000
    5      -42.548486   1.000000
    6      -18.141843   1.000000
    7       -3.870502   1.000000
    8       -3.245784   1.000000
    9       -3.042229   1.006763
   10        4.566049   0.000000
   11        6.522913   0.000000
   12        7.293492   0.000000
   13        8.889261   0.000000
   14        8.957828   0.000000
   15       11.069971   0.000000
   16       12.327042   0.000000
 
  0.4444444E+00  0.2222222E+00  0.1111111E+00  0.6584362E-01
    1      -42.549080   1.000000
    2      -42.548921   1.000000
    3      -42.548783   1.000000
    4      -42.548619   1.000000
    5      -42.548411   1.000000
    6      -18.101057   1.000000
    7       -4.197315   1.000000
    8       -3.421017   1.000000
    9       -3.124352   1.000188
   10        5.191140   0.000000
   11        6.555588   0.000000
   12        6.898006   0.000000
   13        8.583517   0.000000
   14        9.866391   0.000000
   15       11.825165   0.000000
   16       12.356117   0.000000
 
 -0.4444444E+00  0.2222222E+00  0.1111111E+00  0.6584362E-01
    1      -42.548997   1.000000
    2      -42.548943   1.000000
    3      -42.548760   1.000000
    4      -42.548510   1.000000
    5      -42.548386   1.000000
    6      -18.074070   1.000000
    7       -4.404184   1.000000
    8       -3.501500   1.000000
    9       -3.197109   1.000002
   10        5.388024   0.000000
   11        6.229795   0.000000
   12        7.729739   0.000000
   13        8.350546   0.000000
   14       10.643433   0.000000
   15       11.451682   0.000000
   16       12.084440   0.000000
 
  0.4444444E+00  0.3333333E+00  0.1111111E+00  0.3292181E-01
    1      -42.549228   1.000000
    2      -42.548820   1.000000
    3      -42.548657   1.000000
    4      -42.548580   1.000000
    5      -42.548379   1.000000
    6      -18.085315   1.000000
    7       -4.195066   1.000000
    8       -3.468139   1.000000
    9       -3.296804   1.000000
   10        4.998839   0.000000
   11        6.005927   0.000000
   12        7.214783   0.000000
   13        9.612754   0.000000
   14       10.077420   0.000000
   15       12.498228   0.000000
   16       13.247428   0.000000
 
 -0.4444444E+00  0.3333333E+00  0.1111111E+00  0.6584362E-01
    1      -42.549127   1.000000
    2      -42.548815   1.000000
    3      -42.548657   1.000000
    4      -42.548519   1.000000
    5      -42.548376   1.000000
    6      -18.060314   1.000000
    7       -4.271784   1.000000
    8       -3.686320   1.000000
    9       -3.362757   1.000000
   10        5.249215   0.000000
   11        6.291201   0.000000
   12        7.226129   0.000000
   13        9.249937   0.000000
   14       10.664769   0.000000
   15       12.133327   0.000000
   16       13.201724   0.000000
 
 -0.3333333E+00  0.3333333E+00  0.1111111E+00  0.6584362E-01
    1      -42.549027   1.000000
    2      -42.548830   1.000000
    3      -42.548606   1.000000
    4      -42.548561   1.000000
    5      -42.548428   1.000000
    6      -18.054503   1.000000
    7       -4.222770   1.000000
    8       -3.861477   1.000000
    9       -3.334013   1.000000
   10        5.557164   0.000000
   11        6.342072   0.000000
   12        7.537204   0.000000
   13        8.673119   0.000000
   14       10.334951   0.000000
   15       11.515939   0.000000
   16       13.304326   0.000000
 
 -0.2222222E+00  0.3333333E+00  0.1111111E+00  0.3292181E-01
    1      -42.548967   1.000000
    2      -42.548950   1.000000
    3      -42.548631   1.000000
    4      -42.548599   1.000000
    5      -42.548444   1.000000
    6      -18.070715   1.000000
    7       -4.205845   1.000000
    8       -3.758757   1.000000
    9       -3.229298   1.000000
   10        5.949611   0.000000
   11        6.118589   0.000000
   12        6.876633   0.000000
   13        8.883877   0.000000
   14       10.240065   0.000000
   15       11.224257   0.000000
   16       13.400572   0.000000
 
 -0.4444444E+00  0.4444444E+00  0.1111111E+00  0.3292181E-01
    1      -42.549268   1.000000
    2      -42.548823   1.000000
    3      -42.548527   1.000000
    4      -42.548396   1.000000
    5      -42.548365   1.000000
    6      -18.048059   1.000000
    7       -4.348869   1.000000
    8       -3.604526   1.000000
    9       -3.488115   1.000000
   10        4.667111   0.000000
   11        5.723086   0.000000
   12        8.466089   0.000000
   13        9.919164   0.000000
   14       11.363320   0.000000
   15       12.515612   0.000000
   16       13.432632   0.000000
 
 -0.3333333E+00  0.4444444E+00  0.1111111E+00  0.3292181E-01
    1      -42.549139   1.000000
    2      -42.548751   1.000000
    3      -42.548627   1.000000
    4      -42.548425   1.000000
    5      -42.548402   1.000000
    6      -18.044164   1.000000
    7       -4.228982   1.000000
    8       -3.851627   1.000000
    9       -3.462641   1.000000
   10        5.033887   0.000000
   11        6.244825   0.000000
   12        8.171587   0.000000
   13        8.744009   0.000000
   14       11.161404   0.000000
   15       12.027841   0.000000
   16       13.919956   0.000000
 
 -0.3333333E+00  0.4444444E+00  0.2222222E+00  0.3292181E-01
    1      -42.548965   1.000000
    2      -42.548846   1.000000
    3      -42.548699   1.000000
    4      -42.548463   1.000000
    5      -42.548407   1.000000
    6      -18.046042   1.000000
    7       -4.132575   1.000000
    8       -3.916324   1.000000
    9       -3.499377   1.000000
   10        5.463967   0.000000
   11        6.786275   0.000000
   12        7.075928   0.000000
   13        8.402420   0.000000
   14       11.660285   0.000000
   15       11.756615   0.000000
   16       13.824789   0.000000
