Cn_FCC                                  
           1
     4.523354    0.000000    0.000000
     2.261677    3.917339   -0.000000
     2.261677    1.305780    3.693303
   Rn
   1
Direct configuration=     1
   0.00000000  0.00000000  0.00000000
Cn_FCC                                  
           1
     4.523686    0.000000    0.000000
     2.261843    3.917627   -0.000000
     2.261843    1.305876    3.693574
   Rn
   1
Direct configuration=     2
   0.00000000  0.00000000  0.00000000
