Cn_FCC                                  
           1
     4.522767    0.000000    0.000000
     2.261383    3.916831   -0.000000
     2.261383    1.305610    3.692823
   Rn
   1
Direct configuration=     1
   0.00000000  0.00000000  0.00000000
