   1   1   0   0
  0.6008441E+02  0.4396350E-09  0.4396350E-09  0.4396350E-09  0.1000000E-15
  1.000000000000000E-004
  CAR 
 Og_FCC                                  
     17.88959887    -36.67819162  301      3.17903202      1.00000000
    -36.678  0.0000E+00  0.0000E+00
    -36.496  0.0000E+00  0.0000E+00
    -36.314  0.0000E+00  0.0000E+00
    -36.133  0.0000E+00  0.0000E+00
    -35.951  0.0000E+00  0.0000E+00
    -35.769  0.0000E+00  0.0000E+00
    -35.587  0.0000E+00  0.0000E+00
    -35.405  0.0000E+00  0.0000E+00
    -35.223  0.0000E+00  0.0000E+00
    -35.041  0.0000E+00  0.0000E+00
    -34.859  0.0000E+00  0.0000E+00
    -34.677  0.0000E+00  0.0000E+00
    -34.495  0.0000E+00  0.0000E+00
    -34.314  0.2610E-02  0.4747E-03
    -34.132  0.2012E+02  0.3659E+01
    -33.950  0.1873E+01  0.4000E+01
    -33.768  0.1048E-08  0.4000E+01
    -33.586  0.0000E+00  0.4000E+01
    -33.404  0.0000E+00  0.4000E+01
    -33.222  0.0000E+00  0.4000E+01
    -33.040  0.0000E+00  0.4000E+01
    -32.858  0.0000E+00  0.4000E+01
    -32.677  0.0000E+00  0.4000E+01
    -32.495  0.0000E+00  0.4000E+01
    -32.313  0.0000E+00  0.4000E+01
    -32.131  0.0000E+00  0.4000E+01
    -31.949  0.0000E+00  0.4000E+01
    -31.767  0.0000E+00  0.4000E+01
    -31.585  0.0000E+00  0.4000E+01
    -31.403  0.0000E+00  0.4000E+01
    -31.221  0.0000E+00  0.4000E+01
    -31.040  0.0000E+00  0.4000E+01
    -30.858  0.0000E+00  0.4000E+01
    -30.676  0.0000E+00  0.4000E+01
    -30.494  0.0000E+00  0.4000E+01
    -30.312  0.0000E+00  0.4000E+01
    -30.130  0.0000E+00  0.4000E+01
    -29.948  0.0000E+00  0.4000E+01
    -29.766  0.0000E+00  0.4000E+01
    -29.584  0.0000E+00  0.4000E+01
    -29.402  0.0000E+00  0.4000E+01
    -29.221  0.0000E+00  0.4000E+01
    -29.039  0.0000E+00  0.4000E+01
    -28.857  0.0000E+00  0.4000E+01
    -28.675  0.0000E+00  0.4000E+01
    -28.493  0.0000E+00  0.4000E+01
    -28.311  0.0000E+00  0.4000E+01
    -28.129  0.0000E+00  0.4000E+01
    -27.947  0.0000E+00  0.4000E+01
    -27.765  0.0000E+00  0.4000E+01
    -27.584  0.0000E+00  0.4000E+01
    -27.402  0.1637E-05  0.4000E+01
    -27.220  0.1346E+02  0.6449E+01
    -27.038  0.1952E+02  0.1000E+02
    -26.856  0.1950E-04  0.1000E+02
    -26.674  0.0000E+00  0.1000E+02
    -26.492  0.0000E+00  0.1000E+02
    -26.310  0.0000E+00  0.1000E+02
    -26.128  0.0000E+00  0.1000E+02
    -25.947  0.0000E+00  0.1000E+02
    -25.765  0.0000E+00  0.1000E+02
    -25.583  0.0000E+00  0.1000E+02
    -25.401  0.0000E+00  0.1000E+02
    -25.219  0.0000E+00  0.1000E+02
    -25.037  0.0000E+00  0.1000E+02
    -24.855  0.0000E+00  0.1000E+02
    -24.673  0.0000E+00  0.1000E+02
    -24.491  0.0000E+00  0.1000E+02
    -24.309  0.0000E+00  0.1000E+02
    -24.128  0.0000E+00  0.1000E+02
    -23.946  0.0000E+00  0.1000E+02
    -23.764  0.0000E+00  0.1000E+02
    -23.582  0.0000E+00  0.1000E+02
    -23.400  0.0000E+00  0.1000E+02
    -23.218  0.0000E+00  0.1000E+02
    -23.036  0.0000E+00  0.1000E+02
    -22.854  0.4991E-05  0.1000E+02
    -22.672  0.8759E+00  0.1016E+02
    -22.491  0.1007E+02  0.1199E+02
    -22.309  0.5150E-01  0.1200E+02
    -22.127  0.0000E+00  0.1200E+02
    -21.945  0.0000E+00  0.1200E+02
    -21.763  0.0000E+00  0.1200E+02
    -21.581  0.0000E+00  0.1200E+02
    -21.399  0.0000E+00  0.1200E+02
    -21.217  0.0000E+00  0.1200E+02
    -21.035  0.0000E+00  0.1200E+02
    -20.854  0.0000E+00  0.1200E+02
    -20.672  0.0000E+00  0.1200E+02
    -20.490  0.0000E+00  0.1200E+02
    -20.308  0.0000E+00  0.1200E+02
    -20.126  0.0000E+00  0.1200E+02
    -19.944  0.0000E+00  0.1200E+02
    -19.762  0.0000E+00  0.1200E+02
    -19.580  0.0000E+00  0.1200E+02
    -19.398  0.0000E+00  0.1200E+02
    -19.216  0.0000E+00  0.1200E+02
    -19.035  0.0000E+00  0.1200E+02
    -18.853  0.0000E+00  0.1200E+02
    -18.671  0.0000E+00  0.1200E+02
    -18.489  0.0000E+00  0.1200E+02
    -18.307  0.0000E+00  0.1200E+02
    -18.125  0.0000E+00  0.1200E+02
    -17.943  0.0000E+00  0.1200E+02
    -17.761  0.0000E+00  0.1200E+02
    -17.579  0.0000E+00  0.1200E+02
    -17.398  0.0000E+00  0.1200E+02
    -17.216  0.0000E+00  0.1200E+02
    -17.034  0.0000E+00  0.1200E+02
    -16.852  0.0000E+00  0.1200E+02
    -16.670  0.0000E+00  0.1200E+02
    -16.488  0.0000E+00  0.1200E+02
    -16.306  0.0000E+00  0.1200E+02
    -16.124  0.0000E+00  0.1200E+02
    -15.942  0.0000E+00  0.1200E+02
    -15.761  0.0000E+00  0.1200E+02
    -15.579  0.0000E+00  0.1200E+02
    -15.397  0.0000E+00  0.1200E+02
    -15.215  0.0000E+00  0.1200E+02
    -15.033  0.0000E+00  0.1200E+02
    -14.851  0.0000E+00  0.1200E+02
    -14.669  0.0000E+00  0.1200E+02
    -14.487  0.0000E+00  0.1200E+02
    -14.305  0.0000E+00  0.1200E+02
    -14.124  0.0000E+00  0.1200E+02
    -13.942  0.0000E+00  0.1200E+02
    -13.760  0.0000E+00  0.1200E+02
    -13.578  0.0000E+00  0.1200E+02
    -13.396  0.0000E+00  0.1200E+02
    -13.214  0.0000E+00  0.1200E+02
    -13.032  0.0000E+00  0.1200E+02
    -12.850  0.0000E+00  0.1200E+02
    -12.668  0.0000E+00  0.1200E+02
    -12.486  0.0000E+00  0.1200E+02
    -12.305  0.0000E+00  0.1200E+02
    -12.123  0.0000E+00  0.1200E+02
    -11.941  0.0000E+00  0.1200E+02
    -11.759  0.0000E+00  0.1200E+02
    -11.577  0.0000E+00  0.1200E+02
    -11.395  0.0000E+00  0.1200E+02
    -11.213  0.0000E+00  0.1200E+02
    -11.031  0.0000E+00  0.1200E+02
    -10.849  0.0000E+00  0.1200E+02
    -10.668  0.0000E+00  0.1200E+02
    -10.486  0.0000E+00  0.1200E+02
    -10.304  0.0000E+00  0.1200E+02
    -10.122  0.0000E+00  0.1200E+02
     -9.940  0.0000E+00  0.1200E+02
     -9.758  0.0000E+00  0.1200E+02
     -9.576  0.0000E+00  0.1200E+02
     -9.394  0.0000E+00  0.1200E+02
     -9.212  0.0000E+00  0.1200E+02
     -9.031  0.0000E+00  0.1200E+02
     -8.849  0.2587E-07  0.1200E+02
     -8.667  0.9181E+00  0.1217E+02
     -8.485  0.7772E+01  0.1358E+02
     -8.303  0.1975E+01  0.1394E+02
     -8.121  0.3304E+00  0.1400E+02
     -7.939  0.1029E-03  0.1400E+02
     -7.757  0.0000E+00  0.1400E+02
     -7.575  0.0000E+00  0.1400E+02
     -7.393  0.0000E+00  0.1400E+02
     -7.212  0.0000E+00  0.1400E+02
     -7.030  0.0000E+00  0.1400E+02
     -6.848  0.0000E+00  0.1400E+02
     -6.666  0.0000E+00  0.1400E+02
     -6.484  0.0000E+00  0.1400E+02
     -6.302  0.0000E+00  0.1400E+02
     -6.120  0.0000E+00  0.1400E+02
     -5.938  0.0000E+00  0.1400E+02
     -5.756  0.0000E+00  0.1400E+02
     -5.575  0.0000E+00  0.1400E+02
     -5.393  0.0000E+00  0.1400E+02
     -5.211  0.0000E+00  0.1400E+02
     -5.029  0.0000E+00  0.1400E+02
     -4.847  0.0000E+00  0.1400E+02
     -4.665  0.0000E+00  0.1400E+02
     -4.483  0.0000E+00  0.1400E+02
     -4.301  0.0000E+00  0.1400E+02
     -4.119  0.0000E+00  0.1400E+02
     -3.938  0.0000E+00  0.1400E+02
     -3.756  0.0000E+00  0.1400E+02
     -3.574  0.0000E+00  0.1400E+02
     -3.392  0.0000E+00  0.1400E+02
     -3.210  0.0000E+00  0.1400E+02
     -3.028  0.0000E+00  0.1400E+02
     -2.846  0.0000E+00  0.1400E+02
     -2.664  0.0000E+00  0.1400E+02
     -2.482  0.0000E+00  0.1400E+02
     -2.300  0.0000E+00  0.1400E+02
     -2.119  0.0000E+00  0.1400E+02
     -1.937  0.0000E+00  0.1400E+02
     -1.755  0.0000E+00  0.1400E+02
     -1.573  0.0000E+00  0.1400E+02
     -1.391  0.0000E+00  0.1400E+02
     -1.209  0.0000E+00  0.1400E+02
     -1.027  0.0000E+00  0.1400E+02
     -0.845  0.0000E+00  0.1400E+02
     -0.663  0.0000E+00  0.1400E+02
     -0.482  0.1221E-09  0.1400E+02
     -0.300  0.4055E-01  0.1401E+02
     -0.118  0.3061E+01  0.1456E+02
      0.064  0.4528E+01  0.1539E+02
      0.246  0.7659E+00  0.1553E+02
      0.428  0.1191E+01  0.1574E+02
      0.610  0.4056E+00  0.1582E+02
      0.792  0.2426E+00  0.1586E+02
      0.974  0.6052E+00  0.1597E+02
      1.155  0.1727E+01  0.1629E+02
      1.337  0.1788E+01  0.1661E+02
      1.519  0.1529E+01  0.1689E+02
      1.701  0.2950E+00  0.1694E+02
      1.883  0.2199E+01  0.1734E+02
      2.065  0.4489E+00  0.1742E+02
      2.247  0.1129E+01  0.1763E+02
      2.429  0.6901E+00  0.1776E+02
      2.611  0.8157E+00  0.1790E+02
      2.793  0.5151E-01  0.1791E+02
      2.974  0.4259E+00  0.1799E+02
      3.156  0.5287E-01  0.1800E+02
      3.338  0.9817E-03  0.1800E+02
      3.520  0.4987E-01  0.1801E+02
      3.702  0.5341E-04  0.1801E+02
      3.884  0.0000E+00  0.1801E+02
      4.066  0.0000E+00  0.1801E+02
      4.248  0.0000E+00  0.1801E+02
      4.430  0.0000E+00  0.1801E+02
      4.611  0.0000E+00  0.1801E+02
      4.793  0.0000E+00  0.1801E+02
      4.975  0.2279E-05  0.1801E+02
      5.157  0.3152E+00  0.1807E+02
      5.339  0.9205E-01  0.1808E+02
      5.521  0.4940E-04  0.1808E+02
      5.703  0.2868E+00  0.1814E+02
      5.885  0.1859E-01  0.1814E+02
      6.067  0.5100E+00  0.1823E+02
      6.248  0.2438E+00  0.1828E+02
      6.430  0.6196E+00  0.1839E+02
      6.612  0.1221E+00  0.1841E+02
      6.794  0.1892E+01  0.1876E+02
      6.976  0.1555E+01  0.1904E+02
      7.158  0.2077E+01  0.1942E+02
      7.340  0.1670E+00  0.1945E+02
      7.522  0.1807E+01  0.1977E+02
      7.704  0.1146E+01  0.1998E+02
      7.886  0.2451E+00  0.2003E+02
      8.067  0.5790E-01  0.2004E+02
      8.249  0.2796E+00  0.2009E+02
      8.431  0.1189E+01  0.2031E+02
      8.613  0.2780E-01  0.2031E+02
      8.795  0.2456E+01  0.2076E+02
      8.977  0.2421E+01  0.2120E+02
      9.159  0.2362E+01  0.2163E+02
      9.341  0.4164E+00  0.2170E+02
      9.523  0.1775E+01  0.2203E+02
      9.704  0.1085E+01  0.2222E+02
      9.886  0.5178E+00  0.2232E+02
     10.068  0.3410E+00  0.2238E+02
     10.250  0.4257E+00  0.2246E+02
     10.432  0.3089E+01  0.2302E+02
     10.614  0.2122E+01  0.2340E+02
     10.796  0.2107E+01  0.2379E+02
     10.978  0.4625E+00  0.2387E+02
     11.160  0.7074E+00  0.2400E+02
     11.341  0.1882E+01  0.2434E+02
     11.523  0.2913E+01  0.2487E+02
     11.705  0.2900E+01  0.2540E+02
     11.887  0.1460E+01  0.2567E+02
     12.069  0.3461E+00  0.2573E+02
     12.251  0.1341E+01  0.2597E+02
     12.433  0.1853E+00  0.2601E+02
     12.615  0.6534E+00  0.2613E+02
     12.797  0.9984E+00  0.2631E+02
     12.978  0.1949E+01  0.2666E+02
     13.160  0.1660E+01  0.2696E+02
     13.342  0.1154E+01  0.2717E+02
     13.524  0.1072E+01  0.2737E+02
     13.706  0.8842E+00  0.2753E+02
     13.888  0.9150E-01  0.2755E+02
     14.070  0.5583E+00  0.2765E+02
     14.252  0.1460E+01  0.2791E+02
     14.434  0.1211E+00  0.2793E+02
     14.616  0.4950E-01  0.2794E+02
     14.797  0.2603E-02  0.2794E+02
     14.979  0.3049E-10  0.2794E+02
     15.161  0.9919E-02  0.2795E+02
     15.343  0.2430E+00  0.2799E+02
     15.525  0.5245E-01  0.2800E+02
     15.707  0.1611E-04  0.2800E+02
     15.889  0.0000E+00  0.2800E+02
     16.071  0.0000E+00  0.2800E+02
     16.253  0.0000E+00  0.2800E+02
     16.434  0.0000E+00  0.2800E+02
     16.616  0.0000E+00  0.2800E+02
     16.798  0.0000E+00  0.2800E+02
     16.980  0.0000E+00  0.2800E+02
     17.162  0.0000E+00  0.2800E+02
     17.344  0.0000E+00  0.2800E+02
     17.526  0.0000E+00  0.2800E+02
     17.708  0.0000E+00  0.2800E+02
     17.890  0.0000E+00  0.2800E+02
