    1    1    1    1
  0.6008441E+02  0.4396350E-09  0.4396350E-09  0.4396350E-09  0.1000000E-15
  1.000000000000000E-004
  CAR 
 Og_FCC                                  
     18    216     28
 
  0.0000000E+00  0.0000000E+00  0.0000000E+00  0.4629630E-02
    1      -34.195471   1.000000
    2      -34.195469   1.000000
    3      -34.195467   1.000000
    4      -34.195465   1.000000
    5      -27.229681   1.000000
    6      -27.229680   1.000000
    7      -27.223621   1.000000
    8      -27.223618   1.000000
    9      -27.223618   1.000000
   10      -27.223616   1.000000
   11      -22.722133   1.000000
   12      -22.722129   1.000000
   13       -8.222701   1.000000
   14       -8.222697   1.000000
   15        2.976067   1.000000
   16        2.976070   1.000000
   17        2.976077   1.000000
   18        2.976093   1.000000
   19        3.411318   0.000000
   20        3.411341   0.000000
   21       10.929103   0.000000
   22       10.929134   0.000000
   23       10.929186   0.000000
   24       10.930566   0.000000
   25       11.231833   0.000000
   26       11.238438   0.000000
   27       11.370799   0.000000
   28       11.379517   0.000000
 
  0.1666667E+00 -0.4006644E-16 -0.6938894E-17  0.4629630E-02
    1      -34.187585   1.000000
    2      -34.187584   1.000000
    3      -34.174833   1.000000
    4      -34.174832   1.000000
    5      -27.221319   1.000000
    6      -27.221318   1.000000
    7      -27.210583   1.000000
    8      -27.210582   1.000000
    9      -27.208207   1.000000
   10      -27.208205   1.000000
   11      -22.683261   1.000000
   12      -22.683258   1.000000
   13       -8.302450   1.000000
   14       -8.302448   1.000000
   15        1.357409   1.000000
   16        1.357414   1.000000
   17        2.843547   1.000000
   18        2.843551   1.000000
   19        5.130523   0.000000
   20        5.130527   0.000000
   21        9.839985   0.000000
   22        9.840059   0.000000
   23       11.124410   0.000000
   24       11.138598   0.000000
   25       11.337643   0.000000
   26       11.433221   0.000000
   27       12.438049   0.000000
   28       12.607060   0.000000
 
  0.3333333E+00 -0.2462172E-16  0.4163336E-16  0.4629630E-02
    1      -34.169587   1.000000
    2      -34.169586   1.000000
    3      -34.161656   1.000000
    4      -34.161656   1.000000
    5      -27.207570   1.000000
    6      -27.207569   1.000000
    7      -27.202217   1.000000
    8      -27.202216   1.000000
    9      -27.201822   1.000000
   10      -27.201820   1.000000
   11      -22.641611   1.000000
   12      -22.641607   1.000000
   13       -8.491651   1.000000
   14       -8.491648   1.000000
   15        0.164073   1.000000
   16        0.164196   1.000000
   17        2.552169   1.000000
   18        2.552176   1.000000
   19        6.014175   0.000000
   20        6.014249   0.000000
   21       10.326401   0.000000
   22       10.326447   0.000000
   23       10.676721   0.000000
   24       10.676771   0.000000
   25       10.989912   0.000000
   26       10.990047   0.000000
   27       11.464922   0.000000
   28       11.465328   0.000000
 
  0.5000000E+00 -0.2305480E-16  0.5551115E-16  0.4629630E-02
    1      -34.186796   1.000000
    2      -34.186795   1.000000
    3      -34.185707   1.000000
    4      -34.185707   1.000000
    5      -27.218446   1.000000
    6      -27.218445   1.000000
    7      -27.213537   1.000000
    8      -27.213536   1.000000
    9      -27.211813   1.000000
   10      -27.211812   1.000000
   11      -22.598132   1.000000
   12      -22.598129   1.000000
   13       -8.577996   1.000000
   14       -8.577994   1.000000
   15       -0.266577   1.000000
   16       -0.266574   1.000000
   17        2.429724   1.000000
   18        2.429727   1.000000
   19        6.053557   0.000000
   20        6.053566   0.000000
   21       10.368604   0.000000
   22       10.368607   0.000000
   23       10.575502   0.000000
   24       10.575569   0.000000
   25       10.641207   0.000000
   26       10.641220   0.000000
   27       12.188310   0.000000
   28       12.193232   0.000000
 
 -0.3333333E+00  0.2462172E-16 -0.4163336E-16  0.4629630E-02
    1      -34.169587   1.000000
    2      -34.169586   1.000000
    3      -34.161656   1.000000
    4      -34.161656   1.000000
    5      -27.207570   1.000000
    6      -27.207569   1.000000
    7      -27.202217   1.000000
    8      -27.202216   1.000000
    9      -27.201822   1.000000
   10      -27.201820   1.000000
   11      -22.641611   1.000000
   12      -22.641607   1.000000
   13       -8.491652   1.000000
   14       -8.491647   1.000000
   15        0.164057   1.000000
   16        0.164183   1.000000
   17        2.552165   1.000000
   18        2.552181   1.000000
   19        6.014190   0.000000
   20        6.014255   0.000000
   21       10.326424   0.000000
   22       10.326480   0.000000
   23       10.676727   0.000000
   24       10.676880   0.000000
   25       10.989913   0.000000
   26       10.990017   0.000000
   27       11.464999   0.000000
   28       11.465576   0.000000
 
 -0.1666667E+00  0.4006644E-16  0.6938894E-17  0.4629630E-02
    1      -34.187584   1.000000
    2      -34.187584   1.000000
    3      -34.174831   1.000000
    4      -34.174831   1.000000
    5      -27.221319   1.000000
    6      -27.221318   1.000000
    7      -27.210582   1.000000
    8      -27.210581   1.000000
    9      -27.208206   1.000000
   10      -27.208204   1.000000
   11      -22.683261   1.000000
   12      -22.683258   1.000000
   13       -8.302450   1.000000
   14       -8.302447   1.000000
   15        1.357405   1.000000
   16        1.357407   1.000000
   17        2.843548   1.000000
   18        2.843551   1.000000
   19        5.130528   0.000000
   20        5.130535   0.000000
   21        9.839981   0.000000
   22        9.840019   0.000000
   23       11.124396   0.000000
   24       11.130396   0.000000
   25       11.338617   0.000000
   26       11.348508   0.000000
   27       12.373813   0.000000
   28       12.654614   0.000000
 
 -0.1925930E-33  0.1666667E+00  0.0000000E+00  0.4629630E-02
    1      -34.187585   1.000000
    2      -34.187584   1.000000
    3      -34.174833   1.000000
    4      -34.174832   1.000000
    5      -27.221320   1.000000
    6      -27.221318   1.000000
    7      -27.210583   1.000000
    8      -27.210582   1.000000
    9      -27.208207   1.000000
   10      -27.208205   1.000000
   11      -22.683261   1.000000
   12      -22.683258   1.000000
   13       -8.302451   1.000000
   14       -8.302448   1.000000
   15        1.357412   1.000000
   16        1.357416   1.000000
   17        2.843548   1.000000
   18        2.843550   1.000000
   19        5.130519   0.000000
   20        5.130524   0.000000
   21        9.839992   0.000000
   22        9.840003   0.000000
   23       11.124120   0.000000
   24       11.125663   0.000000
   25       11.339019   0.000000
   26       11.340021   0.000000
   27       12.410398   0.000000
   28       12.630861   0.000000
 
  0.1666667E+00  0.1666667E+00  0.0000000E+00  0.4629630E-02
    1      -34.170634   1.000000
    2      -34.170634   1.000000
    3      -34.157696   1.000000
    4      -34.157695   1.000000
    5      -27.208820   1.000000
    6      -27.208819   1.000000
    7      -27.199238   1.000000
    8      -27.199237   1.000000
    9      -27.196208   1.000000
   10      -27.196207   1.000000
   11      -22.671508   1.000000
   12      -22.671505   1.000000
   13       -8.327699   1.000000
   14       -8.327697   1.000000
   15        1.237254   1.000000
   16        1.237259   1.000000
   17        2.516440   1.000000
   18        2.516443   1.000000
   19        5.648016   0.000000
   20        5.648019   0.000000
   21        9.249393   0.000000
   22        9.249403   0.000000
   23       10.692787   0.000000
   24       10.692787   0.000000
   25       11.396015   0.000000
   26       11.396257   0.000000
   27       12.047508   0.000000
   28       12.050468   0.000000
 
  0.3333333E+00  0.1666667E+00  0.0000000E+00  0.4629630E-02
    1      -34.187580   1.000000
    2      -34.187580   1.000000
    3      -34.177838   1.000000
    4      -34.177838   1.000000
    5      -27.217539   1.000000
    6      -27.217538   1.000000
    7      -27.212669   1.000000
    8      -27.212667   1.000000
    9      -27.208781   1.000000
   10      -27.208780   1.000000
   11      -22.629565   1.000000
   12      -22.629562   1.000000
   13       -8.474749   1.000000
   14       -8.474747   1.000000
   15        0.360406   1.000000
   16        0.360409   1.000000
   17        2.115560   1.000000
   18        2.115563   1.000000
   19        6.658351   0.000000
   20        6.658356   0.000000
   21        9.101459   0.000000
   22        9.101463   0.000000
   23        9.663033   0.000000
   24        9.663042   0.000000
   25       11.666477   0.000000
   26       11.670204   0.000000
   27       12.971821   0.000000
   28       13.546655   0.000000
 
  0.5000000E+00  0.1666667E+00  0.0000000E+00  0.4629630E-02
    1      -34.188231   1.000000
    2      -34.188230   1.000000
    3      -34.180301   1.000000
    4      -34.180301   1.000000
    5      -27.214598   1.000000
    6      -27.214596   1.000000
    7      -27.213271   1.000000
    8      -27.213270   1.000000
    9      -27.210048   1.000000
   10      -27.210047   1.000000
   11      -22.588039   1.000000
   12      -22.588036   1.000000
   13       -8.590643   1.000000
   14       -8.590642   1.000000
   15       -0.175932   1.000000
   16       -0.175929   1.000000
   17        1.790447   1.000000
   18        1.790449   1.000000
   19        6.962785   0.000000
   20        6.962792   0.000000
   21        8.897634   0.000000
   22        8.897646   0.000000
   23       10.745695   0.000000
   24       10.745754   0.000000
   25       11.405869   0.000000
   26       11.406258   0.000000
   27       13.101682   0.000000
   28       13.691434   0.000000
 
 -0.3333333E+00  0.1666667E+00 -0.4163336E-16  0.4629630E-02
    1      -34.178321   1.000000
    2      -34.178320   1.000000
    3      -34.168775   1.000000
    4      -34.168774   1.000000
    5      -27.211059   1.000000
    6      -27.211058   1.000000
    7      -27.205529   1.000000
    8      -27.205529   1.000000
    9      -27.202223   1.000000
   10      -27.202223   1.000000
   11      -22.601015   1.000000
   12      -22.601012   1.000000
   13       -8.563386   1.000000
   14       -8.563384   1.000000
   15       -0.067838   1.000000
   16       -0.067836   1.000000
   17        1.863163   1.000000
   18        1.863164   1.000000
   19        7.045780   0.000000
   20        7.045786   0.000000
   21        9.045101   0.000000
   22        9.045110   0.000000
   23       10.564906   0.000000
   24       10.564967   0.000000
   25       11.213727   0.000000
   26       11.213991   0.000000
   27       13.232534   0.000000
   28       13.429276   0.000000
 
 -0.1666667E+00  0.1666667E+00 -0.3606529E-18  0.4629630E-02
    1      -34.182162   1.000000
    2      -34.182162   1.000000
    3      -34.172976   1.000000
    4      -34.172975   1.000000
    5      -27.214622   1.000000
    6      -27.214621   1.000000
    7      -27.207882   1.000000
    8      -27.207881   1.000000
    9      -27.206068   1.000000
   10      -27.206067   1.000000
   11      -22.644666   1.000000
   12      -22.644663   1.000000
   13       -8.416989   1.000000
   14       -8.416988   1.000000
   15        0.600127   1.000000
   16        0.600130   1.000000
   17        2.365311   1.000000
   18        2.365313   1.000000
   19        6.326264   0.000000
   20        6.326270   0.000000
   21        9.447130   0.000000
   22        9.447158   0.000000
   23       10.234541   0.000000
   24       10.234565   0.000000
   25       11.476217   0.000000
   26       11.477374   0.000000
   27       11.740185   0.000000
   28       11.743280   0.000000
 
 -0.3851860E-33  0.3333333E+00 -0.1387779E-16  0.4629630E-02
    1      -34.169587   1.000000
    2      -34.169586   1.000000
    3      -34.161656   1.000000
    4      -34.161655   1.000000
    5      -27.207571   1.000000
    6      -27.207567   1.000000
    7      -27.202218   1.000000
    8      -27.202216   1.000000
    9      -27.201822   1.000000
   10      -27.201820   1.000000
   11      -22.641611   1.000000
   12      -22.641608   1.000000
   13       -8.491651   1.000000
   14       -8.491647   1.000000
   15        0.164111   1.000000
   16        0.164331   1.000000
   17        2.552170   1.000000
   18        2.552175   1.000000
   19        6.014093   0.000000
   20        6.014229   0.000000
   21       10.326364   0.000000
   22       10.326877   0.000000
   23       10.676727   0.000000
   24       10.677427   0.000000
   25       10.989974   0.000000
   26       10.991823   0.000000
   27       11.465576   0.000000
   28       11.472306   0.000000
 
  0.1666667E+00  0.3333333E+00 -0.2775558E-16  0.4629630E-02
    1      -34.187581   1.000000
    2      -34.187580   1.000000
    3      -34.177838   1.000000
    4      -34.177838   1.000000
    5      -27.217539   1.000000
    6      -27.217538   1.000000
    7      -27.212669   1.000000
    8      -27.212667   1.000000
    9      -27.208781   1.000000
   10      -27.208780   1.000000
   11      -22.629565   1.000000
   12      -22.629562   1.000000
   13       -8.474750   1.000000
   14       -8.474747   1.000000
   15        0.360407   1.000000
   16        0.360410   1.000000
   17        2.115559   1.000000
   18        2.115561   1.000000
   19        6.658351   0.000000
   20        6.658356   0.000000
   21        9.101455   0.000000
   22        9.101466   0.000000
   23        9.663030   0.000000
   24        9.663038   0.000000
   25       11.666470   0.000000
   26       11.667496   0.000000
   27       13.098806   0.000000
   28       13.204163   0.000000
 
  0.3333333E+00  0.3333333E+00  0.2775558E-16  0.4629630E-02
    1      -34.188992   1.000000
    2      -34.188991   1.000000
    3      -34.188672   1.000000
    4      -34.188672   1.000000
    5      -27.220862   1.000000
    6      -27.220861   1.000000
    7      -27.217558   1.000000
    8      -27.217555   1.000000
    9      -27.217520   1.000000
   10      -27.217518   1.000000
   11      -22.615172   1.000000
   12      -22.615169   1.000000
   13       -8.560645   1.000000
   14       -8.560641   1.000000
   15        0.130390   1.000000
   16        0.130527   1.000000
   17        1.691136   1.000000
   18        1.691146   1.000000
   19        6.692040   0.000000
   20        6.692122   0.000000
   21        8.098487   0.000000
   22        8.098499   0.000000
   23        9.976515   0.000000
   24        9.976561   0.000000
   25       12.783575   0.000000
   26       12.784479   0.000000
   27       13.922614   0.000000
   28       13.930879   0.000000
 
  0.5000000E+00  0.3333333E+00 -0.5551115E-16  0.4629630E-02
    1      -34.183727   1.000000
    2      -34.183726   1.000000
    3      -34.179610   1.000000
    4      -34.179610   1.000000
    5      -27.212599   1.000000
    6      -27.212598   1.000000
    7      -27.211363   1.000000
    8      -27.211363   1.000000
    9      -27.209026   1.000000
   10      -27.209025   1.000000
   11      -22.572968   1.000000
   12      -22.572965   1.000000
   13       -8.634233   1.000000
   14       -8.634230   1.000000
   15       -0.118006   1.000000
   16       -0.118004   1.000000
   17        1.256043   1.000000
   18        1.256044   1.000000
   19        6.803253   0.000000
   20        6.803264   0.000000
   21        8.317822   0.000000
   22        8.317832   0.000000
   23       10.358794   0.000000
   24       10.358794   0.000000
   25       12.793461   0.000000
   26       12.795060   0.000000
   27       14.088189   0.000000
   28       14.124191   0.000000
 
 -0.3333333E+00  0.3333333E+00 -0.2812248E-16  0.4629630E-02
    1      -34.193407   1.000000
    2      -34.193406   1.000000
    3      -34.187530   1.000000
    4      -34.187530   1.000000
    5      -27.221663   1.000000
    6      -27.221661   1.000000
    7      -27.219110   1.000000
    8      -27.219109   1.000000
    9      -27.216482   1.000000
   10      -27.216480   1.000000
   11      -22.587686   1.000000
   12      -22.587682   1.000000
   13       -8.641679   1.000000
   14       -8.641671   1.000000
   15       -0.128331   1.000000
   16       -0.128314   1.000000
   17        1.113609   1.000000
   18        1.113620   1.000000
   19        7.421185   0.000000
   20        7.421196   0.000000
   21        8.769615   0.000000
   22        8.769635   0.000000
   23       11.334013   0.000000
   24       11.337165   0.000000
   25       11.635379   0.000000
   26       11.637629   0.000000
   27       12.519291   0.000000
   28       12.970950   0.000000
 
 -0.1666667E+00  0.3333333E+00 -0.1387779E-16  0.4629630E-02
    1      -34.178321   1.000000
    2      -34.178320   1.000000
    3      -34.168774   1.000000
    4      -34.168773   1.000000
    5      -27.211059   1.000000
    6      -27.211057   1.000000
    7      -27.205529   1.000000
    8      -27.205528   1.000000
    9      -27.202223   1.000000
   10      -27.202222   1.000000
   11      -22.601014   1.000000
   12      -22.601011   1.000000
   13       -8.563386   1.000000
   14       -8.563384   1.000000
   15       -0.067839   1.000000
   16       -0.067837   1.000000
   17        1.863166   1.000000
   18        1.863168   1.000000
   19        7.045775   0.000000
   20        7.045783   0.000000
   21        9.045107   0.000000
   22        9.045119   0.000000
   23       10.564952   0.000000
   24       10.564961   0.000000
   25       11.213709   0.000000
   26       11.213997   0.000000
   27       13.262079   0.000000
   28       13.279431   0.000000
 
  0.0000000E+00  0.5000000E+00 -0.5551115E-16  0.4629630E-02
    1      -34.186796   1.000000
    2      -34.186795   1.000000
    3      -34.185707   1.000000
    4      -34.185707   1.000000
    5      -27.218447   1.000000
    6      -27.218445   1.000000
    7      -27.213537   1.000000
    8      -27.213536   1.000000
    9      -27.211813   1.000000
   10      -27.211812   1.000000
   11      -22.598132   1.000000
   12      -22.598129   1.000000
   13       -8.577996   1.000000
   14       -8.577994   1.000000
   15       -0.266577   1.000000
   16       -0.266574   1.000000
   17        2.429725   1.000000
   18        2.429727   1.000000
   19        6.053556   0.000000
   20        6.053566   0.000000
   21       10.368603   0.000000
   22       10.368638   0.000000
   23       10.575541   0.000000
   24       10.575577   0.000000
   25       10.641205   0.000000
   26       10.641230   0.000000
   27       12.188474   0.000000
   28       12.258210   0.000000
 
  0.1666667E+00  0.5000000E+00 -0.2775558E-16  0.4629630E-02
    1      -34.188231   1.000000
    2      -34.188230   1.000000
    3      -34.180301   1.000000
    4      -34.180301   1.000000
    5      -27.214598   1.000000
    6      -27.214597   1.000000
    7      -27.213271   1.000000
    8      -27.213270   1.000000
    9      -27.210047   1.000000
   10      -27.210046   1.000000
   11      -22.588039   1.000000
   12      -22.588036   1.000000
   13       -8.590643   1.000000
   14       -8.590642   1.000000
   15       -0.175933   1.000000
   16       -0.175930   1.000000
   17        1.790447   1.000000
   18        1.790448   1.000000
   19        6.962787   0.000000
   20        6.962794   0.000000
   21        8.897638   0.000000
   22        8.897643   0.000000
   23       10.745689   0.000000
   24       10.745759   0.000000
   25       11.405882   0.000000
   26       11.406193   0.000000
   27       13.101347   0.000000
   28       13.373907   0.000000
 
  0.3333333E+00  0.5000000E+00  0.0000000E+00  0.4629630E-02
    1      -34.183727   1.000000
    2      -34.183726   1.000000
    3      -34.179610   1.000000
    4      -34.179610   1.000000
    5      -27.212599   1.000000
    6      -27.212598   1.000000
    7      -27.211364   1.000000
    8      -27.211362   1.000000
    9      -27.209026   1.000000
   10      -27.209025   1.000000
   11      -22.572968   1.000000
   12      -22.572965   1.000000
   13       -8.634233   1.000000
   14       -8.634231   1.000000
   15       -0.118006   1.000000
   16       -0.118005   1.000000
   17        1.256042   1.000000
   18        1.256044   1.000000
   19        6.803252   0.000000
   20        6.803262   0.000000
   21        8.317828   0.000000
   22        8.317837   0.000000
   23       10.358801   0.000000
   24       10.358809   0.000000
   25       12.793496   0.000000
   26       12.795202   0.000000
   27       14.089625   0.000000
   28       14.137933   0.000000
 
  0.5000000E+00  0.5000000E+00  0.0000000E+00  0.4629630E-02
    1      -34.197837   1.000000
    2      -34.197837   1.000000
    3      -34.188929   1.000000
    4      -34.188929   1.000000
    5      -27.219746   1.000000
    6      -27.219745   1.000000
    7      -27.219140   1.000000
    8      -27.219139   1.000000
    9      -27.214854   1.000000
   10      -27.214853   1.000000
   11      -22.558975   1.000000
   12      -22.558972   1.000000
   13       -8.659816   1.000000
   14       -8.659814   1.000000
   15       -0.233555   1.000000
   16       -0.233554   1.000000
   17        1.353559   1.000000
   18        1.353561   1.000000
   19        6.206756   0.000000
   20        6.206769   0.000000
   21        7.690480   0.000000
   22        7.690491   0.000000
   23       10.944727   0.000000
   24       10.944788   0.000000
   25       15.190494   0.000000
   26       15.215319   0.000000
   27       15.258595   0.000000
   28       15.293709   0.000000
 
 -0.3333333E+00  0.5000000E+00 -0.4857226E-16  0.4629630E-02
    1      -34.183727   1.000000
    2      -34.183726   1.000000
    3      -34.179610   1.000000
    4      -34.179610   1.000000
    5      -27.212599   1.000000
    6      -27.212598   1.000000
    7      -27.211364   1.000000
    8      -27.211362   1.000000
    9      -27.209026   1.000000
   10      -27.209025   1.000000
   11      -22.572968   1.000000
   12      -22.572965   1.000000
   13       -8.634232   1.000000
   14       -8.634230   1.000000
   15       -0.118011   1.000000
   16       -0.118010   1.000000
   17        1.256045   1.000000
   18        1.256046   1.000000
   19        6.803256   0.000000
   20        6.803268   0.000000
   21        8.317822   0.000000
   22        8.317832   0.000000
   23       10.358794   0.000000
   24       10.358799   0.000000
   25       12.793645   0.000000
   26       12.804227   0.000000
   27       14.088733   0.000000
   28       14.563601   0.000000
 
 -0.1666667E+00  0.5000000E+00 -0.4163336E-16  0.4629630E-02
    1      -34.188231   1.000000
    2      -34.188230   1.000000
    3      -34.180300   1.000000
    4      -34.180299   1.000000
    5      -27.214597   1.000000
    6      -27.214596   1.000000
    7      -27.213270   1.000000
    8      -27.213269   1.000000
    9      -27.210046   1.000000
   10      -27.210045   1.000000
   11      -22.588039   1.000000
   12      -22.588036   1.000000
   13       -8.590643   1.000000
   14       -8.590641   1.000000
   15       -0.175938   1.000000
   16       -0.175936   1.000000
   17        1.790453   1.000000
   18        1.790454   1.000000
   19        6.962784   0.000000
   20        6.962793   0.000000
   21        8.897630   0.000000
   22        8.897635   0.000000
   23       10.745708   0.000000
   24       10.745819   0.000000
   25       11.405978   0.000000
   26       11.407483   0.000000
   27       13.104018   0.000000
   28       13.137576   0.000000
 
  0.3851860E-33 -0.3333333E+00  0.1387779E-16  0.4629630E-02
    1      -34.169587   1.000000
    2      -34.169586   1.000000
    3      -34.161656   1.000000
    4      -34.161655   1.000000
    5      -27.207571   1.000000
    6      -27.207567   1.000000
    7      -27.202218   1.000000
    8      -27.202216   1.000000
    9      -27.201822   1.000000
   10      -27.201820   1.000000
   11      -22.641611   1.000000
   12      -22.641606   1.000000
   13       -8.491652   1.000000
   14       -8.491648   1.000000
   15        0.163925   1.000000
   16        0.164144   1.000000
   17        2.552165   1.000000
   18        2.552175   1.000000
   19        6.014214   0.000000
   20        6.014335   0.000000
   21       10.326458   0.000000
   22       10.326805   0.000000
   23       10.676719   0.000000
   24       10.676919   0.000000
   25       10.989933   0.000000
   26       10.990619   0.000000
   27       11.464960   0.000000
   28       11.469691   0.000000
 
  0.1666667E+00 -0.3333333E+00  0.1387779E-16  0.4629630E-02
    1      -34.178321   1.000000
    2      -34.178320   1.000000
    3      -34.168775   1.000000
    4      -34.168774   1.000000
    5      -27.211060   1.000000
    6      -27.211058   1.000000
    7      -27.205530   1.000000
    8      -27.205529   1.000000
    9      -27.202223   1.000000
   10      -27.202223   1.000000
   11      -22.601015   1.000000
   12      -22.601011   1.000000
   13       -8.563386   1.000000
   14       -8.563383   1.000000
   15       -0.067839   1.000000
   16       -0.067837   1.000000
   17        1.863162   1.000000
   18        1.863164   1.000000
   19        7.045786   0.000000
   20        7.045792   0.000000
   21        9.045098   0.000000
   22        9.045107   0.000000
   23       10.564913   0.000000
   24       10.564966   0.000000
   25       11.213694   0.000000
   26       11.213993   0.000000
   27       13.201779   0.000000
   28       13.412455   0.000000
 
  0.3333333E+00 -0.3333333E+00  0.2812248E-16  0.4629630E-02
    1      -34.193407   1.000000
    2      -34.193406   1.000000
    3      -34.187530   1.000000
    4      -34.187530   1.000000
    5      -27.221663   1.000000
    6      -27.221661   1.000000
    7      -27.219110   1.000000
    8      -27.219110   1.000000
    9      -27.216482   1.000000
   10      -27.216480   1.000000
   11      -22.587686   1.000000
   12      -22.587682   1.000000
   13       -8.641678   1.000000
   14       -8.641672   1.000000
   15       -0.128344   1.000000
   16       -0.128327   1.000000
   17        1.113596   1.000000
   18        1.113609   1.000000
   19        7.421183   0.000000
   20        7.421195   0.000000
   21        8.769634   0.000000
   22        8.769647   0.000000
   23       11.334031   0.000000
   24       11.334777   0.000000
   25       11.635329   0.000000
   26       11.635602   0.000000
   27       12.514626   0.000000
   28       12.546813   0.000000
 
  0.5000000E+00 -0.3333333E+00  0.0000000E+00  0.4629630E-02
    1      -34.183727   1.000000
    2      -34.183726   1.000000
    3      -34.179610   1.000000
    4      -34.179610   1.000000
    5      -27.212599   1.000000
    6      -27.212598   1.000000
    7      -27.211363   1.000000
    8      -27.211363   1.000000
    9      -27.209026   1.000000
   10      -27.209025   1.000000
   11      -22.572968   1.000000
   12      -22.572965   1.000000
   13       -8.634232   1.000000
   14       -8.634230   1.000000
   15       -0.118012   1.000000
   16       -0.118010   1.000000
   17        1.256045   1.000000
   18        1.256047   1.000000
   19        6.803254   0.000000
   20        6.803266   0.000000
   21        8.317827   0.000000
   22        8.317836   0.000000
   23       10.358793   0.000000
   24       10.358795   0.000000
   25       12.793729   0.000000
   26       12.794193   0.000000
   27       14.088311   0.000000
   28       14.092376   0.000000
 
 -0.3333333E+00 -0.3333333E+00 -0.2775558E-16  0.4629630E-02
    1      -34.188992   1.000000
    2      -34.188991   1.000000
    3      -34.188672   1.000000
    4      -34.188672   1.000000
    5      -27.220862   1.000000
    6      -27.220861   1.000000
    7      -27.217558   1.000000
    8      -27.217555   1.000000
    9      -27.217520   1.000000
   10      -27.217518   1.000000
   11      -22.615172   1.000000
   12      -22.615167   1.000000
   13       -8.560645   1.000000
   14       -8.560640   1.000000
   15        0.130242   1.000000
   16        0.130381   1.000000
   17        1.691127   1.000000
   18        1.691138   1.000000
   19        6.692126   0.000000
   20        6.692182   0.000000
   21        8.098489   0.000000
   22        8.098499   0.000000
   23        9.976560   0.000000
   24        9.976614   0.000000
   25       12.783566   0.000000
   26       12.784156   0.000000
   27       13.918838   0.000000
   28       13.956849   0.000000
 
 -0.1666667E+00 -0.3333333E+00  0.2775558E-16  0.4629630E-02
    1      -34.187580   1.000000
    2      -34.187579   1.000000
    3      -34.177837   1.000000
    4      -34.177837   1.000000
    5      -27.217539   1.000000
    6      -27.217537   1.000000
    7      -27.212668   1.000000
    8      -27.212667   1.000000
    9      -27.208780   1.000000
   10      -27.208779   1.000000
   11      -22.629565   1.000000
   12      -22.629562   1.000000
   13       -8.474749   1.000000
   14       -8.474746   1.000000
   15        0.360396   1.000000
   16        0.360398   1.000000
   17        2.115563   1.000000
   18        2.115565   1.000000
   19        6.658361   0.000000
   20        6.658372   0.000000
   21        9.101471   0.000000
   22        9.101472   0.000000
   23        9.663032   0.000000
   24        9.663037   0.000000
   25       11.666402   0.000000
   26       11.666930   0.000000
   27       12.972695   0.000000
   28       13.508735   0.000000
 
  0.1925930E-33 -0.1666667E+00  0.0000000E+00  0.4629630E-02
    1      -34.187584   1.000000
    2      -34.187584   1.000000
    3      -34.174832   1.000000
    4      -34.174831   1.000000