<?xml version="1.0" encoding="ISO-8859-1"?>
<modeling>
 <generator>
  <i name="program" type="string">vasp </i>
  <i name="version" type="string">5.4.4.18Apr17-6-g9f103f2a35  </i>
  <i name="subversion" type="string">(build Nov 03 2018 10:20:46) complex            parallel </i>
  <i name="platform" type="string">LinuxIFC </i>
  <i name="date" type="string">2018 12 20 </i>
  <i name="time" type="string">14:42:48 </i>
 </generator>
 <incar>
  <i type="string" name="SYSTEM">   Og_FCC</i>
  <i type="string" name="PREC">accurate</i>
  <i type="string" name="ALGO"> DAMPED</i>
  <i type="logical" name="ADDGRID"> T  </i>
  <i type="logical" name="LSORBIT"> T  </i>
  <i type="int" name="ISPIN">     1</i>
  <i type="int" name="MAXMIX">    50</i>
  <i type="int" name="NELM">    50</i>
  <i type="int" name="NELMDL">    -5</i>
  <i type="int" name="NELMIN">     2</i>
  <i type="int" name="IBRION">    -1</i>
  <i type="int" name="NFREE">     5</i>
  <i name="EDIFF">      0.00000010</i>
  <i name="EDIFFG">      0.00001000</i>
  <i type="int" name="NSW">     1</i>
  <i type="int" name="ISIF">     3</i>
  <i type="int" name="ISYM">     0</i>
  <i name="SYMPREC">      0.00000010</i>
  <i name="ENCUT">    300.00000000</i>
  <i name="POTIM">      0.10000000</i>
  <i type="logical" name="LREAL"> F  </i>
  <i name="TIME">      0.60000000</i>
  <i type="int" name="ISMEAR">     0</i>
  <i name="SIGMA">      0.05000000</i>
  <i type="int" name="NWRITE">     2</i>
  <i type="logical" name="LWAVE"> T  </i>
  <i type="logical" name="LCHARG"> F  </i>
  <i type="logical" name="LVTOT"> F  </i>
  <i type="logical" name="GGA_COMPAT"> F  </i>
  <v type="int" name="KPOINT_BSE">    -1     0     0     0</v>
  <i type="int" name="NELM">    50</i>
  <i type="logical" name="LHFCALC"> T  </i>
  <i type="string" name="GGA"> PE</i>
  <i type="int" name="NKRED">     2</i>
  <i name="HFSCREEN">      0.20000000</i>
  <i type="string" name="PRECFOCK">normal</i>
 </incar>
 <structure name="primitive_cell" >
  <crystal>
   <varray name="basis" >
    <v>       4.39635018       0.00000000       0.00000000 </v>
    <v>       2.19817509       3.80735094      -0.00000000 </v>
    <v>       2.19817509       1.26911698       3.58960489 </v>
   </varray>
   <i name="volume">     60.08441465 </i>
   <varray name="rec_basis" >
    <v>       0.22746141      -0.13132490      -0.09286073 </v>
    <v>       0.00000000       0.26264981      -0.09286073 </v>
    <v>      -0.00000000       0.00000000       0.27858219 </v>
   </varray>
  </crystal>
  <varray name="positions" >
   <v>       0.00000000       0.00000000       0.00000000 </v>
  </varray>
 </structure>
 <varray name="primitive_index" >
  <v type="int" >        1 </v>
 </varray>
 <kpoints>
  <generation param="Gamma">
   <v type="int" name="divisions">       6        6        6 </v>
   <v name="usershift">      0.00000000       0.00000000       0.00000000 </v>
   <v name="genvec1">      0.16666667       0.00000000       0.00000000 </v>
   <v name="genvec2">      0.00000000       0.16666667       0.00000000 </v>
   <v name="genvec3">      0.00000000      -0.00000000       0.16666667 </v>
   <v name="shift">      0.00000000       0.00000000       0.00000000 </v>
  </generation>
  <varray name="kpointlist" >
   <v>       0.00000000       0.00000000       0.00000000 </v>
   <v>       0.16666667      -0.00000000      -0.00000000 </v>
   <v>       0.33333333      -0.00000000       0.00000000 </v>
   <v>       0.50000000      -0.00000000       0.00000000 </v>
   <v>      -0.33333333       0.00000000      -0.00000000 </v>
   <v>      -0.16666667       0.00000000       0.00000000 </v>
   <v>      -0.00000000       0.16666667       0.00000000 </v>
   <v>       0.16666667       0.16666667       0.00000000 </v>
   <v>       0.33333333       0.16666667       0.00000000 </v>
   <v>       0.50000000       0.16666667       0.00000000 </v>
   <v>      -0.33333333       0.16666667      -0.00000000 </v>
   <v>      -0.16666667       0.16666667      -0.00000000 </v>
   <v>      -0.00000000       0.33333333      -0.00000000 </v>
   <v>       0.16666667       0.33333333      -0.00000000 </v>
   <v>       0.33333333       0.33333333       0.00000000 </v>
   <v>       0.50000000       0.33333333      -0.00000000 </v>
   <v>      -0.33333333       0.33333333      -0.00000000 </v>
   <v>      -0.16666667       0.33333333      -0.00000000 </v>
   <v>       0.00000000       0.50000000      -0.00000000 </v>
   <v>       0.16666667       0.50000000      -0.00000000 </v>
   <v>       0.33333333       0.50000000       0.00000000 </v>
   <v>       0.50000000       0.50000000       0.00000000 </v>
   <v>      -0.33333333       0.50000000      -0.00000000 </v>
   <v>      -0.16666667       0.50000000      -0.00000000 </v>
   <v>       0.00000000      -0.33333333       0.00000000 </v>
   <v>       0.16666667      -0.33333333       0.00000000 </v>
   <v>       0.33333333      -0.33333333       0.00000000 </v>
   <v>       0.50000000      -0.33333333       0.00000000 </v>
   <v>      -0.33333333      -0.33333333      -0.00000000 </v>
   <v>      -0.16666667      -0.33333333       0.00000000 </v>
   <v>       0.00000000      -0.16666667       0.00000000 </v>
   <v>       0.16666667      -0.16666667       0.00000000 </v>
   <v>       0.33333333      -0.16666667       0.00000000 </v>
   <v>       0.50000000      -0.16666667       0.00000000 </v>
   <v>      -0.33333333      -0.16666667       0.00000000 </v>
   <v>      -0.16666667      -0.16666667       0.00000000 </v>
   <v>       0.00000000       0.00000000       0.16666667 </v>
   <v>       0.16666667      -0.00000000       0.16666667 </v>
   <v>       0.33333333      -0.00000000       0.16666667 </v>
   <v>       0.50000000      -0.00000000       0.16666667 </v>
   <v>      -0.33333333       0.00000000       0.16666667 </v>
   <v>      -0.16666667       0.00000000       0.16666667 </v>
   <v>      -0.00000000       0.16666667       0.16666667 </v>
   <v>       0.16666667       0.16666667       0.16666667 </v>
   <v>       0.33333333       0.16666667       0.16666667 </v>
   <v>       0.50000000       0.16666667       0.16666667 </v>
   <v>      -0.33333333       0.16666667       0.16666667 </v>
   <v>      -0.16666667       0.16666667       0.16666667 </v>
   <v>       0.00000000       0.33333333       0.16666667 </v>
   <v>       0.16666667       0.33333333       0.16666667 </v>
   <v>       0.33333333       0.33333333       0.16666667 </v>
   <v>       0.50000000       0.33333333       0.16666667 </v>
   <v>      -0.33333333       0.33333333       0.16666667 </v>
   <v>      -0.16666667       0.33333333       0.16666667 </v>
   <v>       0.00000000       0.50000000       0.16666667 </v>
   <v>       0.16666667       0.50000000       0.16666667 </v>
   <v>       0.33333333       0.50000000       0.16666667 </v>
   <v>       0.50000000       0.50000000       0.16666667 </v>
   <v>      -0.33333333       0.50000000       0.16666667 </v>
   <v>      -0.16666667       0.50000000       0.16666667 </v>
   <v>       0.00000000      -0.33333333       0.16666667 </v>
   <v>       0.16666667      -0.33333333       0.16666667 </v>
   <v>       0.33333333      -0.33333333       0.16666667 </v>
   <v>       0.50000000      -0.33333333       0.16666667 </v>
   <v>      -0.33333333      -0.33333333       0.16666667 </v>
   <v>      -0.16666667      -0.33333333       0.16666667 </v>
   <v>       0.00000000      -0.16666667       0.16666667 </v>
   <v>       0.16666667      -0.16666667       0.16666667 </v>
   <v>       0.33333333      -0.16666667       0.16666667 </v>
   <v>       0.50000000      -0.16666667       0.16666667 </v>
   <v>      -0.33333333      -0.16666667       0.16666667 </v>
   <v>      -0.16666667      -0.16666667       0.16666667 </v>
   <v>       0.00000000       0.00000000       0.33333333 </v>
   <v>       0.16666667      -0.00000000       0.33333333 </v>
   <v>       0.33333333      -0.00000000       0.33333333 </v>
   <v>       0.50000000      -0.00000000       0.33333333 </v>
   <v>      -0.33333333       0.00000000       0.33333333 </v>
   <v>      -0.16666667       0.00000000       0.33333333 </v>
   <v>      -0.00000000       0.16666667       0.33333333 </v>
   <v>       0.16666667       0.16666667       0.33333333 </v>
   <v>       0.33333333       0.16666667       0.33333333 </v>
   <v>       0.50000000       0.16666667       0.33333333 </v>
   <v>      -0.33333333       0.16666667       0.33333333 </v>
   <v>      -0.16666667       0.16666667       0.33333333 </v>
   <v>       0.00000000       0.33333333       0.33333333 </v>
   <v>       0.16666667       0.33333333       0.33333333 </v>
   <v>       0.33333333       0.33333333       0.33333333 </v>
   <v>       0.50000000       0.33333333       0.33333333 </v>
   <v>      -0.33333333       0.33333333       0.33333333 </v>
   <v>      -0.16666667       0.33333333       0.33333333 </v>
   <v>       0.00000000       0.50000000       0.33333333 </v>
   <v>       0.16666667       0.50000000       0.33333333 </v>
   <v>       0.33333333       0.50000000       0.33333333 </v>
   <v>       0.50000000       0.50000000       0.33333333 </v>
   <v>      -0.33333333       0.50000000       0.33333333 </v>
   <v>      -0.16666667       0.50000000       0.33333333 </v>
   <v>      -0.00000000      -0.33333333       0.33333333 </v>
   <v>       0.16666667      -0.33333333       0.33333333 </v>
   <v>       0.33333333      -0.33333333       0.33333333 </v>
   <v>       0.50000000      -0.33333333       0.33333333 </v>
   <v>      -0.33333333      -0.33333333       0.33333333 </v>
   <v>      -0.16666667      -0.33333333       0.33333333 </v>
   <v>       0.00000000      -0.16666667       0.33333333 </v>
   <v>       0.16666667      -0.16666667       0.33333333 </v>
   <v>       0.33333333      -0.16666667       0.33333333 </v>
   <v>       0.50000000      -0.16666667       0.33333333 </v>
   <v>      -0.33333333      -0.16666667       0.33333333 </v>
   <v>      -0.16666667      -0.16666667       0.33333333 </v>
   <v>       0.00000000       0.00000000       0.50000000 </v>
   <v>       0.16666667       0.00000000       0.50000000 </v>
   <v>       0.33333333      -0.00000000       0.50000000 </v>
   <v>       0.50000000      -0.00000000       0.50000000 </v>
   <v>      -0.33333333       0.00000000       0.50000000 </v>
   <v>      -0.16666667       0.00000000       0.50000000 </v>
   <v>      -0.00000000       0.16666667       0.50000000 </v>
   <v>       0.16666667       0.16666667       0.50000000 </v>
   <v>       0.33333333       0.16666667       0.50000000 </v>
   <v>       0.50000000       0.16666667       0.50000000 </v>
   <v>      -0.33333333       0.16666667       0.50000000 </v>
   <v>      -0.16666667       0.16666667       0.50000000 </v>
   <v>       0.00000000       0.33333333       0.50000000 </v>
   <v>       0.16666667       0.33333333       0.50000000 </v>
   <v>       0.33333333       0.33333333       0.50000000 </v>
   <v>       0.50000000       0.33333333       0.50000000 </v>
   <v>      -0.33333333       0.33333333       0.50000000 </v>
   <v>      -0.16666667       0.33333333       0.50000000 </v>
   <v>       0.00000000       0.50000000       0.50000000 </v>
   <v>       0.16666667       0.50000000       0.50000000 </v>
   <v>       0.33333333       0.50000000       0.50000000 </v>
   <v>       0.50000000       0.50000000       0.50000000 </v>
   <v>      -0.33333333       0.50000000       0.50000000 </v>
   <v>      -0.16666667       0.50000000       0.50000000 </v>
   <v>       0.00000000      -0.33333333       0.50000000 </v>
   <v>       0.16666667      -0.33333333       0.50000000 </v>
   <v>       0.33333333      -0.33333333       0.50000000 </v>
   <v>       0.50000000      -0.33333333       0.50000000 </v>
   <v>      -0.33333333      -0.33333333       0.50000000 </v>
   <v>      -0.16666667      -0.33333333       0.50000000 </v>
   <v>       0.00000000      -0.16666667       0.50000000 </v>
   <v>       0.16666667      -0.16666667       0.50000000 </v>
   <v>       0.33333333      -0.16666667       0.50000000 </v>
   <v>       0.50000000      -0.16666667       0.50000000 </v>
   <v>      -0.33333333      -0.16666667       0.50000000 </v>
   <v>      -0.16666667      -0.16666667       0.50000000 </v>
   <v>       0.00000000      -0.00000000      -0.33333333 </v>
   <v>       0.16666667      -0.00000000      -0.33333333 </v>
   <v>       0.33333333      -0.00000000      -0.33333333 </v>
   <v>       0.50000000      -0.00000000      -0.33333333 </v>
   <v>      -0.33333333       0.00000000      -0.33333333 </v>
   <v>      -0.16666667       0.00000000      -0.33333333 </v>
   <v>      -0.00000000       0.16666667      -0.33333333 </v>
   <v>       0.16666667       0.16666667      -0.33333333 </v>
   <v>       0.33333333       0.16666667      -0.33333333 </v>
   <v>       0.50000000       0.16666667      -0.33333333 </v>
   <v>      -0.33333333       0.16666667      -0.33333333 </v>
   <v>      -0.16666667       0.16666667      -0.33333333 </v>
   <v>       0.00000000       0.33333333      -0.33333333 </v>
   <v>       0.16666667       0.33333333      -0.33333333 </v>
   <v>       0.33333333       0.33333333      -0.33333333 </v>
   <v>       0.50000000       0.33333333      -0.33333333 </v>
   <v>      -0.33333333       0.33333333      -0.33333333 </v>
   <v>      -0.16666667       0.33333333      -0.33333333 </v>
   <v>       0.00000000       0.50000000      -0.33333333 </v>
   <v>       0.16666667       0.50000000      -0.33333333 </v>
   <v>       0.33333333       0.50000000      -0.33333333 </v>
   <v>       0.50000000       0.50000000      -0.33333333 </v>
   <v>      -0.33333333       0.50000000      -0.33333333 </v>
   <v>      -0.16666667       0.50000000      -0.33333333 </v>
   <v>       0.00000000      -0.33333333      -0.33333333 </v>
   <v>       0.16666667      -0.33333333      -0.33333333 </v>
   <v>       0.33333333      -0.33333333      -0.33333333 </v>
   <v>       0.50000000      -0.33333333      -0.33333333 </v>
   <v>      -0.33333333      -0.33333333      -0.33333333 </v>
   <v>      -0.16666667      -0.33333333      -0.33333333 </v>
   <v>       0.00000000      -0.16666667      -0.33333333 </v>
   <v>       0.16666667      -0.16666667      -0.33333333 </v>
   <v>       0.33333333      -0.16666667      -0.33333333 </v>
   <v>       0.50000000      -0.16666667      -0.33333333 </v>
   <v>      -0.33333333      -0.16666667      -0.33333333 </v>
   <v>      -0.16666667      -0.16666667      -0.33333333 </v>
   <v>       0.00000000      -0.00000000      -0.16666667 </v>
   <v>       0.16666667      -0.00000000      -0.16666667 </v>
   <v>       0.33333333      -0.00000000      -0.16666667 </v>
   <v>       0.50000000      -0.00000000      -0.16666667 </v>
   <v>      -0.33333333       0.00000000      -0.16666667 </v>
   <v>      -0.16666667       0.00000000      -0.16666667 </v>
   <v>       0.00000000       0.16666667      -0.16666667 </v>
   <v>       0.16666667       0.16666667      -0.16666667 </v>
   <v>       0.33333333       0.16666667      -0.16666667 </v>
   <v>       0.50000000       0.16666667      -0.16666667 </v>
   <v>      -0.33333333       0.16666667      -0.16666667 </v>
   <v>      -0.16666667       0.16666667      -0.16666667 </v>
   <v>       0.00000000       0.33333333      -0.16666667 </v>
   <v>       0.16666667       0.33333333      -0.16666667 </v>
   <v>       0.33333333       0.33333333      -0.16666667 </v>
   <v>       0.50000000       0.33333333      -0.16666667 </v>
   <v>      -0.33333333       0.33333333      -0.16666667 </v>
   <v>      -0.16666667       0.33333333      -0.16666667 </v>
   <v>       0.00000000       0.50000000      -0.16666667 </v>
   <v>       0.16666667       0.50000000      -0.16666667 </v>
   <v>       0.33333333       0.50000000      -0.16666667 </v>
   <v>       0.50000000       0.50000000      -0.16666667 </v>
   <v>      -0.33333333       0.50000000      -0.16666667 </v>
   <v>      -0.16666667       0.50000000      -0.16666667 </v>
   <v>      -0.00000000      -0.33333333      -0.16666667 </v>
   <v>       0.16666667      -0.33333333      -0.16666667 </v>
   <v>       0.33333333      -0.33333333      -0.16666667 </v>
   <v>       0.50000000      -0.33333333      -0.16666667 </v>
   <v>      -0.33333333      -0.33333333      -0.16666667 </v>
   <v>      -0.16666667      -0.33333333      -0.16666667 </v>
   <v>       0.00000000      -0.16666667      -0.16666667 </v>
   <v>       0.16666667      -0.16666667      -0.16666667 </v>
   <v>       0.33333333      -0.16666667      -0.16666667 </v>
   <v>       0.50000000      -0.16666667      -0.16666667 </v>
   <v>      -0.33333333      -0.16666667      -0.16666667 </v>
   <v>      -0.16666667      -0.16666667      -0.16666667 </v>
  </varray>
  <varray name="weights" >
   <v>       0.00462963 </v>
   <v>       0.00462963 </v>
   <v>       0.00462963 </v>
   <v>       0.00462963 </v>
   <v>       0.00462963 </v>
   <v>       0.00462963 </v>
   <v>       0.00462963 </v>
   <v>       0.00462963 </v>
   <v>       0.00462963 </v>
   <v>       0.00462963 </v>
   <v>       0.00462963 </v>
   <v>       0.00462963 </v>
   <v>       0.00462963 </v>
   <v>       0.00462963 </v>
   <v>       0.00462963 </v>
   <v>       0.00462963 </v>
   <v>       0.00462963 </v>
   <v>       0.00462963 </v>
   <v>       0.00462963 </v>
   <v>       0.00462963 </v>
   <v>       0.00462963 </v>
   <v>       0.00462963 </v>
   <v>       0.00462963 </v>
   <v>       0.00462963 </v>
   <v>       0.00462963 </v>
   <v>       0.00462963 </v>
   <v>       0.00462963 </v>
   <v>       0.00462963 </v>
   <v>       0.00462963 </v>
   <v>       0.00462963 </v>
   <v>       0.00462963 </v>
   <v>       0.00462963 </v>
   <v>       0.00462963 </v>
   <v>       0.00462963 </v>
   <v>       0.00462963 </v>
   <v>       0.00462963 </v>
   <v>       0.00462963 </v>
   <v>       0.00462963 </v>
   <v>       0.00462963 </v>
   <v>       0.00462963 </v>
   <v>       0.00462963 </v>
   <v>       0.00462963 </v>
   <v>       0.00462963 </v>
   <v>       0.00462963 </v>
   <v>       0.00462963 </v>
   <v>       0.00462963 </v>
   <v>       0.00462963 </v>
   <v>       0.00462963 </v>
   <v>       0.00462963 </v>
   <v>       0.00462963 </v>
   <v>       0.00462963 </v>
   <v>       0.00462963 </v>
   <v>       0.00462963 </v>
   <v>       0.00462963 </v>
   <v>       0.00462963 </v>
   <v>       0.00462963 </v>
   <v>       0.00462963 </v>
   <v>       0.00462963 </v>
   <v>       0.00462963 </v>
   <v>       0.00462963 </v>
   <v>       0.00462963 </v>
   <v>       0.00462963 </v>
   <v>       0.00462963 </v>
   <v>       0.00462963 </v>
   <v>       0.00462963 </v>
   <v>       0.00462963 </v>
   <v>       0.00462963 </v>
   <v>       0.00462963 </v>
   <v>       0.00462963 </v>
   <v>       0.00462963 </v>
   <v>       0.00462963 </v>
   <v>       0.00462963 </v>
   <v>       0.00462963 </v>
   <v>       0.00462963 </v>
   <v>       0.00462963 </v>
   <v>       0.00462963 </v>
   <v>       0.00462963 </v>
   <v>       0.00462963 </v>
   <v>       0.00462963 </v>
   <v>       0.00462963 </v>
   <v>       0.00462963 </v>
   <v>       0.00462963 </v>
   <v>       0.00462963 </v>
   <v>       0.00462963 </v>
   <v>       0.00462963 </v>
   <v>       0.00462963 </v>
   <v>       0.00462963 </v>
   <v>       0.00462963 </v>
   <v>       0.00462963 </v>
   <v>       0.00462963 </v>
   <v>       0.00462963 </v>
   <v>       0.00462963 </v>
   <v>       0.00462963 </v>
   <v>       0.00462963 </v>
   <v>       0.00462963 </v>
   <v>       0.00462963 </v>
   <v>       0.00462963 </v>
   <v>       0.00462963 </v>
   <v>       0.00462963 </v>
   <v>       0.00462963 </v>
   <v>       0.00462963 </v>
   <v>       0.00462963 </v>
   <v>       0.00462963 </v>
   <v>       0.00462963 </v>
   <v>       0.00462963 </v>
   <v>       0.00462963 </v>
   <v>       0.00462963 </v>
   <v>       0.00462963 </v>
   <v>       0.00462963 </v>
   <v>       0.00462963 </v>
   <v>       0.00462963 </v>
   <v>       0.00462963 </v>
   <v>       0.00462963 </v>
   <v>       0.00462963 </v>
   <v>       0.00462963 </v>
   <v>       0.00462963 </v>
   <v>       0.00462963 </v>
   <v>       0.00462963 </v>
   <v>       0.00462963 </v>
   <v>       0.00462963 </v>
   <v>       0.00462963 </v>
   <v>       0.00462963 </v>
   <v>       0.00462963 </v>
   <v>       0.00462963 </v>
   <v>       0.00462963 </v>
   <v>       0.00462963 </v>
   <v>       0.00462963 </v>
   <v>       0.00462963 </v>
   <v>       0.00462963 </v>
   <v>       0.00462963 </v>
   <v>       0.00462963 </v>
   <v>       0.00462963 </v>
   <v>       0.00462963 </v>
   <v>       0.00462963 </v>
   <v>       0.00462963 </v>
   <v>       0.00462963 </v>
   <v>       0.00462963 </v>
   <v>       0.00462963 </v>
   <v>       0.00462963 </v>
   <v>       0.00462963 </v>
   <v>       0.00462963 </v>
   <v>       0.00462963 </v>
   <v>       0.00462963 </v>
   <v>       0.00462963 </v>
   <v>       0.00462963 </v>
   <v>       0.00462963 </v>
   <v>       0.00462963 </v>
   <v>       0.00462963 </v>
   <v>       0.00462963 </v>
   <v>       0.00462963 </v>
   <v>       0.00462963 </v>
   <v>       0.00462963 </v>
   <v>       0.00462963 </v>
   <v>       0.00462963 </v>
   <v>       0.00462963 </v>
   <v>       0.00462963 </v>
   <v>       0.00462963 </v>
   <v>       0.00462963 </v>
   <v>       0.00462963 </v>
   <v>       0.00462963 </v>
   <v>       0.00462963 </v>
   <v>       0.00462963 </v>
   <v>       0.00462963 </v>
   <v>       0.00462963 </v>
   <v>       0.00462963 </v>
   <v>       0.00462963 </v>
   <v>       0.00462963 </v>
   <v>       0.00462963 </v>
   <v>       0.00462963 </v>
   <v>       0.00462963 </v>
   <v>       0.00462963 </v>
   <v>       0.00462963 </v>
   <v>       0.00462963 </v>
   <v>       0.00462963 </v>
   <v>       0.00462963 </v>
   <v>       0.00462963 </v>
   <v>       0.00462963 </v>
   <v>       0.00462963 </v>
   <v>       0.00462963 </v>
   <v>       0.00462963 </v>
   <v>       0.00462963 </v>
   <v>       0.00462963 </v>
   <v>       0.00462963 </v>
   <v>       0.00462963 </v>
   <v>       0.00462963 </v>
   <v>       0.00462963 </v>
   <v>       0.00462963 </v>
   <v>       0.00462963 </v>
   <v>       0.00462963 </v>
   <v>       0.00462963 </v>
   <v>       0.00462963 </v>
   <v>       0.00462963 </v>
   <v>       0.00462963 </v>
   <v>       0.00462963 </v>
   <v>       0.00462963 </v>
   <v>       0.00462963 </v>
   <v>       0.00462963 </v>
   <v>       0.00462963 </v>
   <v>       0.00462963 </v>
   <v>       0.00462963 </v>
   <v>       0.00462963 </v>
   <v>       0.00462963 </v>
   <v>       0.00462963 </v>
   <v>       0.00462963 </v>
   <v>       0.00462963 </v>
   <v>       0.00462963 </v>
   <v>       0.00462963 </v>
   <v>       0.00462963 </v>
   <v>       0.00462963 </v>
   <v>       0.00462963 </v>
   <v>       0.00462963 </v>
   <v>       0.00462963 </v>
   <v>       0.00462963 </v>
   <v>       0.00462963 </v>
   <v>       0.00462963 </v>
   <v>       0.00462963 </v>
  </varray>
 </kpoints>
 <parameters>
  <separator name="general" >
   <i type="string" name="SYSTEM">Og_FCC</i>
   <i type="logical" name="LCOMPAT"> F  </i>
  </separator>
  <separator name="electronic" >
   <i type="string" name="PREC">accura</i>
   <i name="ENMAX">    300.00000000</i>
   <i name="ENAUG">    361.02500000</i>
   <i name="EDIFF">      0.00000010</i>
   <i type="int" name="IALGO">    53</i>
   <i type="int" name="IWAVPR">    10</i>
   <i type="int" name="NBANDS">    28</i>
   <i name="NELECT">     18.00000000</i>
   <i type="int" name="TURBO">     0</i>
   <i type="int" name="IRESTART">     0</i>
   <i type="int" name="NREBOOT">     0</i>
   <i type="int" name="NMIN">     0</i>
   <i name="EREF">      0.00000000</i>
   <separator name="electronic smearing" >
    <i type="int" name="ISMEAR">     0</i>
    <i name="SIGMA">      0.05000000</i>
    <i name="KSPACING">      0.50000000</i>
    <i type="logical" name="KGAMMA"> T  </i>
   </separator>
   <separator name="electronic projectors" >
    <i type="logical" name="LREAL"> F  </i>
    <v name="ROPT">      0.00000000</v>
    <i type="int" name="LMAXPAW">  -100</i>
    <i type="int" name="LMAXMIX">     2</i>
    <i type="logical" name="NLSPLINE"> F  </i>
   </separator>
   <separator name="electronic startup" >
    <i type="int" name="ISTART">     0</i>
    <i type="int" name="ICHARG">     2</i>
    <i type="int" name="INIWAV">     1</i>
   </separator>
   <separator name="electronic spin" >
    <i type="int" name="ISPIN">     1</i>
    <i type="logical" name="LNONCOLLINEAR"> T  </i>
    <v name="MAGMOM">      1.00000000      1.00000000      1.00000000</v>
    <i name="NUPDOWN">     -1.00000000</i>
    <i type="logical" name="LSORBIT"> T  </i>
    <v name="SAXIS">      0.00000000      0.00000000      1.00000000</v>
    <i type="logical" name="LSPIRAL"> F  </i>
    <v name="QSPIRAL">      0.00000000      0.00000000      0.00000000</v>
    <i type="logical" name="LZEROZ"> F  </i>
   </separator>
   <separator name="electronic exchange-correlation" >
    <i type="logical" name="LASPH"> F  </i>
    <i type="logical" name="LMETAGGA"> F  </i>
   </separator>
   <separator name="electronic convergence" >
    <i type="int" name="NELM">    50</i>
    <i type="int" name="NELMDL">    -5</i>
    <i type="int" name="NELMIN">     2</i>
    <i name="ENINI">    300.00000000</i>
    <separator name="electronic convergence detail" >
     <i type="logical" name="LDIAG"> T  </i>
     <i type="logical" name="LSUBROT"> F  </i>
     <i name="WEIMIN">      0.00000000</i>
     <i name="EBREAK">      0.00000000</i>
     <i name="DEPER">      0.30000000</i>
     <i type="int" name="NRMM">     4</i>
     <i name="TIME">      0.60000000</i>
    </separator>
   </separator>
   <separator name="electronic mixer" >
    <i name="AMIX">      0.40000000</i>
    <i name="BMIX">      1.00000000</i>
    <i name="AMIN">      0.10000000</i>
    <i name="AMIX_MAG">      1.60000000</i>
    <i name="BMIX_MAG">      1.00000000</i>
    <separator name="electronic mixer details" >
     <i type="int" name="IMIX">     4</i>
     <i type="logical" name="MIXFIRST"> F  </i>
     <i type="int" name="MAXMIX">    50</i>
     <i name="WC">    100.00000000</i>
     <i type="int" name="INIMIX">     1</i>
     <i type="int" name="MIXPRE">     1</i>
     <i type="int" name="MREMOVE">     5</i>
    </separator>
   </separator>
   <separator name="electronic dipolcorrection" >
    <i type="logical" name="LDIPOL"> F  </i>
    <i type="logical" name="LMONO"> F  </i>
    <i type="int" name="IDIPOL">     0</i>
    <i name="EPSILON">      1.00000000</i>
    <v name="DIPOL">   -100.00000000   -100.00000000   -100.00000000</v>
    <i name="EFIELD">      0.00000000</i>
   </separator>
  </separator>
  <separator name="grids" >
   <i type="int" name="NGX">    28</i>
   <i type="int" name="NGY">    28</i>
   <i type="int" name="NGZ">    28</i>
   <i type="int" name="NGXF">    56</i>
   <i type="int" name="NGYF">    56</i>
   <i type="int" name="NGZF">    56</i>
   <i type="logical" name="ADDGRID"> T  </i>
  </separator>
  <separator name="ionic" >
   <i type="int" name="NSW">     1</i>
   <i type="int" name="IBRION">    -1</i>
   <i type="int" name="MDALGO">     0</i>
   <i type="int" name="ISIF">     3</i>
   <i name="PSTRESS">      0.00000000</i>
   <i name="EDIFFG">      0.00001000</i>
   <i type="int" name="NFREE">     5</i>
   <i name="POTIM">      0.10000000</i>
   <i name="SMASS">     -3.00000000</i>
   <i name="SCALEE">      1.00000000</i>
  </separator>
  <separator name="ionic md" >
   <i name="TEBEG">      0.00010000</i>
   <i name="TEEND">      0.00010000</i>
   <i type="int" name="NBLOCK">     1</i>
   <i type="int" name="KBLOCK">     1</i>
   <i type="int" name="NPACO">   256</i>
   <i name="APACO">     16.00000000</i>
  </separator>
  <separator name="symmetry" >
   <i type="int" name="ISYM">     0</i>
   <i name="SYMPREC">      0.00000010</i>
  </separator>
  <separator name="dos" >
   <i type="int" name="LORBIT">     0</i>
   <v name="RWIGS">     -1.00000000</v>
   <i type="int" name="NEDOS">   301</i>
   <i name="EMIN">     10.00000000</i>
   <i name="EMAX">    -10.00000000</i>
   <i name="EFERMI">      0.00000000</i>
  </separator>
  <separator name="writing" >
   <i type="int" name="NWRITE">     2</i>
   <i type="logical" name="LWAVE"> T  </i>
   <i type="logical" name="LDOWNSAMPLE"> F  </i>
   <i type="logical" name="LCHARG"> F  </i>
   <i type="logical" name="LPARD"> F  </i>
   <i type="logical" name="LVTOT"> F  </i>
   <i type="logical" name="LVHAR"> F  </i>
   <i type="logical" name="LELF"> F  </i>
   <i type="logical" name="LOPTICS"> F  </i>
   <v name="STM">      0.00000000      0.00000000      0.00000000      0.00000000      0.00000000      0.00000000      0.00000000</v>
  </separator>
  <separator name="performance" >
   <i type="int" name="NPAR">     2</i>
   <i type="int" name="NSIM">     4</i>
   <i type="int" name="NBLK">    -1</i>
   <i type="logical" name="LPLANE"> T  </i>
   <i type="logical" name="LSCALAPACK"> T  </i>
   <i type="logical" name="LSCAAWARE"> F  </i>
   <i type="logical" name="LSCALU"> F  </i>
   <i type="logical" name="LASYNC"> F  </i>
   <i type="logical" name="LORBITALREAL"> F  </i>
  </separator>
  <separator name="miscellaneous" >
   <i type="int" name="IDIOT">     3</i>
   <i type="int" name="ISPECIAL">     0</i>
   <i type="logical" name="LMUSIC"> F  </i>
   <v name="POMASS">      0.01000000</v>
   <v name="DARWINR">      0.00000000</v>
   <v name="DARWINV">      1.00000000</v>
   <i type="logical" name="LCORR"> T  </i>
  </separator>
  <i type="logical" name="GGA_COMPAT"> F  </i>
  <i type="logical" name="LBERRY"> F  </i>
  <i type="int" name="ICORELEVEL">     0</i>
  <i type="logical" name="LDAU"> F  </i>
  <i type="int" name="I_CONSTRAINED_M">     0</i>
  <separator name="electronic exchange-correlation" >
   <i type="string" name="GGA">PE</i>
   <i type="int" name="VOSKOWN">     0</i>
   <i type="logical" name="LHFCALC"> T  </i>
   <i type="string" name="PRECFOCK">normal</i>
   <i type="logical" name="LSYMGRAD"> F  </i>
   <i type="logical" name="LHFONE"> F  </i>
   <i type="logical" name="LRHFCALC"> F  </i>
   <i type="logical" name="LTHOMAS"> F  </i>
   <i type="logical" name="LMODELHF"> F  </i>
   <i name="ENCUT4O">     -1.00000000</i>
   <i type="int" name="EXXOEP">     0</i>
   <i type="int" name="FOURORBIT">     0</i>
   <i name="AEXX">      0.25000000</i>
   <i name="HFALPHA">     -1.00000000</i>
   <i name="MCALPHA">      0.00000000</i>
   <i name="ALDAX">      0.75000000</i>
   <i name="AGGAX">      0.75000000</i>
   <i name="ALDAC">      1.00000000</i>
   <i name="AGGAC">      1.00000000</i>
   <i type="int" name="NKREDX">     2</i>
   <i type="int" name="NKREDY">     2</i>
   <i type="int" name="NKREDZ">     2</i>
   <i type="logical" name="SHIFTRED"> F  </i>
   <i type="logical" name="ODDONLY"> F  </i>
   <i type="logical" name="EVENONLY"> F  </i>
   <i type="int" name="LMAXFOCK">     4</i>
   <i type="int" name="NMAXFOCKAE">     1</i>
   <i type="logical" name="LFOCKAEDFT"> F  </i>
   <i name="HFSCREEN">      0.20000000</i>
   <i name="HFSCREENC">      0.20000000</i>
   <i type="int" name="NBANDSGWLOW">     1</i>
  </separator>
  <separator name="vdW DFT" >
   <i type="logical" name="LUSE_VDW"> F  </i>
   <i name="Zab_VDW">     -0.84910000</i>
   <i name="PARAM1">      0.12340000</i>
   <i name="PARAM2">      1.00000000</i>
   <i name="PARAM3">      0.00000000</i>
  </separator>
  <separator name="model GW" >
   <i type="int" name="MODEL_GW">     0</i>
   <i name="MODEL_EPS0">     36.05064879</i>
   <i name="MODEL_ALPHA">      1.00000000</i>
  </separator>
  <separator name="linear response parameters" >
   <i type="logical" name="LEPSILON"> F  </i>
   <i type="logical" name="LRPA"> F  </i>
   <i type="logical" name="LNABLA"> F  </i>
   <i type="logical" name="LVEL"> F  </i>
   <i type="int" name="KINTER">     0</i>
   <i name="CSHIFT">      0.10000000</i>
   <i name="OMEGAMAX">     -1.00000000</i>
   <i name="DEG_THRESHOLD">      0.00200000</i>
   <i name="RTIME">     -0.10000000</i>
   <i name="WPLASMAI">      0.00000000</i>
   <v name="DFIELD">      0.00000000      0.00000000      0.00000000</v>
   <v name="WPLASMA">      0.00000000      0.00000000      0.00000000      0.00000000      0.00000000      0.00000000      0.00000000      0.00000000      0.00000000</v>
  </separator>
  <separator name="orbital magnetization" >
   <i type="logical" name="NUCIND"> F  </i>
   <v name="MAGPOS">      0.00000000      0.00000000      0.00000000</v>
   <i type="logical" name="LNICSALL"> T  </i>
   <i type="logical" name="ORBITALMAG"> F  </i>
   <i type="logical" name="LMAGBLOCH"> F  </i>
   <i type="logical" name="LCHIMAG"> F  </i>
   <i type="logical" name="LGAUGE"> T  </i>
   <i type="int" name="MAGATOM">     0</i>
   <v name="MAGDIPOL">      0.00000000      0.00000000      0.00000000</v>
   <v name="AVECCONST">      0.00000000      0.00000000      0.00000000</v>
  </separator>
  <separator name="response functions" >
   <i type="logical" name="LADDER"> F  </i>
   <i type="logical" name="LRPAFORCE"> F  </i>
   <i type="logical" name="LFXC"> F  </i>
   <i type="logical" name="LHARTREE"> T  </i>
   <i type="int" name="IBSE">     0</i>
   <v type="int" name="KPOINT">    -1     0     0     0</v>
   <i type="logical" name="LTCTE"> F  </i>
   <i type="logical" name="LTETE"> F  </i>
   <i type="logical" name="LTRIPLET"> F  </i>
   <i type="logical" name="LFXCEPS"> F  </i>
   <i type="logical" name="LFXHEG"> F  </i>
   <i type="int" name="NATURALO">     2</i>
   <i type="logical" name="L2ORDER"> F  </i>
   <i type="logical" name="LMP2LT"> F  </i>
   <i type="logical" name="LUSEW"> F  </i>
   <i name="ENCUTGW">     -2.00000000</i>
   <i name="ENCUTGWSOFT">     -2.00000000</i>
   <i name="ENCUTLF">     -1.00000000</i>
   <i type="int" name="LMAXMP2">    -1</i>
   <i name="SCISSOR">      0.00000000</i>
   <i type="int" name="NOMEGA">     0</i>
   <i type="int" name="NOMEGAR">     0</i>
   <i type="int" name="NBANDSGW">    -1</i>
   <i type="int" name="NBANDSO">    -1</i>
   <i type="int" name="NBANDSV">    -1</i>
   <i type="int" name="NELM">    50</i>
   <i type="int" name="NELMHF">     1</i>
   <i type="int" name="DIM">     3</i>
   <i type="int" name="ANTIRES">     0</i>
   <i name="OMEGAMAX">    -30.00000000</i>
   <i name="OMEGAMIN">    -30.00000000</i>
   <i name="OMEGATL">   -200.00000000</i>
   <i type="int" name="OMEGAGRID">   140</i>
   <i name="CSHIFT">     -0.10000000</i>
   <i type="logical" name="SELFENERGY"> F  </i>
   <i type="logical" name="LSPECTRAL"> F  </i>
   <i type="logical" name="LSPECTRALGW"> F  </i>
   <i type="logical" name="LSINGLES"> F  </i>
   <i type="logical" name="LFERMIGW"> F  </i>
   <i type="logical" name="ODDONLYGW"> F  </i>
   <i type="logical" name="EVENONLYGW"> F  </i>
   <i type="int" name="NKREDLFX">     1</i>
   <i type="int" name="NKREDLFY">     1</i>
   <i type="int" name="NKREDLFZ">     1</i>
   <i type="int" name="MAXMEM">  2800</i>
   <i type="int" name="TELESCOPE">     0</i>
   <i type="int" name="TAUPAR">     1</i>
   <i type="int" name="OMEGAPAR">    -1</i>
   <i name="LAMBDA">      1.00000000</i>
  </separator>
  <separator name="External order field" >
   <i name="OFIELD_KAPPA">      0.00000000</i>
   <v name="OFIELD_K">      0.00000000      0.00000000      0.00000000</v>
   <i name="OFIELD_Q6_NEAR">      0.00000000</i>
   <i name="OFIELD_Q6_FAR">      0.00000000</i>
   <i name="OFIELD_A">      0.00000000</i>
  </separator>
 </parameters>
 <atominfo>
  <atoms>       1 </atoms>
  <types>       1 </types>
  <array name="atoms" >
   <dimension dim="1">ion</dimension>
   <field type="string">element</field>
   <field type="int">atomtype</field>
   <set>
    <rc><c>Og</c><c>   1</c></rc>
   </set>
  </array>
  <array name="atomtypes" >
   <dimension dim="1">type</dimension>
   <field type="int">atomspertype</field>
   <field type="string">element</field>
   <field>mass</field>
   <field>valence</field>
   <field type="string">pseudopotential</field>
   <set>
    <rc><c>   1</c><c>Og</c><c>      0.01000000</c><c>     18.00000000</c><c>  PAW Og, JanMewes Oct 18               </c></rc>
   </set>
  </array>
 </atominfo>
 <structure name="initialpos" >
  <crystal>
   <varray name="basis" >
    <v>       4.39635018       0.00000000       0.00000000 </v>
    <v>       2.19817509       3.80735094      -0.00000000 </v>
    <v>       2.19817509       1.26911698       3.58960489 </v>
   </varray>
   <i name="volume">     60.08441465 </i>
   <varray name="rec_basis" >
    <v>       0.22746141      -0.13132490      -0.09286073 </v>
    <v>       0.00000000       0.26264981      -0.09286073 </v>
    <v>      -0.00000000       0.00000000       0.27858219 </v>
   </varray>
  </crystal>
  <varray name="positions" >
   <v>       0.00000000       0.00000000       0.00000000 </v>
  </varray>
  <varray name="velocities" >
   <v>       0.00000000       0.00000000       0.00000000 </v>
  </varray>
 </structure>
 <calculation>
  <scstep>
   <time name="total">    2.24    2.24</time>
   <energy>
    <i name="alphaZ">     63.49827359 </i>
    <i name="ewald">  -1720.24414233 </i>
    <i name="hartreedc">   -673.98211291 </i>
    <i name="XCdc">    -55.41475888 </i>
    <i name="pawpsdc">   2254.42671922 </i>
    <i name="pawaedc">  -2193.40431754 </i>
    <i name="eentropy">     -0.00071291 </i>
    <i name="bandstr">    -27.57032669 </i>
    <i name="atom">   2660.77110554 </i>
    <i name="e_fr_energy">    308.07972709 </i>
    <i name="e_wo_entrp">    308.08044000 </i>
    <i name="e_0_energy">    308.08008354 </i>
   </energy>
  </scstep>
  <scstep>
   <time name="total">    1.88    1.88</time>
   <energy>
    <i name="e_fr_energy">     60.94191097 </i>
    <i name="e_wo_entrp">     60.94216638 </i>
    <i name="e_0_energy">     60.94203868 </i>
   </energy>
  </scstep>
  <scstep>
   <time name="total">    1.90    1.90</time>
   <energy>
    <i name="e_fr_energy">     30.22095713 </i>
    <i name="e_wo_entrp">     30.22099389 </i>
    <i name="e_0_energy">     30.22097551 </i>
   </energy>
  </scstep>
  <scstep>
   <time name="total">    2.03    2.03</time>
   <energy>
    <i name="e_fr_energy">     26.62826949 </i>
    <i name="e_wo_entrp">     26.62828508 </i>
    <i name="e_0_energy">     26.62827728 </i>
   </energy>
  </scstep>
  <scstep>
   <time name="total">    2.27    2.26</time>
   <energy>
    <i name="e_fr_energy">     26.33830856 </i>
    <i name="e_wo_entrp">     26.33838881 </i>
    <i name="e_0_energy">     26.33834869 </i>
   </energy>
  </scstep>
  <scstep>
   <time name="total">   66.45   66.40</time>
   <energy>
    <i name="e_fr_energy">    -12.68677909 </i>
    <i name="e_wo_entrp">    -12.68675297 </i>
    <i name="e_0_energy">    -12.68676603 </i>
   </energy>
  </scstep>
  <scstep>
   <time name="total">   66.12   66.09</time>
   <energy>
    <i name="e_fr_energy">    -12.65653189 </i>
    <i name="e_wo_entrp">    -12.65652050 </i>
    <i name="e_0_energy">    -12.65652620 </i>
   </energy>
  </scstep>
  <scstep>
   <time name="total">   66.13   66.08</time>
   <energy>
    <i name="e_fr_energy">    -12.58373915 </i>
    <i name="e_wo_entrp">    -12.58373161 </i>
    <i name="e_0_energy">    -12.58373538 </i>
   </energy>
  </scstep>
  <scstep>
   <time name="total">   66.15   66.10</time>
   <energy>
    <i name="e_fr_energy">    -12.59942208 </i>
    <i name="e_wo_entrp">    -12.59933545 </i>
    <i name="e_0_energy">    -12.59937877 </i>
   </energy>
  </scstep>
  <scstep>
   <time name="total">   66.09   66.04</time>
   <energy>
    <i name="e_fr_energy">    -12.69872108 </i>
    <i name="e_wo_entrp">    -12.69854922 </i>
    <i name="e_0_energy">    -12.69863515 </i>
   </energy>
  </scstep>
  <scstep>
   <time name="total">   66.32   66.28</time>
   <energy>
    <i name="e_fr_energy">    -12.88001168 </i>
    <i name="e_wo_entrp">    -12.87983591 </i>
    <i name="e_0_energy">    -12.87992379 </i>
   </energy>
  </scstep>
  <scstep>
   <time name="total">   66.73   66.70</time>
   <energy>
    <i name="e_fr_energy">    -13.00700283 </i>
    <i name="e_wo_entrp">    -13.00695424 </i>
    <i name="e_0_energy">    -13.00697853 </i>
   </energy>
  </scstep>
  <scstep>
   <time name="total">   66.36   66.34</time>
   <energy>
    <i name="e_fr_energy">    -13.05631457 </i>
    <i name="e_wo_entrp">    -13.05631182 </i>
    <i name="e_0_energy">    -13.05631319 </i>
   </energy>
  </scstep>
  <scstep>
   <time name="total">   66.25   66.23</time>
   <energy>
    <i name="e_fr_energy">    -13.06489447 </i>
    <i name="e_wo_entrp">    -13.06489441 </i>
    <i name="e_0_energy">    -13.06489444 </i>
   </energy>
  </scstep>
  <scstep>
   <time name="total">   66.15   66.13</time>
   <energy>
    <i name="e_fr_energy">    -13.06609735 </i>
    <i name="e_wo_entrp">    -13.06609735 </i>
    <i name="e_0_energy">    -13.06609735 </i>
   </energy>
  </scstep>
  <scstep>
   <time name="total">   66.25   66.27</time>
   <energy>
    <i name="e_fr_energy">    -13.06691712 </i>
    <i name="e_wo_entrp">    -13.06691712 </i>
    <i name="e_0_energy">    -13.06691712 </i>
   </energy>
  </scstep>
  <scstep>
   <time name="total">   66.12   66.07</time>
   <energy>
    <i name="e_fr_energy">    -13.06706163 </i>
    <i name="e_wo_entrp">    -13.06706163 </i>
    <i name="e_0_energy">    -13.06706163 </i>
   </energy>
  </scstep>
  <scstep>
   <time name="total">   66.39   66.35</time>
   <energy>
    <i name="e_fr_energy">    -13.06711478 </i>
    <i name="e_wo_entrp">    -13.06711478 </i>
    <i name="e_0_energy">    -13.06711478 </i>
   </energy>
  </scstep>
  <scstep>
   <time name="total">   66.22   66.21</time>
   <energy>
    <i name="e_fr_energy">    -13.06713384 </i>
    <i name="e_wo_entrp">    -13.06713384 </i>
    <i name="e_0_energy">    -13.06713384 </i>
   </energy>
  </scstep>
  <scstep>
   <time name="total">   66.39   66.35</time>
   <energy>
    <i name="e_fr_energy">    -13.06713906 </i>
    <i name="e_wo_entrp">    -13.06713906 </i>
    <i name="e_0_energy">    -13.06713906 </i>
   </energy>
  </scstep>
  <scstep>
   <time name="total">   66.37   66.71</time>
   <energy>
    <i name="e_fr_energy">    -13.06714215 </i>
    <i name="e_wo_entrp">    -13.06714215 </i>
    <i name="e_0_energy">    -13.06714215 </i>
   </energy>
  </scstep>
  <scstep>
   <time name="total">   66.19   66.15</time>
   <energy>
    <i name="e_fr_energy">    -13.06714338 </i>
    <i name="e_wo_entrp">    -13.06714338 </i>
    <i name="e_0_energy">    -13.06714338 </i>
   </energy>
  </scstep>
  <scstep>
   <time name="total">   66.26   66.21</time>
   <energy>
    <i name="e_fr_energy">    -13.06714404 </i>
    <i name="e_wo_entrp">    -13.06714404 </i>
    <i name="e_0_energy">    -13.06714404 </i>
   </energy>
  </scstep>
  <scstep>
   <time name="total">   66.18   66.13</time>
   <energy>
    <i name="e_fr_energy">    -13.06714440 </i>
    <i name="e_wo_entrp">    -13.06714440 </i>
    <i name="e_0_energy">    -13.06714440 </i>
   </energy>
  </scstep>
  <scstep>
   <time name="total">   66.02   65.98</time>
   <energy>
    <i name="e_fr_energy">    -13.06714464 </i>
    <i name="e_wo_entrp">    -13.06714464 </i>
    <i name="e_0_energy">    -13.06714464 </i>
   </energy>
  </scstep>
  <scstep>
   <time name="total">   66.46   66.41</time>
   <energy>
    <i name="e_fr_energy">    -13.06714479 </i>
    <i name="e_wo_entrp">    -13.06714479 </i>
    <i name="e_0_energy">    -13.06714479 </i>
   </energy>
  </scstep>
  <scstep>
   <time name="total">  131.85  131.75</time>
   <energy>
    <i name="alphaZ">     63.49827359 </i>
    <i name="ewald">  -1720.24414233 </i>
    <i name="hartreedc">   -694.72918074 </i>
    <i name="XCdc">    -55.05421940 </i>
    <i name="pawpsdc">   2357.63473904 </i>
    <i name="pawaedc">  -2306.06829830 </i>
    <i name="eentropy">     -0.00000000 </i>
    <i name="bandstr">   -358.68441134 </i>
    <i name="atom">   2660.77110554 </i>
    <i name="e_fr_energy">    -13.06714488 </i>
    <i name="e_wo_entrp">    -13.06714488 </i>
    <i name="e_0_energy">    -13.06714488 </i>
   </energy>
  </scstep>
  <structure>
   <crystal>
    <varray name="basis" >
     <v>       4.39635018       0.00000000       0.00000000 </v>
     <v>       2.19817509       3.80735094      -0.00000000 </v>
     <v>       2.19817509       1.26911698       3.58960489 </v>
    </varray>
    <i name="volume">     60.08441465 </i>
    <varray name="rec_basis" >
     <v>       0.22746141      -0.13132490      -0.09286073 </v>
     <v>       0.00000000       0.26264981      -0.09286073 </v>
     <v>      -0.00000000       0.00000000       0.27858219 </v>
    </varray>
   </crystal>
   <varray name="positions" >
    <v>       0.00000000       0.00000000       0.00000000 </v>
   </varray>
  </structure>
  <varray name="forces" >
   <v>      -0.00000556       0.00000378      -0.00000428 </v>
  </varray>
  <varray name="stress" >
   <v>    -124.88415424      -0.00296794      -0.00213172 </v>
   <v>      -0.00296760    -124.88064968      -0.00123264 </v>
   <v>      -0.00213141      -0.00123380    -124.87964574 </v>
  </varray>
  <energy>
   <i name="e_fr_energy">    -13.06714488 </i>
   <i name="e_wo_entrp">    -13.06714488 </i>
   <i name="e_0_energy">     -0.00000000 </i>
  </energy>
  <time name="totalsc"> 1629.52 1629.11</time>
  <eigenvalues>
   <array>
    <dimension dim="1">band</dimension>
    <dimension dim="2">kpoint</dimension>
    <dimension dim="3">spin</dimension>
    <field>eigene</field>
    <field>occ</field>
    <set>
     <set comment="spin 1">
      <set comment="kpoint 1">
       <r>  -34.1955    1.0000 </r>
       <r>  -34.1955    1.0000 </r>
       <r>  -34.1955    1.0000 </r>
       <r>  -34.1955    1.0000 </r>
       <r>  -27.2297    1.0000 </r>
       <r>  -27.2297    1.0000 </r>
       <r>  -27.2236    1.0000 </r>
       <r>  -27.2236    1.0000 </r>
       <r>  -27.2236    1.0000 </r>
       <r>  -27.2236    1.0000 </r>
       <r>  -22.7221    1.0000 </r>
       <r>  -22.7221    1.0000 </r>
       <r>   -8.2227    1.0000 </r>
       <r>   -8.2227    1.0000 </r>
       <r>    2.9761    1.0000 </r>
       <r>    2.9761    1.0000 </r>
       <r>    2.9761    1.0000 </r>
       <r>    2.9761    1.0000 </r>
       <r>    3.4113    0.0000 </r>
       <r>    3.4113    0.0000 </r>
       <r>   10.9291    0.0000 </r>
       <r>   10.9291    0.0000 </r>
       <r>   10.9292    0.0000 </r>
       <r>   10.9306    0.0000 </r>
       <r>   11.2318    0.0000 </r>
       <r>   11.2384    0.0000 </r>
       <r>   11.3708    0.0000 </r>
       <r>   11.3795    0.0000 </r>
      </set>
      <set comment="kpoint 2">
       <r>  -34.1876    1.0000 </r>
       <r>  -34.1876    1.0000 </r>
       <r>  -34.1748    1.0000 </r>
       <r>  -34.1748    1.0000 </r>
       <r>  -27.2213    1.0000 </r>
       <r>  -27.2213    1.0000 </r>
       <r>  -27.2106    1.0000 </r>
       <r>  -27.2106    1.0000 </r>
       <r>  -27.2082    1.0000 </r>
       <r>  -27.2082    1.0000 </r>
       <r>  -22.6833    1.0000 </r>
       <r>  -22.6833    1.0000 </r>
       <r>   -8.3025    1.0000 </r>
       <r>   -8.3024    1.0000 </r>
       <r>    1.3574    1.0000 </r>
       <r>    1.3574    1.0000 </r>
       <r>    2.8435    1.0000 </r>
       <r>    2.8436    1.0000 </r>
       <r>    5.1305    0.0000 </r>
       <r>    5.1305    0.0000 </r>
       <r>    9.8400    0.0000 </r>
       <r>    9.8401    0.0000 </r>
       <r>   11.1244    0.0000 </r>
       <r>   11.1386    0.0000 </r>
       <r>   11.3376    0.0000 </r>
       <r>   11.4332    0.0000 </r>
       <r>   12.4380    0.0000 </r>
       <r>   12.6071    0.0000 </r>
      </set>
      <set comment="kpoint 3">
       <r>  -34.1696    1.0000 </r>
       <r>  -34.1696    1.0000 </r>
       <r>  -34.1617    1.0000 </r>
       <r>  -34.1617    1.0000 </r>
       <r>  -27.2076    1.0000 </r>
       <r>  -27.2076    1.0000 </r>
       <r>  -27.2022    1.0000 </r>
       <r>  -27.2022    1.0000 </r>
       <r>  -27.2018    1.0000 </r>
       <r>  -27.2018    1.0000 </r>
       <r>  -22.6416    1.0000 </r>
       <r>  -22.6416    1.0000 </r>
       <r>   -8.4917    1.0000 </r>
       <r>   -8.4916    1.0000 </r>
       <r>    0.1641    1.0000 </r>
       <r>    0.1642    1.0000 </r>
       <r>    2.5522    1.0000 </r>
       <r>    2.5522    1.0000 </r>
       <r>    6.0142    0.0000 </r>
       <r>    6.0142    0.0000 </r>
       <r>   10.3264    0.0000 </r>
       <r>   10.3264    0.0000 </r>
       <r>   10.6767    0.0000 </r>
       <r>   10.6768    0.0000 </r>
       <r>   10.9899    0.0000 </r>
       <r>   10.9900    0.0000 </r>
       <r>   11.4649    0.0000 </r>
       <r>   11.4653    0.0000 </r>
      </set>
      <set comment="kpoint 4">
       <r>  -34.1868    1.0000 </r>
       <r>  -34.1868    1.0000 </r>
       <r>  -34.1857    1.0000 </r>
       <r>  -34.1857    1.0000 </r>
       <r>  -27.2184    1.0000 </r>
       <r>  -27.2184    1.0000 </r>
       <r>  -27.2135    1.0000 </r>
       <r>  -27.2135    1.0000 </r>
       <r>  -27.2118    1.0000 </r>
       <r>  -27.2118    1.0000 </r>
       <r>  -22.5981    1.0000 </r>
       <r>  -22.5981    1.0000 </r>
       <r>   -8.5780    1.0000 </r>
       <r>   -8.5780    1.0000 </r>
       <r>   -0.2666    1.0000 </r>
       <r>   -0.2666    1.0000 </r>
       <r>    2.4297    1.0000 </r>
       <r>    2.4297    1.0000 </r>
       <r>    6.0536    0.0000 </r>
       <r>    6.0536    0.0000 </r>
       <r>   10.3686    0.0000 </r>
       <r>   10.3686    0.0000 </r>
       <r>   10.5755    0.0000 </r>
       <r>   10.5756    0.0000 </r>
       <r>   10.6412    0.0000 </r>
       <r>   10.6412    0.0000 </r>
       <r>   12.1883    0.0000 </r>
       <r>   12.1932    0.0000 </r>
      </set>
      <set comment="kpoint 5">
       <r>  -34.1696    1.0000 </r>
       <r>  -34.1696    1.0000 </r>
       <r>  -34.1617    1.0000 </r>
       <r>  -34.1617    1.0000 </r>
       <r>  -27.2076    1.0000 </r>
       <r>  -27.2076    1.0000 </r>
       <r>  -27.2022    1.0000 </r>
       <r>  -27.2022    1.0000 </r>
       <r>  -27.2018    1.0000 </r>
       <r>  -27.2018    1.0000 </r>
       <r>  -22.6416    1.0000 </r>
       <r>  -22.6416    1.0000 </r>
       <r>   -8.4917    1.0000 </r>
       <r>   -8.4916    1.0000 </r>
       <r>    0.1641    1.0000 </r>
       <r>    0.1642    1.0000 </r>
       <r>    2.5522    1.0000 </r>
       <r>    2.5522    1.0000 </r>
       <r>    6.0142    0.0000 </r>
       <r>    6.0143    0.0000 </r>
       <r>   10.3264    0.0000 </r>
       <r>   10.3265    0.0000 </r>
       <r>   10.6767    0.0000 </r>
       <r>   10.6769    0.0000 </r>
       <r>   10.9899    0.0000 </r>
       <r>   10.9900    0.0000 </r>
       <r>   11.4650    0.0000 </r>
       <r>   11.4656    0.0000 </r>
      </set>
      <set comment="kpoint 6">
       <r>  -34.1876    1.0000 </r>
       <r>  -34.1876    1.0000 </r>
       <r>  -34.1748    1.0000 </r>
       <r>  -34.1748    1.0000 </r>
       <r>  -27.2213    1.0000 </r>
       <r>  -27.2213    1.0000 </r>
       <r>  -27.2106    1.0000 </r>
       <r>  -27.2106    1.0000 </r>
       <r>  -27.2082    1.0000 </r>
       <r>  -27.2082    1.0000 </r>
       <r>  -22.6833    1.0000 </r>
       <r>  -22.6833    1.0000 </r>
       <r>   -8.3025    1.0000 </r>
       <r>   -8.3024    1.0000 </r>
       <r>    1.3574    1.0000 </r>
       <r>    1.3574    1.0000 </r>
       <r>    2.8435    1.0000 </r>
       <r>    2.8436    1.0000 </r>
       <r>    5.1305    0.0000 </r>
       <r>    5.1305    0.0000 </r>
       <r>    9.8400    0.0000 </r>
       <r>    9.8400    0.0000 </r>
       <r>   11.1244    0.0000 </r>
       <r>   11.1304    0.0000 </r>
       <r>   11.3386    0.0000 </r>
       <r>   11.3485    0.0000 </r>
       <r>   12.3738    0.0000 </r>
       <r>   12.6546    0.0000 </r>
      </set>
      <set comment="kpoint 7">
       <r>  -34.1876    1.0000 </r>
       <r>  -34.1876    1.0000 </r>
       <r>  -34.1748    1.0000 </r>
       <r>  -34.1748    1.0000 </r>
       <r>  -27.2213    1.0000 </r>
       <r>  -27.2213    1.0000 </r>
       <r>  -27.2106    1.0000 </r>
       <r>  -27.2106    1.0000 </r>
       <r>  -27.2082    1.0000 </r>
       <r>  -27.2082    1.0000 </r>
       <r>  -22.6833    1.0000 </r>
       <r>  -22.6833    1.0000 </r>
       <r>   -8.3025    1.0000 </r>
       <r>   -8.3024    1.0000 </r>
       <r>    1.3574    1.0000 </r>
       <r>    1.3574    1.0000 </r>
       <r>    2.8435    1.0000 </r>
       <r>    2.8435    1.0000 </r>
       <r>    5.1305    0.0000 </r>
       <r>    5.1305    0.0000 </r>
       <r>    9.8400    0.0000 </r>
       <r>    9.8400    0.0000 </r>
       <r>   11.1241    0.0000 </r>
       <r>   11.1257    0.0000 </r>
       <r>   11.3390    0.0000 </r>
       <r>   11.3400    0.0000 </r>
       <r>   12.4104    0.0000 </r>
       <r>   12.6309    0.0000 </r>
      </set>
      <set comment="kpoint 8">
       <r>  -34.1706    1.0000 </r>
       <r>  -34.1706    1.0000 </r>
       <r>  -34.1577    1.0000 </r>
       <r>  -34.1577    1.0000 </r>
       <r>  -27.2088    1.0000 </r>
       <r>  -27.2088    1.0000 </r>
       <r>  -27.1992    1.0000 </r>
       <r>  -27.1992    1.0000 </r>
       <r>  -27.1962    1.0000 </r>
       <r>  -27.1962    1.0000 </r>
       <r>  -22.6715    1.0000 </r>
       <r>  -22.6715    1.0000 </r>
       <r>   -8.3277    1.0000 </r>
       <r>   -8.3277    1.0000 </r>
       <r>    1.2373    1.0000 </r>
       <r>    1.2373    1.0000 </r>
       <r>    2.5164    1.0000 </r>
       <r>    2.5164    1.0000 </r>
       <r>    5.6480    0.0000 </r>
       <r>    5.6480    0.0000 </r>
       <r>    9.2494    0.0000 </r>
       <r>    9.2494    0.0000 </r>
       <r>   10.6928    0.0000 </r>
       <r>   10.6928    0.0000 </r>
       <r>   11.3960    0.0000 </r>
       <r>   11.3963    0.0000 </r>
       <r>   12.0475    0.0000 </r>
       <r>   12.0505    0.0000 </r>
      </set>
      <set comment="kpoint 9">
       <r>  -34.1876    1.0000 </r>
       <r>  -34.1876    1.0000 </r>
       <r>  -34.1778    1.0000 </r>
       <r>  -34.1778    1.0000 </r>
       <r>  -27.2175    1.0000 </r>
       <r>  -27.2175    1.0000 </r>
       <r>  -27.2127    1.0000 </r>
       <r>  -27.2127    1.0000 </r>
       <r>  -27.2088    1.0000 </r>
       <r>  -27.2088    1.0000 </r>
       <r>  -22.6296    1.0000 </r>
       <r>  -22.6296    1.0000 </r>
       <r>   -8.4747    1.0000 </r>
       <r>   -8.4747    1.0000 </r>
       <r>    0.3604    1.0000 </r>
       <r>    0.3604    1.0000 </r>
       <r>    2.1156    1.0000 </r>
       <r>    2.1156    1.0000 </r>
       <r>    6.6584    0.0000 </r>
       <r>    6.6584    0.0000 </r>
       <r>    9.1015    0.0000 </r>
       <r>    9.1015    0.0000 </r>
       <r>    9.6630    0.0000 </r>
       <r>    9.6630    0.0000 </r>
       <r>   11.6665    0.0000 </r>
       <r>   11.6702    0.0000 </r>
       <r>   12.9718    0.0000 </r>
       <r>   13.5467    0.0000 </r>
      </set>
      <set comment="kpoint 10">
       <r>  -34.1882    1.0000 </r>
       <r>  -34.1882    1.0000 </r>
       <r>  -34.1803    1.0000 </r>
       <r>  -34.1803    1.0000 </r>
       <r>  -27.2146    1.0000 </r>
       <r>  -27.2146    1.0000 </r>
       <r>  -27.2133    1.0000 </r>
       <r>  -27.2133    1.0000 </r>
       <r>  -27.2100    1.0000 </r>
       <r>  -27.2100    1.0000 </r>
       <r>  -22.5880    1.0000 </r>
       <r>  -22.5880    1.0000 </r>
       <r>   -8.5906    1.0000 </r>
       <r>   -8.5906    1.0000 </r>
       <r>   -0.1759    1.0000 </r>
       <r>   -0.1759    1.0000 </r>
       <r>    1.7904    1.0000 </r>
       <r>    1.7904    1.0000 </r>
       <r>    6.9628    0.0000 </r>
       <r>    6.9628    0.0000 </r>
       <r>    8.8976    0.0000 </r>
       <r>    8.8976    0.0000 </r>
       <r>   10.7457    0.0000 </r>
       <r>   10.7458    0.0000 </r>
       <r>   11.4059    0.0000 </r>
       <r>   11.4063    0.0000 </r>
       <r>   13.1017    0.0000 </r>
       <r>   13.6914    0.0000 </r>
      </set>
      <set comment="kpoint 11">
       <r>  -34.1783    1.0000 </r>
       <r>  -34.1783    1.0000 </r>
       <r>  -34.1688    1.0000 </r>
       <r>  -34.1688    1.0000 </r>
       <r>  -27.2111    1.0000 </r>
       <r>  -27.2111    1.0000 </r>
       <r>  -27.2055    1.0000 </r>
       <r>  -27.2055    1.0000 </r>
       <r>  -27.2022    1.0000 </r>
       <r>  -27.2022    1.0000 </r>
       <r>  -22.6010    1.0000 </r>
       <r>  -22.6010    1.0000 </r>
       <r>   -8.5634    1.0000 </r>
       <r>   -8.5634    1.0000 </r>
       <r>   -0.0678    1.0000 </r>
       <r>   -0.0678    1.0000 </r>
       <r>    1.8632    1.0000 </r>
       <r>    1.8632    1.0000 </r>
       <r>    7.0458    0.0000 </r>
       <r>    7.0458    0.0000 </r>
       <r>    9.0451    0.0000 </r>
       <r>    9.0451    0.0000 </r>
       <r>   10.5649    0.0000 </r>
       <r>   10.5650    0.0000 </r>
       <r>   11.2137    0.0000 </r>
       <r>   11.2140    0.0000 </r>
       <r>   13.2325    0.0000 </r>
       <r>   13.4293    0.0000 </r>
      </set>
      <set comment="kpoint 12">
       <r>  -34.1822    1.0000 </r>
       <r>  -34.1822    1.0000 </r>
       <r>  -34.1730    1.0000 </r>
       <r>  -34.1730    1.0000 </r>
       <r>  -27.2146    1.0000 </r>
       <r>  -27.2146    1.0000 </r>
       <r>  -27.2079    1.0000 </r>
       <r>  -27.2079    1.0000 </r>
       <r>  -27.2061    1.0000 </r>
       <r>  -27.2061    1.0000 </r>
       <r>  -22.6447    1.0000 </r>
       <r>  -22.6447    1.0000 </r>
       <r>   -8.4170    1.0000 </r>
       <r>   -8.4170    1.0000 </r>
       <r>    0.6001    1.0000 </r>
       <r>    0.6001    1.0000 </r>
       <r>    2.3653    1.0000 </r>
       <r>    2.3653    1.0000 </r>
       <r>    6.3263    0.0000 </r>
       <r>    6.3263    0.0000 </r>
       <r>    9.4471    0.0000 </r>
       <r>    9.4472    0.0000 </r>
       <r>   10.2345    0.0000 </r>
       <r>   10.2346    0.0000 </r>
       <r>   11.4762    0.0000 </r>
       <r>   11.4774    0.0000 </r>
       <r>   11.7402    0.0000 </r>
       <r>   11.7433    0.0000 </r>
      </set>
      <set comment="kpoint 13">
       <r>  -34.1696    1.0000 </r>
       <r>  -34.1696    1.0000 </r>
       <r>  -34.1617    1.0000 </r>
       <r>  -34.1617    1.0000 </r>
       <r>  -27.2076    1.0000 </r>
       <r>  -27.2076    1.0000 </r>
       <r>  -27.2022    1.0000 </r>
       <r>  -27.2022    1.0000 </r>
       <r>  -27.2018    1.0000 </r>
       <r>  -27.2018    1.0000 </r>
       <r>  -22.6416    1.0000 </r>
       <r>  -22.6416    1.0000 </r>
       <r>   -8.4917    1.0000 </r>
       <r>   -8.4916    1.0000 </r>
       <r>    0.1641    1.0000 </r>
       <r>    0.1643    1.0000 </r>
       <r>    2.5522    1.0000 </r>
       <r>    2.5522    1.0000 </r>
       <r>    6.0141    0.0000 </r>
       <r>    6.0142    0.0000 </r>
       <r>   10.3264    0.0000 </r>
       <r>   10.3269    0.0000 </r>
       <r>   10.6767    0.0000 </r>
       <r>   10.6774    0.0000 </r>
       <r>   10.9900    0.0000 </r>
       <r>   10.9918    0.0000 </r>
       <r>   11.4656    0.0000 </r>
       <r>   11.4723    0.0000 </r>
      </set>
      <set comment="kpoint 14">
       <r>  -34.1876    1.0000 </r>
       <r>  -34.1876    1.0000 </r>
       <r>  -34.1778    1.0000 </r>
       <r>  -34.1778    1.0000 </r>
       <r>  -27.2175    1.0000 </r>
       <r>  -27.2175    1.0000 </r>
       <r>  -27.2127    1.0000 </r>
       <r>  -27.2127    1.0000 </r>
       <r>  -27.2088    1.0000 </r>
       <r>  -27.2088    1.0000 </r>
       <r>  -22.6296    1.0000 </r>
       <r>  -22.6296    1.0000 </r>
       <r>   -8.4747    1.0000 </r>
       <r>   -8.4747    1.0000 </r>
       <r>    0.3604    1.0000 </r>
       <r>    0.3604    1.0000 </r>
       <r>    2.1156    1.0000 </r>
       <r>    2.1156    1.0000 </r>
       <r>    6.6584    0.0000 </r>
       <r>    6.6584    0.0000 </r>
       <r>    9.1015    0.0000 </r>
       <r>    9.1015    0.0000 </r>
       <r>    9.6630    0.0000 </r>
       <r>    9.6630    0.0000 </r>
       <r>   11.6665    0.0000 </r>
       <r>   11.6675    0.0000 </r>
       <r>   13.0988    0.0000 </r>
       <r>   13.2042    0.0000 </r>
      </set>
      <set comment="kpoint 15">
       <r>  -34.1890    1.0000 </r>
       <r>  -34.1890    1.0000 </r>
       <r>  -34.1887    1.0000 </r>
       <r>  -34.1887    1.0000 </r>
       <r>  -27.2209    1.0000 </r>
       <r>  -27.2209    1.0000 </r>
       <r>  -27.2176    1.0000 </r>
       <r>  -27.2176    1.0000 </r>
       <r>  -27.2175    1.0000 </r>
       <r>  -27.2175    1.0000 </r>
       <r>  -22.6152    1.0000 </r>
       <r>  -22.6152    1.0000 </r>
       <r>   -8.5606    1.0000 </r>
       <r>   -8.5606    1.0000 </r>
       <r>    0.1304    1.0000 </r>
       <r>    0.1305    1.0000 </r>
       <r>    1.6911    1.0000 </r>
       <r>    1.6911    1.0000 </r>
       <r>    6.6920    0.0000 </r>
       <r>    6.6921    0.0000 </r>
       <r>    8.0985    0.0000 </r>
       <r>    8.0985    0.0000 </r>
       <r>    9.9765    0.0000 </r>
       <r>    9.9766    0.0000 </r>
       <r>   12.7836    0.0000 </r>
       <r>   12.7845    0.0000 </r>
       <r>   13.9226    0.0000 </r>
       <r>   13.9309    0.0000 </r>
      </set>
      <set comment="kpoint 16">
       <r>  -34.1837    1.0000 </r>
       <r>  -34.1837    1.0000 </r>
       <r>  -34.1796    1.0000 </r>
       <r>  -34.1796    1.0000 </r>
       <r>  -27.2126    1.0000 </r>
       <r>  -27.2126    1.0000 </r>
       <r>  -27.2114    1.0000 </r>
       <r>  -27.2114    1.0000 </r>
       <r>  -27.2090    1.0000 </r>
       <r>  -27.2090    1.0000 </r>
       <r>  -22.5730    1.0000 </r>
       <r>  -22.5730    1.0000 </r>
       <r>   -8.6342    1.0000 </r>
       <r>   -8.6342    1.0000 </r>
       <r>   -0.1180    1.0000 </r>
       <r>   -0.1180    1.0000 </r>
       <r>    1.2560    1.0000 </r>
       <r>    1.2560    1.0000 </r>
       <r>    6.8033    0.0000 </r>
       <r>    6.8033    0.0000 </r>
       <r>    8.3178    0.0000 </r>
       <r>    8.3178    0.0000 </r>
       <r>   10.3588    0.0000 </r>
       <r>   10.3588    0.0000 </r>
       <r>   12.7935    0.0000 </r>
       <r>   12.7951    0.0000 </r>
       <r>   14.0882    0.0000 </r>
       <r>   14.1242    0.0000 </r>
      </set>
      <set comment="kpoint 17">
       <r>  -34.1934    1.0000 </r>
       <r>  -34.1934    1.0000 </r>
       <r>  -34.1875    1.0000 </r>
       <r>  -34.1875    1.0000 </r>
       <r>  -27.2217    1.0000 </r>
       <r>  -27.2217    1.0000 </r>
       <r>  -27.2191    1.0000 </r>
       <r>  -27.2191    1.0000 </r>
       <r>  -27.2165    1.0000 </r>
       <r>  -27.2165    1.0000 </r>
       <r>  -22.5877    1.0000 </r>
       <r>  -22.5877    1.0000 </r>
       <r>   -8.6417    1.0000 </r>
       <r>   -8.6417    1.0000 </r>
       <r>   -0.1283    1.0000 </r>
       <r>   -0.1283    1.0000 </r>
       <r>    1.1136    1.0000 </r>
       <r>    1.1136    1.0000 </r>
       <r>    7.4212    0.0000 </r>
       <r>    7.4212    0.0000 </r>
       <r>    8.7696    0.0000 </r>
       <r>    8.7696    0.0000 </r>
       <r>   11.3340    0.0000 </r>
       <r>   11.3372    0.0000 </r>
       <r>   11.6354    0.0000 </r>
       <r>   11.6376    0.0000 </r>
       <r>   12.5193    0.0000 </r>
       <r>   12.9709    0.0000 </r>
      </set>
      <set comment="kpoint 18">
       <r>  -34.1783    1.0000 </r>
       <r>  -34.1783    1.0000 </r>
       <r>  -34.1688    1.0000 </r>
       <r>  -34.1688    1.0000 </r>
       <r>  -27.2111    1.0000 </r>
       <r>  -27.2111    1.0000 </r>
       <r>  -27.2055    1.0000 </r>
       <r>  -27.2055    1.0000 </r>
       <r>  -27.2022    1.0000 </r>
       <r>  -27.2022    1.0000 </r>
       <r>  -22.6010    1.0000 </r>
       <r>  -22.6010    1.0000 </r>
       <r>   -8.5634    1.0000 </r>
       <r>   -8.5634    1.0000 </r>
       <r>   -0.0678    1.0000 </r>
       <r>   -0.0678    1.0000 </r>
       <r>    1.8632    1.0000 </r>
       <r>    1.8632    1.0000 </r>
       <r>    7.0458    0.0000 </r>
       <r>    7.0458    0.0000 </r>
       <r>    9.0451    0.0000 </r>
       <r>    9.0451    0.0000 </r>
       <r>   10.5650    0.0000 </r>
       <r>   10.5650    0.0000 </r>
       <r>   11.2137    0.0000 </r>
       <r>   11.2140    0.0000 </r>
       <r>   13.2621    0.0000 </r>
       <r>   13.2794    0.0000 </r>
      </set>
      <set comment="kpoint 19">
       <r>  -34.1868    1.0000 </r>
       <r>  -34.1868    1.0000 </r>
       <r>  -34.1857    1.0000 </r>
       <r>  -34.1857    1.0000 </r>
       <r>  -27.2184    1.0000 </r>
       <r>  -27.2184    1.0000 </r>
       <r>  -27.2135    1.0000 </r>
       <r>  -27.2135    1.0000 </r>
       <r>  -27.2118    1.0000 </r>
       <r>  -27.2118    1.0000 </r>
       <r>  -22.5981    1.0000 </r>
       <r>  -22.5981    1.0000 </r>
       <r>   -8.5780    1.0000 </r>
       <r>   -8.5780    1.0000 </r>
       <r>   -0.2666    1.0000 </r>
       <r>   -0.2666    1.0000 </r>
       <r>    2.4297    1.0000 </r>
       <r>    2.4297    1.0000 </r>
       <r>    6.0536    0.0000 </r>
       <r>    6.0536    0.0000 </r>
       <r>   10.3686    0.0000 </r>
       <r>   10.3686    0.0000 </r>
       <r>   10.5755    0.0000 </r>
       <r>   10.5756    0.0000 </r>
       <r>   10.6412    0.0000 </r>
       <r>   10.6412    0.0000 </r>
       <r>   12.1885    0.0000 </r>
       <r>   12.2582    0.0000 </r>
      </set>
      <set comment="kpoint 20">
       <r>  -34.1882    1.0000 </r>
       <r>  -34.1882    1.0000 </r>
       <r>  -34.1803    1.0000 </r>
       <r>  -34.1803    1.0000 </r>
       <r>  -27.2146    1.0000 </r>
       <r>  -27.2146    1.0000 </r>
       <r>  -27.2133    1.0000 </r>
       <r>  -27.2133    1.0000 </r>
       <r>  -27.2100    1.0000 </r>
       <r>  -27.2100    1.0000 </r>
       <r>  -22.5880    1.0000 </r>
       <r>  -22.5880    1.0000 </r>
       <r>   -8.5906    1.0000 </r>
       <r>   -8.5906    1.0000 </r>
       <r>   -0.1759    1.0000 </r>
       <r>   -0.1759    1.0000 </r>
       <r>    1.7904    1.0000 </r>
       <r>    1.7904    1.0000 </r>
       <r>    6.9628    0.0000 </r>
       <r>    6.9628    0.0000 </r>
       <r>    8.8976    0.0000 </r>
       <r>    8.8976    0.0000 </r>
       <r>   10.7457    0.0000 </r>
       <r>   10.7458    0.0000 </r>
       <r>   11.4059    0.0000 </r>
       <r>   11.4062    0.0000 </r>
       <r>   13.1013    0.0000 </r>
       <r>   13.3739    0.0000 </r>
      </set>
      <set comment="kpoint 21">
       <r>  -34.1837    1.0000 </r>
       <r>  -34.1837    1.0000 </r>
       <r>  -34.1796    1.0000 </r>
       <r>  -34.1796    1.0000 </r>
       <r>  -27.2126    1.0000 </r>
       <r>  -27.2126    1.0000 </r>
       <r>  -27.2114    1.0000 </r>
       <r>  -27.2114    1.0000 </r>
       <r>  -27.2090    1.0000 </r>
       <r>  -27.2090    1.0000 </r>
       <r>  -22.5730    1.0000 </r>
       <r>  -22.5730    1.0000 </r>
       <r>   -8.6342    1.0000 </r>
       <r>   -8.6342    1.0000 </r>
       <r>   -0.1180    1.0000 </r>
       <r>   -0.1180    1.0000 </r>
       <r>    1.2560    1.0000 </r>
       <r>    1.2560    1.0000 </r>
       <r>    6.8033    0.0000 </r>
       <r>    6.8033    0.0000 </r>
       <r>    8.3178    0.0000 </r>
       <r>    8.3178    0.0000 </r>
       <r>   10.3588    0.0000 </r>
       <r>   10.3588    0.0000 </r>
       <r>   12.7935    0.0000 </r>
       <r>   12.7952    0.0000 </r>
       <r>   14.0896    0.0000 </r>
       <r>   14.1379    0.0000 </r>
      </set>
      <set comment="kpoint 22">
       <r>  -34.1978    1.0000 </r>
       <r>  -34.1978    1.0000 </r>
       <r>  -34.1889    1.0000 </r>
       <r>  -34.1889    1.0000 </r>
       <r>  -27.2197    1.0000 </r>
       <r>  -27.2197    1.0000 </r>
       <r>  -27.2191    1.0000 </r>
       <r>  -27.2191    1.0000 </r>
       <r>  -27.2149    1.0000 </r>
       <r>  -27.2149    1.0000 </r>
       <r>  -22.5590    1.0000 </r>
       <r>  -22.5590    1.0000 </r>
       <r>   -8.6598    1.0000 </r>
       <r>   -8.6598    1.0000 </r>
       <r>   -0.2336    1.0000 </r>
       <r>   -0.2336    1.0000 </r>
       <r>    1.3536    1.0000 </r>
       <r>    1.3536    1.0000 </r>
       <r>    6.2068    0.0000 </r>
       <r>    6.2068    0.0000 </r>
       <r>    7.6905    0.0000 </r>
       <r>    7.6905    0.0000 </r>
       <r>   10.9447    0.0000 </r>
       <r>   10.9448    0.0000 </r>
       <r>   15.1905    0.0000 </r>
       <r>   15.2153    0.0000 </r>
       <r>   15.2586    0.0000 </r>
       <r>   15.2937    0.0000 </r>
      </set>
      <set comment="kpoint 23">
       <r>  -34.1837    1.0000 </r>
       <r>  -34.1837    1.0000 </r>
       <r>  -34.1796    1.0000 </r>
       <r>  -34.1796    1.0000 </r>
       <r>  -27.2126    1.0000 </r>
       <r>  -27.2126    1.0000 </r>
       <r>  -27.2114    1.0000 </r>
       <r>  -27.2114    1.0000 </r>
       <r>  -27.2090    1.0000 </r>
       <r>  -27.2090    1.0000 </r>
       <r>  -22.5730    1.0000 </r>
       <r>  -22.5730    1.0000 </r>
       <r>   -8.6342    1.0000 </r>
       <r>   -8.6342    1.0000 </r>
       <r>   -0.1180    1.0000 </r>
       <r>   -0.1180    1.0000 </r>
       <r>    1.2560    1.0000 </r>
       <r>    1.2560    1.0000 </r>
       <r>    6.8033    0.0000 </r>
       <r>    6.8033    0.0000 </r>
       <r>    8.3178    0.0000 </r>
       <r>    8.3178    0.0000 </r>
       <r>   10.3588    0.0000 </r>
       <r>   10.3588    0.0000 </r>
       <r>   12.7936    0.0000 </r>
       <r>   12.8042    0.0000 </r>
       <r>   14.0887    0.0000 </r>
       <r>   14.5636    0.0000 </r>
      </set>
      <set comment="kpoint 24">
       <r>  -34.1882    1.0000 </r>
       <r>  -34.1882    1.0000 </r>
       <r>  -34.1803    1.0000 </r>
       <r>  -34.1803    1.0000 </r>
       <r>  -27.2146    1.0000 </r>
       <r>  -27.2146    1.0000 </r>
       <r>  -27.2133    1.0000 </r>
       <r>  -27.2133    1.0000 </r>
       <r>  -27.2100    1.0000 </r>
       <r>  -27.2100    1.0000 </r>
       <r>  -22.5880    1.0000 </r>
       <r>  -22.5880    1.0000 </r>
       <r>   -8.5906    1.0000 </r>
       <r>   -8.5906    1.0000 </r>
       <r>   -0.1759    1.0000 </r>
       <r>   -0.1759    1.0000 </r>
       <r>    1.7905    1.0000 </r>
       <r>    1.7905    1.0000 </r>
       <r>    6.9628    0.0000 </r>
       <r>    6.9628    0.0000 </r>
       <r>    8.8976    0.0000 </r>
       <r>    8.8976    0.0000 </r>
       <r>   10.7457    0.0000 </r>
       <r>   10.7458    0.0000 </r>
       <r>   11.4060    0.0000 </r>
       <r>   11.4075    0.0000 </r>
       <r>   13.1040    0.0000 </r>
       <r>   13.1376    0.0000 </r>
      </set>
      <set comment="kpoint 25">
       <r>  -34.1696    1.0000 </r>
       <r>  -34.1696    1.0000 </r>
       <r>  -34.1617    1.0000 </r>
       <r>  -34.1617    1.0000 </r>
       <r>  -27.2076    1.0000 </r>
       <r>  -27.2076    1.0000 </r>
       <r>  -27.2022    1.0000 </r>
       <r>  -27.2022    1.0000 </r>
       <r>  -27.2018    1.0000 </r>
       <r>  -27.2018    1.0000 </r>
       <r>  -22.6416    1.0000 </r>
       <r>  -22.6416    1.0000 </r>
       <r>   -8.4917    1.0000 </r>
       <r>   -8.4916    1.0000 </r>
       <r>    0.1639    1.0000 </r>
       <r>    0.1641    1.0000 </r>
       <r>    2.5522    1.0000 </r>
       <r>    2.5522    1.0000 </r>
       <r>    6.0142    0.0000 </r>
       <r>    6.0143    0.0000 </r>
       <r>   10.3265    0.0000 </r>
       <r>   10.3268    0.0000 </r>
       <r>   10.6767    0.0000 </r>
       <r>   10.6769    0.0000 </r>
       <r>   10.9899    0.0000 </r>
       <r>   10.9906    0.0000 </r>
       <r>   11.4650    0.0000 </r>
       <r>   11.4697    0.0000 </r>
      </set>
      <set comment="kpoint 26">
       <r>  -34.1783    1.0000 </r>
       <r>  -34.1783    1.0000 </r>
       <r>  -34.1688    1.0000 </r>
       <r>  -34.1688    1.0000 </r>
       <r>  -27.2111    1.0000 </r>
       <r>  -27.2111    1.0000 </r>
       <r>  -27.2055    1.0000 </r>
       <r>  -27.2055    1.0000 </r>
       <r>  -27.2022    1.0000 </r>
       <r>  -27.2022    1.0000 </r>
       <r>  -22.6010    1.0000 </r>
       <r>  -22.6010    1.0000 </r>
       <r>   -8.5634    1.0000 </r>
       <r>   -8.5634    1.0000 </r>
       <r>   -0.0678    1.0000 </r>
       <r>   -0.0678    1.0000 </r>
       <r>    1.8632    1.0000 </r>
       <r>    1.8632    1.0000 </r>
       <r>    7.0458    0.0000 </r>
       <r>    7.0458    0.0000 </r>
       <r>    9.0451    0.0000 </r>
       <r>    9.0451    0.0000 </r>
       <r>   10.5649    0.0000 </r>
       <r>   10.5650    0.0000 </r>
       <r>   11.2137    0.0000 </r>
       <r>   11.2140    0.0000 </r>
       <r>   13.2018    0.0000 </r>
       <r>   13.4125    0.0000 </r>
      </set>
      <set comment="kpoint 27">
       <r>  -34.1934    1.0000 </r>
       <r>  -34.1934    1.0000 </r>
       <r>  -34.1875    1.0000 </r>
       <r>  -34.1875    1.0000 </r>
       <r>  -27.2217    1.0000 </r>
       <r>  -27.2217    1.0000 </r>
       <r>  -27.2191    1.0000 </r>
       <r>  -27.2191    1.0000 </r>
       <r>  -27.2165    1.0000 </r>
       <r>  -27.2165    1.0000 </r>
       <r>  -22.5877    1.0000 </r>
       <r>  -22.5877    1.0000 </r>
       <r>   -8.6417    1.0000 </r>
       <r>   -8.6417    1.0000 </r>
       <r>   -0.1283    1.0000 </r>
       <r>   -0.1283    1.0000 </r>
       <r>    1.1136    1.0000 </r>
       <r>    1.1136    1.0000 </r>
       <r>    7.4212    0.0000 </r>
       <r>    7.4212    0.0000 </r>
       <r>    8.7696    0.0000 </r>
       <r>    8.7696    0.0000 </r>
       <r>   11.3340    0.0000 </r>
       <r>   11.3348    0.0000 </r>
       <r>   11.6353    0.0000 </r>
       <r>   11.6356    0.0000 </r>
       <r>   12.5146    0.0000 </r>
       <r>   12.5468    0.0000 </r>
      </set>
      <set comment="kpoint 28">
       <r>  -34.1837    1.0000 </r>
       <r>  -34.1837    1.0000 </r>
       <r>  -34.1796    1.0000 </r>
       <r>  -34.1796    1.0000 </r>
       <r>  -27.2126    1.0000 </r>
       <r>  -27.2126    1.0000 </r>
       <r>  -27.2114    1.0000 </r>
       <r>  -27.2114    1.0000 </r>
       <r>  -27.2090    1.0000 </r>
       <r>  -27.2090    1.0000 </r>
       <r>  -22.5730    1.0000 </r>
       <r>  -22.5730    1.0000 </r>
       <r>   -8.6342    1.0000 </r>
       <r>   -8.6342    1.0000 </r>
       <r>   -0.1180    1.0000 </r>
       <r>   -0.1180    1.0000 </r>
       <r>    1.2560    1.0000 </r>
       <r>    1.2560    1.0000 </r>
       <r>    6.8033    0.0000 </r>
       <r>    6.8033    0.0000 </r>
       <r>    8.3178    0.0000 </r>
       <r>    8.3178    0.0000 </r>
       <r>   10.3588    0.0000 </r>
       <r>   10.3588    0.0000 </r>
       <r>   12.7937    0.0000 </r>
       <r>   12.7942    0.0000 </r>
       <r>   14.0883    0.0000 </r>
       <r>   14.0924    0.0000 </r>
      </set>
      <set comment="kpoint 29">
       <r>  -34.1890    1.0000 </r>
       <r>  -34.1890    1.0000 </r>
       <r>  -34.1887    1.0000 </r>
       <r>  -34.1887    1.0000 </r>
       <r>  -27.2209    1.0000 </r>
       <r>  -27.2209    1.0000 </r>
       <r>  -27.2176    1.0000 </r>
       <r>  -27.2176    1.0000 </r>
       <r>  -27.2175    1.0000 </r>
       <r>  -27.2175    1.0000 </r>
       <r>  -22.6152    1.0000 </r>
       <r>  -22.6152    1.0000 </r>
       <r>   -8.5606    1.0000 </r>
       <r>   -8.5606    1.0000 </r>
       <r>    0.1302    1.0000 </r>
       <r>    0.1304    1.0000 </r>
       <r>    1.6911    1.0000 </r>
       <r>    1.6911    1.0000 </r>
       <r>    6.6921    0.0000 </r>
       <r>    6.6922    0.0000 </r>
       <r>    8.0985    0.0000 </r>
       <r>    8.0985    0.0000 </r>
       <r>    9.9766    0.0000 </r>
       <r>    9.9766    0.0000 </r>
       <r>   12.7836    0.0000 </r>
       <r>   12.7842    0.0000 </r>
       <r>   13.9188    0.0000 </r>
       <r>   13.9568    0.0000 </r>
      </set>
      <set comment="kpoint 30">
       <r>  -34.1876    1.0000 </r>
       <r>  -34.1876    1.0000 </r>
       <r>  -34.1778    1.0000 </r>
       <r>  -34.1778    1.0000 </r>
       <r>  -27.2175    1.0000 </r>
       <r>  -27.2175    1.0000 </r>
       <r>  -27.2127    1.0000 </r>
       <r>  -27.2127    1.0000 </r>
       <r>  -27.2088    1.0000 </r>
       <r>  -27.2088    1.0000 </r>
       <r>  -22.6296    1.0000 </r>
       <r>  -22.6296    1.0000 </r>
       <r>   -8.4747    1.0000 </r>
       <r>   -8.4747    1.0000 </r>
       <r>    0.3604    1.0000 </r>
       <r>    0.3604    1.0000 </r>
       <r>    2.1156    1.0000 </r>
       <r>    2.1156    1.0000 </r>
       <r>    6.6584    0.0000 </r>
       <r>    6.6584    0.0000 </r>
       <r>    9.1015    0.0000 </r>
       <r>    9.1015    0.0000 </r>
       <r>    9.6630    0.0000 </r>
       <r>    9.6630    0.0000 </r>
       <r>   11.6664    0.0000 </r>
       <r>   11.6669    0.0000 </r>
       <r>   12.9727    0.0000 </r>
       <r>   13.5087    0.0000 </r>
      </set>
      <set comment="kpoint 31">
       <r>  -34.1876    1.0000 </r>
       <r>  -34.1876    1.0000 </r>
       <r>  -34.1748    1.0000 </r>
       <r>  -34.1748    1.0000 </r>
       <r>  -27.2213    1.0000 </r>
       <r>  -27.2213    1.0000 </r>
       <r>  -27.2106    1.0000 </r>
       <r>  -27.2106    1.0000 </r>
       <r>  -27.2082    1.0000 </r>
       <r>  -27.2082    1.0000 </r>
       <r>  -22.6833    1.0000 </r>
       <r>  -22.6833    1.0000 </r>
       <r>   -8.3024    1.0000 </r>
       <r>   -8.3024    1.0000 </r>
       <r>    1.3574    1.0000 </r>
       <r>    1.3574    1.0000 </r>
       <r>    2.8435    1.0000 </r>
       <r>    2.8436    1.0000 </r>
       <r>    5.1305    0.0000 </r>
       <r>    5.1305    0.0000 </r>
       <r>    9.8400    0.0000 </r>
       <r>    9.8400    0.0000 </r>
       <r>   11.1243    0.0000 </r>
       <r>   11.1251    0.0000 </r>
       <r>   11.3374    0.0000 </r>
       <r>   11.3432    0.0000 </r>
       <r>   12.4519    0.0000 </r>
       <r>   12.6738    0.0000 </r>
      </set>
      <set comment="kpoint 32">
       <r>  -34.1822    1.0000 </r>
       <r>  -34.1822    1.0000 </r>
       <r>  -34.1730    1.0000 </r>
       <r>  -34.1730    1.0000 </r>
       <r>  -27.2146    1.0000 </r>
       <r>  -27.2146    1.0000 </r>
       <r>  -27.2079    1.0000 </r>
       <r>  -27.2079    1.0000 </r>
       <r>  -27.2061    1.0000 </r>
       <r>  -27.2061    1.0000 </r>
       <r>  -22.6447    1.0000 </r>
       <r>  -22.6447    1.0000 </r>
       <r>   -8.4170    1.0000 </r>
       <r>   -8.4170    1.0000 </r>
       <r>    0.6001    1.0000 </r>
       <r>    0.6001    1.0000 </r>
       <r>    2.3653    1.0000 </r>
       <r>    2.3653    1.0000 </r>
       <r>    6.3263    0.0000 </r>
       <r>    6.3263    0.0000 </r>
       <r>    9.4471    0.0000 </r>
       <r>    9.4471    0.0000 </r>
       <r>   10.2345    0.0000 </r>
       <r>   10.2346    0.0000 </r>
       <r>   11.4760    0.0000 </r>
       <r>   11.4762    0.0000 </r>
       <r>   11.7399    0.0000 </r>
       <r>   11.7460    0.0000 </r>
      </set>
      <set comment="kpoint 33">
       <r>  -34.1783    1.0000 </r>
       <r>  -34.1783    1.0000 </r>
       <r>  -34.1688    1.0000 </r>
       <r>  -34.1688    1.0000 </r>
       <r>  -27.2111    1.0000 </r>
       <r>  -27.2111    1.0000 </r>
       <r>  -27.2055    1.0000 </r>
       <r>  -27.2055    1.0000 </r>
       <r>  -27.2022    1.0000 </r>
       <r>  -27.2022    1.0000 </r>
       <r>  -22.6010    1.0000 </r>
       <r>  -22.6010    1.0000 </r>
[...]
       <r>     2.0649     0.0000     0.0000 </r>
       <r>     2.2468     0.0000     0.0000 </r>
       <r>     2.4287     0.0000     0.0000 </r>
       <r>     2.6106     0.0000     0.0000 </r>
       <r>     2.7925     0.0000     0.0000 </r>
       <r>     2.9744     0.0000     0.0000 </r>
       <r>     3.1563     0.0000     0.0000 </r>
       <r>     3.3382     0.0000     0.0000 </r>
       <r>     3.5201     0.0000     0.0000 </r>
       <r>     3.7020     0.0000     0.0000 </r>
       <r>     3.8839     0.0000     0.0000 </r>
       <r>     4.0658     0.0000     0.0000 </r>
       <r>     4.2477     0.0000     0.0000 </r>
       <r>     4.4295     0.0000     0.0000 </r>
       <r>     4.6114     0.0000     0.0000 </r>
       <r>     4.7933     0.0000     0.0000 </r>
       <r>     4.9752     0.0000     0.0000 </r>
       <r>     5.1571     0.0000     0.0000 </r>
       <r>     5.3390     0.0000     0.0000 </r>
       <r>     5.5209     0.0000     0.0000 </r>
       <r>     5.7028     0.0000     0.0000 </r>
       <r>     5.8847     0.0000     0.0000 </r>
       <r>     6.0666     0.0000     0.0000 </r>
       <r>     6.2485     0.0000     0.0000 </r>
       <r>     6.4304     0.0000     0.0000 </r>
       <r>     6.6123     0.0000     0.0000 </r>
       <r>     6.7941     0.0000     0.0000 </r>
       <r>     6.9760     0.0000     0.0000 </r>
       <r>     7.1579     0.0000     0.0000 </r>
       <r>     7.3398     0.0000     0.0000 </r>
       <r>     7.5217     0.0000     0.0000 </r>
       <r>     7.7036     0.0000     0.0000 </r>
       <r>     7.8855     0.0000     0.0000 </r>
       <r>     8.0674     0.0000     0.0000 </r>
       <r>     8.2493     0.0000     0.0000 </r>
       <r>     8.4312     0.0000     0.0000 </r>
       <r>     8.6131     0.0000     0.0000 </r>
       <r>     8.7950     0.0000     0.0000 </r>
       <r>     8.9769     0.0000     0.0000 </r>
       <r>     9.1588     0.0000     0.0000 </r>
       <r>     9.3406     0.0000     0.0000 </r>
       <r>     9.5225     0.0000     0.0000 </r>
       <r>     9.7044     0.0000     0.0000 </r>
       <r>     9.8863     0.0000     0.0000 </r>
       <r>    10.0682     0.0000     0.0000 </r>
       <r>    10.2501     0.0000     0.0000 </r>
       <r>    10.4320     0.0000     0.0000 </r>
       <r>    10.6139     0.0000     0.0000 </r>
       <r>    10.7958     0.0000     0.0000 </r>
       <r>    10.9777     0.0000     0.0000 </r>
       <r>    11.1596     0.0000     0.0000 </r>
       <r>    11.3415     0.0000     0.0000 </r>
       <r>    11.5234     0.0000     0.0000 </r>
       <r>    11.7052     0.0000     0.0000 </r>
       <r>    11.8871     0.0000     0.0000 </r>
       <r>    12.0690     0.0000     0.0000 </r>
       <r>    12.2509     0.0000     0.0000 </r>
       <r>    12.4328     0.0000     0.0000 </r>
       <r>    12.6147     0.0000     0.0000 </r>
       <r>    12.7966     0.0000     0.0000 </r>
       <r>    12.9785     0.0000     0.0000 </r>
       <r>    13.1604     0.0000     0.0000 </r>
       <r>    13.3423     0.0000     0.0000 </r>
       <r>    13.5242     0.0000     0.0000 </r>
       <r>    13.7061     0.0000     0.0000 </r>
       <r>    13.8880     0.0000     0.0000 </r>
       <r>    14.0699     0.0000     0.0000 </r>
       <r>    14.2517     0.0000     0.0000 </r>
       <r>    14.4336     0.0000     0.0000 </r>
       <r>    14.6155     0.0000     0.0000 </r>
       <r>    14.7974     0.0000     0.0000 </r>
       <r>    14.9793     0.0000     0.0000 </r>
       <r>    15.1612     0.0000     0.0000 </r>
       <r>    15.3431     0.0000     0.0000 </r>
       <r>    15.5250     0.0000     0.0000 </r>
       <r>    15.7069     0.0000     0.0000 </r>
       <r>    15.8888     0.0000     0.0000 </r>
       <r>    16.0707     0.0000     0.0000 </r>
       <r>    16.2526     0.0000     0.0000 </r>
       <r>    16.4345     0.0000     0.0000 </r>
       <r>    16.6164     0.0000     0.0000 </r>
       <r>    16.7982     0.0000     0.0000 </r>
       <r>    16.9801     0.0000     0.0000 </r>
       <r>    17.1620     0.0000     0.0000 </r>
       <r>    17.3439     0.0000     0.0000 </r>
       <r>    17.5258     0.0000     0.0000 </r>
       <r>    17.7077     0.0000     0.0000 </r>
       <r>    17.8896     0.0000     0.0000 </r>
      </set>
      <set comment="spin 4">
       <r>   -36.6782     0.0000     0.0000 </r>
       <r>   -36.4963     0.0000     0.0000 </r>
       <r>   -36.3144     0.0000     0.0000 </r>
       <r>   -36.1325     0.0000     0.0000 </r>
       <r>   -35.9506     0.0000     0.0000 </r>
       <r>   -35.7687     0.0000     0.0000 </r>
       <r>   -35.5868     0.0000     0.0000 </r>
       <r>   -35.4049     0.0000     0.0000 </r>
       <r>   -35.2231     0.0000     0.0000 </r>
       <r>   -35.0412     0.0000     0.0000 </r>
       <r>   -34.8593     0.0000     0.0000 </r>
       <r>   -34.6774     0.0000     0.0000 </r>
       <r>   -34.4955     0.0000     0.0000 </r>
       <r>   -34.3136     0.0000     0.0000 </r>
       <r>   -34.1317     0.0000     0.0000 </r>
       <r>   -33.9498     0.0000     0.0000 </r>
       <r>   -33.7679     0.0000     0.0000 </r>
       <r>   -33.5860     0.0000     0.0000 </r>
       <r>   -33.4041     0.0000     0.0000 </r>
       <r>   -33.2222     0.0000     0.0000 </r>
       <r>   -33.0403     0.0000     0.0000 </r>
       <r>   -32.8584     0.0000     0.0000 </r>
       <r>   -32.6766     0.0000     0.0000 </r>
       <r>   -32.4947     0.0000     0.0000 </r>
       <r>   -32.3128     0.0000     0.0000 </r>
       <r>   -32.1309     0.0000     0.0000 </r>
       <r>   -31.9490     0.0000     0.0000 </r>
       <r>   -31.7671     0.0000     0.0000 </r>
       <r>   -31.5852     0.0000     0.0000 </r>
       <r>   -31.4033     0.0000     0.0000 </r>
       <r>   -31.2214     0.0000     0.0000 </r>
       <r>   -31.0395     0.0000     0.0000 </r>
       <r>   -30.8576     0.0000     0.0000 </r>
       <r>   -30.6757     0.0000     0.0000 </r>
       <r>   -30.4938     0.0000     0.0000 </r>
       <r>   -30.3119     0.0000     0.0000 </r>
       <r>   -30.1301     0.0000     0.0000 </r>
       <r>   -29.9482     0.0000     0.0000 </r>
       <r>   -29.7663     0.0000     0.0000 </r>
       <r>   -29.5844     0.0000     0.0000 </r>
       <r>   -29.4025     0.0000     0.0000 </r>
       <r>   -29.2206     0.0000     0.0000 </r>
       <r>   -29.0387     0.0000     0.0000 </r>
       <r>   -28.8568     0.0000     0.0000 </r>
       <r>   -28.6749     0.0000     0.0000 </r>
       <r>   -28.4930     0.0000     0.0000 </r>
       <r>   -28.3111     0.0000     0.0000 </r>
       <r>   -28.1292     0.0000     0.0000 </r>
       <r>   -27.9473     0.0000     0.0000 </r>
       <r>   -27.7655     0.0000     0.0000 </r>
       <r>   -27.5836     0.0000     0.0000 </r>
       <r>   -27.4017     0.0000     0.0000 </r>
       <r>   -27.2198     0.0000     0.0000 </r>
       <r>   -27.0379     0.0000     0.0000 </r>
       <r>   -26.8560     0.0000     0.0000 </r>
       <r>   -26.6741     0.0000     0.0000 </r>
       <r>   -26.4922     0.0000     0.0000 </r>
       <r>   -26.3103     0.0000     0.0000 </r>
       <r>   -26.1284     0.0000     0.0000 </r>
       <r>   -25.9465     0.0000     0.0000 </r>
       <r>   -25.7646     0.0000     0.0000 </r>
       <r>   -25.5827     0.0000     0.0000 </r>
       <r>   -25.4008     0.0000     0.0000 </r>
       <r>   -25.2190     0.0000     0.0000 </r>
       <r>   -25.0371     0.0000     0.0000 </r>
       <r>   -24.8552     0.0000     0.0000 </r>
       <r>   -24.6733     0.0000     0.0000 </r>
       <r>   -24.4914     0.0000     0.0000 </r>
       <r>   -24.3095     0.0000     0.0000 </r>
       <r>   -24.1276     0.0000     0.0000 </r>
       <r>   -23.9457     0.0000     0.0000 </r>
       <r>   -23.7638     0.0000     0.0000 </r>
       <r>   -23.5819     0.0000     0.0000 </r>
       <r>   -23.4000     0.0000     0.0000 </r>
       <r>   -23.2181     0.0000     0.0000 </r>
       <r>   -23.0362     0.0000     0.0000 </r>
       <r>   -22.8544     0.0000     0.0000 </r>
       <r>   -22.6725     0.0000     0.0000 </r>
       <r>   -22.4906     0.0000     0.0000 </r>
       <r>   -22.3087     0.0000     0.0000 </r>
       <r>   -22.1268     0.0000     0.0000 </r>
       <r>   -21.9449     0.0000     0.0000 </r>
       <r>   -21.7630     0.0000     0.0000 </r>
       <r>   -21.5811     0.0000     0.0000 </r>
       <r>   -21.3992     0.0000     0.0000 </r>
       <r>   -21.2173     0.0000     0.0000 </r>
       <r>   -21.0354     0.0000     0.0000 </r>
       <r>   -20.8535     0.0000     0.0000 </r>
       <r>   -20.6716     0.0000     0.0000 </r>
       <r>   -20.4897     0.0000     0.0000 </r>
       <r>   -20.3079     0.0000     0.0000 </r>
       <r>   -20.1260     0.0000     0.0000 </r>
       <r>   -19.9441     0.0000     0.0000 </r>
       <r>   -19.7622     0.0000     0.0000 </r>
       <r>   -19.5803     0.0000     0.0000 </r>
       <r>   -19.3984     0.0000     0.0000 </r>
       <r>   -19.2165     0.0000     0.0000 </r>
       <r>   -19.0346     0.0000     0.0000 </r>
       <r>   -18.8527     0.0000     0.0000 </r>
       <r>   -18.6708     0.0000     0.0000 </r>
       <r>   -18.4889     0.0000     0.0000 </r>
       <r>   -18.3070     0.0000     0.0000 </r>
       <r>   -18.1251     0.0000     0.0000 </r>
       <r>   -17.9433     0.0000     0.0000 </r>
       <r>   -17.7614     0.0000     0.0000 </r>
       <r>   -17.5795     0.0000     0.0000 </r>
       <r>   -17.3976     0.0000     0.0000 </r>
       <r>   -17.2157     0.0000     0.0000 </r>
       <r>   -17.0338     0.0000     0.0000 </r>
       <r>   -16.8519     0.0000     0.0000 </r>
       <r>   -16.6700     0.0000     0.0000 </r>
       <r>   -16.4881     0.0000     0.0000 </r>
       <r>   -16.3062     0.0000     0.0000 </r>
       <r>   -16.1243     0.0000     0.0000 </r>
       <r>   -15.9424     0.0000     0.0000 </r>
       <r>   -15.7605     0.0000     0.0000 </r>
       <r>   -15.5786     0.0000     0.0000 </r>
       <r>   -15.3968     0.0000     0.0000 </r>
       <r>   -15.2149     0.0000     0.0000 </r>
       <r>   -15.0330     0.0000     0.0000 </r>
       <r>   -14.8511     0.0000     0.0000 </r>
       <r>   -14.6692     0.0000     0.0000 </r>
       <r>   -14.4873     0.0000     0.0000 </r>
       <r>   -14.3054     0.0000     0.0000 </r>
       <r>   -14.1235     0.0000     0.0000 </r>
       <r>   -13.9416     0.0000     0.0000 </r>
       <r>   -13.7597     0.0000     0.0000 </r>
       <r>   -13.5778     0.0000     0.0000 </r>
       <r>   -13.3959     0.0000     0.0000 </r>
       <r>   -13.2140     0.0000     0.0000 </r>
       <r>   -13.0321     0.0000     0.0000 </r>
       <r>   -12.8503     0.0000     0.0000 </r>
       <r>   -12.6684     0.0000     0.0000 </r>
       <r>   -12.4865     0.0000     0.0000 </r>
       <r>   -12.3046     0.0000     0.0000 </r>
       <r>   -12.1227     0.0000     0.0000 </r>
       <r>   -11.9408     0.0000     0.0000 </r>
       <r>   -11.7589     0.0000     0.0000 </r>
       <r>   -11.5770     0.0000     0.0000 </r>
       <r>   -11.3951     0.0000     0.0000 </r>
       <r>   -11.2132     0.0000     0.0000 </r>
       <r>   -11.0313     0.0000     0.0000 </r>
       <r>   -10.8494     0.0000     0.0000 </r>
       <r>   -10.6675     0.0000     0.0000 </r>
       <r>   -10.4857     0.0000     0.0000 </r>
       <r>   -10.3038     0.0000     0.0000 </r>
       <r>   -10.1219     0.0000     0.0000 </r>
       <r>    -9.9400     0.0000     0.0000 </r>
       <r>    -9.7581     0.0000     0.0000 </r>
       <r>    -9.5762     0.0000     0.0000 </r>
       <r>    -9.3943     0.0000     0.0000 </r>
       <r>    -9.2124     0.0000     0.0000 </r>
       <r>    -9.0305     0.0000     0.0000 </r>
       <r>    -8.8486     0.0000     0.0000 </r>
       <r>    -8.6667     0.0000     0.0000 </r>
       <r>    -8.4848     0.0000     0.0000 </r>
       <r>    -8.3029     0.0000     0.0000 </r>
       <r>    -8.1210     0.0000     0.0000 </r>
       <r>    -7.9392     0.0000     0.0000 </r>
       <r>    -7.7573     0.0000     0.0000 </r>
       <r>    -7.5754     0.0000     0.0000 </r>
       <r>    -7.3935     0.0000     0.0000 </r>
       <r>    -7.2116     0.0000     0.0000 </r>
       <r>    -7.0297     0.0000     0.0000 </r>
       <r>    -6.8478     0.0000     0.0000 </r>
       <r>    -6.6659     0.0000     0.0000 </r>
       <r>    -6.4840     0.0000     0.0000 </r>
       <r>    -6.3021     0.0000     0.0000 </r>
       <r>    -6.1202     0.0000     0.0000 </r>
       <r>    -5.9383     0.0000     0.0000 </r>
       <r>    -5.7564     0.0000     0.0000 </r>
       <r>    -5.5746     0.0000     0.0000 </r>
       <r>    -5.3927     0.0000     0.0000 </r>
       <r>    -5.2108     0.0000     0.0000 </r>
       <r>    -5.0289     0.0000     0.0000 </r>
       <r>    -4.8470     0.0000     0.0000 </r>
       <r>    -4.6651     0.0000     0.0000 </r>
       <r>    -4.4832     0.0000     0.0000 </r>
       <r>    -4.3013     0.0000     0.0000 </r>
       <r>    -4.1194     0.0000     0.0000 </r>
       <r>    -3.9375     0.0000     0.0000 </r>
       <r>    -3.7556     0.0000     0.0000 </r>
       <r>    -3.5737     0.0000     0.0000 </r>
       <r>    -3.3918     0.0000     0.0000 </r>
       <r>    -3.2099     0.0000     0.0000 </r>
       <r>    -3.0281     0.0000     0.0000 </r>
       <r>    -2.8462     0.0000     0.0000 </r>
       <r>    -2.6643     0.0000     0.0000 </r>
       <r>    -2.4824     0.0000     0.0000 </r>
       <r>    -2.3005     0.0000     0.0000 </r>
       <r>    -2.1186     0.0000     0.0000 </r>
       <r>    -1.9367     0.0000     0.0000 </r>
       <r>    -1.7548     0.0000     0.0000 </r>
       <r>    -1.5729     0.0000     0.0000 </r>
       <r>    -1.3910     0.0000     0.0000 </r>
       <r>    -1.2091     0.0000     0.0000 </r>
       <r>    -1.0272     0.0000     0.0000 </r>
       <r>    -0.8453     0.0000     0.0000 </r>
       <r>    -0.6634     0.0000     0.0000 </r>
       <r>    -0.4816     0.0000     0.0000 </r>
       <r>    -0.2997     0.0000     0.0000 </r>
       <r>    -0.1178     0.0000     0.0000 </r>
       <r>     0.0641     0.0000     0.0000 </r>
       <r>     0.2460     0.0000     0.0000 </r>
       <r>     0.4279     0.0000     0.0000 </r>
       <r>     0.6098     0.0000     0.0000 </r>
       <r>     0.7917     0.0000     0.0000 </r>
       <r>     0.9736     0.0000     0.0000 </r>
       <r>     1.1555     0.0000     0.0000 </r>
       <r>     1.3374     0.0000     0.0000 </r>
       <r>     1.5193     0.0000     0.0000 </r>
       <r>     1.7012     0.0000     0.0000 </r>
       <r>     1.8830     0.0000     0.0000 </r>
       <r>     2.0649     0.0000     0.0000 </r>
       <r>     2.2468     0.0000     0.0000 </r>
       <r>     2.4287     0.0000     0.0000 </r>
       <r>     2.6106     0.0000     0.0000 </r>
       <r>     2.7925     0.0000     0.0000 </r>
       <r>     2.9744     0.0000     0.0000 </r>
       <r>     3.1563     0.0000     0.0000 </r>
       <r>     3.3382     0.0000     0.0000 </r>
       <r>     3.5201     0.0000     0.0000 </r>
       <r>     3.7020     0.0000     0.0000 </r>
       <r>     3.8839     0.0000     0.0000 </r>
       <r>     4.0658     0.0000     0.0000 </r>
       <r>     4.2477     0.0000     0.0000 </r>
       <r>     4.4295     0.0000     0.0000 </r>
       <r>     4.6114     0.0000     0.0000 </r>
       <r>     4.7933     0.0000     0.0000 </r>
       <r>     4.9752     0.0000     0.0000 </r>
       <r>     5.1571     0.0000     0.0000 </r>
       <r>     5.3390     0.0000     0.0000 </r>
       <r>     5.5209     0.0000     0.0000 </r>
       <r>     5.7028     0.0000     0.0000 </r>
       <r>     5.8847     0.0000     0.0000 </r>
       <r>     6.0666     0.0000     0.0000 </r>
       <r>     6.2485     0.0000     0.0000 </r>
       <r>     6.4304     0.0000     0.0000 </r>
       <r>     6.6123     0.0000     0.0000 </r>
       <r>     6.7941     0.0000     0.0000 </r>
       <r>     6.9760     0.0000     0.0000 </r>
       <r>     7.1579     0.0000     0.0000 </r>
       <r>     7.3398     0.0000     0.0000 </r>
       <r>     7.5217     0.0000     0.0000 </r>
       <r>     7.7036     0.0000     0.0000 </r>
       <r>     7.8855     0.0000     0.0000 </r>
       <r>     8.0674     0.0000     0.0000 </r>
       <r>     8.2493     0.0000     0.0000 </r>
       <r>     8.4312     0.0000     0.0000 </r>
       <r>     8.6131     0.0000     0.0000 </r>
       <r>     8.7950     0.0000     0.0000 </r>
       <r>     8.9769     0.0000     0.0000 </r>
       <r>     9.1588     0.0000     0.0000 </r>
       <r>     9.3406     0.0000     0.0000 </r>
       <r>     9.5225     0.0000     0.0000 </r>
       <r>     9.7044     0.0000     0.0000 </r>
       <r>     9.8863     0.0000     0.0000 </r>
       <r>    10.0682     0.0000     0.0000 </r>
       <r>    10.2501     0.0000     0.0000 </r>
       <r>    10.4320     0.0000     0.0000 </r>
       <r>    10.6139     0.0000     0.0000 </r>
       <r>    10.7958     0.0000     0.0000 </r>
       <r>    10.9777     0.0000     0.0000 </r>
       <r>    11.1596     0.0000     0.0000 </r>
       <r>    11.3415     0.0000     0.0000 </r>
       <r>    11.5234     0.0000     0.0000 </r>
       <r>    11.7052     0.0000     0.0000 </r>
       <r>    11.8871     0.0000     0.0000 </r>
       <r>    12.0690     0.0000     0.0000 </r>
       <r>    12.2509     0.0000     0.0000 </r>
       <r>    12.4328     0.0000     0.0000 </r>
       <r>    12.6147     0.0000     0.0000 </r>
       <r>    12.7966     0.0000     0.0000 </r>
       <r>    12.9785     0.0000     0.0000 </r>
       <r>    13.1604     0.0000     0.0000 </r>
       <r>    13.3423     0.0000     0.0000 </r>
       <r>    13.5242     0.0000     0.0000 </r>
       <r>    13.7061     0.0000     0.0000 </r>
       <r>    13.8880     0.0000     0.0000 </r>
       <r>    14.0699     0.0000     0.0000 </r>
       <r>    14.2517     0.0000     0.0000 </r>
       <r>    14.4336     0.0000     0.0000 </r>
       <r>    14.6155     0.0000     0.0000 </r>
       <r>    14.7974     0.0000     0.0000 </r>
       <r>    14.9793     0.0000     0.0000 </r>
       <r>    15.1612     0.0000     0.0000 </r>
       <r>    15.3431     0.0000     0.0000 </r>
       <r>    15.5250     0.0000     0.0000 </r>
       <r>    15.7069     0.0000     0.0000 </r>
       <r>    15.8888     0.0000     0.0000 </r>
       <r>    16.0707     0.0000     0.0000 </r>
       <r>    16.2526     0.0000     0.0000 </r>
       <r>    16.4345     0.0000     0.0000 </r>
       <r>    16.6164     0.0000     0.0000 </r>
       <r>    16.7982     0.0000     0.0000 </r>
       <r>    16.9801     0.0000     0.0000 </r>
       <r>    17.1620     0.0000     0.0000 </r>
       <r>    17.3439     0.0000     0.0000 </r>
       <r>    17.5258     0.0000     0.0000 </r>
       <r>    17.7077     0.0000     0.0000 </r>
       <r>    17.8896     0.0000     0.0000 </r>
      </set>
     </set>
    </array>
   </total>
  </dos>
 </calculation>
 <structure name="finalpos" >
  <crystal>
   <varray name="basis" >
    <v>       4.39635018       0.00000000       0.00000000 </v>
    <v>       2.19817509       3.80735094      -0.00000000 </v>
    <v>       2.19817509       1.26911698       3.58960489 </v>
   </varray>
   <i name="volume">     60.08441465 </i>
   <varray name="rec_basis" >
    <v>       0.22746141      -0.13132490      -0.09286073 </v>
    <v>       0.00000000       0.26264981      -0.09286073 </v>
    <v>      -0.00000000       0.00000000       0.27858219 </v>
   </varray>
  </crystal>
  <varray name="positions" >
   <v>       0.00000000       0.00000000       0.00000000 </v>
  </varray>
  <varray name="velocities" >
   <v>       0.00000000       0.00000000       0.00000000 </v>
  </varray>
 </structure>
</modeling>
