   1   1   0   0
  0.6024138E+02  0.4400175E-09  0.4400175E-09  0.4400175E-09  0.1000000E-15
  1.000000000000000E-004
  CAR 
 Og_FCC                                  
     15.61335602    -30.62265888  301      1.36872760      1.00000000
    -30.623  0.0000E+00  0.0000E+00
    -30.469  0.0000E+00  0.0000E+00
    -30.314  0.0000E+00  0.0000E+00
    -30.160  0.0000E+00  0.0000E+00
    -30.006  0.0000E+00  0.0000E+00
    -29.852  0.0000E+00  0.0000E+00
    -29.698  0.0000E+00  0.0000E+00
    -29.544  0.0000E+00  0.0000E+00
    -29.390 -0.1074E-30 -0.1655E-31
    -29.236 -0.4066E-20 -0.6267E-21
    -29.081 -0.1238E-11 -0.1908E-12
    -28.927 -0.3043E-05 -0.4690E-06
    -28.773 -0.5243E-01 -0.8081E-02
    -28.619 -0.1799E+01 -0.2854E+00
    -28.465  0.5837E+02  0.8710E+01
    -28.311  0.8820E+01  0.1007E+02
    -28.157 -0.4507E+00  0.1000E+02
    -28.003 -0.1616E-03  0.1000E+02
    -27.848 -0.3616E-09  0.1000E+02
    -27.694  0.0000E+00  0.1000E+02
    -27.540  0.0000E+00  0.1000E+02
    -27.386  0.0000E+00  0.1000E+02
    -27.232  0.0000E+00  0.1000E+02
    -27.078  0.0000E+00  0.1000E+02
    -26.924  0.0000E+00  0.1000E+02
    -26.770  0.0000E+00  0.1000E+02
    -26.616  0.0000E+00  0.1000E+02
    -26.461  0.0000E+00  0.1000E+02
    -26.307  0.0000E+00  0.1000E+02
    -26.153  0.0000E+00  0.1000E+02
    -25.999  0.0000E+00  0.1000E+02
    -25.845  0.0000E+00  0.1000E+02
    -25.691  0.0000E+00  0.1000E+02
    -25.537  0.0000E+00  0.1000E+02
    -25.383  0.0000E+00  0.1000E+02
    -25.228  0.0000E+00  0.1000E+02
    -25.074  0.0000E+00  0.1000E+02
    -24.920  0.0000E+00  0.1000E+02
    -24.766  0.0000E+00  0.1000E+02
    -24.612  0.0000E+00  0.1000E+02
    -24.458  0.0000E+00  0.1000E+02
    -24.304  0.0000E+00  0.1000E+02
    -24.150  0.0000E+00  0.1000E+02
    -23.995  0.0000E+00  0.1000E+02
    -23.841  0.0000E+00  0.1000E+02
    -23.687  0.0000E+00  0.1000E+02
    -23.533  0.0000E+00  0.1000E+02
    -23.379  0.0000E+00  0.1000E+02
    -23.225  0.0000E+00  0.1000E+02
    -23.071  0.0000E+00  0.1000E+02
    -22.917  0.0000E+00  0.1000E+02
    -22.763  0.0000E+00  0.1000E+02
    -22.608  0.0000E+00  0.1000E+02
    -22.454 -0.7031E-37  0.1000E+02
    -22.300 -0.1272E-25  0.1000E+02
    -22.146 -0.2053E-16  0.1000E+02
    -21.992 -0.2900E-09  0.1000E+02
    -21.838 -0.4017E-04  0.1000E+02
    -21.684 -0.5749E-01  0.9991E+01
    -21.530  0.8248E+00  0.1012E+02
    -21.375  0.1187E+02  0.1195E+02
    -21.221  0.3741E+00  0.1201E+02
    -21.067 -0.3682E-01  0.1200E+02
    -20.913 -0.7598E-05  0.1200E+02
    -20.759 -0.1118E-10  0.1200E+02
    -20.605  0.0000E+00  0.1200E+02
    -20.451  0.0000E+00  0.1200E+02
    -20.297  0.0000E+00  0.1200E+02
    -20.142  0.0000E+00  0.1200E+02
    -19.988  0.0000E+00  0.1200E+02
    -19.834  0.0000E+00  0.1200E+02
    -19.680  0.0000E+00  0.1200E+02
    -19.526  0.0000E+00  0.1200E+02
    -19.372  0.0000E+00  0.1200E+02
    -19.218  0.0000E+00  0.1200E+02
    -19.064  0.0000E+00  0.1200E+02
    -18.910  0.0000E+00  0.1200E+02
    -18.755  0.0000E+00  0.1200E+02
    -18.601  0.0000E+00  0.1200E+02
    -18.447  0.0000E+00  0.1200E+02
    -18.293  0.0000E+00  0.1200E+02
    -18.139  0.0000E+00  0.1200E+02
    -17.985  0.0000E+00  0.1200E+02
    -17.831  0.0000E+00  0.1200E+02
    -17.677  0.0000E+00  0.1200E+02
    -17.522  0.0000E+00  0.1200E+02
    -17.368  0.0000E+00  0.1200E+02
    -17.214  0.0000E+00  0.1200E+02
    -17.060  0.0000E+00  0.1200E+02
    -16.906  0.0000E+00  0.1200E+02
    -16.752  0.0000E+00  0.1200E+02
    -16.598  0.0000E+00  0.1200E+02
    -16.444  0.0000E+00  0.1200E+02
    -16.289  0.0000E+00  0.1200E+02
    -16.135  0.0000E+00  0.1200E+02
    -15.981  0.0000E+00  0.1200E+02
    -15.827  0.0000E+00  0.1200E+02
    -15.673  0.0000E+00  0.1200E+02
    -15.519  0.0000E+00  0.1200E+02
    -15.365  0.0000E+00  0.1200E+02
    -15.211  0.0000E+00  0.1200E+02
    -15.057  0.0000E+00  0.1200E+02
    -14.902  0.0000E+00  0.1200E+02
    -14.748  0.0000E+00  0.1200E+02
    -14.594  0.0000E+00  0.1200E+02
    -14.440  0.0000E+00  0.1200E+02
    -14.286  0.0000E+00  0.1200E+02
    -14.132  0.0000E+00  0.1200E+02
    -13.978  0.0000E+00  0.1200E+02
    -13.824  0.0000E+00  0.1200E+02
    -13.669  0.0000E+00  0.1200E+02
    -13.515  0.0000E+00  0.1200E+02
    -13.361  0.0000E+00  0.1200E+02
    -13.207  0.0000E+00  0.1200E+02
    -13.053  0.0000E+00  0.1200E+02
    -12.899  0.0000E+00  0.1200E+02
    -12.745  0.0000E+00  0.1200E+02
    -12.591  0.0000E+00  0.1200E+02
    -12.436  0.0000E+00  0.1200E+02
    -12.282  0.0000E+00  0.1200E+02
    -12.128  0.0000E+00  0.1200E+02
    -11.974  0.0000E+00  0.1200E+02
    -11.820  0.0000E+00  0.1200E+02
    -11.666  0.0000E+00  0.1200E+02
    -11.512  0.0000E+00  0.1200E+02
    -11.358  0.0000E+00  0.1200E+02
    -11.204  0.0000E+00  0.1200E+02
    -11.049  0.0000E+00  0.1200E+02
    -10.895  0.0000E+00  0.1200E+02
    -10.741  0.0000E+00  0.1200E+02
    -10.587  0.0000E+00  0.1200E+02
    -10.433  0.0000E+00  0.1200E+02
    -10.279  0.0000E+00  0.1200E+02
    -10.125  0.0000E+00  0.1200E+02
     -9.971  0.0000E+00  0.1200E+02
     -9.816  0.0000E+00  0.1200E+02
     -9.662  0.0000E+00  0.1200E+02
     -9.508  0.0000E+00  0.1200E+02
     -9.354  0.0000E+00  0.1200E+02
     -9.200  0.0000E+00  0.1200E+02
     -9.046  0.0000E+00  0.1200E+02
     -8.892  0.0000E+00  0.1200E+02
     -8.738  0.0000E+00  0.1200E+02
     -8.583  0.0000E+00  0.1200E+02
     -8.429  0.0000E+00  0.1200E+02
     -8.275  0.0000E+00  0.1200E+02
     -8.121  0.0000E+00  0.1200E+02
     -7.967  0.0000E+00  0.1200E+02
     -7.813  0.0000E+00  0.1200E+02
     -7.659  0.0000E+00  0.1200E+02
     -7.505  0.0000E+00  0.1200E+02
     -7.351  0.0000E+00  0.1200E+02
     -7.196  0.0000E+00  0.1200E+02
     -7.042  0.0000E+00  0.1200E+02
     -6.888  0.0000E+00  0.1200E+02
     -6.734  0.0000E+00  0.1200E+02
     -6.580  0.0000E+00  0.1200E+02
     -6.426  0.0000E+00  0.1200E+02
     -6.272  0.0000E+00  0.1200E+02
     -6.118  0.0000E+00  0.1200E+02
     -5.963  0.0000E+00  0.1200E+02
     -5.809  0.0000E+00  0.1200E+02
     -5.655  0.0000E+00  0.1200E+02
     -5.501  0.0000E+00  0.1200E+02
     -5.347  0.0000E+00  0.1200E+02
     -5.193  0.0000E+00  0.1200E+02
     -5.039  0.0000E+00  0.1200E+02
     -4.885  0.0000E+00  0.1200E+02
     -4.730  0.0000E+00  0.1200E+02
     -4.576  0.0000E+00  0.1200E+02
     -4.422  0.0000E+00  0.1200E+02
     -4.268  0.0000E+00  0.1200E+02
     -4.114  0.0000E+00  0.1200E+02
     -3.960  0.0000E+00  0.1200E+02
     -3.806  0.0000E+00  0.1200E+02
     -3.652  0.0000E+00  0.1200E+02
     -3.498  0.0000E+00  0.1200E+02
     -3.343  0.0000E+00  0.1200E+02
     -3.189  0.0000E+00  0.1200E+02
     -3.035  0.0000E+00  0.1200E+02
     -2.881  0.0000E+00  0.1200E+02
     -2.727  0.0000E+00  0.1200E+02
     -2.573  0.0000E+00  0.1200E+02
     -2.419 -0.2886E-34  0.1200E+02
     -2.265 -0.1613E-23  0.1200E+02
     -2.110 -0.7280E-15  0.1200E+02
     -1.956 -0.2758E-08  0.1200E+02
     -1.802 -0.8448E-04  0.1200E+02
     -1.648 -0.1498E-01  0.1200E+02
     -1.494  0.2994E+00  0.1204E+02
     -1.340  0.7329E+00  0.1216E+02
     -1.186  0.2462E+01  0.1254E+02
     -1.032  0.3816E+01  0.1312E+02
     -0.877  0.2728E+01  0.1354E+02
     -0.723  0.1139E+01  0.1372E+02
     -0.569  0.7966E+00  0.1384E+02
     -0.415  0.1318E+01  0.1405E+02
     -0.261  0.1267E+01  0.1424E+02
     -0.107  0.1627E+01  0.1449E+02
      0.047  0.1295E+01  0.1469E+02
      0.201  0.2174E+01  0.1503E+02
      0.355  0.3141E+01  0.1551E+02
      0.510  0.2463E+01  0.1589E+02
      0.664  0.3676E+01  0.1646E+02
      0.818  0.3139E+01  0.1694E+02
      0.972  0.3133E+01  0.1742E+02
      1.126  0.2403E+01  0.1779E+02
      1.280  0.1064E+01  0.1796E+02
      1.434  0.2895E+00  0.1800E+02
      1.588 -0.1551E-01  0.1800E+02
      1.743 -0.7704E-04  0.1800E+02
      1.897 -0.2918E-08  0.1800E+02
      2.051 -0.1008E-14  0.1800E+02
      2.205  0.0000E+00  0.1800E+02
      2.359 -0.2013E-39  0.1800E+02
      2.513 -0.5989E-28  0.1800E+02
      2.667 -0.1481E-18  0.1800E+02
      2.821 -0.2851E-11  0.1800E+02
      2.976 -0.4216E-06  0.1800E+02
      3.130 -0.3348E-03  0.1800E+02
      3.284  0.6971E-02  0.1800E+02
      3.438  0.1174E-01  0.1800E+02
      3.592 -0.5702E-03  0.1800E+02
      3.746 -0.4236E-05  0.1800E+02
      3.900 -0.2079E-02  0.1800E+02
      4.054  0.4371E-01  0.1801E+02
      4.208  0.1022E+00  0.1802E+02
      4.363  0.6780E-01  0.1804E+02
      4.517  0.3945E-01  0.1804E+02
      4.671 -0.2288E-02  0.1804E+02
      4.825  0.4432E-04  0.1804E+02
      4.979  0.2025E+00  0.1807E+02
      5.133  0.5166E-01  0.1808E+02
      5.287  0.2048E+00  0.1811E+02
      5.441  0.3392E+00  0.1816E+02
      5.596 -0.1350E-01  0.1816E+02
      5.750  0.1911E+00  0.1819E+02
      5.904  0.4556E+00  0.1826E+02
      6.058  0.4524E+00  0.1833E+02
      6.212  0.7782E+00  0.1845E+02
      6.366  0.1451E+01  0.1867E+02
      6.520  0.6244E+00  0.1877E+02
      6.674  0.8378E+00  0.1890E+02
      6.829  0.6497E+00  0.1900E+02
      6.983  0.1734E+01  0.1927E+02
      7.137  0.1789E+01  0.1954E+02
      7.291  0.1218E+01  0.1973E+02
      7.445  0.1197E+00  0.1975E+02
      7.599  0.8068E+00  0.1987E+02
      7.753  0.5977E+00  0.1997E+02
      7.907  0.1108E+01  0.2014E+02
      8.061  0.3970E+00  0.2020E+02
      8.216  0.3413E+00  0.2025E+02
      8.370  0.8848E+00  0.2039E+02
      8.524  0.8914E+00  0.2052E+02
      8.678  0.1165E+01  0.2070E+02
      8.832  0.3767E+01  0.2128E+02
      8.986  0.1307E+01  0.2149E+02
      9.140  0.8561E+00  0.2162E+02
      9.294  0.2619E+01  0.2202E+02
      9.449  0.3809E+01  0.2261E+02
      9.603  0.6286E+00  0.2271E+02
      9.757  0.1977E+00  0.2274E+02
      9.911  0.3733E+00  0.2279E+02
     10.065  0.3018E+00  0.2284E+02
     10.219  0.8141E+00  0.2297E+02
     10.373  0.1878E+01  0.2325E+02
     10.527  0.2642E+01  0.2366E+02
     10.682  0.2931E+01  0.2411E+02
     10.836  0.1881E+01  0.2440E+02
     10.990  0.2854E+01  0.2484E+02
     11.144  0.1500E+01  0.2507E+02
     11.298  0.4489E+00  0.2514E+02
     11.452  0.1003E+01  0.2530E+02
     11.606  0.5385E+00  0.2538E+02
     11.760  0.5908E+00  0.2547E+02
     11.914  0.9667E-01  0.2549E+02
     12.069  0.4338E+00  0.2555E+02
     12.223  0.7089E+00  0.2566E+02
     12.377  0.5483E+00  0.2575E+02
     12.531  0.2765E+00  0.2579E+02
     12.685  0.1118E+01  0.2596E+02
     12.839  0.1422E+00  0.2598E+02
     12.993 -0.7703E-02  0.2598E+02
     13.147 -0.3260E-05  0.2598E+02
     13.302 -0.6063E-03  0.2598E+02
     13.456  0.1113E-01  0.2599E+02
     13.610  0.9874E-01  0.2600E+02
     13.764 -0.2346E-02  0.2600E+02
     13.918 -0.1120E-03  0.2600E+02
     14.072 -0.7791E-08  0.2600E+02
     14.226 -0.3747E-14  0.2600E+02
     14.380  0.0000E+00  0.2600E+02
     14.535  0.0000E+00  0.2600E+02
     14.689  0.0000E+00  0.2600E+02
     14.843  0.0000E+00  0.2600E+02
     14.997  0.0000E+00  0.2600E+02
     15.151  0.0000E+00  0.2600E+02
     15.305  0.0000E+00  0.2600E+02
     15.459  0.0000E+00  0.2600E+02
     15.613  0.0000E+00  0.2600E+02
