   1   1   0   0
  0.8047101E+02  0.4846016E-09  0.4846016E-09  0.4846016E-09  0.1000000E-15
  1.000000000000000E-004
  CAR 
 Og_FCC                                  
     12.41562958    -32.24309276  301     -0.91907771      1.00000000
    -32.243  0.0000E+00  0.0000E+00
    -32.094  0.0000E+00  0.0000E+00
    -31.945  0.0000E+00  0.0000E+00
    -31.797  0.0000E+00  0.0000E+00
    -31.648  0.0000E+00  0.0000E+00
    -31.499  0.0000E+00  0.0000E+00
    -31.350  0.0000E+00  0.0000E+00
    -31.201  0.0000E+00  0.0000E+00
    -31.052 -0.3416E-28 -0.5085E-29
    -30.903 -0.2248E-18 -0.3346E-19
    -30.754 -0.1622E-10 -0.2414E-11
    -30.606 -0.1291E-04 -0.1922E-05
    -30.457 -0.9734E-01 -0.1449E-01
    -30.308 -0.1281E+01 -0.2052E+00
    -30.159  0.6084E+02  0.8851E+01
    -30.010  0.8227E+01  0.1008E+02
    -29.861 -0.5084E+00  0.1000E+02
    -29.712 -0.2824E-03  0.1000E+02
    -29.564 -0.1343E-08  0.1000E+02
    -29.415  0.0000E+00  0.1000E+02
    -29.266  0.0000E+00  0.1000E+02
    -29.117  0.0000E+00  0.1000E+02
    -28.968  0.0000E+00  0.1000E+02
    -28.819  0.0000E+00  0.1000E+02
    -28.670  0.0000E+00  0.1000E+02
    -28.522  0.0000E+00  0.1000E+02
    -28.373  0.0000E+00  0.1000E+02
    -28.224  0.0000E+00  0.1000E+02
    -28.075  0.0000E+00  0.1000E+02
    -27.926  0.0000E+00  0.1000E+02
    -27.777  0.0000E+00  0.1000E+02
    -27.628  0.0000E+00  0.1000E+02
    -27.479  0.0000E+00  0.1000E+02
    -27.331  0.0000E+00  0.1000E+02
    -27.182  0.0000E+00  0.1000E+02
    -27.033  0.0000E+00  0.1000E+02
    -26.884  0.0000E+00  0.1000E+02
    -26.735  0.0000E+00  0.1000E+02
    -26.586  0.0000E+00  0.1000E+02
    -26.437  0.0000E+00  0.1000E+02
    -26.289  0.0000E+00  0.1000E+02
    -26.140  0.0000E+00  0.1000E+02
    -25.991  0.0000E+00  0.1000E+02
    -25.842  0.0000E+00  0.1000E+02
    -25.693  0.0000E+00  0.1000E+02
    -25.544  0.0000E+00  0.1000E+02
    -25.395  0.0000E+00  0.1000E+02
    -25.247  0.0000E+00  0.1000E+02
    -25.098  0.0000E+00  0.1000E+02
    -24.949  0.0000E+00  0.1000E+02
    -24.800  0.0000E+00  0.1000E+02
    -24.651  0.0000E+00  0.1000E+02
    -24.502  0.0000E+00  0.1000E+02
    -24.353  0.0000E+00  0.1000E+02
    -24.205  0.0000E+00  0.1000E+02
    -24.056 -0.1033E-34  0.1000E+02
    -23.907 -0.5763E-24  0.1000E+02
    -23.758 -0.3926E-15  0.1000E+02
    -23.609 -0.3069E-08  0.1000E+02
    -23.460 -0.2737E-03  0.1000E+02
    -23.311 -0.2026E+00  0.9970E+01
    -23.162  0.3723E+01  0.1052E+02
    -23.014  0.1038E+02  0.1207E+02
    -22.865 -0.4572E+00  0.1200E+02
    -22.716 -0.7005E-02  0.1200E+02
    -22.567 -0.4759E-06  0.1200E+02
    -22.418 -0.3235E-12  0.1200E+02
    -22.269  0.0000E+00  0.1200E+02
    -22.120  0.0000E+00  0.1200E+02
    -21.972  0.0000E+00  0.1200E+02
    -21.823  0.0000E+00  0.1200E+02
    -21.674  0.0000E+00  0.1200E+02
    -21.525  0.0000E+00  0.1200E+02
    -21.376  0.0000E+00  0.1200E+02
    -21.227  0.0000E+00  0.1200E+02
    -21.078  0.0000E+00  0.1200E+02
    -20.930  0.0000E+00  0.1200E+02
    -20.781  0.0000E+00  0.1200E+02
    -20.632  0.0000E+00  0.1200E+02
    -20.483  0.0000E+00  0.1200E+02
    -20.334  0.0000E+00  0.1200E+02
    -20.185  0.0000E+00  0.1200E+02
    -20.036  0.0000E+00  0.1200E+02
    -19.888  0.0000E+00  0.1200E+02
    -19.739  0.0000E+00  0.1200E+02
    -19.590  0.0000E+00  0.1200E+02
    -19.441  0.0000E+00  0.1200E+02
    -19.292  0.0000E+00  0.1200E+02
    -19.143  0.0000E+00  0.1200E+02
    -18.994  0.0000E+00  0.1200E+02
    -18.845  0.0000E+00  0.1200E+02
    -18.697  0.0000E+00  0.1200E+02
    -18.548  0.0000E+00  0.1200E+02
    -18.399  0.0000E+00  0.1200E+02
    -18.250  0.0000E+00  0.1200E+02
    -18.101  0.0000E+00  0.1200E+02
    -17.952  0.0000E+00  0.1200E+02
    -17.803  0.0000E+00  0.1200E+02
    -17.655  0.0000E+00  0.1200E+02
    -17.506  0.0000E+00  0.1200E+02
    -17.357  0.0000E+00  0.1200E+02
    -17.208  0.0000E+00  0.1200E+02
    -17.059  0.0000E+00  0.1200E+02
    -16.910  0.0000E+00  0.1200E+02
    -16.761  0.0000E+00  0.1200E+02
    -16.613  0.0000E+00  0.1200E+02
    -16.464  0.0000E+00  0.1200E+02
    -16.315  0.0000E+00  0.1200E+02
    -16.166  0.0000E+00  0.1200E+02
    -16.017  0.0000E+00  0.1200E+02
    -15.868  0.0000E+00  0.1200E+02
    -15.719  0.0000E+00  0.1200E+02
    -15.571  0.0000E+00  0.1200E+02
    -15.422  0.0000E+00  0.1200E+02
    -15.273  0.0000E+00  0.1200E+02
    -15.124  0.0000E+00  0.1200E+02
    -14.975  0.0000E+00  0.1200E+02
    -14.826  0.0000E+00  0.1200E+02
    -14.677  0.0000E+00  0.1200E+02
    -14.528  0.0000E+00  0.1200E+02
    -14.380  0.0000E+00  0.1200E+02
    -14.231  0.0000E+00  0.1200E+02
    -14.082  0.0000E+00  0.1200E+02
    -13.933  0.0000E+00  0.1200E+02
    -13.784  0.0000E+00  0.1200E+02
    -13.635  0.0000E+00  0.1200E+02
    -13.486  0.0000E+00  0.1200E+02
    -13.338  0.0000E+00  0.1200E+02
    -13.189  0.0000E+00  0.1200E+02
    -13.040  0.0000E+00  0.1200E+02
    -12.891  0.0000E+00  0.1200E+02
    -12.742  0.0000E+00  0.1200E+02
    -12.593  0.0000E+00  0.1200E+02
    -12.444  0.0000E+00  0.1200E+02
    -12.296  0.0000E+00  0.1200E+02
    -12.147  0.0000E+00  0.1200E+02
    -11.998  0.0000E+00  0.1200E+02
    -11.849  0.0000E+00  0.1200E+02
    -11.700  0.0000E+00  0.1200E+02
    -11.551  0.0000E+00  0.1200E+02
    -11.402  0.0000E+00  0.1200E+02
    -11.253  0.0000E+00  0.1200E+02
    -11.105  0.0000E+00  0.1200E+02
    -10.956  0.0000E+00  0.1200E+02
    -10.807  0.0000E+00  0.1200E+02
    -10.658  0.0000E+00  0.1200E+02
    -10.509  0.0000E+00  0.1200E+02
    -10.360  0.0000E+00  0.1200E+02
    -10.211  0.0000E+00  0.1200E+02
    -10.063  0.0000E+00  0.1200E+02
     -9.914  0.0000E+00  0.1200E+02
     -9.765  0.0000E+00  0.1200E+02
     -9.616  0.0000E+00  0.1200E+02
     -9.467  0.0000E+00  0.1200E+02
     -9.318  0.0000E+00  0.1200E+02
     -9.169  0.0000E+00  0.1200E+02
     -9.021  0.0000E+00  0.1200E+02
     -8.872  0.0000E+00  0.1200E+02
     -8.723  0.0000E+00  0.1200E+02
     -8.574  0.0000E+00  0.1200E+02
     -8.425  0.0000E+00  0.1200E+02
     -8.276  0.0000E+00  0.1200E+02
     -8.127  0.0000E+00  0.1200E+02
     -7.979  0.0000E+00  0.1200E+02
     -7.830  0.0000E+00  0.1200E+02
     -7.681  0.0000E+00  0.1200E+02
     -7.532  0.0000E+00  0.1200E+02
     -7.383  0.0000E+00  0.1200E+02
     -7.234  0.0000E+00  0.1200E+02
     -7.085  0.0000E+00  0.1200E+02
     -6.936  0.0000E+00  0.1200E+02
     -6.788  0.0000E+00  0.1200E+02
     -6.639  0.0000E+00  0.1200E+02
     -6.490  0.0000E+00  0.1200E+02
     -6.341  0.0000E+00  0.1200E+02
     -6.192  0.0000E+00  0.1200E+02
     -6.043  0.0000E+00  0.1200E+02
     -5.894  0.0000E+00  0.1200E+02
     -5.746  0.0000E+00  0.1200E+02
     -5.597  0.0000E+00  0.1200E+02
     -5.448  0.0000E+00  0.1200E+02
     -5.299  0.0000E+00  0.1200E+02
     -5.150  0.0000E+00  0.1200E+02
     -5.001  0.0000E+00  0.1200E+02
     -4.852  0.0000E+00  0.1200E+02
     -4.704  0.0000E+00  0.1200E+02
     -4.555  0.0000E+00  0.1200E+02
     -4.406  0.0000E+00  0.1200E+02
     -4.257  0.0000E+00  0.1200E+02
     -4.108  0.0000E+00  0.1200E+02
     -3.959  0.0000E+00  0.1200E+02
     -3.810  0.0000E+00  0.1200E+02
     -3.662  0.0000E+00  0.1200E+02
     -3.513  0.0000E+00  0.1200E+02
     -3.364 -0.5142E-30  0.1200E+02
     -3.215 -0.2245E-20  0.1200E+02
     -3.066 -0.1071E-12  0.1200E+02
     -2.917 -0.5637E-07  0.1200E+02
     -2.768 -0.2987E-03  0.1200E+02
     -2.619 -0.1659E-01  0.1200E+02
     -2.471  0.3077E+00  0.1204E+02
     -2.322  0.2546E+01  0.1242E+02
     -2.173  0.5977E+01  0.1331E+02
     -2.024  0.2659E+01  0.1371E+02
     -1.875  0.1809E+01  0.1398E+02
     -1.726  0.2353E+01  0.1433E+02
     -1.577  0.3689E+01  0.1488E+02
     -1.429  0.4190E+01  0.1550E+02
     -1.280  0.6866E+01  0.1652E+02
     -1.131  0.6257E+01  0.1745E+02
     -0.982  0.3307E+01  0.1795E+02
     -0.833  0.3905E+00  0.1800E+02
     -0.684 -0.2816E-01  0.1800E+02
     -0.535 -0.1129E-03  0.1800E+02
     -0.387 -0.4424E-08  0.1800E+02
     -0.238 -0.2167E-14  0.1800E+02
     -0.089  0.0000E+00  0.1800E+02
      0.060  0.0000E+00  0.1800E+02
      0.209  0.0000E+00  0.1800E+02
      0.358  0.0000E+00  0.1800E+02
      0.507  0.0000E+00  0.1800E+02
      0.655  0.0000E+00  0.1800E+02
      0.804  0.0000E+00  0.1800E+02
      0.953  0.0000E+00  0.1800E+02
      1.102 -0.5083E-35  0.1800E+02
      1.251 -0.1327E-24  0.1800E+02
      1.400 -0.3808E-16  0.1800E+02
      1.549 -0.1245E-09  0.1800E+02
      1.698 -0.4062E-05  0.1800E+02
      1.846 -0.8106E-03  0.1800E+02
      1.995  0.1547E-01  0.1800E+02
      2.144  0.1224E-01  0.1800E+02
      2.293 -0.1925E-02  0.1800E+02
      2.442  0.1826E-01  0.1801E+02
      2.591  0.1938E+00  0.1804E+02
      2.740  0.1448E+00  0.1806E+02
      2.888  0.1261E-01  0.1806E+02
      3.037 -0.1195E-01  0.1806E+02
      3.186  0.2373E+00  0.1809E+02
      3.335  0.7469E-01  0.1810E+02
      3.484  0.4465E+00  0.1817E+02
      3.633  0.4298E+00  0.1823E+02
      3.782 -0.2330E-01  0.1823E+02
      3.930 -0.2681E-01  0.1823E+02
      4.079  0.8045E+00  0.1835E+02
      4.228  0.4922E+00  0.1842E+02
      4.377  0.1080E+01  0.1858E+02
      4.526  0.4552E+00  0.1865E+02
      4.675  0.1359E+01  0.1885E+02
      4.824  0.3932E+00  0.1891E+02
      4.973  0.7448E+00  0.1902E+02
      5.121  0.2136E+01  0.1934E+02
      5.270  0.1436E+01  0.1955E+02
      5.419  0.9366E+00  0.1969E+02
      5.568  0.3045E+00  0.1974E+02
      5.717  0.1011E+01  0.1989E+02
      5.866  0.2694E+00  0.1993E+02
      6.015  0.4628E+00  0.2000E+02
      6.163  0.6616E+00  0.2009E+02
      6.312  0.3890E+00  0.2015E+02
      6.461  0.1474E+01  0.2037E+02
      6.610  0.1147E+01  0.2054E+02
      6.759  0.2869E+01  0.2097E+02
      6.908  0.2422E+01  0.2133E+02
      7.057  0.5773E+00  0.2142E+02
      7.205  0.2274E+01  0.2175E+02
      7.354  0.5488E+01  0.2257E+02
      7.503  0.2374E+01  0.2292E+02
      7.652  0.8923E+00  0.2306E+02
      7.801  0.2999E+00  0.2310E+02
      7.950  0.9919E+00  0.2325E+02
      8.099  0.2088E+01  0.2356E+02
      8.247  0.2254E+01  0.2390E+02
      8.396  0.2793E+01  0.2431E+02
      8.545  0.1860E+01  0.2459E+02
      8.694  0.3144E+01  0.2506E+02
      8.843  0.2540E+01  0.2543E+02
      8.992  0.6302E+00  0.2553E+02
      9.141  0.8443E+00  0.2565E+02
      9.290  0.3284E+00  0.2570E+02
      9.438  0.4481E+00  0.2577E+02
      9.587  0.5497E-01  0.2578E+02
      9.736  0.5930E+00  0.2587E+02
      9.885  0.3083E-01  0.2587E+02
     10.034  0.3108E-01  0.2588E+02
     10.183  0.6897E+00  0.2598E+02
     10.332  0.8039E-01  0.2599E+02
     10.480  0.6646E-01  0.2600E+02
     10.629 -0.1366E-02  0.2600E+02
     10.778 -0.1208E-03  0.2600E+02
     10.927 -0.1671E-07  0.2600E+02
     11.076 -0.2183E-13  0.2600E+02
     11.225  0.0000E+00  0.2600E+02
     11.374  0.0000E+00  0.2600E+02
     11.522  0.0000E+00  0.2600E+02
     11.671  0.0000E+00  0.2600E+02
     11.820  0.0000E+00  0.2600E+02
     11.969  0.0000E+00  0.2600E+02
     12.118  0.0000E+00  0.2600E+02
     12.267  0.0000E+00  0.2600E+02
     12.416  0.0000E+00  0.2600E+02
