    1    1    1    1
  0.8047101E+02  0.4846016E-09  0.4846016E-09  0.4846016E-09  0.1000000E-15
  1.000000000000000E-004
  CAR 
 Og_FCC                                  
     18     29     13
 
  0.0000000E+00  0.0000000E+00  0.0000000E+00  0.1953125E-02
    1      -30.212657   1.000000
    2      -30.212657   1.000000
    3      -30.212657   1.000000
    4      -30.212027   1.000000
    5      -30.212027   1.000000
    6      -23.156228   1.000000
    7       -0.950746   0.753684
    8       -0.950746   0.753684
    9       -0.950746   0.753684
   10        1.988332   0.000000
   11        8.226971   0.000000
   12        8.226971   0.000000
   13        8.226983   0.000000
 
  0.1250000E+00 -0.1284580E-16  0.0000000E+00  0.1562500E-01
    1      -30.212563   1.000000
    2      -30.212526   1.000000
    3      -30.212526   1.000000
    4      -30.211966   1.000000
    5      -30.211966   1.000000
    6      -23.152753   1.000000
    7       -1.310877   1.000000
    8       -0.981243   0.929495
    9       -0.981243   0.929495
   10        2.501298   0.000000
   11        7.648443   0.000000
   12        8.345820   0.000000
   13        8.345821   0.000000
 
  0.2500000E+00 -0.2569159E-16  0.0000000E+00  0.1562500E-01
    1      -30.212436   1.000000
    2      -30.212436   1.000000
    3      -30.212363   1.000000
    4      -30.211641   1.000000
    5      -30.211641   1.000000
    6      -23.144476   1.000000
    7       -1.924726   1.000000
    8       -1.052825   1.033786
    9       -1.052825   1.033786
   10        3.433752   0.000000
   11        7.356114   0.000000
   12        8.316065   0.000000
   13        8.316065   0.000000
 
  0.3750000E+00  0.3095971E-17  0.9714451E-16  0.1562500E-01
    1      -30.212477   1.000000
    2      -30.212477   1.000000
    3      -30.212182   1.000000
    4      -30.211183   1.000000
    5      -30.211183   1.000000
    6      -23.136159   1.000000
    7       -2.376529   1.000000
    8       -1.121736   1.007330
    9       -1.121736   1.007330
   10        4.025076   0.000000
   11        7.836412   0.000000
   12        8.022081   0.000000
   13        8.022081   0.000000
 
  0.5000000E+00 -0.5138319E-16  0.0000000E+00  0.7812500E-02
    1      -30.212514   1.000000
    2      -30.212514   1.000000
    3      -30.212109   1.000000
    4      -30.210989   1.000000
    5      -30.210989   1.000000
    6      -23.132741   1.000000
    7       -2.537135   1.000000
    8       -1.149559   1.002648
    9       -1.149559   1.002648
   10        4.165845   0.000000
   11        7.895360   0.000000
   12        7.895360   0.000000
   13        8.186105   0.000000
 
  0.1250000E+00  0.1250000E+00  0.0000000E+00  0.1171875E-01
    1      -30.212721   1.000000
    2      -30.212362   1.000000
    3      -30.212362   1.000000
    4      -30.212070   1.000000
    5      -30.211895   1.000000
    6      -23.151621   1.000000
    7       -1.322829   1.000000
    8       -1.043138   1.035420
    9       -1.043138   1.035420
   10        2.679055   0.000000
   11        7.399026   0.000000
   12        8.492046   0.000000
   13        8.495972   0.000000
 
  0.2500000E+00  0.1250000E+00  0.1387779E-16  0.4687500E-01
    1      -30.212663   1.000000
    2      -30.212217   1.000000
    3      -30.212193   1.000000
    4      -30.211900   1.000000
    5      -30.211592   1.000000
    6      -23.144953   1.000000
    7       -1.781787   1.000000
    8       -1.134810   1.004655
    9       -1.115302   1.009015
   10        3.496248   0.000000
   11        7.036627   0.000000
   12        7.927420   0.000000
   13        8.665049   0.000000
 
  0.3750000E+00  0.1250000E+00  0.5551115E-16  0.4687500E-01
    1      -30.212543   1.000000
    2      -30.212231   1.000000
    3      -30.212167   1.000000
    4      -30.211494   1.000000
    5      -30.211148   1.000000
    6      -23.136661   1.000000
    7       -2.229594   1.000000
    8       -1.225746   1.000064
    9       -1.202032   1.000235
   10        4.264240   0.000000
   11        7.225857   0.000000
   12        7.449726   0.000000
   13        8.446214   0.000000
 
  0.5000000E+00  0.1250000E+00  0.2775558E-16  0.4687500E-01
    1      -30.212527   1.000000
    2      -30.212293   1.000000
    3      -30.212015   1.000000
    4      -30.211174   1.000000
    5      -30.210975   1.000000
    6      -23.131592   1.000000
    7       -2.455049   1.000000
    8       -1.330820   1.000000
    9       -1.208692   1.000165
   10        4.562544   0.000000
   11        7.097288   0.000000
   12        8.190242   0.000000
   13        8.293493   0.000000
 
 -0.3750000E+00  0.1250000E+00 -0.8326673E-16  0.4687500E-01
    1      -30.212477   1.000000
    2      -30.212295   1.000000
    3      -30.212043   1.000000
    4      -30.211209   1.000000
    5      -30.211087   1.000000
    6      -23.132731   1.000000
    7       -2.403283   1.000000
    8       -1.367306   1.000000
    9       -1.151573   1.002442
   10        4.522263   0.000000
   11        7.194431   0.000000
   12        8.066538   0.000000
   13        8.146852   0.000000
 
 -0.2500000E+00  0.1250000E+00  0.0000000E+00  0.4687500E-01
    1      -30.212401   1.000000
    2      -30.212258   1.000000
    3      -30.212244   1.000000
    4      -30.211710   1.000000
    5      -30.211294   1.000000
    6      -23.139418   1.000000
    7       -2.095006   1.000000
    8       -1.304628   1.000000
    9       -1.060936   1.031073
   10        4.051934   0.000000
   11        7.263483   0.000000
   12        7.627592   0.000000
   13        8.373738   0.000000
 
 -0.1250000E+00  0.1250000E+00  0.2025481E-17  0.2343750E-01
    1      -30.212494   1.000000
    2      -30.212375   1.000000
    3      -30.212358   1.000000
    4      -30.212017   1.000000
    5      -30.211690   1.000000
    6      -23.147740   1.000000
    7       -1.645894   1.000000
    8       -1.147451   1.002880
    9       -0.988955   0.959445
   10        3.159228   0.000000
   11        7.282882   0.000000
   12        8.197741   0.000000
   13        8.549160   0.000000
 
  0.2500000E+00  0.2500000E+00  0.0000000E+00  0.1171875E-01
    1      -30.212895   1.000000
    2      -30.212225   1.000000
    3      -30.211670   1.000000
    4      -30.211670   1.000000
    5      -30.211585   1.000000
    6      -23.140588   1.000000
    7       -1.898910   1.000000
    8       -1.252911   1.000012
    9       -1.252911   1.000012
   10        4.018219   0.000000
   11        6.553870   0.000000
   12        7.523847   0.000000
   13        9.205807   0.000000
 
  0.3750000E+00  0.2500000E+00  0.1110223E-15  0.4687500E-01
    1      -30.212841   1.000000
    2      -30.212267   1.000000
    3      -30.211680   1.000000
    4      -30.211354   1.000000
    5      -30.211127   1.000000
    6      -23.133945   1.000000
    7       -2.161008   1.000000
    8       -1.401774   1.000000
    9       -1.337631   1.000000
   10        4.660324   0.000000
   11        6.455961   0.000000
   12        7.213642   0.000000
   13        9.309322   0.000000
 
  0.5000000E+00  0.2500000E+00  0.2775558E-16  0.4687500E-01
    1      -30.212667   1.000000
    2      -30.212050   1.000000
    3      -30.211757   1.000000
    4      -30.211262   1.000000
    5      -30.210938   1.000000
    6      -23.128870   1.000000
    7       -2.297289   1.000000
    8       -1.628833   1.000000
    9       -1.344710   1.000000
   10        5.133281   0.000000
   11        6.739126   0.000000
   12        7.329648   0.000000
   13        9.005140   0.000000
 
 -0.3750000E+00  0.2500000E+00 -0.4163336E-16  0.4687500E-01
    1      -30.212554   1.000000
    2      -30.211814   1.000000
    3      -30.211711   1.000000
    4      -30.211368   1.000000
    5      -30.211176   1.000000
    6      -23.128383   1.000000
    7       -2.258958   1.000000
    8       -1.791081   1.000000
    9       -1.270645   1.000004
   10        5.353740   0.000000
   11        6.682726   0.000000
   12        8.002935   0.000000
   13        8.751543   0.000000
 
 -0.2500000E+00  0.2500000E+00  0.4050963E-17  0.2343750E-01
    1      -30.212440   1.000000
    2      -30.211958   1.000000
    3      -30.211840   1.000000
    4      -30.211658   1.000000
    5      -30.211210   1.000000
    6      -23.132743   1.000000
    7       -2.184631   1.000000
    8       -1.664435   1.000000
    9       -1.153584   1.002250
   10        4.989807   0.000000
   11        6.900744   0.000000
   12        7.330713   0.000000
   13        8.609020   0.000000
 
  0.3750000E+00  0.3750000E+00  0.1387779E-15  0.1171875E-01
    1      -30.213066   1.000000
    2      -30.212387   1.000000
    3      -30.211277   1.000000
    4      -30.210992   1.000000
    5      -30.210992   1.000000
    6      -23.129553   1.000000
    7       -2.283666   1.000000
    8       -1.446713   1.000000
    9       -1.446713   1.000000
   10        4.689575   0.000000
   11        6.032912   0.000000
   12        7.884531   0.000000
   13       10.172325   0.000000
 
  0.5000000E+00  0.3750000E+00  0.5551115E-16  0.4687500E-01
    1      -30.212970   1.000000
    2      -30.212364   1.000000
    3      -30.211288   1.000000
    4      -30.210898   1.000000
    5      -30.210833   1.000000
    6      -23.126144   1.000000
    7       -2.336467   1.000000
    8       -1.617964   1.000000
    9       -1.472300   1.000000
   10        4.879188   0.000000
   11        6.139278   0.000000
   12        8.290411   0.000000
   13       10.099275   0.000000
 
 -0.3750000E+00  0.3750000E+00 -0.4950973E-16  0.2343750E-01
    1      -30.212718   1.000000
    2      -30.212023   1.000000
    3      -30.211419   1.000000
    4      -30.211145   1.000000
    5      -30.210998   1.000000
    6      -23.125645   1.000000
    7       -2.195691   1.000000
    8       -1.917223   1.000000
    9       -1.402027   1.000000
   10        5.259444   0.000000
   11        6.747873   0.000000
   12        8.341819   0.000000
   13        8.476391   0.000000
 
  0.5000000E+00  0.5000000E+00  0.0000000E+00  0.5859375E-02
    1      -30.213151   1.000000
    2      -30.212454   1.000000
    3      -30.211176   1.000000
    4      -30.210727   1.000000
    5      -30.210727   1.000000
    6      -23.125027   1.000000
    7       -2.412361   1.000000
    8       -1.522973   1.000000
    9       -1.522973   1.000000
   10        4.644047   0.000000
   11        5.858068   0.000000
   12        9.491693   0.000000
   13       10.385688   0.000000
 
  0.3750000E+00  0.2500000E+00  0.1250000E+00  0.4687500E-01
    1      -30.212586   1.000000
    2      -30.212269   1.000000
    3      -30.211946   1.000000
    4      -30.211702   1.000000
    5      -30.211284   1.000000
    6      -23.138306   1.000000
    7       -2.039868   1.000000
    8       -1.381710   1.000000
    9       -1.158765   1.001813
   10        4.297847   0.000000
   11        6.837447   0.000000
   12        7.286002   0.000000
   13        9.014345   0.000000
 
  0.5000000E+00  0.2500000E+00  0.1250000E+00  0.9375000E-01
    1      -30.212431   1.000000
    2      -30.212223   1.000000
    3      -30.211885   1.000000
    4      -30.211373   1.000000
    5      -30.211086   1.000000
    6      -23.131623   1.000000
    7       -2.257751   1.000000
    8       -1.569070   1.000000
    9       -1.249630   1.000015
   10        5.031795   0.000000
   11        6.768442   0.000000
   12        7.249342   0.000000
   13        8.784255   0.000000
 
 -0.3750000E+00  0.2500000E+00  0.1250000E+00  0.4687500E-01
    1      -30.212437   1.000000
    2      -30.212150   1.000000
    3      -30.211720   1.000000
    4      -30.211349   1.000000
    5      -30.211010   1.000000
    6      -23.128841   1.000000
    7       -2.341747   1.000000
    8       -1.630343   1.000000
    9       -1.298462   1.000001
   10        5.259299   0.000000
   11        6.575537   0.000000
   12        8.100338   0.000000
   13        8.599899   0.000000
 
  0.5000000E+00  0.3750000E+00  0.1250000E+00  0.4687500E-01
    1      -30.212735   1.000000
    2      -30.212293   1.000000
    3      -30.211581   1.000000
    4      -30.211048   1.000000
    5      -30.211005   1.000000
    6      -23.128872   1.000000
    7       -2.252149   1.000000
    8       -1.595410   1.000000
    9       -1.425203   1.000000
   10        5.119324   0.000000
   11        6.446236   0.000000
   12        7.189804   0.000000
   13        9.668702   0.000000
 
 -0.3750000E+00  0.3750000E+00  0.1250000E+00  0.9375000E-01
    1      -30.212493   1.000000
    2      -30.212061   1.000000
    3      -30.211617   1.000000
    4      -30.211323   1.000000
    5      -30.210854   1.000000
    6      -23.126110   1.000000
    7       -2.194999   1.000000
    8       -1.844782   1.000000
    9       -1.463124   1.000000
   10        5.604045   0.000000
   11        6.732891   0.000000
   12        7.339232   0.000000
   13        8.662024   0.000000
 
 -0.2500000E+00  0.3750000E+00  0.1250000E+00  0.4687500E-01
    1      -30.212389   1.000000
    2      -30.211921   1.000000
    3      -30.211747   1.000000
    4      -30.211415   1.000000
    5      -30.211029   1.000000
    6      -23.127256   1.000000
    7       -2.139889   1.000000
    8       -1.915929   1.000000
    9       -1.375318   1.000000
   10        5.877316   0.000000
   11        6.393809   0.000000
   12        7.468161   0.000000
   13        8.647654   0.000000
 
 -0.3750000E+00  0.5000000E+00  0.1250000E+00  0.2343750E-01
    1      -30.212801   1.000000
    2      -30.212324   1.000000
    3      -30.211293   1.000000
    4      -30.211075   1.000000
    5      -30.210723   1.000000
    6      -23.124990   1.000000
    7       -2.302344   1.000000
    8       -1.678875   1.000000
    9       -1.555103   1.000000
   10        5.114408   0.000000
   11        6.303963   0.000000
   12        8.461331   0.000000
   13        8.814426   0.000000
 
 -0.2500000E+00  0.5000000E+00  0.2500000E+00  0.1171875E-01
    1      -30.212146   1.000000
    2      -30.211954   1.000000
    3      -30.211954   1.000000
    4      -30.211497   1.000000
    5      -30.210739   1.000000
    6      -23.125037   1.000000
    7       -2.012784   1.000000
    8       -2.012784   1.000000
    9       -1.586275   1.000000
   10        6.130150   0.000000
   11        6.842462   0.000000
   12        7.451519   0.000000
   13        7.451519   0.000000
