    1    1    1    1
  0.6024138E+02  0.4400175E-09  0.4400175E-09  0.4400175E-09  0.1000000E-15
  1.000000000000000E-004
  CAR 
 Og_FCC                                  
     18     35     13
 
  0.0000000E+00  0.0000000E+00  0.0000000E+00  0.1371742E-02
    1      -28.518603   1.000000
    2      -28.518603   1.000000
    3      -28.518603   1.000000
    4      -28.515571   1.000000
    5      -28.515571   1.000000
    6      -21.539758   1.000000
    7        1.330709   0.797413
    8        1.330709   0.797413
    9        1.330709   0.797413
   10        3.298980  -0.000000
   11       10.434865   0.000000
   12       10.434865   0.000000
   13       10.434907   0.000000
 
  0.1111111E+00  0.1010271E-17 -0.1387779E-16  0.1097394E-01
    1      -28.518414   1.000000
    2      -28.518214   1.000000
    3      -28.518214   1.000000
    4      -28.515475   1.000000
    5      -28.515474   1.000000
    6      -21.530267   1.000000
    7        0.633136   1.000000
    8        1.283461   1.002321
    9        1.283461   1.002321
   10        4.079765  -0.000000
   11        9.616233   0.000000
   12       10.562451   0.000000
   13       10.562452   0.000000
 
  0.2222222E+00 -0.1185725E-16 -0.4163336E-16  0.1097394E-01
    1      -28.517831   1.000000
    2      -28.517708   1.000000
    3      -28.517708   1.000000
    4      -28.514631   1.000000
    5      -28.514631   1.000000
    6      -21.505914   1.000000
    7       -0.369659   1.000000
    8        1.168134   1.007842
    9        1.168134   1.007842
   10        5.156090   0.000000
   11        9.427561   0.000000
   12       10.585516   0.000000
   13       10.585519   0.000000
 
  0.3333333E+00  0.3078639E-16 -0.1387779E-16  0.1097394E-01
    1      -28.517804   1.000000
    2      -28.517804   1.000000
    3      -28.517167   1.000000
    4      -28.512996   1.000000
    5      -28.512996   1.000000
    6      -21.477957   1.000000
    7       -1.131005   1.000000
    8        1.043706   1.000022
    9        1.043706   1.000022
   10        5.667793   0.000000
   11       10.227222   0.000000
   12       10.244216   0.000000
   13       10.244289   0.000000
 
  0.4444444E+00 -0.2371449E-16 -0.8326673E-16  0.1097394E-01
    1      -28.518016   1.000000
    2      -28.518015   1.000000
    3      -28.516738   1.000000
    4      -28.511793   1.000000
    5      -28.511793   1.000000
    6      -21.459595   1.000000
    7       -1.532694   1.000000
    8        0.965918   1.000000
    9        0.965918   1.000000
   10        5.754967   0.000000
   11       10.003793   0.000000
   12       10.003793   0.000000
   13       10.315470   0.000000
 
  0.1111111E+00  0.1111111E+00  0.0000000E+00  0.8230453E-02
    1      -28.518931   1.000000
    2      -28.517706   1.000000
    3      -28.517706   1.000000
    4      -28.515849   1.000000
    5      -28.515186   1.000000
    6      -21.527089   1.000000
    7        0.592553   1.000000
    8        1.179380   1.011106
    9        1.179381   1.011106
   10        4.344793   0.000000
   11        9.302119   0.000000
   12       10.752534   0.000000
   13       10.757651   0.000000
 
  0.2222222E+00  0.1111111E+00 -0.2775558E-16  0.3292181E-01
    1      -28.518809   1.000000
    2      -28.516971   1.000000
    3      -28.516933   1.000000
    4      -28.515625   1.000000
    5      -28.514384   1.000000
    6      -21.507649   1.000000
    7       -0.157512   1.000000
    8        1.026224   1.000007
    9        1.067008   1.000085
   10        5.321455   0.000000
   11        8.933207   0.000000
   12       10.111990   0.000000
   13       10.990692   0.000000
 
  0.3333333E+00  0.1111111E+00 -0.2775558E-16  0.3292181E-01
    1      -28.518288   1.000000
    2      -28.516904   1.000000
    3      -28.516889   1.000000
    4      -28.514231   1.000000
    5      -28.512820   1.000000
    6      -21.480905   1.000000
    7       -0.901129   1.000000
    8        0.895542   1.000000
    9        0.897889   1.000000
   10        6.050901   0.000000
   11        9.367231   0.000000
   12        9.438428   0.000000
   13       10.778315   0.000000
 
  0.4444444E+00  0.1111111E+00 -0.8326673E-16  0.3292181E-01
    1      -28.518119   1.000000
    2      -28.517162   1.000000
    3      -28.516492   1.000000
    4      -28.512803   1.000000
    5      -28.511704   1.000000
    6      -21.459320   1.000000
    7       -1.370887   1.000000
    8        0.708396   1.000000
    9        0.847904   1.000000
   10        6.255945   0.000000
   11        9.059318   0.000000
   12       10.422131   0.000000
   13       10.679830   0.000000
 
 -0.4444444E+00  0.1111111E+00  0.9714451E-16  0.3292181E-01
    1      -28.518028   1.000000
    2      -28.517303   1.000000
    3      -28.516299   1.000000
    4      -28.512003   1.000000
    5      -28.511810   1.000000
    6      -21.453132   1.000000
    7       -1.488796   1.000000
    8        0.592034   1.000000
    9        0.895166   1.000000
   10        6.284226   0.000000
   11        8.999806   0.000000
   12       10.230087   0.000000
   13       11.451225   0.000000
 
 -0.3333333E+00  0.1111111E+00  0.2775558E-16  0.3292181E-01
    1      -28.517786   1.000000
    2      -28.517217   1.000000
    3      -28.516719   1.000000
    4      -28.513173   1.000000
    5      -28.512203   1.000000
    6      -21.465441   1.000000
    7       -1.242790   1.000000
    8        0.599059   1.000000
    9        1.021593   1.000005
   10        6.241344   0.000000
   11        9.258564   0.000000
   12       10.284211   0.000000
   13       10.407517   0.000000
 
 -0.2222222E+00  0.1111111E+00  0.2775558E-16  0.3292181E-01
    1      -28.517653   1.000000
    2      -28.517361   1.000000
    3      -28.517063   1.000000
    4      -28.514988   1.000000
    5      -28.513320   1.000000
    6      -21.490205   1.000000
    7       -0.678647   1.000000
    8        0.743643   1.000000
    9        1.174759   1.009667
   10        5.857667   0.000000
   11        9.316341   0.000000
   12        9.809502   0.000000
   13       10.593547   0.000000
 
 -0.1111111E+00  0.1111111E+00  0.1793182E-16  0.1646091E-01
    1      -28.518254   1.000000
    2      -28.517665   1.000000
    3      -28.517525   1.000000
    4      -28.515698   1.000000
    5      -28.514695   1.000000
    6      -21.515786   1.000000
    7        0.060672   1.000000
    8        1.010140   1.000002
    9        1.281444   1.006406
   10        4.909895   0.000000
   11        9.219861   0.000000
   12       10.482978   0.000000
   13       10.713078   0.000000
 
  0.2222222E+00  0.2222222E+00 -0.2775558E-16  0.8230453E-02
    1      -28.519654   1.000000
    2      -28.516523   1.000000
    3      -28.515337   1.000000
    4      -28.515337   1.000000
    5      -28.514150   1.000000
    6      -21.494695   1.000000
    7       -0.350192   1.000000
    8        0.829379   1.000000
    9        0.829379   1.000000
   10        5.956870   0.000000
   11        8.337426   0.000000
   12        9.637006   0.000000
   13       11.564239   0.000000
 
  0.3333333E+00  0.2222222E+00  0.0000000E+00  0.3292181E-01
    1      -28.519574   1.000000
    2      -28.516848   1.000000
    3      -28.514926   1.000000
    4      -28.513973   1.000000
    5      -28.512756   1.000000
    6      -21.472929   1.000000
    7       -0.805229   1.000000
    8        0.598799   1.000000
    9        0.671444   1.000000
   10        6.547186   0.000000
   11        8.244694   0.000000
   12        9.310800   0.000000
   13       11.735516   0.000000
 
  0.4444444E+00  0.2222222E+00 -0.8326673E-16  0.3292181E-01
    1      -28.518917   1.000000
    2      -28.516493   1.000000
    3      -28.515186   1.000000
    4      -28.513178   1.000000
    5      -28.511580   1.000000
    6      -21.452518   1.000000
    7       -1.147411   1.000000
    8        0.258998   1.000000
    9        0.615197   1.000000
   10        6.842845   0.000000
   11        8.789861   0.000000
   12        9.260819   0.000000
   13       11.379979   0.000000
 
 -0.4444444E+00  0.2222222E+00  0.1110223E-15  0.3292181E-01
    1      -28.518446   1.000000
    2      -28.515438   1.000000
    3      -28.515402   1.000000
    4      -28.513089   1.000000
    5      -28.511725   1.000000
    6      -21.443068   1.000000
    7       -1.249924   1.000000
    8       -0.045292   1.000000
    9        0.680908   1.000000
   10        7.017757   0.000000
   11        8.726442   0.000000
   12       10.559489   0.000000
   13       11.035331   0.000000
 
 -0.3333333E+00  0.2222222E+00  0.5551115E-16  0.3292181E-01
    1      -28.518025   1.000000
    2      -28.515499   1.000000
    3      -28.515433   1.000000
    4      -28.513173   1.000000
    5      -28.512756   1.000000
    6      -21.449128   1.000000
    7       -1.138534   1.000000
    8       -0.122494   1.000000
    9        0.845227   1.000000
   10        7.184378   0.000000
   11        8.715908   0.000000
   12       10.380482   0.000000
   13       10.852794   0.000000
 
 -0.2222222E+00  0.2222222E+00  0.4691541E-16  0.1646091E-01
    1      -28.517619   1.000000
    2      -28.516609   1.000000
    3      -28.515368   1.000000
    4      -28.515242   1.000000
    5      -28.512546   1.000000
    6      -21.467804   1.000000
    7       -0.934199   1.000000
    8        0.173598   1.000000
    9        1.041731   1.000019
   10        6.862408   0.000000
   11        9.028942   0.000000
   12        9.379232   0.000000
   13       10.800682   0.000000
 
  0.3333333E+00  0.3333333E+00 -0.2775558E-16  0.8230453E-02
    1      -28.520481   1.000000
    2      -28.517307   1.000000
    3      -28.512968   1.000000
    4      -28.512637   1.000000
    5      -28.512637   1.000000
    6      -21.457676   1.000000
    7       -0.996357   1.000000
    8        0.476357   1.000000
    9        0.476357   1.000000
   10        6.417967   0.000000
   11        7.691040   0.000000
   12       10.173732   0.000000
   13       12.603105   0.000000
 
  0.4444444E+00  0.3333333E+00 -0.5551115E-16  0.3292181E-01
    1      -28.520243   1.000000
    2      -28.517369   1.000000
    3      -28.513107   1.000000
    4      -28.511874   1.000000
    5      -28.511380   1.000000
    6      -21.442254   1.000000
    7       -1.169404   1.000000
    8        0.189976   1.000000
    9        0.390146   1.000000
   10        6.444680   0.000000
   11        7.792963   0.000000
   12       10.596728   0.000000
   13       12.624893   0.000000
 
 -0.4444444E+00  0.3333333E+00  0.4163336E-16  0.3292181E-01
    1      -28.519327   1.000000
    2      -28.516460   1.000000
    3      -28.513409   1.000000
    4      -28.512246   1.000000
    5      -28.511426   1.000000
    6      -21.433959   1.000000
    7       -1.103442   1.000000
    8       -0.310457   1.000000
    9        0.442610   1.000000
   10        6.700847   0.000000
   11        8.641987   0.000000
   12       10.531114   0.000000
   13       12.209547   0.000000
 
 -0.3333333E+00  0.3333333E+00  0.3921116E-16  0.1646091E-01
    1      -28.518579   1.000000
    2      -28.514548   1.000000
    3      -28.513926   1.000000
    4      -28.513617   1.000000
    5      -28.512575   1.000000
    6      -21.436697   1.000000
    7       -0.817319   1.000000
    8       -0.731388   1.000000
    9        0.616318   1.000000
   10        7.074070   0.000000
   11        9.376448   0.000000
   12       10.778461   0.000000
   13       10.946321   0.000000
 
  0.4444444E+00  0.4444444E+00 -0.5551115E-16  0.8230453E-02
    1      -28.521022   1.000000
    2      -28.517811   1.000000
    3      -28.512206   1.000000
    4      -28.510867   1.000000
    5      -28.510867   1.000000
    6      -21.433344   1.000000
    7       -1.312702   1.000000
    8        0.265969   1.000000
    9        0.265969   1.000000
   10        6.046821   0.000000
   11        7.367451   0.000000
   12       12.292603   0.000000
   13       13.511719   0.000000
 
 -0.4444444E+00  0.4444444E+00  0.9383081E-16  0.1646091E-01
    1      -28.520515   1.000000
    2      -28.517587   1.000000
    3      -28.512349   1.000000
    4      -28.511020   1.000000
    5      -28.510866   1.000000
    6      -21.430071   1.000000
    7       -1.279184   1.000000
    8        0.028964   1.000000
    9        0.285553   1.000000
   10        6.220236   0.000000
   11        7.639453   0.000000
   12       12.505004   0.000000
   13       12.628015   0.000000
 
  0.3333333E+00  0.2222222E+00  0.1111111E+00  0.3292181E-01
    1      -28.518660   1.000000
    2      -28.516930   1.000000
    3      -28.515674   1.000000
    4      -28.515436   1.000000
    5      -28.513250   1.000000
    6      -21.487052   1.000000
    7       -0.606570   1.000000
    8        0.624949   1.000000
    9        1.006567   1.000002
   10        6.208493   0.000000
   11        8.715252   0.000000
   12        9.391833   0.000000
   13       11.397132   0.000000
 
  0.4444444E+00  0.2222222E+00  0.1111111E+00  0.6584362E-01
    1      -28.517968   1.000000
    2      -28.517048   1.000000
    3      -28.515698   1.000000
    4      -28.513885   1.000000
    5      -28.512231   1.000000
    6      -21.463504   1.000000
    7       -1.036432   1.000000
    8        0.304319   1.000000
    9        0.860803   1.000000
   10        6.882055   0.000000
   11        8.798264   0.000000
   12        9.239508   0.000000
   13       11.092287   0.000000
 
 -0.4444444E+00  0.2222222E+00  0.1111111E+00  0.6584362E-01
    1      -28.517842   1.000000
    2      -28.516815   1.000000
    3      -28.515301   1.000000
    4      -28.512994   1.000000
    5      -28.511810   1.000000
    6      -21.447974   1.000000
    7       -1.290158   1.000000
    8        0.151139   1.000000
    9        0.733696   1.000000
   10        7.062465   0.000000
   11        8.465384   0.000000
   12       10.579900   0.000000
   13       10.918735   0.000000
 
  0.4444444E+00  0.3333333E+00  0.1111111E+00  0.3292181E-01
    1      -28.519353   1.000000
    2      -28.517046   1.000000
    3      -28.514447   1.000000
    4      -28.512687   1.000000
    5      -28.512054   1.000000
    6      -21.454342   1.000000
    7       -1.026018   1.000000
    8        0.243328   1.000000
    9        0.546877   1.000000
   10        6.887337   0.000000
   11        8.205376   0.000000
   12        9.337691   0.000000
   13       12.356076   0.000000
 
 -0.4444444E+00  0.3333333E+00  0.1111111E+00  0.6584362E-01
    1      -28.518429   1.000000
    2      -28.516593   1.000000
    3      -28.514518   1.000000
    4      -28.512590   1.000000
    5      -28.511519   1.000000
    6      -21.439973   1.000000
    7       -1.093637   1.000000
    8       -0.141608   1.000000
    9        0.429849   1.000000
   10        7.227007   0.000000
   11        8.773387   0.000000
   12        9.286269   0.000000
   13       12.067971   0.000000
 
 -0.3333333E+00  0.3333333E+00  0.1111111E+00  0.6584362E-01
    1      -28.517893   1.000000
    2      -28.515662   1.000000
    3      -28.514170   1.000000
    4      -28.513852   1.000000
    5      -28.511658   1.000000
    6      -21.436694   1.000000
    7       -1.003999   1.000000
    8       -0.439199   1.000000
    9        0.481760   1.000000
   10        7.546159   0.000000
   11        8.665613   0.000000
   12       10.400817   0.000000
   13       10.918463   0.000000
 
 -0.2222222E+00  0.3333333E+00  0.1111111E+00  0.3292181E-01
    1      -28.517499   1.000000
    2      -28.516508   1.000000
    3      -28.514957   1.000000
    4      -28.512793   1.000000
    5      -28.512729   1.000000
    6      -21.446004   1.000000
    7       -1.015875   1.000000
    8       -0.259539   1.000000
    9        0.669257   1.000000
   10        7.773502   0.000000
   11        8.348932   0.000000
   12        9.478734   0.000000
   13       11.618365   0.000000
 
 -0.4444444E+00  0.4444444E+00  0.1111111E+00  0.3292181E-01
    1      -28.519799   1.000000
    2      -28.517340   1.000000
    3      -28.512921   1.000000
    4      -28.511757   1.000000
    5      -28.510874   1.000000
    6      -21.432878   1.000000
    7       -1.191488   1.000000
    8        0.018479   1.000000
    9        0.212494   1.000000
   10        6.579513   0.000000
   11        7.926268   0.000000
   12       10.888180   0.000000
   13       12.645884   0.000000
 
 -0.3333333E+00  0.4444444E+00  0.1111111E+00  0.3292181E-01
    1      -28.518619   1.000000
    2      -28.516469   1.000000
    3      -28.513235   1.000000
    4      -28.513174   1.000000
    5      -28.510905   1.000000
    6      -21.430706   1.000000
    7       -1.000657   1.000000
    8       -0.411931   1.000000
    9        0.254130   1.000000
   10        7.054993   0.000000
   11        8.748865   0.000000
   12       10.380725   0.000000
   13       11.197033   0.000000
 
 -0.3333333E+00  0.4444444E+00  0.2222222E+00  0.3292181E-01
    1      -28.516725   1.000000
    2      -28.516712   1.000000
    3      -28.514881   1.000000
    4      -28.513345   1.000000
    5      -28.510891   1.000000
    6      -21.431801   1.000000
    7       -0.860757   1.000000
    8       -0.509868   1.000000
    9        0.172564   1.000000
   10        7.887364   0.000000
   11        8.932811   0.000000
   12        9.358075   0.000000
   13       10.734582   0.000000
