       N       E                     dE             d eps       ncg     rms          rms(c)
DAV:   1     0.311829372709E+03    0.31183E+03   -0.90814E+03   754   0.129E+03
DAV:   2     0.131362873715E+02   -0.29869E+03   -0.29026E+03  1064   0.428E+02
DAV:   3     0.221365019726E+00   -0.12915E+02   -0.12893E+02   934   0.112E+02
DAV:   4    -0.400183554802E-02   -0.22537E+00   -0.22534E+00  1037   0.183E+01
DAV:   5    -0.120835849284E-01   -0.80817E-02   -0.80816E-02   968   0.279E+00    0.138E-01
RMM:   6    -0.127848784409E-01   -0.70129E-03   -0.54470E-03   894   0.837E-01    0.705E-02
RMM:   7    -0.131517655218E-01   -0.36689E-03   -0.15960E-03   974   0.363E-01    0.109E-02
RMM:   8    -0.131729021955E-01   -0.21137E-04   -0.11634E-04   961   0.131E-01    0.696E-03
RMM:   9    -0.131857959200E-01   -0.12894E-04   -0.36773E-05   985   0.576E-02    0.214E-03
RMM:  10    -0.131853562116E-01    0.43971E-06   -0.50170E-06  1052   0.231E-02    0.108E-03
RMM:  11    -0.131861418317E-01   -0.78562E-06   -0.13548E-06   813   0.116E-02    0.278E-04
RMM:  12    -0.131860939296E-01    0.47902E-07   -0.19684E-07   639   0.613E-03
   1 F= -.13186094E-01 E0= -.13699810E-01  d E =0.154115E-02
