<?xml version="1.0" encoding="ISO-8859-1"?>
<modeling>
 <generator>
  <i name="program" type="string">vasp </i>
  <i name="version" type="string">5.4.4.18Apr17-6-g9f103f2a35  </i>
  <i name="subversion" type="string">(build Nov 03 2018 10:20:43) complex            parallel </i>
  <i name="platform" type="string">LinuxIFC </i>
  <i name="date" type="string">2018 12 03 </i>
  <i name="time" type="string">16:12:55 </i>
 </generator>
 <incar>
  <i type="string" name="SYSTEM">   Og_FCC</i>
  <i type="string" name="PREC">accurate</i>
  <i type="string" name="ALGO">   Fast</i>
  <i type="logical" name="ADDGRID"> T  </i>
  <i type="logical" name="LSORBIT"> F  </i>
  <i type="int" name="ISPIN">     1</i>
  <i type="int" name="MAXMIX">    50</i>
  <i type="int" name="NELM">   100</i>
  <i type="int" name="NELMDL">    -5</i>
  <i type="int" name="NELMIN">     5</i>
  <i type="int" name="IBRION">    -1</i>
  <i type="int" name="NFREE">     5</i>
  <i name="EDIFF">      0.00000010</i>
  <i name="EDIFFG">      0.00001000</i>
  <i type="int" name="NSW">     1</i>
  <i type="int" name="ISIF">     7</i>
  <i type="int" name="ISYM">     2</i>
  <i name="SYMPREC">      0.00000010</i>
  <i name="ENCUT">    600.00000000</i>
  <i name="POTIM">      0.10000000</i>
  <i type="logical" name="LREAL"> F  </i>
  <i type="int" name="ISMEAR">     1</i>
  <i name="SIGMA">      0.10000000</i>
  <i name="KSPACING">      0.20000000</i>
  <i type="int" name="NWRITE">     2</i>
  <i type="logical" name="LWAVE"> F  </i>
  <i type="logical" name="LCHARG"> F  </i>
  <i type="logical" name="LVTOT"> F  </i>
  <i type="logical" name="GGA_COMPAT"> F  </i>
  <v type="int" name="KPOINT_BSE">    -1     0     0     0</v>
  <i type="int" name="NELM">   100</i>
  <i type="string" name="GGA"> PE</i>
 </incar>
 <structure name="primitive_cell" >
  <crystal>
   <varray name="basis" >
    <v>       4.84601560       0.00000000       0.00000000 </v>
    <v>       2.42300780       4.19677262      -0.00000000 </v>
    <v>       2.42300780       1.39892421       3.95675517 </v>
   </varray>
   <i name="volume">     80.47100501 </i>
   <varray name="rec_basis" >
    <v>       0.20635509      -0.11913917      -0.08424411 </v>
    <v>       0.00000000       0.23827834      -0.08424411 </v>
    <v>      -0.00000000       0.00000000       0.25273234 </v>
   </varray>
  </crystal>
  <varray name="positions" >
   <v>       0.00000000       0.00000000       0.00000000 </v>
  </varray>
 </structure>
 <varray name="primitive_index" >
  <v type="int" >        1 </v>
 </varray>
 <kpoints>
  <generation param="Gamma">
   <v type="int" name="divisions">       8        8        8 </v>
   <v name="usershift">      0.00000000       0.00000000       0.00000000 </v>
   <v name="genvec1">      0.12500000       0.00000000       0.00000000 </v>
   <v name="genvec2">      0.00000000       0.12500000       0.00000000 </v>
   <v name="genvec3">      0.00000000       0.00000000       0.12500000 </v>
   <v name="shift">      0.00000000       0.00000000       0.00000000 </v>
  </generation>
  <varray name="kpointlist" >
   <v>       0.00000000       0.00000000       0.00000000 </v>
   <v>       0.12500000      -0.00000000       0.00000000 </v>
   <v>       0.25000000      -0.00000000       0.00000000 </v>
   <v>       0.37500000       0.00000000       0.00000000 </v>
   <v>       0.50000000      -0.00000000       0.00000000 </v>
   <v>       0.12500000       0.12500000       0.00000000 </v>
   <v>       0.25000000       0.12500000       0.00000000 </v>
   <v>       0.37500000       0.12500000       0.00000000 </v>
   <v>       0.50000000       0.12500000       0.00000000 </v>
   <v>      -0.37500000       0.12500000      -0.00000000 </v>
   <v>      -0.25000000       0.12500000       0.00000000 </v>
   <v>      -0.12500000       0.12500000       0.00000000 </v>
   <v>       0.25000000       0.25000000       0.00000000 </v>
   <v>       0.37500000       0.25000000       0.00000000 </v>
   <v>       0.50000000       0.25000000       0.00000000 </v>
   <v>      -0.37500000       0.25000000      -0.00000000 </v>
   <v>      -0.25000000       0.25000000       0.00000000 </v>
   <v>       0.37500000       0.37500000       0.00000000 </v>
   <v>       0.50000000       0.37500000       0.00000000 </v>
   <v>      -0.37500000       0.37500000      -0.00000000 </v>
   <v>       0.50000000       0.50000000       0.00000000 </v>
   <v>       0.37500000       0.25000000       0.12500000 </v>
   <v>       0.50000000       0.25000000       0.12500000 </v>
   <v>      -0.37500000       0.25000000       0.12500000 </v>
   <v>       0.50000000       0.37500000       0.12500000 </v>
   <v>      -0.37500000       0.37500000       0.12500000 </v>
   <v>      -0.25000000       0.37500000       0.12500000 </v>
   <v>      -0.37500000       0.50000000       0.12500000 </v>
   <v>      -0.25000000       0.50000000       0.25000000 </v>
  </varray>
  <varray name="weights" >
   <v>       0.00195312 </v>
   <v>       0.01562500 </v>
   <v>       0.01562500 </v>
   <v>       0.01562500 </v>
   <v>       0.00781250 </v>
   <v>       0.01171875 </v>
   <v>       0.04687500 </v>
   <v>       0.04687500 </v>
   <v>       0.04687500 </v>
   <v>       0.04687500 </v>
   <v>       0.04687500 </v>
   <v>       0.02343750 </v>
   <v>       0.01171875 </v>
   <v>       0.04687500 </v>
   <v>       0.04687500 </v>
   <v>       0.04687500 </v>
   <v>       0.02343750 </v>
   <v>       0.01171875 </v>
   <v>       0.04687500 </v>
   <v>       0.02343750 </v>
   <v>       0.00585938 </v>
   <v>       0.04687500 </v>
   <v>       0.09375000 </v>
   <v>       0.04687500 </v>
   <v>       0.04687500 </v>
   <v>       0.09375000 </v>
   <v>       0.04687500 </v>
   <v>       0.02343750 </v>
   <v>       0.01171875 </v>
  </varray>
 </kpoints>
 <parameters>
  <separator name="general" >
   <i type="string" name="SYSTEM">Og_FCC</i>
   <i type="logical" name="LCOMPAT"> F  </i>
  </separator>
  <separator name="electronic" >
   <i type="string" name="PREC">accura</i>
   <i name="ENMAX">    600.00000000</i>
   <i name="ENAUG">    361.02500000</i>
   <i name="EDIFF">      0.00000010</i>
   <i type="int" name="IALGO">    68</i>
   <i type="int" name="IWAVPR">    10</i>
   <i type="int" name="NBANDS">    13</i>
   <i name="NELECT">     18.00000000</i>
   <i type="int" name="TURBO">     0</i>
   <i type="int" name="IRESTART">     0</i>
   <i type="int" name="NREBOOT">     0</i>
   <i type="int" name="NMIN">     0</i>
   <i name="EREF">      0.00000000</i>
   <separator name="electronic smearing" >
    <i type="int" name="ISMEAR">     1</i>
    <i name="SIGMA">      0.10000000</i>
    <i name="KSPACING">      0.20000000</i>
    <i type="logical" name="KGAMMA"> T  </i>
   </separator>
   <separator name="electronic projectors" >
    <i type="logical" name="LREAL"> F  </i>
    <v name="ROPT">      0.00000000</v>
    <i type="int" name="LMAXPAW">  -100</i>
    <i type="int" name="LMAXMIX">     2</i>
    <i type="logical" name="NLSPLINE"> F  </i>
   </separator>
   <separator name="electronic startup" >
    <i type="int" name="ISTART">     0</i>
    <i type="int" name="ICHARG">     2</i>
    <i type="int" name="INIWAV">     1</i>
   </separator>
   <separator name="electronic spin" >
    <i type="int" name="ISPIN">     1</i>
    <i type="logical" name="LNONCOLLINEAR"> F  </i>
    <v name="MAGMOM">      1.00000000</v>
    <i name="NUPDOWN">     -1.00000000</i>
    <i type="logical" name="LSORBIT"> F  </i>
    <v name="SAXIS">      0.00000000      0.00000000      1.00000000</v>
    <i type="logical" name="LSPIRAL"> F  </i>
    <v name="QSPIRAL">      0.00000000      0.00000000      0.00000000</v>
    <i type="logical" name="LZEROZ"> F  </i>
   </separator>
   <separator name="electronic exchange-correlation" >
    <i type="logical" name="LASPH"> F  </i>
    <i type="logical" name="LMETAGGA"> F  </i>
   </separator>
   <separator name="electronic convergence" >
    <i type="int" name="NELM">   100</i>
    <i type="int" name="NELMDL">    -5</i>
    <i type="int" name="NELMIN">     5</i>
    <i name="ENINI">    600.00000000</i>
    <separator name="electronic convergence detail" >
     <i type="logical" name="LDIAG"> T  </i>
     <i type="logical" name="LSUBROT"> F  </i>
     <i name="WEIMIN">      0.00000000</i>
     <i name="EBREAK">      0.00000000</i>
     <i name="DEPER">      0.30000000</i>
     <i type="int" name="NRMM">     4</i>
     <i name="TIME">      0.40000000</i>
    </separator>
   </separator>
   <separator name="electronic mixer" >
    <i name="AMIX">      0.40000000</i>
    <i name="BMIX">      1.00000000</i>
    <i name="AMIN">      0.10000000</i>
    <i name="AMIX_MAG">      1.60000000</i>
    <i name="BMIX_MAG">      1.00000000</i>
    <separator name="electronic mixer details" >
     <i type="int" name="IMIX">     4</i>
     <i type="logical" name="MIXFIRST"> F  </i>
     <i type="int" name="MAXMIX">    50</i>
     <i name="WC">    100.00000000</i>
     <i type="int" name="INIMIX">     1</i>
     <i type="int" name="MIXPRE">     1</i>
     <i type="int" name="MREMOVE">     5</i>
    </separator>
   </separator>
   <separator name="electronic dipolcorrection" >
    <i type="logical" name="LDIPOL"> F  </i>
    <i type="logical" name="LMONO"> F  </i>
    <i type="int" name="IDIPOL">     0</i>
    <i name="EPSILON">      1.00000000</i>
    <v name="DIPOL">   -100.00000000   -100.00000000   -100.00000000</v>
    <i name="EFIELD">      0.00000000</i>
   </separator>
  </separator>
  <separator name="grids" >
   <i type="int" name="NGX">    40</i>
   <i type="int" name="NGY">    40</i>
   <i type="int" name="NGZ">    40</i>
   <i type="int" name="NGXF">    80</i>
   <i type="int" name="NGYF">    80</i>
   <i type="int" name="NGZF">    80</i>
   <i type="logical" name="ADDGRID"> T  </i>
  </separator>
  <separator name="ionic" >
   <i type="int" name="NSW">     1</i>
   <i type="int" name="IBRION">    -1</i>
   <i type="int" name="MDALGO">     0</i>
   <i type="int" name="ISIF">     7</i>
   <i name="PSTRESS">      0.00000000</i>
   <i name="EDIFFG">      0.00001000</i>
   <i type="int" name="NFREE">     5</i>
   <i name="POTIM">      0.10000000</i>
   <i name="SMASS">     -3.00000000</i>
   <i name="SCALEE">      1.00000000</i>
  </separator>
  <separator name="ionic md" >
   <i name="TEBEG">      0.00010000</i>
   <i name="TEEND">      0.00010000</i>
   <i type="int" name="NBLOCK">     1</i>
   <i type="int" name="KBLOCK">     1</i>
   <i type="int" name="NPACO">   256</i>
   <i name="APACO">     16.00000000</i>
  </separator>
  <separator name="symmetry" >
   <i type="int" name="ISYM">     2</i>
   <i name="SYMPREC">      0.00000010</i>
  </separator>
  <separator name="dos" >
   <i type="int" name="LORBIT">     0</i>
   <v name="RWIGS">     -1.00000000</v>
   <i type="int" name="NEDOS">   301</i>
   <i name="EMIN">     10.00000000</i>
   <i name="EMAX">    -10.00000000</i>
   <i name="EFERMI">      0.00000000</i>
  </separator>
  <separator name="writing" >
   <i type="int" name="NWRITE">     2</i>
   <i type="logical" name="LWAVE"> F  </i>
   <i type="logical" name="LDOWNSAMPLE"> F  </i>
   <i type="logical" name="LCHARG"> F  </i>
   <i type="logical" name="LPARD"> F  </i>
   <i type="logical" name="LVTOT"> F  </i>
   <i type="logical" name="LVHAR"> F  </i>
   <i type="logical" name="LELF"> F  </i>
   <i type="logical" name="LOPTICS"> F  </i>
   <v name="STM">      0.00000000      0.00000000      0.00000000      0.00000000      0.00000000      0.00000000      0.00000000</v>
  </separator>
  <separator name="performance" >
   <i type="int" name="NPAR">     1</i>
   <i type="int" name="NSIM">     4</i>
   <i type="int" name="NBLK">    -1</i>
   <i type="logical" name="LPLANE"> T  </i>
   <i type="logical" name="LSCALAPACK"> T  </i>
   <i type="logical" name="LSCAAWARE"> F  </i>
   <i type="logical" name="LSCALU"> F  </i>
   <i type="logical" name="LASYNC"> F  </i>
   <i type="logical" name="LORBITALREAL"> F  </i>
  </separator>
  <separator name="miscellaneous" >
   <i type="int" name="IDIOT">     3</i>
   <i type="int" name="ISPECIAL">     0</i>
   <i type="logical" name="LMUSIC"> F  </i>
   <v name="POMASS">      0.01000000</v>
   <v name="DARWINR">      0.00000000</v>
   <v name="DARWINV">      1.00000000</v>
   <i type="logical" name="LCORR"> T  </i>
  </separator>
  <i type="logical" name="GGA_COMPAT"> F  </i>
  <i type="logical" name="LBERRY"> F  </i>
  <i type="int" name="ICORELEVEL">     0</i>
  <i type="logical" name="LDAU"> F  </i>
  <i type="int" name="I_CONSTRAINED_M">     0</i>
  <separator name="electronic exchange-correlation" >
   <i type="string" name="GGA">PE</i>
   <i type="int" name="VOSKOWN">     0</i>
   <i type="logical" name="LHFCALC"> F  </i>
   <i type="string" name="PRECFOCK"></i>
   <i type="logical" name="LSYMGRAD"> F  </i>
   <i type="logical" name="LHFONE"> F  </i>
   <i type="logical" name="LRHFCALC"> F  </i>
   <i type="logical" name="LTHOMAS"> F  </i>
   <i type="logical" name="LMODELHF"> F  </i>
   <i name="ENCUT4O">     -1.00000000</i>
   <i type="int" name="EXXOEP">     0</i>
   <i type="int" name="FOURORBIT">     0</i>
   <i name="AEXX">      0.00000000</i>
   <i name="HFALPHA">      0.00000000</i>
   <i name="MCALPHA">      0.00000000</i>
   <i name="ALDAX">      1.00000000</i>
   <i name="AGGAX">      1.00000000</i>
   <i name="ALDAC">      1.00000000</i>
   <i name="AGGAC">      1.00000000</i>
   <i type="int" name="NKREDX">     1</i>
   <i type="int" name="NKREDY">     1</i>
   <i type="int" name="NKREDZ">     1</i>
   <i type="logical" name="SHIFTRED"> F  </i>
   <i type="logical" name="ODDONLY"> F  </i>
   <i type="logical" name="EVENONLY"> F  </i>
   <i type="int" name="LMAXFOCK">     0</i>
   <i type="int" name="NMAXFOCKAE">     0</i>
   <i type="logical" name="LFOCKAEDFT"> F  </i>
   <i name="HFSCREEN">      0.00000000</i>
   <i name="HFSCREENC">      0.00000000</i>
   <i type="int" name="NBANDSGWLOW">     0</i>
  </separator>
  <separator name="vdW DFT" >
   <i type="logical" name="LUSE_VDW"> F  </i>
   <i name="Zab_VDW">     -0.84910000</i>
   <i name="PARAM1">      0.12340000</i>
   <i name="PARAM2">      1.00000000</i>
   <i name="PARAM3">      0.00000000</i>
  </separator>
  <separator name="model GW" >
   <i type="int" name="MODEL_GW">     0</i>
   <i name="MODEL_EPS0">     48.28260301</i>
   <i name="MODEL_ALPHA">      1.00000000</i>
  </separator>
  <separator name="linear response parameters" >
   <i type="logical" name="LEPSILON"> F  </i>
   <i type="logical" name="LRPA"> F  </i>
   <i type="logical" name="LNABLA"> F  </i>
   <i type="logical" name="LVEL"> F  </i>
   <i type="int" name="KINTER">     0</i>
   <i name="CSHIFT">      0.10000000</i>
   <i name="OMEGAMAX">     -1.00000000</i>
   <i name="DEG_THRESHOLD">      0.00200000</i>
   <i name="RTIME">     -0.10000000</i>
   <i name="WPLASMAI">      0.00000000</i>
   <v name="DFIELD">      0.00000000      0.00000000      0.00000000</v>
   <v name="WPLASMA">      0.00000000      0.00000000      0.00000000      0.00000000      0.00000000      0.00000000      0.00000000      0.00000000      0.00000000</v>
  </separator>
  <separator name="orbital magnetization" >
   <i type="logical" name="NUCIND"> F  </i>
   <v name="MAGPOS">      0.00000000      0.00000000      0.00000000</v>
   <i type="logical" name="LNICSALL"> T  </i>
   <i type="logical" name="ORBITALMAG"> F  </i>
   <i type="logical" name="LMAGBLOCH"> F  </i>
   <i type="logical" name="LCHIMAG"> F  </i>
   <i type="logical" name="LGAUGE"> T  </i>
   <i type="int" name="MAGATOM">     0</i>
   <v name="MAGDIPOL">      0.00000000      0.00000000      0.00000000</v>
   <v name="AVECCONST">      0.00000000      0.00000000      0.00000000</v>
  </separator>
  <separator name="response functions" >
   <i type="logical" name="LADDER"> F  </i>
   <i type="logical" name="LRPAFORCE"> F  </i>
   <i type="logical" name="LFXC"> F  </i>
   <i type="logical" name="LHARTREE"> T  </i>
   <i type="int" name="IBSE">     0</i>
   <v type="int" name="KPOINT">    -1     0     0     0</v>
   <i type="logical" name="LTCTE"> F  </i>
   <i type="logical" name="LTETE"> F  </i>
   <i type="logical" name="LTRIPLET"> F  </i>
   <i type="logical" name="LFXCEPS"> F  </i>
   <i type="logical" name="LFXHEG"> F  </i>
   <i type="int" name="NATURALO">     2</i>
   <i type="logical" name="L2ORDER"> F  </i>
   <i type="logical" name="LMP2LT"> F  </i>
   <i type="logical" name="LUSEW"> F  </i>
   <i name="ENCUTGW">     -2.00000000</i>
   <i name="ENCUTGWSOFT">     -2.00000000</i>
   <i name="ENCUTLF">     -1.00000000</i>
   <i type="int" name="LMAXMP2">    -1</i>
   <i name="SCISSOR">      0.00000000</i>
   <i type="int" name="NOMEGA">     0</i>
   <i type="int" name="NOMEGAR">     0</i>
   <i type="int" name="NBANDSGW">    -1</i>
   <i type="int" name="NBANDSO">    -1</i>
   <i type="int" name="NBANDSV">    -1</i>
   <i type="int" name="NELM">   100</i>
   <i type="int" name="NELMHF">     1</i>
   <i type="int" name="DIM">     3</i>
   <i type="int" name="ANTIRES">     0</i>
   <i name="OMEGAMAX">    -30.00000000</i>
   <i name="OMEGAMIN">    -30.00000000</i>
   <i name="OMEGATL">   -200.00000000</i>
   <i type="int" name="OMEGAGRID">   140</i>
   <i name="CSHIFT">     -0.10000000</i>
   <i type="logical" name="SELFENERGY"> F  </i>
   <i type="logical" name="LSPECTRAL"> F  </i>
   <i type="logical" name="LSPECTRALGW"> F  </i>
   <i type="logical" name="LSINGLES"> F  </i>
   <i type="logical" name="LFERMIGW"> F  </i>
   <i type="logical" name="ODDONLYGW"> F  </i>
   <i type="logical" name="EVENONLYGW"> F  </i>
   <i type="int" name="NKREDLFX">     1</i>
   <i type="int" name="NKREDLFY">     1</i>
   <i type="int" name="NKREDLFZ">     1</i>
   <i type="int" name="MAXMEM">  2800</i>
   <i type="int" name="TELESCOPE">     0</i>
   <i type="int" name="TAUPAR">     1</i>
   <i type="int" name="OMEGAPAR">    -1</i>
   <i name="LAMBDA">      1.00000000</i>
  </separator>
  <separator name="External order field" >
   <i name="OFIELD_KAPPA">      0.00000000</i>
   <v name="OFIELD_K">      0.00000000      0.00000000      0.00000000</v>
   <i name="OFIELD_Q6_NEAR">      0.00000000</i>
   <i name="OFIELD_Q6_FAR">      0.00000000</i>
   <i name="OFIELD_A">      0.00000000</i>
  </separator>
 </parameters>
 <atominfo>
  <atoms>       1 </atoms>
  <types>       1 </types>
  <array name="atoms" >
   <dimension dim="1">ion</dimension>
   <field type="string">element</field>
   <field type="int">atomtype</field>
   <set>
    <rc><c>Og</c><c>   1</c></rc>
   </set>
  </array>
  <array name="atomtypes" >
   <dimension dim="1">type</dimension>
   <field type="int">atomspertype</field>
   <field type="string">element</field>
   <field>mass</field>
   <field>valence</field>
   <field type="string">pseudopotential</field>
   <set>
    <rc><c>   1</c><c>Og</c><c>      0.01000000</c><c>     18.00000000</c><c>  PAW Og, JanMewes Oct 18               </c></rc>
   </set>
  </array>
 </atominfo>
 <structure name="initialpos" >
  <crystal>
   <varray name="basis" >
    <v>       4.84601560       0.00000000       0.00000000 </v>
    <v>       2.42300780       4.19677262      -0.00000000 </v>
    <v>       2.42300780       1.39892421       3.95675517 </v>
   </varray>
   <i name="volume">     80.47100501 </i>
   <varray name="rec_basis" >
    <v>       0.20635509      -0.11913917      -0.08424411 </v>
    <v>       0.00000000       0.23827834      -0.08424411 </v>
    <v>      -0.00000000       0.00000000       0.25273234 </v>
   </varray>
  </crystal>
  <varray name="positions" >
   <v>       0.00000000       0.00000000       0.00000000 </v>
  </varray>
  <varray name="velocities" >
   <v>       0.00000000       0.00000000       0.00000000 </v>
  </varray>
 </structure>
 <calculation>
  <scstep>
   <time name="dav">    0.39    0.39</time>
   <time name="total">    0.80    0.80</time>
   <energy>
    <i name="alphaZ">     47.41156892 </i>
    <i name="ewald">  -1560.62139842 </i>
    <i name="hartreedc">   -784.31961549 </i>
    <i name="XCdc">    -69.55986663 </i>
    <i name="pawpsdc">   2268.42939301 </i>
    <i name="pawaedc">  -2184.22833953 </i>
    <i name="eentropy">     -0.00126497 </i>
    <i name="bandstr">    -45.80983122 </i>
    <i name="atom">   2640.52872706 </i>
    <i name="e_fr_energy">    311.82937271 </i>
    <i name="e_wo_entrp">    311.83063768 </i>
    <i name="e_0_energy">    311.82979437 </i>
   </energy>
  </scstep>
  <scstep>
   <time name="dav">    0.45    0.45</time>
   <time name="total">    0.45    0.45</time>
   <energy>
    <i name="e_fr_energy">     13.13628737 </i>
    <i name="e_wo_entrp">     13.13574382 </i>
    <i name="e_0_energy">     13.13610619 </i>
   </energy>
  </scstep>
  <scstep>
   <time name="dav">    0.41    0.41</time>
   <time name="total">    0.41    0.41</time>
   <energy>
    <i name="e_fr_energy">      0.22136502 </i>
    <i name="e_wo_entrp">      0.21985013 </i>
    <i name="e_0_energy">      0.22086006 </i>
   </energy>
  </scstep>
  <scstep>
   <time name="dav">    0.44    0.44</time>
   <time name="total">    0.44    0.44</time>
   <energy>
    <i name="e_fr_energy">     -0.00400184 </i>
    <i name="e_wo_entrp">     -0.00553738 </i>
    <i name="e_0_energy">     -0.00451368 </i>
   </energy>
  </scstep>
  <scstep>
   <time name="dav">    0.41    0.41</time>
   <time name="total">    0.60    0.60</time>
   <energy>
    <i name="e_fr_energy">     -0.01208358 </i>
    <i name="e_wo_entrp">     -0.01362103 </i>
    <i name="e_0_energy">     -0.01259607 </i>
   </energy>
  </scstep>
  <scstep>
   <time name="diag">    0.09    0.09</time>
   <time name="diis">    0.41    0.41</time>
   <time name="orth">    0.00    0.00</time>
   <time name="total">    1.10    1.10</time>
   <energy>
    <i name="e_fr_energy">     -0.01278488 </i>
    <i name="e_wo_entrp">     -0.01432463 </i>
    <i name="e_0_energy">     -0.01329813 </i>
   </energy>
  </scstep>
  <scstep>
   <time name="diag">    0.09    0.09</time>
   <time name="diis">    0.44    0.44</time>
   <time name="orth">    0.00    0.00</time>
   <time name="total">    1.12    1.12</time>
   <energy>
    <i name="e_fr_energy">     -0.01315177 </i>
    <i name="e_wo_entrp">     -0.01469455 </i>
    <i name="e_0_energy">     -0.01366603 </i>
   </energy>
  </scstep>
  <scstep>
   <time name="diag">    0.09    0.09</time>
   <time name="diis">    0.43    0.43</time>
   <time name="orth">    0.00    0.00</time>
   <time name="total">    1.11    1.10</time>
   <energy>
    <i name="e_fr_energy">     -0.01317290 </i>
    <i name="e_wo_entrp">     -0.01471494 </i>
    <i name="e_0_energy">     -0.01368692 </i>
   </energy>
  </scstep>
  <scstep>
   <time name="diag">    0.09    0.09</time>
   <time name="diis">    0.45    0.45</time>
   <time name="orth">    0.00    0.00</time>
   <time name="total">    1.14    1.14</time>
   <energy>
    <i name="e_fr_energy">     -0.01318580 </i>
    <i name="e_wo_entrp">     -0.01472675 </i>
    <i name="e_0_energy">     -0.01369945 </i>
   </energy>
  </scstep>
  <scstep>
   <time name="diag">    0.08    0.08</time>
   <time name="diis">    0.48    0.48</time>
   <time name="orth">    0.00    0.00</time>
   <time name="total">    1.20    1.20</time>
   <energy>
    <i name="e_fr_energy">     -0.01318536 </i>
    <i name="e_wo_entrp">     -0.01472658 </i>
    <i name="e_0_energy">     -0.01369910 </i>
   </energy>
  </scstep>
  <scstep>
   <time name="diag">    0.07    0.07</time>
   <time name="diis">    0.37    0.37</time>
   <time name="orth">    0.00    0.00</time>
   <time name="total">    1.12    1.12</time>
   <energy>
    <i name="e_fr_energy">     -0.01318614 </i>
    <i name="e_wo_entrp">     -0.01472731 </i>
    <i name="e_0_energy">     -0.01369986 </i>
   </energy>
  </scstep>
  <scstep>
   <time name="diag">    0.07    0.07</time>
   <time name="diis">    0.30    0.30</time>
   <time name="orth">    0.00    0.00</time>
   <time name="total">    0.78    0.78</time>
   <energy>
    <i name="alphaZ">     47.41156892 </i>
    <i name="ewald">  -1560.62139842 </i>
    <i name="hartreedc">   -783.64587237 </i>
    <i name="XCdc">    -69.59923497 </i>
    <i name="pawpsdc">   2265.91430005 </i>
    <i name="pawaedc">  -2181.69470235 </i>
    <i name="eentropy">      0.00154115 </i>
    <i name="bandstr">   -358.30811515 </i>
    <i name="atom">   2640.52872706 </i>
    <i name="e_fr_energy">     -0.01318609 </i>
    <i name="e_wo_entrp">     -0.01472724 </i>
    <i name="e_0_energy">     -0.01369981 </i>
   </energy>
  </scstep>
  <structure>
   <crystal>
    <varray name="basis" >
     <v>       4.84601560       0.00000000       0.00000000 </v>
     <v>       2.42300780       4.19677262      -0.00000000 </v>
     <v>       2.42300780       1.39892421       3.95675517 </v>
    </varray>
    <i name="volume">     80.47100501 </i>
    <varray name="rec_basis" >
     <v>       0.20635509      -0.11913917      -0.08424411 </v>
     <v>       0.00000000       0.23827834      -0.08424411 </v>
     <v>      -0.00000000       0.00000000       0.25273234 </v>
    </varray>
   </crystal>
   <varray name="positions" >
    <v>       0.00000000       0.00000000       0.00000000 </v>
   </varray>
  </structure>
  <varray name="forces" >
   <v>      -0.00000000      -0.00000000      -0.00000000 </v>
  </varray>
  <varray name="stress" >
   <v>       0.82253687      -0.00000000       0.00000000 </v>
   <v>      -0.00000000       0.82253687      -0.00000000 </v>
   <v>       0.00000000       0.00000000       0.82253687 </v>
  </varray>
  <energy>
   <i name="e_fr_energy">     -0.01318609 </i>
   <i name="e_wo_entrp">     -0.01369981 </i>
   <i name="e_0_energy">      0.00154115 </i>
  </energy>
  <time name="totalsc">   16.53   16.54</time>
  <eigenvalues>
   <array>
    <dimension dim="1">band</dimension>
    <dimension dim="2">kpoint</dimension>
    <dimension dim="3">spin</dimension>
    <field>eigene</field>
    <field>occ</field>
    <set>
     <set comment="spin 1">
      <set comment="kpoint 1">
       <r>  -30.2127    1.0000 </r>
       <r>  -30.2127    1.0000 </r>
       <r>  -30.2127    1.0000 </r>
       <r>  -30.2120    1.0000 </r>
       <r>  -30.2120    1.0000 </r>
       <r>  -23.1562    1.0000 </r>
       <r>   -0.9507    0.7537 </r>
       <r>   -0.9507    0.7537 </r>
       <r>   -0.9507    0.7537 </r>
       <r>    1.9883    0.0000 </r>
       <r>    8.2270    0.0000 </r>
       <r>    8.2270    0.0000 </r>
       <r>    8.2270    0.0000 </r>
      </set>
      <set comment="kpoint 2">
       <r>  -30.2126    1.0000 </r>
       <r>  -30.2125    1.0000 </r>
       <r>  -30.2125    1.0000 </r>
       <r>  -30.2120    1.0000 </r>
       <r>  -30.2120    1.0000 </r>
       <r>  -23.1528    1.0000 </r>
       <r>   -1.3109    1.0000 </r>
       <r>   -0.9812    0.9295 </r>
       <r>   -0.9812    0.9295 </r>
       <r>    2.5013    0.0000 </r>
       <r>    7.6484    0.0000 </r>
       <r>    8.3458    0.0000 </r>
       <r>    8.3458    0.0000 </r>
      </set>
      <set comment="kpoint 3">
       <r>  -30.2124    1.0000 </r>
       <r>  -30.2124    1.0000 </r>
       <r>  -30.2124    1.0000 </r>
       <r>  -30.2116    1.0000 </r>
       <r>  -30.2116    1.0000 </r>
       <r>  -23.1445    1.0000 </r>
       <r>   -1.9247    1.0000 </r>
       <r>   -1.0528    1.0338 </r>
       <r>   -1.0528    1.0338 </r>
       <r>    3.4338    0.0000 </r>
       <r>    7.3561    0.0000 </r>
       <r>    8.3161    0.0000 </r>
       <r>    8.3161    0.0000 </r>
      </set>
      <set comment="kpoint 4">
       <r>  -30.2125    1.0000 </r>
       <r>  -30.2125    1.0000 </r>
       <r>  -30.2122    1.0000 </r>
       <r>  -30.2112    1.0000 </r>
       <r>  -30.2112    1.0000 </r>
       <r>  -23.1362    1.0000 </r>
       <r>   -2.3765    1.0000 </r>
       <r>   -1.1217    1.0073 </r>
       <r>   -1.1217    1.0073 </r>
       <r>    4.0251    0.0000 </r>
       <r>    7.8364    0.0000 </r>
       <r>    8.0221    0.0000 </r>
       <r>    8.0221    0.0000 </r>
      </set>
      <set comment="kpoint 5">
       <r>  -30.2125    1.0000 </r>
       <r>  -30.2125    1.0000 </r>
       <r>  -30.2121    1.0000 </r>
       <r>  -30.2110    1.0000 </r>
       <r>  -30.2110    1.0000 </r>
       <r>  -23.1327    1.0000 </r>
       <r>   -2.5371    1.0000 </r>
       <r>   -1.1496    1.0026 </r>
       <r>   -1.1496    1.0026 </r>
       <r>    4.1658    0.0000 </r>
       <r>    7.8954    0.0000 </r>
       <r>    7.8954    0.0000 </r>
       <r>    8.1861    0.0000 </r>
      </set>
      <set comment="kpoint 6">
       <r>  -30.2127    1.0000 </r>
       <r>  -30.2124    1.0000 </r>
       <r>  -30.2124    1.0000 </r>
       <r>  -30.2121    1.0000 </r>
       <r>  -30.2119    1.0000 </r>
       <r>  -23.1516    1.0000 </r>
       <r>   -1.3228    1.0000 </r>
       <r>   -1.0431    1.0354 </r>
       <r>   -1.0431    1.0354 </r>
       <r>    2.6791    0.0000 </r>
       <r>    7.3990    0.0000 </r>
       <r>    8.4920    0.0000 </r>
       <r>    8.4960    0.0000 </r>
      </set>
      <set comment="kpoint 7">
       <r>  -30.2127    1.0000 </r>
       <r>  -30.2122    1.0000 </r>
       <r>  -30.2122    1.0000 </r>
       <r>  -30.2119    1.0000 </r>
       <r>  -30.2116    1.0000 </r>
       <r>  -23.1450    1.0000 </r>
       <r>   -1.7818    1.0000 </r>
       <r>   -1.1348    1.0047 </r>
       <r>   -1.1153    1.0090 </r>
       <r>    3.4962    0.0000 </r>
       <r>    7.0366    0.0000 </r>
       <r>    7.9274    0.0000 </r>
       <r>    8.6650    0.0000 </r>
      </set>
      <set comment="kpoint 8">
       <r>  -30.2125    1.0000 </r>
       <r>  -30.2122    1.0000 </r>
       <r>  -30.2122    1.0000 </r>
       <r>  -30.2115    1.0000 </r>
       <r>  -30.2111    1.0000 </r>
       <r>  -23.1367    1.0000 </r>
       <r>   -2.2296    1.0000 </r>
       <r>   -1.2257    1.0001 </r>
       <r>   -1.2020    1.0002 </r>
       <r>    4.2642    0.0000 </r>
       <r>    7.2259    0.0000 </r>
       <r>    7.4497    0.0000 </r>
       <r>    8.4462    0.0000 </r>
      </set>
      <set comment="kpoint 9">
       <r>  -30.2125    1.0000 </r>
       <r>  -30.2123    1.0000 </r>
       <r>  -30.2120    1.0000 </r>
       <r>  -30.2112    1.0000 </r>
       <r>  -30.2110    1.0000 </r>
       <r>  -23.1316    1.0000 </r>
       <r>   -2.4550    1.0000 </r>
       <r>   -1.3308    1.0000 </r>
       <r>   -1.2087    1.0002 </r>
       <r>    4.5625    0.0000 </r>
       <r>    7.0973    0.0000 </r>
       <r>    8.1902    0.0000 </r>
       <r>    8.2935    0.0000 </r>
      </set>
      <set comment="kpoint 10">
       <r>  -30.2125    1.0000 </r>
       <r>  -30.2123    1.0000 </r>
       <r>  -30.2120    1.0000 </r>
       <r>  -30.2112    1.0000 </r>
       <r>  -30.2111    1.0000 </r>
       <r>  -23.1327    1.0000 </r>
       <r>   -2.4033    1.0000 </r>
       <r>   -1.3673    1.0000 </r>
       <r>   -1.1516    1.0024 </r>
       <r>    4.5223    0.0000 </r>
       <r>    7.1944    0.0000 </r>
       <r>    8.0665    0.0000 </r>
       <r>    8.1469    0.0000 </r>
      </set>
      <set comment="kpoint 11">
       <r>  -30.2124    1.0000 </r>
       <r>  -30.2123    1.0000 </r>
       <r>  -30.2122    1.0000 </r>
       <r>  -30.2117    1.0000 </r>
       <r>  -30.2113    1.0000 </r>
       <r>  -23.1394    1.0000 </r>
       <r>   -2.0950    1.0000 </r>
       <r>   -1.3046    1.0000 </r>
       <r>   -1.0609    1.0311 </r>
       <r>    4.0519    0.0000 </r>
       <r>    7.2635    0.0000 </r>
       <r>    7.6276    0.0000 </r>
       <r>    8.3737    0.0000 </r>
      </set>
      <set comment="kpoint 12">
       <r>  -30.2125    1.0000 </r>
       <r>  -30.2124    1.0000 </r>
       <r>  -30.2124    1.0000 </r>
       <r>  -30.2120    1.0000 </r>
       <r>  -30.2117    1.0000 </r>
       <r>  -23.1477    1.0000 </r>
       <r>   -1.6459    1.0000 </r>
       <r>   -1.1475    1.0029 </r>
       <r>   -0.9890    0.9594 </r>
       <r>    3.1592    0.0000 </r>
       <r>    7.2829    0.0000 </r>
       <r>    8.1977    0.0000 </r>
       <r>    8.5492    0.0000 </r>
      </set>
      <set comment="kpoint 13">
       <r>  -30.2129    1.0000 </r>
       <r>  -30.2122    1.0000 </r>
       <r>  -30.2117    1.0000 </r>
       <r>  -30.2117    1.0000 </r>
       <r>  -30.2116    1.0000 </r>
       <r>  -23.1406    1.0000 </r>
       <r>   -1.8989    1.0000 </r>
       <r>   -1.2529    1.0000 </r>
       <r>   -1.2529    1.0000 </r>
       <r>    4.0182    0.0000 </r>
       <r>    6.5539    0.0000 </r>
       <r>    7.5238    0.0000 </r>
       <r>    9.2058    0.0000 </r>
      </set>
      <set comment="kpoint 14">
       <r>  -30.2128    1.0000 </r>
       <r>  -30.2123    1.0000 </r>
       <r>  -30.2117    1.0000 </r>
       <r>  -30.2114    1.0000 </r>
       <r>  -30.2111    1.0000 </r>
       <r>  -23.1339    1.0000 </r>
       <r>   -2.1610    1.0000 </r>
       <r>   -1.4018    1.0000 </r>
       <r>   -1.3376    1.0000 </r>
       <r>    4.6603    0.0000 </r>
       <r>    6.4560    0.0000 </r>
       <r>    7.2136    0.0000 </r>
       <r>    9.3093    0.0000 </r>
      </set>
      <set comment="kpoint 15">
       <r>  -30.2127    1.0000 </r>
       <r>  -30.2121    1.0000 </r>
       <r>  -30.2118    1.0000 </r>
       <r>  -30.2113    1.0000 </r>
       <r>  -30.2109    1.0000 </r>
       <r>  -23.1289    1.0000 </r>
       <r>   -2.2973    1.0000 </r>
       <r>   -1.6288    1.0000 </r>
       <r>   -1.3447    1.0000 </r>
       <r>    5.1333    0.0000 </r>
       <r>    6.7391    0.0000 </r>
       <r>    7.3296    0.0000 </r>
       <r>    9.0051    0.0000 </r>
      </set>
      <set comment="kpoint 16">
       <r>  -30.2126    1.0000 </r>
       <r>  -30.2118    1.0000 </r>
       <r>  -30.2117    1.0000 </r>
       <r>  -30.2114    1.0000 </r>
       <r>  -30.2112    1.0000 </r>
       <r>  -23.1284    1.0000 </r>
       <r>   -2.2590    1.0000 </r>
       <r>   -1.7911    1.0000 </r>
       <r>   -1.2706    1.0000 </r>
       <r>    5.3537    0.0000 </r>
       <r>    6.6827    0.0000 </r>
       <r>    8.0029    0.0000 </r>
       <r>    8.7515    0.0000 </r>
      </set>
      <set comment="kpoint 17">
       <r>  -30.2124    1.0000 </r>
       <r>  -30.2120    1.0000 </r>
       <r>  -30.2118    1.0000 </r>
       <r>  -30.2117    1.0000 </r>
       <r>  -30.2112    1.0000 </r>
       <r>  -23.1327    1.0000 </r>
       <r>   -2.1846    1.0000 </r>
       <r>   -1.6644    1.0000 </r>
       <r>   -1.1536    1.0022 </r>
       <r>    4.9898    0.0000 </r>
       <r>    6.9007    0.0000 </r>
       <r>    7.3307    0.0000 </r>
       <r>    8.6090    0.0000 </r>
      </set>
      <set comment="kpoint 18">
       <r>  -30.2131    1.0000 </r>
       <r>  -30.2124    1.0000 </r>
       <r>  -30.2113    1.0000 </r>
       <r>  -30.2110    1.0000 </r>
       <r>  -30.2110    1.0000 </r>
       <r>  -23.1296    1.0000 </r>
       <r>   -2.2837    1.0000 </r>
       <r>   -1.4467    1.0000 </r>
       <r>   -1.4467    1.0000 </r>
       <r>    4.6896    0.0000 </r>
       <r>    6.0329    0.0000 </r>
       <r>    7.8845    0.0000 </r>
       <r>   10.1723    0.0000 </r>
      </set>
      <set comment="kpoint 19">
       <r>  -30.2130    1.0000 </r>
       <r>  -30.2124    1.0000 </r>
       <r>  -30.2113    1.0000 </r>
       <r>  -30.2109    1.0000 </r>
       <r>  -30.2108    1.0000 </r>
       <r>  -23.1261    1.0000 </r>
       <r>   -2.3365    1.0000 </r>
       <r>   -1.6180    1.0000 </r>
       <r>   -1.4723    1.0000 </r>
       <r>    4.8792    0.0000 </r>
       <r>    6.1393    0.0000 </r>
       <r>    8.2904    0.0000 </r>
       <r>   10.0993    0.0000 </r>
      </set>
      <set comment="kpoint 20">
       <r>  -30.2127    1.0000 </r>
       <r>  -30.2120    1.0000 </r>
       <r>  -30.2114    1.0000 </r>
       <r>  -30.2111    1.0000 </r>
       <r>  -30.2110    1.0000 </r>
       <r>  -23.1256    1.0000 </r>
       <r>   -2.1957    1.0000 </r>
       <r>   -1.9172    1.0000 </r>
       <r>   -1.4020    1.0000 </r>
       <r>    5.2594    0.0000 </r>
       <r>    6.7479    0.0000 </r>
       <r>    8.3418    0.0000 </r>
       <r>    8.4764    0.0000 </r>
      </set>
      <set comment="kpoint 21">
       <r>  -30.2132    1.0000 </r>
       <r>  -30.2125    1.0000 </r>
       <r>  -30.2112    1.0000 </r>
       <r>  -30.2107    1.0000 </r>
       <r>  -30.2107    1.0000 </r>
       <r>  -23.1250    1.0000 </r>
       <r>   -2.4124    1.0000 </r>
       <r>   -1.5230    1.0000 </r>
       <r>   -1.5230    1.0000 </r>
       <r>    4.6440    0.0000 </r>
       <r>    5.8581    0.0000 </r>
       <r>    9.4917    0.0000 </r>
       <r>   10.3857    0.0000 </r>
      </set>
      <set comment="kpoint 22">
       <r>  -30.2126    1.0000 </r>
       <r>  -30.2123    1.0000 </r>
       <r>  -30.2119    1.0000 </r>
       <r>  -30.2117    1.0000 </r>
       <r>  -30.2113    1.0000 </r>
       <r>  -23.1383    1.0000 </r>
       <r>   -2.0399    1.0000 </r>
       <r>   -1.3817    1.0000 </r>
       <r>   -1.1588    1.0018 </r>
       <r>    4.2978    0.0000 </r>
       <r>    6.8374    0.0000 </r>
       <r>    7.2860    0.0000 </r>
       <r>    9.0143    0.0000 </r>
      </set>
      <set comment="kpoint 23">
       <r>  -30.2124    1.0000 </r>
       <r>  -30.2122    1.0000 </r>
       <r>  -30.2119    1.0000 </r>
       <r>  -30.2114    1.0000 </r>
       <r>  -30.2111    1.0000 </r>
       <r>  -23.1316    1.0000 </r>
       <r>   -2.2578    1.0000 </r>
       <r>   -1.5691    1.0000 </r>
       <r>   -1.2496    1.0000 </r>
       <r>    5.0318    0.0000 </r>
       <r>    6.7684    0.0000 </r>
       <r>    7.2493    0.0000 </r>
       <r>    8.7843    0.0000 </r>
      </set>
      <set comment="kpoint 24">
       <r>  -30.2124    1.0000 </r>
       <r>  -30.2122    1.0000 </r>
       <r>  -30.2117    1.0000 </r>
       <r>  -30.2113    1.0000 </r>
       <r>  -30.2110    1.0000 </r>
       <r>  -23.1288    1.0000 </r>
       <r>   -2.3417    1.0000 </r>
       <r>   -1.6303    1.0000 </r>
       <r>   -1.2985    1.0000 </r>
       <r>    5.2593    0.0000 </r>
       <r>    6.5755    0.0000 </r>
       <r>    8.1003    0.0000 </r>
       <r>    8.5999    0.0000 </r>
      </set>
      <set comment="kpoint 25">
       <r>  -30.2127    1.0000 </r>
       <r>  -30.2123    1.0000 </r>
       <r>  -30.2116    1.0000 </r>
       <r>  -30.2110    1.0000 </r>
       <r>  -30.2110    1.0000 </r>
       <r>  -23.1289    1.0000 </r>
       <r>   -2.2521    1.0000 </r>
       <r>   -1.5954    1.0000 </r>
       <r>   -1.4252    1.0000 </r>
       <r>    5.1193    0.0000 </r>
       <r>    6.4462    0.0000 </r>
       <r>    7.1898    0.0000 </r>
       <r>    9.6687    0.0000 </r>
      </set>
      <set comment="kpoint 26">
       <r>  -30.2125    1.0000 </r>
       <r>  -30.2121    1.0000 </r>
       <r>  -30.2116    1.0000 </r>
       <r>  -30.2113    1.0000 </r>
       <r>  -30.2109    1.0000 </r>
       <r>  -23.1261    1.0000 </r>
       <r>   -2.1950    1.0000 </r>
       <r>   -1.8448    1.0000 </r>
       <r>   -1.4631    1.0000 </r>
       <r>    5.6040    0.0000 </r>
       <r>    6.7329    0.0000 </r>
       <r>    7.3392    0.0000 </r>
       <r>    8.6620    0.0000 </r>
      </set>
      <set comment="kpoint 27">
       <r>  -30.2124    1.0000 </r>
       <r>  -30.2119    1.0000 </r>
       <r>  -30.2117    1.0000 </r>
       <r>  -30.2114    1.0000 </r>
       <r>  -30.2110    1.0000 </r>
       <r>  -23.1273    1.0000 </r>
       <r>   -2.1399    1.0000 </r>
       <r>   -1.9159    1.0000 </r>
       <r>   -1.3753    1.0000 </r>
       <r>    5.8773    0.0000 </r>
       <r>    6.3938    0.0000 </r>
       <r>    7.4682    0.0000 </r>
       <r>    8.6477    0.0000 </r>
      </set>
      <set comment="kpoint 28">
       <r>  -30.2128    1.0000 </r>
       <r>  -30.2123    1.0000 </r>
       <r>  -30.2113    1.0000 </r>
       <r>  -30.2111    1.0000 </r>
       <r>  -30.2107    1.0000 </r>
       <r>  -23.1250    1.0000 </r>
       <r>   -2.3023    1.0000 </r>
       <r>   -1.6789    1.0000 </r>
       <r>   -1.5551    1.0000 </r>
       <r>    5.1144    0.0000 </r>
       <r>    6.3040    0.0000 </r>
       <r>    8.4613    0.0000 </r>
       <r>    8.8144    0.0000 </r>
      </set>
      <set comment="kpoint 29">
       <r>  -30.2121    1.0000 </r>
       <r>  -30.2120    1.0000 </r>
       <r>  -30.2120    1.0000 </r>
       <r>  -30.2115    1.0000 </r>
       <r>  -30.2107    1.0000 </r>
       <r>  -23.1250    1.0000 </r>
       <r>   -2.0128    1.0000 </r>
       <r>   -2.0128    1.0000 </r>
       <r>   -1.5863    1.0000 </r>
       <r>    6.1301    0.0000 </r>
       <r>    6.8425    0.0000 </r>
       <r>    7.4515    0.0000 </r>
       <r>    7.4515    0.0000 </r>
      </set>
     </set>
    </set>
   </array>
  </eigenvalues>
  <separator name="orbital magnetization" >
   <v name="MAGDIPOLOUT">      0.00000000      0.00000000      0.00000000</v>
  </separator>
  <dos>
   <i name="efermi">     -0.91907771 </i>
   <total>
    <array>
     <dimension dim="1">gridpoints</dimension>
     <dimension dim="2">spin</dimension>
     <field>energy</field>
     <field>total</field>
     <field>integrated</field>
     <set>
      <set comment="spin 1">
       <r>   -32.2431     0.0000     0.0000 </r>
       <r>   -32.0942     0.0000     0.0000 </r>
       <r>   -31.9454     0.0000     0.0000 </r>
       <r>   -31.7965     0.0000     0.0000 </r>
       <r>   -31.6476     0.0000     0.0000 </r>
       <r>   -31.4988     0.0000     0.0000 </r>
       <r>   -31.3499     0.0000     0.0000 </r>
       <r>   -31.2011     0.0000     0.0000 </r>
       <r>   -31.0522    -0.0000    -0.0000 </r>
       <r>   -30.9033    -0.0000    -0.0000 </r>
       <r>   -30.7545    -0.0000    -0.0000 </r>
       <r>   -30.6056    -0.0000    -0.0000 </r>
       <r>   -30.4567    -0.0973    -0.0145 </r>
       <r>   -30.3079    -1.2813    -0.2052 </r>
       <r>   -30.1590    60.8369     8.8511 </r>
       <r>   -30.0102     8.2266    10.0757 </r>
       <r>   -29.8613    -0.5084    10.0000 </r>
       <r>   -29.7124    -0.0003    10.0000 </r>
       <r>   -29.5636    -0.0000    10.0000 </r>
       <r>   -29.4147     0.0000    10.0000 </r>
       <r>   -29.2658     0.0000    10.0000 </r>
       <r>   -29.1170     0.0000    10.0000 </r>
       <r>   -28.9681     0.0000    10.0000 </r>
       <r>   -28.8193     0.0000    10.0000 </r>
       <r>   -28.6704     0.0000    10.0000 </r>
       <r>   -28.5215     0.0000    10.0000 </r>
       <r>   -28.3727     0.0000    10.0000 </r>
       <r>   -28.2238     0.0000    10.0000 </r>
       <r>   -28.0749     0.0000    10.0000 </r>
       <r>   -27.9261     0.0000    10.0000 </r>
       <r>   -27.7772     0.0000    10.0000 </r>
       <r>   -27.6284     0.0000    10.0000 </r>
       <r>   -27.4795     0.0000    10.0000 </r>
       <r>   -27.3306     0.0000    10.0000 </r>
       <r>   -27.1818     0.0000    10.0000 </r>
       <r>   -27.0329     0.0000    10.0000 </r>
       <r>   -26.8840     0.0000    10.0000 </r>
       <r>   -26.7352     0.0000    10.0000 </r>
       <r>   -26.5863     0.0000    10.0000 </r>
       <r>   -26.4375     0.0000    10.0000 </r>
       <r>   -26.2886     0.0000    10.0000 </r>
       <r>   -26.1397     0.0000    10.0000 </r>
       <r>   -25.9909     0.0000    10.0000 </r>
       <r>   -25.8420     0.0000    10.0000 </r>
       <r>   -25.6931     0.0000    10.0000 </r>
       <r>   -25.5443     0.0000    10.0000 </r>
       <r>   -25.3954     0.0000    10.0000 </r>
       <r>   -25.2466     0.0000    10.0000 </r>
       <r>   -25.0977     0.0000    10.0000 </r>
       <r>   -24.9488     0.0000    10.0000 </r>
       <r>   -24.8000     0.0000    10.0000 </r>
       <r>   -24.6511     0.0000    10.0000 </r>
       <r>   -24.5022     0.0000    10.0000 </r>
       <r>   -24.3534     0.0000    10.0000 </r>
       <r>   -24.2045     0.0000    10.0000 </r>
       <r>   -24.0557    -0.0000    10.0000 </r>
       <r>   -23.9068    -0.0000    10.0000 </r>
       <r>   -23.7579    -0.0000    10.0000 </r>
       <r>   -23.6091    -0.0000    10.0000 </r>
       <r>   -23.4602    -0.0003    10.0000 </r>
       <r>   -23.3113    -0.2026     9.9698 </r>
       <r>   -23.1625     3.7225    10.5239 </r>
       <r>   -23.0136    10.3798    12.0691 </r>
       <r>   -22.8648    -0.4572    12.0010 </r>
       <r>   -22.7159    -0.0070    12.0000 </r>
       <r>   -22.5670    -0.0000    12.0000 </r>
       <r>   -22.4182    -0.0000    12.0000 </r>
       <r>   -22.2693     0.0000    12.0000 </r>
       <r>   -22.1204     0.0000    12.0000 </r>
       <r>   -21.9716     0.0000    12.0000 </r>
       <r>   -21.8227     0.0000    12.0000 </r>
       <r>   -21.6739     0.0000    12.0000 </r>
       <r>   -21.5250     0.0000    12.0000 </r>
       <r>   -21.3761     0.0000    12.0000 </r>
       <r>   -21.2273     0.0000    12.0000 </r>
       <r>   -21.0784     0.0000    12.0000 </r>
       <r>   -20.9295     0.0000    12.0000 </r>
       <r>   -20.7807     0.0000    12.0000 </r>
       <r>   -20.6318     0.0000    12.0000 </r>
       <r>   -20.4830     0.0000    12.0000 </r>
       <r>   -20.3341     0.0000    12.0000 </r>
       <r>   -20.1852     0.0000    12.0000 </r>
       <r>   -20.0364     0.0000    12.0000 </r>
       <r>   -19.8875     0.0000    12.0000 </r>
       <r>   -19.7387     0.0000    12.0000 </r>
       <r>   -19.5898     0.0000    12.0000 </r>
       <r>   -19.4409     0.0000    12.0000 </r>
       <r>   -19.2921     0.0000    12.0000 </r>
       <r>   -19.1432     0.0000    12.0000 </r>
       <r>   -18.9943     0.0000    12.0000 </r>
       <r>   -18.8455     0.0000    12.0000 </r>
       <r>   -18.6966     0.0000    12.0000 </r>
       <r>   -18.5478     0.0000    12.0000 </r>
       <r>   -18.3989     0.0000    12.0000 </r>
       <r>   -18.2500     0.0000    12.0000 </r>
       <r>   -18.1012     0.0000    12.0000 </r>
       <r>   -17.9523     0.0000    12.0000 </r>
       <r>   -17.8034     0.0000    12.0000 </r>
       <r>   -17.6546     0.0000    12.0000 </r>
       <r>   -17.5057     0.0000    12.0000 </r>
       <r>   -17.3569     0.0000    12.0000 </r>
       <r>   -17.2080     0.0000    12.0000 </r>
       <r>   -17.0591     0.0000    12.0000 </r>
       <r>   -16.9103     0.0000    12.0000 </r>
       <r>   -16.7614     0.0000    12.0000 </r>
       <r>   -16.6125     0.0000    12.0000 </r>
       <r>   -16.4637     0.0000    12.0000 </r>
       <r>   -16.3148     0.0000    12.0000 </r>
       <r>   -16.1660     0.0000    12.0000 </r>
       <r>   -16.0171     0.0000    12.0000 </r>
       <r>   -15.8682     0.0000    12.0000 </r>
       <r>   -15.7194     0.0000    12.0000 </r>
       <r>   -15.5705     0.0000    12.0000 </r>
       <r>   -15.4216     0.0000    12.0000 </r>
       <r>   -15.2728     0.0000    12.0000 </r>
       <r>   -15.1239     0.0000    12.0000 </r>
       <r>   -14.9751     0.0000    12.0000 </r>
       <r>   -14.8262     0.0000    12.0000 </r>
       <r>   -14.6773     0.0000    12.0000 </r>
       <r>   -14.5285     0.0000    12.0000 </r>
       <r>   -14.3796     0.0000    12.0000 </r>
       <r>   -14.2307     0.0000    12.0000 </r>
       <r>   -14.0819     0.0000    12.0000 </r>
       <r>   -13.9330     0.0000    12.0000 </r>
       <r>   -13.7842     0.0000    12.0000 </r>
       <r>   -13.6353     0.0000    12.0000 </r>
       <r>   -13.4864     0.0000    12.0000 </r>
       <r>   -13.3376     0.0000    12.0000 </r>
       <r>   -13.1887     0.0000    12.0000 </r>
       <r>   -13.0398     0.0000    12.0000 </r>
       <r>   -12.8910     0.0000    12.0000 </r>
       <r>   -12.7421     0.0000    12.0000 </r>
       <r>   -12.5933     0.0000    12.0000 </r>
       <r>   -12.4444     0.0000    12.0000 </r>
       <r>   -12.2955     0.0000    12.0000 </r>
       <r>   -12.1467     0.0000    12.0000 </r>
       <r>   -11.9978     0.0000    12.0000 </r>
       <r>   -11.8489     0.0000    12.0000 </r>
       <r>   -11.7001     0.0000    12.0000 </r>
       <r>   -11.5512     0.0000    12.0000 </r>
       <r>   -11.4024     0.0000    12.0000 </r>
       <r>   -11.2535     0.0000    12.0000 </r>
       <r>   -11.1046     0.0000    12.0000 </r>
       <r>   -10.9558     0.0000    12.0000 </r>
       <r>   -10.8069     0.0000    12.0000 </r>
       <r>   -10.6580     0.0000    12.0000 </r>
       <r>   -10.5092     0.0000    12.0000 </r>
       <r>   -10.3603     0.0000    12.0000 </r>
       <r>   -10.2115     0.0000    12.0000 </r>
       <r>   -10.0626     0.0000    12.0000 </r>
       <r>    -9.9137     0.0000    12.0000 </r>
       <r>    -9.7649     0.0000    12.0000 </r>
       <r>    -9.6160     0.0000    12.0000 </r>
       <r>    -9.4671     0.0000    12.0000 </r>
       <r>    -9.3183     0.0000    12.0000 </r>
       <r>    -9.1694     0.0000    12.0000 </r>
       <r>    -9.0206     0.0000    12.0000 </r>
       <r>    -8.8717     0.0000    12.0000 </r>
       <r>    -8.7228     0.0000    12.0000 </r>
       <r>    -8.5740     0.0000    12.0000 </r>
       <r>    -8.4251     0.0000    12.0000 </r>
       <r>    -8.2762     0.0000    12.0000 </r>
       <r>    -8.1274     0.0000    12.0000 </r>
       <r>    -7.9785     0.0000    12.0000 </r>
       <r>    -7.8297     0.0000    12.0000 </r>
       <r>    -7.6808     0.0000    12.0000 </r>
       <r>    -7.5319     0.0000    12.0000 </r>
       <r>    -7.3831     0.0000    12.0000 </r>
       <r>    -7.2342     0.0000    12.0000 </r>
       <r>    -7.0853     0.0000    12.0000 </r>
       <r>    -6.9365     0.0000    12.0000 </r>
       <r>    -6.7876     0.0000    12.0000 </r>
       <r>    -6.6388     0.0000    12.0000 </r>
       <r>    -6.4899     0.0000    12.0000 </r>
       <r>    -6.3410     0.0000    12.0000 </r>
       <r>    -6.1922     0.0000    12.0000 </r>
       <r>    -6.0433     0.0000    12.0000 </r>
       <r>    -5.8944     0.0000    12.0000 </r>
       <r>    -5.7456     0.0000    12.0000 </r>
       <r>    -5.5967     0.0000    12.0000 </r>
       <r>    -5.4479     0.0000    12.0000 </r>
       <r>    -5.2990     0.0000    12.0000 </r>
       <r>    -5.1501     0.0000    12.0000 </r>
       <r>    -5.0013     0.0000    12.0000 </r>
       <r>    -4.8524     0.0000    12.0000 </r>
       <r>    -4.7035     0.0000    12.0000 </r>
       <r>    -4.5547     0.0000    12.0000 </r>
       <r>    -4.4058     0.0000    12.0000 </r>
       <r>    -4.2570     0.0000    12.0000 </r>
       <r>    -4.1081     0.0000    12.0000 </r>
       <r>    -3.9592     0.0000    12.0000 </r>
       <r>    -3.8104     0.0000    12.0000 </r>
       <r>    -3.6615     0.0000    12.0000 </r>
       <r>    -3.5126     0.0000    12.0000 </r>
       <r>    -3.3638    -0.0000    12.0000 </r>
       <r>    -3.2149    -0.0000    12.0000 </r>
       <r>    -3.0661    -0.0000    12.0000 </r>
       <r>    -2.9172    -0.0000    12.0000 </r>
       <r>    -2.7683    -0.0003    12.0000 </r>
       <r>    -2.6195    -0.0166    11.9975 </r>
       <r>    -2.4706     0.3077    12.0433 </r>
       <r>    -2.3217     2.5461    12.4223 </r>
       <r>    -2.1729     5.9766    13.3120 </r>
       <r>    -2.0240     2.6593    13.7079 </r>
       <r>    -1.8752     1.8086    13.9771 </r>
       <r>    -1.7263     2.3530    14.3273 </r>
       <r>    -1.5774     3.6891    14.8765 </r>
       <r>    -1.4286     4.1895    15.5002 </r>
       <r>    -1.2797     6.8663    16.5223 </r>
       <r>    -1.1308     6.2571    17.4537 </r>
       <r>    -0.9820     3.3073    17.9461 </r>
       <r>    -0.8331     0.3905    18.0042 </r>
       <r>    -0.6843    -0.0282    18.0000 </r>
       <r>    -0.5354    -0.0001    18.0000 </r>
       <r>    -0.3865    -0.0000    18.0000 </r>
       <r>    -0.2377    -0.0000    18.0000 </r>
       <r>    -0.0888     0.0000    18.0000 </r>
       <r>     0.0600     0.0000    18.0000 </r>
       <r>     0.2089     0.0000    18.0000 </r>
       <r>     0.3578     0.0000    18.0000 </r>
       <r>     0.5066     0.0000    18.0000 </r>
       <r>     0.6555     0.0000    18.0000 </r>
       <r>     0.8044     0.0000    18.0000 </r>
       <r>     0.9532     0.0000    18.0000 </r>
       <r>     1.1021    -0.0000    18.0000 </r>
       <r>     1.2509    -0.0000    18.0000 </r>
       <r>     1.3998    -0.0000    18.0000 </r>
       <r>     1.5487    -0.0000    18.0000 </r>
       <r>     1.6975    -0.0000    18.0000 </r>
       <r>     1.8464    -0.0008    17.9999 </r>
       <r>     1.9953     0.0155    18.0022 </r>
       <r>     2.1441     0.0122    18.0040 </r>
       <r>     2.2930    -0.0019    18.0037 </r>
       <r>     2.4418     0.0183    18.0064 </r>
       <r>     2.5907     0.1938    18.0353 </r>
       <r>     2.7396     0.1448    18.0568 </r>
       <r>     2.8884     0.0126    18.0587 </r>
       <r>     3.0373    -0.0119    18.0569 </r>
       <r>     3.1862     0.2373    18.0923 </r>
       <r>     3.3350     0.0747    18.1034 </r>
       <r>     3.4839     0.4465    18.1698 </r>
       <r>     3.6327     0.4298    18.2338 </r>
       <r>     3.7816    -0.0233    18.2303 </r>
       <r>     3.9305    -0.0268    18.2264 </r>
       <r>     4.0793     0.8045    18.3461 </r>
       <r>     4.2282     0.4922    18.4194 </r>
       <r>     4.3771     1.0802    18.5802 </r>
       <r>     4.5259     0.4552    18.6479 </r>
       <r>     4.6748     1.3594    18.8503 </r>
       <r>     4.8236     0.3932    18.9088 </r>
       <r>     4.9725     0.7448    19.0197 </r>
       <r>     5.1214     2.1362    19.3377 </r>
       <r>     5.2702     1.4357    19.5514 </r>
       <r>     5.4191     0.9366    19.6909 </r>
       <r>     5.5680     0.3045    19.7362 </r>
       <r>     5.7168     1.0107    19.8866 </r>
       <r>     5.8657     0.2694    19.9268 </r>
       <r>     6.0145     0.4628    19.9956 </r>
       <r>     6.1634     0.6616    20.0941 </r>
       <r>     6.3123     0.3890    20.1520 </r>
       <r>     6.4611     1.4740    20.3715 </r>
       <r>     6.6100     1.1468    20.5422 </r>
       <r>     6.7589     2.8693    20.9693 </r>
       <r>     6.9077     2.4222    21.3299 </r>
       <r>     7.0566     0.5773    21.4158 </r>
       <r>     7.2054     2.2737    21.7543 </r>
       <r>     7.3543     5.4881    22.5713 </r>
       <r>     7.5032     2.3739    22.9246 </r>
       <r>     7.6520     0.8923    23.0575 </r>
       <r>     7.8009     0.2999    23.1021 </r>
       <r>     7.9498     0.9919    23.2498 </r>
       <r>     8.0986     2.0879    23.5606 </r>
       <r>     8.2475     2.2537    23.8961 </r>
       <r>     8.3963     2.7935    24.3119 </r>
       <r>     8.5452     1.8604    24.5889 </r>
       <r>     8.6941     3.1440    25.0569 </r>
       <r>     8.8429     2.5396    25.4349 </r>
       <r>     8.9918     0.6302    25.5287 </r>
       <r>     9.1407     0.8443    25.6544 </r>
       <r>     9.2895     0.3284    25.7033 </r>
       <r>     9.4384     0.4481    25.7700 </r>
       <r>     9.5872     0.0550    25.7782 </r>
       <r>     9.7361     0.5930    25.8665 </r>
       <r>     9.8850     0.0308    25.8711 </r>
       <r>    10.0338     0.0311    25.8757 </r>
       <r>    10.1827     0.6897    25.9784 </r>
       <r>    10.3316     0.0804    25.9903 </r>
       <r>    10.4804     0.0665    26.0002 </r>
       <r>    10.6293    -0.0014    26.0000 </r>
       <r>    10.7781    -0.0001    26.0000 </r>
       <r>    10.9270    -0.0000    26.0000 </r>
       <r>    11.0759    -0.0000    26.0000 </r>
       <r>    11.2247     0.0000    26.0000 </r>
       <r>    11.3736     0.0000    26.0000 </r>
       <r>    11.5225     0.0000    26.0000 </r>
       <r>    11.6713     0.0000    26.0000 </r>
       <r>    11.8202     0.0000    26.0000 </r>
       <r>    11.9690     0.0000    26.0000 </r>
       <r>    12.1179     0.0000    26.0000 </r>
       <r>    12.2668     0.0000    26.0000 </r>
       <r>    12.4156     0.0000    26.0000 </r>
      </set>
     </set>
    </array>
   </total>
  </dos>
 </calculation>
 <structure name="finalpos" >
  <crystal>
   <varray name="basis" >
    <v>       4.84601560       0.00000000       0.00000000 </v>
    <v>       2.42300780       4.19677262      -0.00000000 </v>
    <v>       2.42300780       1.39892421       3.95675517 </v>
   </varray>
   <i name="volume">     80.47100501 </i>
   <varray name="rec_basis" >
    <v>       0.20635509      -0.11913917      -0.08424411 </v>
    <v>       0.00000000       0.23827834      -0.08424411 </v>
    <v>      -0.00000000       0.00000000       0.25273234 </v>
   </varray>
  </crystal>
  <varray name="positions" >
   <v>       0.00000000       0.00000000       0.00000000 </v>
  </varray>
  <varray name="velocities" >
   <v>       0.00000000       0.00000000       0.00000000 </v>
  </varray>
 </structure>
</modeling>
