Og_FCC                                  
           1
     4.846016    0.000000    0.000000
     2.423008    4.196773   -0.000000
     2.423008    1.398924    3.956755
   Og
   1
Direct configuration=     1
   0.00000000  0.00000000  0.00000000
