<?xml version="1.0" encoding="ISO-8859-1"?>
<modeling>
 <generator>
  <i name="program" type="string">vasp </i>
  <i name="version" type="string">5.4.4.18Apr17-6-g9f103f2a35  </i>
  <i name="subversion" type="string">(build Nov 03 2018 10:20:46) complex            parallel </i>
  <i name="platform" type="string">LinuxIFC </i>
  <i name="date" type="string">2018 11 14 </i>
  <i name="time" type="string">17:16:21 </i>
 </generator>
 <incar>
  <i type="string" name="SYSTEM">   Og_FCC</i>
  <i type="string" name="PREC">accurate</i>
  <i type="string" name="ALGO">   Normal</i>
  <i type="logical" name="ADDGRID"> T  </i>
  <i type="logical" name="LSORBIT"> T  </i>
  <i type="int" name="ISPIN">     1</i>
  <i type="int" name="MAXMIX">    50</i>
  <i type="int" name="NELM">    50</i>
  <i type="int" name="NELMDL">    -5</i>
  <i type="int" name="NELMIN">     2</i>
  <i type="int" name="IBRION">    -1</i>
  <i type="int" name="NFREE">     5</i>
  <i name="EDIFF">      0.00000001</i>
  <i name="EDIFFG">      0.00001000</i>
  <i type="int" name="NSW">     1</i>
  <i type="int" name="ISIF">     3</i>
  <i type="int" name="ISYM">     0</i>
  <i name="SYMPREC">      0.00000010</i>
  <i name="ENCUT">    300.00000000</i>
  <i name="POTIM">      0.10000000</i>
  <i type="logical" name="LREAL"> F  </i>
  <i type="int" name="ISMEAR">     0</i>
  <i name="SIGMA">      0.00100000</i>
  <i type="int" name="NWRITE">     2</i>
  <i type="logical" name="LWAVE"> T  </i>
  <i type="logical" name="LCHARG"> F  </i>
  <i type="logical" name="LVTOT"> F  </i>
  <i type="logical" name="LOPTICS"> T  </i>
  <i type="logical" name="GGA_COMPAT"> F  </i>
  <v type="int" name="KPOINT_BSE">    -1     0     0     0</v>
  <i type="int" name="NELM">    50</i>
  <i type="string" name="GGA"> PE</i>
 </incar>
 <structure name="primitive_cell" >
  <crystal>
   <varray name="basis" >
    <v>       4.11534301       0.00000000       0.00000000 </v>
    <v>       2.05767151       3.56399159      -0.00000000 </v>
    <v>       2.05767151       1.18799720       3.36016350 </v>
   </varray>
   <i name="volume">     49.28367901 </i>
   <varray name="rec_basis" >
    <v>       0.24299311      -0.14029214      -0.09920152 </v>
    <v>       0.00000000       0.28058428      -0.09920152 </v>
    <v>      -0.00000000       0.00000000       0.29760457 </v>
   </varray>
  </crystal>
  <varray name="positions" >
   <v>       0.00000000       0.00000000       0.00000000 </v>
  </varray>
 </structure>
 <varray name="primitive_index" >
  <v type="int" >        1 </v>
 </varray>
 <kpoints>
  <generation param="Gamma">
   <v type="int" name="divisions">       6        6        6 </v>
   <v name="usershift">      0.00000000       0.00000000       0.00000000 </v>
   <v name="genvec1">      0.16666667       0.00000000       0.00000000 </v>
   <v name="genvec2">     -0.00000000       0.16666667       0.00000000 </v>
   <v name="genvec3">     -0.00000000       0.00000000       0.16666667 </v>
   <v name="shift">      0.00000000       0.00000000       0.00000000 </v>
  </generation>
  <varray name="kpointlist" >
   <v>       0.00000000       0.00000000       0.00000000 </v>
   <v>       0.16666667      -0.00000000      -0.00000000 </v>
   <v>       0.33333333       0.00000000       0.00000000 </v>
   <v>       0.50000000       0.00000000       0.00000000 </v>
   <v>      -0.33333333      -0.00000000       0.00000000 </v>
   <v>      -0.16666667       0.00000000       0.00000000 </v>
   <v>       0.00000000       0.16666667       0.00000000 </v>
   <v>       0.16666667       0.16666667       0.00000000 </v>
   <v>       0.33333333       0.16666667       0.00000000 </v>
   <v>       0.50000000       0.16666667       0.00000000 </v>
   <v>      -0.33333333       0.16666667       0.00000000 </v>
   <v>      -0.16666667       0.16666667       0.00000000 </v>
   <v>       0.00000000       0.33333333      -0.00000000 </v>
   <v>       0.16666667       0.33333333       0.00000000 </v>
   <v>       0.33333333       0.33333333      -0.00000000 </v>
   <v>       0.50000000       0.33333333      -0.00000000 </v>
   <v>      -0.33333333       0.33333333      -0.00000000 </v>
   <v>      -0.16666667       0.33333333       0.00000000 </v>
   <v>       0.00000000       0.50000000       0.00000000 </v>
   <v>       0.16666667       0.50000000       0.00000000 </v>
   <v>       0.33333333       0.50000000       0.00000000 </v>
   <v>       0.50000000       0.50000000       0.00000000 </v>
   <v>      -0.33333333       0.50000000      -0.00000000 </v>
   <v>      -0.16666667       0.50000000       0.00000000 </v>
   <v>      -0.00000000      -0.33333333       0.00000000 </v>
   <v>       0.16666667      -0.33333333       0.00000000 </v>
   <v>       0.33333333      -0.33333333       0.00000000 </v>
   <v>       0.50000000      -0.33333333       0.00000000 </v>
   <v>      -0.33333333      -0.33333333       0.00000000 </v>
   <v>      -0.16666667      -0.33333333       0.00000000 </v>
   <v>      -0.00000000      -0.16666667      -0.00000000 </v>
   <v>       0.16666667      -0.16666667      -0.00000000 </v>
   <v>       0.33333333      -0.16666667      -0.00000000 </v>
   <v>       0.50000000      -0.16666667       0.00000000 </v>
   <v>      -0.33333333      -0.16666667      -0.00000000 </v>
   <v>      -0.16666667      -0.16666667      -0.00000000 </v>
   <v>       0.00000000       0.00000000       0.16666667 </v>
   <v>       0.16666667       0.00000000       0.16666667 </v>
   <v>       0.33333333      -0.00000000       0.16666667 </v>
   <v>       0.50000000       0.00000000       0.16666667 </v>
   <v>      -0.33333333      -0.00000000       0.16666667 </v>
   <v>      -0.16666667       0.00000000       0.16666667 </v>
   <v>       0.00000000       0.16666667       0.16666667 </v>
   <v>       0.16666667       0.16666667       0.16666667 </v>
   <v>       0.33333333       0.16666667       0.16666667 </v>
   <v>       0.50000000       0.16666667       0.16666667 </v>
   <v>      -0.33333333       0.16666667       0.16666667 </v>
   <v>      -0.16666667       0.16666667       0.16666667 </v>
   <v>       0.00000000       0.33333333       0.16666667 </v>
   <v>       0.16666667       0.33333333       0.16666667 </v>
   <v>       0.33333333       0.33333333       0.16666667 </v>
   <v>       0.50000000       0.33333333       0.16666667 </v>
   <v>      -0.33333333       0.33333333       0.16666667 </v>
   <v>      -0.16666667       0.33333333       0.16666667 </v>
   <v>       0.00000000       0.50000000       0.16666667 </v>
   <v>       0.16666667       0.50000000       0.16666667 </v>
   <v>       0.33333333       0.50000000       0.16666667 </v>
   <v>       0.50000000       0.50000000       0.16666667 </v>
   <v>      -0.33333333       0.50000000       0.16666667 </v>
   <v>      -0.16666667       0.50000000       0.16666667 </v>
   <v>       0.00000000      -0.33333333       0.16666667 </v>
   <v>       0.16666667      -0.33333333       0.16666667 </v>
   <v>       0.33333333      -0.33333333       0.16666667 </v>
   <v>       0.50000000      -0.33333333       0.16666667 </v>
   <v>      -0.33333333      -0.33333333       0.16666667 </v>
   <v>      -0.16666667      -0.33333333       0.16666667 </v>
   <v>       0.00000000      -0.16666667       0.16666667 </v>
   <v>       0.16666667      -0.16666667       0.16666667 </v>
   <v>       0.33333333      -0.16666667       0.16666667 </v>
   <v>       0.50000000      -0.16666667       0.16666667 </v>
   <v>      -0.33333333      -0.16666667       0.16666667 </v>
   <v>      -0.16666667      -0.16666667       0.16666667 </v>
   <v>       0.00000000       0.00000000       0.33333333 </v>
   <v>       0.16666667      -0.00000000       0.33333333 </v>
   <v>       0.33333333       0.00000000       0.33333333 </v>
   <v>       0.50000000       0.00000000       0.33333333 </v>
   <v>      -0.33333333       0.00000000       0.33333333 </v>
   <v>      -0.16666667       0.00000000       0.33333333 </v>
   <v>      -0.00000000       0.16666667       0.33333333 </v>
   <v>       0.16666667       0.16666667       0.33333333 </v>
   <v>       0.33333333       0.16666667       0.33333333 </v>
   <v>       0.50000000       0.16666667       0.33333333 </v>
   <v>      -0.33333333       0.16666667       0.33333333 </v>
   <v>      -0.16666667       0.16666667       0.33333333 </v>
   <v>       0.00000000       0.33333333       0.33333333 </v>
   <v>       0.16666667       0.33333333       0.33333333 </v>
   <v>       0.33333333       0.33333333       0.33333333 </v>
   <v>       0.50000000       0.33333333       0.33333333 </v>
   <v>      -0.33333333       0.33333333       0.33333333 </v>
   <v>      -0.16666667       0.33333333       0.33333333 </v>
   <v>       0.00000000       0.50000000       0.33333333 </v>
   <v>       0.16666667       0.50000000       0.33333333 </v>
   <v>       0.33333333       0.50000000       0.33333333 </v>
   <v>       0.50000000       0.50000000       0.33333333 </v>
   <v>      -0.33333333       0.50000000       0.33333333 </v>
   <v>      -0.16666667       0.50000000       0.33333333 </v>
   <v>      -0.00000000      -0.33333333       0.33333333 </v>
   <v>       0.16666667      -0.33333333       0.33333333 </v>
   <v>       0.33333333      -0.33333333       0.33333333 </v>
   <v>       0.50000000      -0.33333333       0.33333333 </v>
   <v>      -0.33333333      -0.33333333       0.33333333 </v>
   <v>      -0.16666667      -0.33333333       0.33333333 </v>
   <v>       0.00000000      -0.16666667       0.33333333 </v>
   <v>       0.16666667      -0.16666667       0.33333333 </v>
   <v>       0.33333333      -0.16666667       0.33333333 </v>
   <v>       0.50000000      -0.16666667       0.33333333 </v>
   <v>      -0.33333333      -0.16666667       0.33333333 </v>
   <v>      -0.16666667      -0.16666667       0.33333333 </v>
   <v>       0.00000000       0.00000000       0.50000000 </v>
   <v>       0.16666667       0.00000000       0.50000000 </v>
   <v>       0.33333333       0.00000000       0.50000000 </v>
   <v>       0.50000000       0.00000000       0.50000000 </v>
   <v>      -0.33333333       0.00000000       0.50000000 </v>
   <v>      -0.16666667       0.00000000       0.50000000 </v>
   <v>       0.00000000       0.16666667       0.50000000 </v>
   <v>       0.16666667       0.16666667       0.50000000 </v>
   <v>       0.33333333       0.16666667       0.50000000 </v>
   <v>       0.50000000       0.16666667       0.50000000 </v>
   <v>      -0.33333333       0.16666667       0.50000000 </v>
   <v>      -0.16666667       0.16666667       0.50000000 </v>
   <v>       0.00000000       0.33333333       0.50000000 </v>
   <v>       0.16666667       0.33333333       0.50000000 </v>
   <v>       0.33333333       0.33333333       0.50000000 </v>
   <v>       0.50000000       0.33333333       0.50000000 </v>
   <v>      -0.33333333       0.33333333       0.50000000 </v>
   <v>      -0.16666667       0.33333333       0.50000000 </v>
   <v>       0.00000000       0.50000000       0.50000000 </v>
   <v>       0.16666667       0.50000000       0.50000000 </v>
   <v>       0.33333333       0.50000000       0.50000000 </v>
   <v>       0.50000000       0.50000000       0.50000000 </v>
   <v>      -0.33333333       0.50000000       0.50000000 </v>
   <v>      -0.16666667       0.50000000       0.50000000 </v>
   <v>       0.00000000      -0.33333333       0.50000000 </v>
   <v>       0.16666667      -0.33333333       0.50000000 </v>
   <v>       0.33333333      -0.33333333       0.50000000 </v>
   <v>       0.50000000      -0.33333333       0.50000000 </v>
   <v>      -0.33333333      -0.33333333       0.50000000 </v>
   <v>      -0.16666667      -0.33333333       0.50000000 </v>
   <v>      -0.00000000      -0.16666667       0.50000000 </v>
   <v>       0.16666667      -0.16666667       0.50000000 </v>
   <v>       0.33333333      -0.16666667       0.50000000 </v>
   <v>       0.50000000      -0.16666667       0.50000000 </v>
   <v>      -0.33333333      -0.16666667       0.50000000 </v>
   <v>      -0.16666667      -0.16666667       0.50000000 </v>
   <v>       0.00000000      -0.00000000      -0.33333333 </v>
   <v>       0.16666667      -0.00000000      -0.33333333 </v>
   <v>       0.33333333      -0.00000000      -0.33333333 </v>
   <v>       0.50000000       0.00000000      -0.33333333 </v>
   <v>      -0.33333333      -0.00000000      -0.33333333 </v>
   <v>      -0.16666667       0.00000000      -0.33333333 </v>
   <v>      -0.00000000       0.16666667      -0.33333333 </v>
   <v>       0.16666667       0.16666667      -0.33333333 </v>
   <v>       0.33333333       0.16666667      -0.33333333 </v>
   <v>       0.50000000       0.16666667      -0.33333333 </v>
   <v>      -0.33333333       0.16666667      -0.33333333 </v>
   <v>      -0.16666667       0.16666667      -0.33333333 </v>
   <v>       0.00000000       0.33333333      -0.33333333 </v>
   <v>       0.16666667       0.33333333      -0.33333333 </v>
   <v>       0.33333333       0.33333333      -0.33333333 </v>
   <v>       0.50000000       0.33333333      -0.33333333 </v>
   <v>      -0.33333333       0.33333333      -0.33333333 </v>
   <v>      -0.16666667       0.33333333      -0.33333333 </v>
   <v>       0.00000000       0.50000000      -0.33333333 </v>
   <v>       0.16666667       0.50000000      -0.33333333 </v>
   <v>       0.33333333       0.50000000      -0.33333333 </v>
   <v>       0.50000000       0.50000000      -0.33333333 </v>
   <v>      -0.33333333       0.50000000      -0.33333333 </v>
   <v>      -0.16666667       0.50000000      -0.33333333 </v>
   <v>       0.00000000      -0.33333333      -0.33333333 </v>
   <v>       0.16666667      -0.33333333      -0.33333333 </v>
   <v>       0.33333333      -0.33333333      -0.33333333 </v>
   <v>       0.50000000      -0.33333333      -0.33333333 </v>
   <v>      -0.33333333      -0.33333333      -0.33333333 </v>
   <v>      -0.16666667      -0.33333333      -0.33333333 </v>
   <v>       0.00000000      -0.16666667      -0.33333333 </v>
   <v>       0.16666667      -0.16666667      -0.33333333 </v>
   <v>       0.33333333      -0.16666667      -0.33333333 </v>
   <v>       0.50000000      -0.16666667      -0.33333333 </v>
   <v>      -0.33333333      -0.16666667      -0.33333333 </v>
   <v>      -0.16666667      -0.16666667      -0.33333333 </v>
   <v>       0.00000000      -0.00000000      -0.16666667 </v>
   <v>       0.16666667      -0.00000000      -0.16666667 </v>
   <v>       0.33333333       0.00000000      -0.16666667 </v>
   <v>       0.50000000       0.00000000      -0.16666667 </v>
   <v>      -0.33333333       0.00000000      -0.16666667 </v>
   <v>      -0.16666667      -0.00000000      -0.16666667 </v>
   <v>      -0.00000000       0.16666667      -0.16666667 </v>
   <v>       0.16666667       0.16666667      -0.16666667 </v>
   <v>       0.33333333       0.16666667      -0.16666667 </v>
   <v>       0.50000000       0.16666667      -0.16666667 </v>
   <v>      -0.33333333       0.16666667      -0.16666667 </v>
   <v>      -0.16666667       0.16666667      -0.16666667 </v>
   <v>       0.00000000       0.33333333      -0.16666667 </v>
   <v>       0.16666667       0.33333333      -0.16666667 </v>
   <v>       0.33333333       0.33333333      -0.16666667 </v>
   <v>       0.50000000       0.33333333      -0.16666667 </v>
   <v>      -0.33333333       0.33333333      -0.16666667 </v>
   <v>      -0.16666667       0.33333333      -0.16666667 </v>
   <v>       0.00000000       0.50000000      -0.16666667 </v>
   <v>       0.16666667       0.50000000      -0.16666667 </v>
   <v>       0.33333333       0.50000000      -0.16666667 </v>
   <v>       0.50000000       0.50000000      -0.16666667 </v>
   <v>      -0.33333333       0.50000000      -0.16666667 </v>
   <v>      -0.16666667       0.50000000      -0.16666667 </v>
   <v>      -0.00000000      -0.33333333      -0.16666667 </v>
   <v>       0.16666667      -0.33333333      -0.16666667 </v>
   <v>       0.33333333      -0.33333333      -0.16666667 </v>
   <v>       0.50000000      -0.33333333      -0.16666667 </v>
   <v>      -0.33333333      -0.33333333      -0.16666667 </v>
   <v>      -0.16666667      -0.33333333      -0.16666667 </v>
   <v>      -0.00000000      -0.16666667      -0.16666667 </v>
   <v>       0.16666667      -0.16666667      -0.16666667 </v>
   <v>       0.33333333      -0.16666667      -0.16666667 </v>
   <v>       0.50000000      -0.16666667      -0.16666667 </v>
   <v>      -0.33333333      -0.16666667      -0.16666667 </v>
   <v>      -0.16666667      -0.16666667      -0.16666667 </v>
  </varray>
  <varray name="weights" >
   <v>       0.00462963 </v>
   <v>       0.00462963 </v>
   <v>       0.00462963 </v>
   <v>       0.00462963 </v>
   <v>       0.00462963 </v>
   <v>       0.00462963 </v>
   <v>       0.00462963 </v>
   <v>       0.00462963 </v>
   <v>       0.00462963 </v>
   <v>       0.00462963 </v>
   <v>       0.00462963 </v>
   <v>       0.00462963 </v>
   <v>       0.00462963 </v>
   <v>       0.00462963 </v>
   <v>       0.00462963 </v>
   <v>       0.00462963 </v>
   <v>       0.00462963 </v>
   <v>       0.00462963 </v>
   <v>       0.00462963 </v>
   <v>       0.00462963 </v>
   <v>       0.00462963 </v>
   <v>       0.00462963 </v>
   <v>       0.00462963 </v>
   <v>       0.00462963 </v>
   <v>       0.00462963 </v>
   <v>       0.00462963 </v>
   <v>       0.00462963 </v>
   <v>       0.00462963 </v>
   <v>       0.00462963 </v>
   <v>       0.00462963 </v>
   <v>       0.00462963 </v>
   <v>       0.00462963 </v>
   <v>       0.00462963 </v>
   <v>       0.00462963 </v>
   <v>       0.00462963 </v>
   <v>       0.00462963 </v>
   <v>       0.00462963 </v>
   <v>       0.00462963 </v>
   <v>       0.00462963 </v>
   <v>       0.00462963 </v>
   <v>       0.00462963 </v>
   <v>       0.00462963 </v>
   <v>       0.00462963 </v>
   <v>       0.00462963 </v>
   <v>       0.00462963 </v>
   <v>       0.00462963 </v>
   <v>       0.00462963 </v>
   <v>       0.00462963 </v>
   <v>       0.00462963 </v>
   <v>       0.00462963 </v>
   <v>       0.00462963 </v>
   <v>       0.00462963 </v>
   <v>       0.00462963 </v>
   <v>       0.00462963 </v>
   <v>       0.00462963 </v>
   <v>       0.00462963 </v>
   <v>       0.00462963 </v>
   <v>       0.00462963 </v>
   <v>       0.00462963 </v>
   <v>       0.00462963 </v>
   <v>       0.00462963 </v>
   <v>       0.00462963 </v>
   <v>       0.00462963 </v>
   <v>       0.00462963 </v>
   <v>       0.00462963 </v>
   <v>       0.00462963 </v>
   <v>       0.00462963 </v>
   <v>       0.00462963 </v>
   <v>       0.00462963 </v>
   <v>       0.00462963 </v>
   <v>       0.00462963 </v>
   <v>       0.00462963 </v>
   <v>       0.00462963 </v>
   <v>       0.00462963 </v>
   <v>       0.00462963 </v>
   <v>       0.00462963 </v>
   <v>       0.00462963 </v>
   <v>       0.00462963 </v>
   <v>       0.00462963 </v>
   <v>       0.00462963 </v>
   <v>       0.00462963 </v>
   <v>       0.00462963 </v>
   <v>       0.00462963 </v>
   <v>       0.00462963 </v>
   <v>       0.00462963 </v>
   <v>       0.00462963 </v>
   <v>       0.00462963 </v>
   <v>       0.00462963 </v>
   <v>       0.00462963 </v>
   <v>       0.00462963 </v>
   <v>       0.00462963 </v>
   <v>       0.00462963 </v>
   <v>       0.00462963 </v>
   <v>       0.00462963 </v>
   <v>       0.00462963 </v>
   <v>       0.00462963 </v>
   <v>       0.00462963 </v>
   <v>       0.00462963 </v>
   <v>       0.00462963 </v>
   <v>       0.00462963 </v>
   <v>       0.00462963 </v>
   <v>       0.00462963 </v>
   <v>       0.00462963 </v>
   <v>       0.00462963 </v>
   <v>       0.00462963 </v>
   <v>       0.00462963 </v>
   <v>       0.00462963 </v>
   <v>       0.00462963 </v>
   <v>       0.00462963 </v>
   <v>       0.00462963 </v>
   <v>       0.00462963 </v>
   <v>       0.00462963 </v>
   <v>       0.00462963 </v>
   <v>       0.00462963 </v>
   <v>       0.00462963 </v>
   <v>       0.00462963 </v>
   <v>       0.00462963 </v>
   <v>       0.00462963 </v>
   <v>       0.00462963 </v>
   <v>       0.00462963 </v>
   <v>       0.00462963 </v>
   <v>       0.00462963 </v>
   <v>       0.00462963 </v>
   <v>       0.00462963 </v>
   <v>       0.00462963 </v>
   <v>       0.00462963 </v>
   <v>       0.00462963 </v>
   <v>       0.00462963 </v>
   <v>       0.00462963 </v>
   <v>       0.00462963 </v>
   <v>       0.00462963 </v>
   <v>       0.00462963 </v>
   <v>       0.00462963 </v>
   <v>       0.00462963 </v>
   <v>       0.00462963 </v>
   <v>       0.00462963 </v>
   <v>       0.00462963 </v>
   <v>       0.00462963 </v>
   <v>       0.00462963 </v>
   <v>       0.00462963 </v>
   <v>       0.00462963 </v>
   <v>       0.00462963 </v>
   <v>       0.00462963 </v>
   <v>       0.00462963 </v>
   <v>       0.00462963 </v>
   <v>       0.00462963 </v>
   <v>       0.00462963 </v>
   <v>       0.00462963 </v>
   <v>       0.00462963 </v>
   <v>       0.00462963 </v>
   <v>       0.00462963 </v>
   <v>       0.00462963 </v>
   <v>       0.00462963 </v>
   <v>       0.00462963 </v>
   <v>       0.00462963 </v>
   <v>       0.00462963 </v>
   <v>       0.00462963 </v>
   <v>       0.00462963 </v>
   <v>       0.00462963 </v>
   <v>       0.00462963 </v>
   <v>       0.00462963 </v>
   <v>       0.00462963 </v>
   <v>       0.00462963 </v>
   <v>       0.00462963 </v>
   <v>       0.00462963 </v>
   <v>       0.00462963 </v>
   <v>       0.00462963 </v>
   <v>       0.00462963 </v>
   <v>       0.00462963 </v>
   <v>       0.00462963 </v>
   <v>       0.00462963 </v>
   <v>       0.00462963 </v>
   <v>       0.00462963 </v>
   <v>       0.00462963 </v>
   <v>       0.00462963 </v>
   <v>       0.00462963 </v>
   <v>       0.00462963 </v>
   <v>       0.00462963 </v>
   <v>       0.00462963 </v>
   <v>       0.00462963 </v>
   <v>       0.00462963 </v>
   <v>       0.00462963 </v>
   <v>       0.00462963 </v>
   <v>       0.00462963 </v>
   <v>       0.00462963 </v>
   <v>       0.00462963 </v>
   <v>       0.00462963 </v>
   <v>       0.00462963 </v>
   <v>       0.00462963 </v>
   <v>       0.00462963 </v>
   <v>       0.00462963 </v>
   <v>       0.00462963 </v>
   <v>       0.00462963 </v>
   <v>       0.00462963 </v>
   <v>       0.00462963 </v>
   <v>       0.00462963 </v>
   <v>       0.00462963 </v>
   <v>       0.00462963 </v>
   <v>       0.00462963 </v>
   <v>       0.00462963 </v>
   <v>       0.00462963 </v>
   <v>       0.00462963 </v>
   <v>       0.00462963 </v>
   <v>       0.00462963 </v>
   <v>       0.00462963 </v>
   <v>       0.00462963 </v>
   <v>       0.00462963 </v>
   <v>       0.00462963 </v>
   <v>       0.00462963 </v>
   <v>       0.00462963 </v>
   <v>       0.00462963 </v>
   <v>       0.00462963 </v>
   <v>       0.00462963 </v>
   <v>       0.00462963 </v>
   <v>       0.00462963 </v>
   <v>       0.00462963 </v>
  </varray>
 </kpoints>
 <parameters>
  <separator name="general" >
   <i type="string" name="SYSTEM">Og_FCC</i>
   <i type="logical" name="LCOMPAT"> F  </i>
  </separator>
  <separator name="electronic" >
   <i type="string" name="PREC">accura</i>
   <i name="ENMAX">    300.00000000</i>
   <i name="ENAUG">    554.76500000</i>
   <i name="EDIFF">      0.00000001</i>
   <i type="int" name="IALGO">    38</i>
   <i type="int" name="IWAVPR">    10</i>
   <i type="int" name="NBANDS">    20</i>
   <i name="NELECT">      8.00000000</i>
   <i type="int" name="TURBO">     0</i>
   <i type="int" name="IRESTART">     0</i>
   <i type="int" name="NREBOOT">     0</i>
   <i type="int" name="NMIN">     0</i>
   <i name="EREF">      0.00000000</i>
   <separator name="electronic smearing" >
    <i type="int" name="ISMEAR">     0</i>
    <i name="SIGMA">      0.00100000</i>
    <i name="KSPACING">      0.50000000</i>
    <i type="logical" name="KGAMMA"> T  </i>
   </separator>
   <separator name="electronic projectors" >
    <i type="logical" name="LREAL"> F  </i>
    <v name="ROPT">      0.00000000</v>
    <i type="int" name="LMAXPAW">  -100</i>
    <i type="int" name="LMAXMIX">     2</i>
    <i type="logical" name="NLSPLINE"> F  </i>
   </separator>
   <separator name="electronic startup" >
    <i type="int" name="ISTART">     0</i>
    <i type="int" name="ICHARG">     2</i>
    <i type="int" name="INIWAV">     1</i>
   </separator>
   <separator name="electronic spin" >
    <i type="int" name="ISPIN">     1</i>
    <i type="logical" name="LNONCOLLINEAR"> T  </i>
    <v name="MAGMOM">      1.00000000      1.00000000      1.00000000</v>
    <i name="NUPDOWN">     -1.00000000</i>
    <i type="logical" name="LSORBIT"> T  </i>
    <v name="SAXIS">      0.00000000      0.00000000      1.00000000</v>
    <i type="logical" name="LSPIRAL"> F  </i>
    <v name="QSPIRAL">      0.00000000      0.00000000      0.00000000</v>
    <i type="logical" name="LZEROZ"> F  </i>
   </separator>
   <separator name="electronic exchange-correlation" >
    <i type="logical" name="LASPH"> F  </i>
    <i type="logical" name="LMETAGGA"> F  </i>
   </separator>
   <separator name="electronic convergence" >
    <i type="int" name="NELM">    50</i>
    <i type="int" name="NELMDL">    -5</i>
    <i type="int" name="NELMIN">     2</i>
    <i name="ENINI">    300.00000000</i>
    <separator name="electronic convergence detail" >
     <i type="logical" name="LDIAG"> T  </i>
     <i type="logical" name="LSUBROT"> F  </i>
     <i name="WEIMIN">      0.00000000</i>
     <i name="EBREAK">      0.00000000</i>
     <i name="DEPER">      0.30000000</i>
     <i type="int" name="NRMM">     4</i>
     <i name="TIME">      0.40000000</i>
    </separator>
   </separator>
   <separator name="electronic mixer" >
    <i name="AMIX">      0.40000000</i>
    <i name="BMIX">      1.00000000</i>
    <i name="AMIN">      0.10000000</i>
    <i name="AMIX_MAG">      1.60000000</i>
    <i name="BMIX_MAG">      1.00000000</i>
    <separator name="electronic mixer details" >
     <i type="int" name="IMIX">     4</i>
     <i type="logical" name="MIXFIRST"> F  </i>
     <i type="int" name="MAXMIX">    50</i>
     <i name="WC">    100.00000000</i>
     <i type="int" name="INIMIX">     1</i>
     <i type="int" name="MIXPRE">     1</i>
     <i type="int" name="MREMOVE">     5</i>
    </separator>
   </separator>
   <separator name="electronic dipolcorrection" >
    <i type="logical" name="LDIPOL"> F  </i>
    <i type="logical" name="LMONO"> F  </i>
    <i type="int" name="IDIPOL">     0</i>
    <i name="EPSILON">      1.00000000</i>
    <v name="DIPOL">   -100.00000000   -100.00000000   -100.00000000</v>
    <i name="EFIELD">      0.00000000</i>
   </separator>
  </separator>
  <separator name="grids" >
   <i type="int" name="NGX">    24</i>
   <i type="int" name="NGY">    24</i>
   <i type="int" name="NGZ">    24</i>
   <i type="int" name="NGXF">    48</i>
   <i type="int" name="NGYF">    48</i>
   <i type="int" name="NGZF">    48</i>
   <i type="logical" name="ADDGRID"> T  </i>
  </separator>
  <separator name="ionic" >
   <i type="int" name="NSW">     1</i>
   <i type="int" name="IBRION">    -1</i>
   <i type="int" name="MDALGO">     0</i>
   <i type="int" name="ISIF">     3</i>
   <i name="PSTRESS">      0.00000000</i>
   <i name="EDIFFG">      0.00001000</i>
   <i type="int" name="NFREE">     5</i>
   <i name="POTIM">      0.10000000</i>
   <i name="SMASS">     -3.00000000</i>
   <i name="SCALEE">      1.00000000</i>
  </separator>
  <separator name="ionic md" >
   <i name="TEBEG">      0.00010000</i>
   <i name="TEEND">      0.00010000</i>
   <i type="int" name="NBLOCK">     1</i>
   <i type="int" name="KBLOCK">     1</i>
   <i type="int" name="NPACO">   256</i>
   <i name="APACO">     16.00000000</i>
  </separator>
  <separator name="symmetry" >
   <i type="int" name="ISYM">     0</i>
   <i name="SYMPREC">      0.00000010</i>
  </separator>
  <separator name="dos" >
   <i type="int" name="LORBIT">     0</i>
   <v name="RWIGS">     -1.00000000</v>
   <i type="int" name="NEDOS">   301</i>
   <i name="EMIN">     10.00000000</i>
   <i name="EMAX">    -10.00000000</i>
   <i name="EFERMI">      0.00000000</i>
  </separator>
  <separator name="writing" >
   <i type="int" name="NWRITE">     2</i>
   <i type="logical" name="LWAVE"> T  </i>
   <i type="logical" name="LDOWNSAMPLE"> F  </i>
   <i type="logical" name="LCHARG"> F  </i>
   <i type="logical" name="LPARD"> F  </i>
   <i type="logical" name="LVTOT"> F  </i>
   <i type="logical" name="LVHAR"> F  </i>
   <i type="logical" name="LELF"> F  </i>
   <i type="logical" name="LOPTICS"> T  </i>
   <v name="STM">      0.00000000      0.00000000      0.00000000      0.00000000      0.00000000      0.00000000      0.00000000</v>
  </separator>
  <separator name="performance" >
   <i type="int" name="NPAR">     4</i>
   <i type="int" name="NSIM">     4</i>
   <i type="int" name="NBLK">    -1</i>
   <i type="logical" name="LPLANE"> T  </i>
   <i type="logical" name="LSCALAPACK"> T  </i>
   <i type="logical" name="LSCAAWARE"> F  </i>
   <i type="logical" name="LSCALU"> F  </i>
   <i type="logical" name="LASYNC"> F  </i>
   <i type="logical" name="LORBITALREAL"> F  </i>
  </separator>
  <separator name="miscellaneous" >
   <i type="int" name="IDIOT">     3</i>
   <i type="int" name="ISPECIAL">     0</i>
   <i type="logical" name="LMUSIC"> F  </i>
   <v name="POMASS">     83.80000000</v>
   <v name="DARWINR">      0.00000000</v>
   <v name="DARWINV">      1.00000000</v>
   <i type="logical" name="LCORR"> T  </i>
  </separator>
  <i type="logical" name="GGA_COMPAT"> F  </i>
  <i type="logical" name="LBERRY"> F  </i>
  <i type="int" name="ICORELEVEL">     0</i>
  <i type="logical" name="LDAU"> F  </i>
  <i type="int" name="I_CONSTRAINED_M">     0</i>
  <separator name="electronic exchange-correlation" >
   <i type="string" name="GGA">PE</i>
   <i type="int" name="VOSKOWN">     0</i>
   <i type="logical" name="LHFCALC"> F  </i>
   <i type="string" name="PRECFOCK"></i>
   <i type="logical" name="LSYMGRAD"> F  </i>
   <i type="logical" name="LHFONE"> F  </i>
   <i type="logical" name="LRHFCALC"> F  </i>
   <i type="logical" name="LTHOMAS"> F  </i>
   <i type="logical" name="LMODELHF"> F  </i>
   <i name="ENCUT4O">     -1.00000000</i>
   <i type="int" name="EXXOEP">     0</i>
   <i type="int" name="FOURORBIT">     0</i>
   <i name="AEXX">      0.00000000</i>
   <i name="HFALPHA">      0.00000000</i>
   <i name="MCALPHA">      0.00000000</i>
   <i name="ALDAX">      1.00000000</i>
   <i name="AGGAX">      1.00000000</i>
   <i name="ALDAC">      1.00000000</i>
   <i name="AGGAC">      1.00000000</i>
   <i type="int" name="NKREDX">     1</i>
   <i type="int" name="NKREDY">     1</i>
   <i type="int" name="NKREDZ">     1</i>
   <i type="logical" name="SHIFTRED"> F  </i>
   <i type="logical" name="ODDONLY"> F  </i>
   <i type="logical" name="EVENONLY"> F  </i>
   <i type="int" name="LMAXFOCK">     0</i>
   <i type="int" name="NMAXFOCKAE">     0</i>
   <i type="logical" name="LFOCKAEDFT"> F  </i>
   <i name="HFSCREEN">      0.00000000</i>
   <i name="HFSCREENC">      0.00000000</i>
   <i type="int" name="NBANDSGWLOW">     0</i>
  </separator>
  <separator name="vdW DFT" >
   <i type="logical" name="LUSE_VDW"> F  </i>
   <i name="Zab_VDW">     -0.84910000</i>
   <i name="PARAM1">      0.12340000</i>
   <i name="PARAM2">      1.00000000</i>
   <i name="PARAM3">      0.00000000</i>
  </separator>
  <separator name="model GW" >
   <i type="int" name="MODEL_GW">     0</i>
   <i name="MODEL_EPS0">     29.57020741</i>
   <i name="MODEL_ALPHA">      1.00000000</i>
  </separator>
  <separator name="linear response parameters" >
   <i type="logical" name="LEPSILON"> F  </i>
   <i type="logical" name="LRPA"> F  </i>
   <i type="logical" name="LNABLA"> F  </i>
   <i type="logical" name="LVEL"> F  </i>
   <i type="int" name="KINTER">     0</i>
   <i name="CSHIFT">      0.10000000</i>
   <i name="OMEGAMAX">     -1.00000000</i>
   <i name="DEG_THRESHOLD">      0.00200000</i>
   <i name="RTIME">     -0.10000000</i>
   <i name="WPLASMAI">      0.00000000</i>
   <v name="DFIELD">      0.00000000      0.00000000      0.00000000</v>
   <v name="WPLASMA">      0.00000000      0.00000000      0.00000000      0.00000000      0.00000000      0.00000000      0.00000000      0.00000000      0.00000000</v>
  </separator>
  <separator name="orbital magnetization" >
   <i type="logical" name="NUCIND"> F  </i>
   <v name="MAGPOS">      0.00000000      0.00000000      0.00000000</v>
   <i type="logical" name="LNICSALL"> T  </i>
   <i type="logical" name="ORBITALMAG"> F  </i>
   <i type="logical" name="LMAGBLOCH"> F  </i>
   <i type="logical" name="LCHIMAG"> F  </i>
   <i type="logical" name="LGAUGE"> T  </i>
   <i type="int" name="MAGATOM">     0</i>
   <v name="MAGDIPOL">      0.00000000      0.00000000      0.00000000</v>
   <v name="AVECCONST">      0.00000000      0.00000000      0.00000000</v>
  </separator>
  <separator name="response functions" >
   <i type="logical" name="LADDER"> F  </i>
   <i type="logical" name="LRPAFORCE"> F  </i>
   <i type="logical" name="LFXC"> F  </i>
   <i type="logical" name="LHARTREE"> T  </i>
   <i type="int" name="IBSE">     0</i>
   <v type="int" name="KPOINT">    -1     0     0     0</v>
   <i type="logical" name="LTCTE"> F  </i>
   <i type="logical" name="LTETE"> F  </i>
   <i type="logical" name="LTRIPLET"> F  </i>
   <i type="logical" name="LFXCEPS"> F  </i>
   <i type="logical" name="LFXHEG"> F  </i>
   <i type="int" name="NATURALO">     2</i>
   <i type="logical" name="L2ORDER"> F  </i>
   <i type="logical" name="LMP2LT"> F  </i>
   <i type="logical" name="LUSEW"> F  </i>
   <i name="ENCUTGW">     -2.00000000</i>
   <i name="ENCUTGWSOFT">     -2.00000000</i>
   <i name="ENCUTLF">     -1.00000000</i>
   <i type="int" name="LMAXMP2">    -1</i>
   <i name="SCISSOR">      0.00000000</i>
   <i type="int" name="NOMEGA">     0</i>
   <i type="int" name="NOMEGAR">     0</i>
   <i type="int" name="NBANDSGW">    -1</i>
   <i type="int" name="NBANDSO">    -1</i>
   <i type="int" name="NBANDSV">    -1</i>
   <i type="int" name="NELM">    50</i>
   <i type="int" name="NELMHF">     1</i>
   <i type="int" name="DIM">     3</i>
   <i type="int" name="ANTIRES">     0</i>
   <i name="OMEGAMAX">    -30.00000000</i>
   <i name="OMEGAMIN">    -30.00000000</i>
   <i name="OMEGATL">   -200.00000000</i>
   <i type="int" name="OMEGAGRID">   140</i>
   <i name="CSHIFT">     -0.10000000</i>
   <i type="logical" name="SELFENERGY"> F  </i>
   <i type="logical" name="LSPECTRAL"> F  </i>
   <i type="logical" name="LSPECTRALGW"> F  </i>
   <i type="logical" name="LSINGLES"> F  </i>
   <i type="logical" name="LFERMIGW"> F  </i>
   <i type="logical" name="ODDONLYGW"> F  </i>
   <i type="logical" name="EVENONLYGW"> F  </i>
   <i type="int" name="NKREDLFX">     1</i>
   <i type="int" name="NKREDLFY">     1</i>
   <i type="int" name="NKREDLFZ">     1</i>
   <i type="int" name="MAXMEM">  2800</i>
   <i type="int" name="TELESCOPE">     0</i>
   <i type="int" name="TAUPAR">     1</i>
   <i type="int" name="OMEGAPAR">    -1</i>
   <i name="LAMBDA">      1.00000000</i>
  </separator>
  <separator name="External order field" >
   <i name="OFIELD_KAPPA">      0.00000000</i>
   <v name="OFIELD_K">      0.00000000      0.00000000      0.00000000</v>
   <i name="OFIELD_Q6_NEAR">      0.00000000</i>
   <i name="OFIELD_Q6_FAR">      0.00000000</i>
   <i name="OFIELD_A">      0.00000000</i>
  </separator>
 </parameters>
 <atominfo>
  <atoms>       1 </atoms>
  <types>       1 </types>
  <array name="atoms" >
   <dimension dim="1">ion</dimension>
   <field type="string">element</field>
   <field type="int">atomtype</field>
   <set>
    <rc><c>Kr</c><c>   1</c></rc>
   </set>
  </array>
  <array name="atomtypes" >
   <dimension dim="1">type</dimension>
   <field type="int">atomspertype</field>
   <field type="string">element</field>
   <field>mass</field>
   <field>valence</field>
   <field type="string">pseudopotential</field>
   <set>
    <rc><c>   1</c><c>Kr</c><c>     83.80000000</c><c>      8.00000000</c><c>  PAW_PBE Kr_GW 21Aug2013               </c></rc>
   </set>
  </array>
 </atominfo>
 <structure name="initialpos" >
  <crystal>
   <varray name="basis" >
    <v>       4.11534301       0.00000000       0.00000000 </v>
    <v>       2.05767151       3.56399159      -0.00000000 </v>
    <v>       2.05767151       1.18799720       3.36016350 </v>
   </varray>
   <i name="volume">     49.28367901 </i>
   <varray name="rec_basis" >
    <v>       0.24299311      -0.14029214      -0.09920152 </v>
    <v>       0.00000000       0.28058428      -0.09920152 </v>
    <v>      -0.00000000       0.00000000       0.29760457 </v>
   </varray>
  </crystal>
  <varray name="positions" >
   <v>       0.00000000       0.00000000       0.00000000 </v>
  </varray>
  <varray name="velocities" >
   <v>       0.00000000       0.00000000       0.00000000 </v>
  </varray>
 </structure>
 <calculation>
  <scstep>
   <time name="dav">    0.84    0.84</time>
   <time name="total">    0.87    0.87</time>
   <energy>
    <i name="alphaZ">      8.51686385 </i>
    <i name="ewald">   -363.00389881 </i>
    <i name="hartreedc">   -106.29834624 </i>
    <i name="XCdc">     14.84890449 </i>
    <i name="pawpsdc">    409.82345796 </i>
    <i name="pawaedc">   -404.94559130 </i>
    <i name="eentropy">     -0.00000000 </i>
    <i name="bandstr">    -31.19266291 </i>
    <i name="atom">    506.70785905 </i>
    <i name="e_fr_energy">     34.45658608 </i>
    <i name="e_wo_entrp">     34.45658608 </i>
    <i name="e_0_energy">     34.45658608 </i>
   </energy>
  </scstep>
  <scstep>
   <time name="dav">    1.06    1.06</time>
   <time name="total">    1.06    1.06</time>
   <energy>
    <i name="e_fr_energy">      2.44104251 </i>
    <i name="e_wo_entrp">      2.44104251 </i>
    <i name="e_0_energy">      2.44104251 </i>
   </energy>
  </scstep>
  <scstep>
   <time name="dav">    0.98    0.98</time>
   <time name="total">    0.98    0.98</time>
   <energy>
    <i name="e_fr_energy">      0.49507202 </i>
    <i name="e_wo_entrp">      0.49507202 </i>
    <i name="e_0_energy">      0.49507202 </i>
   </energy>
  </scstep>
  <scstep>
   <time name="dav">    1.01    1.01</time>
   <time name="total">    1.01    1.01</time>
   <energy>
    <i name="e_fr_energy">      0.48414430 </i>
    <i name="e_wo_entrp">      0.48414430 </i>
    <i name="e_0_energy">      0.48414430 </i>
   </energy>
  </scstep>
  <scstep>
   <time name="dav">    0.97    0.97</time>
   <time name="total">    1.01    1.01</time>
   <energy>
    <i name="e_fr_energy">      0.48390171 </i>
    <i name="e_wo_entrp">      0.48390171 </i>
    <i name="e_0_energy">      0.48390171 </i>
   </energy>
  </scstep>
  <scstep>
   <time name="dav">    0.89    0.89</time>
   <time name="total">    0.95    0.95</time>
   <energy>
    <i name="e_fr_energy">      0.07753048 </i>
    <i name="e_wo_entrp">      0.07753048 </i>
    <i name="e_0_energy">      0.07753048 </i>
   </energy>
  </scstep>
  <scstep>
   <time name="dav">    0.88    0.88</time>
   <time name="total">    0.94    0.94</time>
   <energy>
    <i name="e_fr_energy">     -0.07095868 </i>
    <i name="e_wo_entrp">     -0.07095868 </i>
    <i name="e_0_energy">     -0.07095868 </i>
   </energy>
  </scstep>
  <scstep>
   <time name="dav">    0.95    0.95</time>
   <time name="total">    1.01    1.01</time>
   <energy>
    <i name="e_fr_energy">     -0.07042811 </i>
    <i name="e_wo_entrp">     -0.07042811 </i>
    <i name="e_0_energy">     -0.07042811 </i>
   </energy>
  </scstep>
  <scstep>
   <time name="dav">    0.93    0.93</time>
   <time name="total">    0.99    0.99</time>
   <energy>
    <i name="e_fr_energy">     -0.07048913 </i>
    <i name="e_wo_entrp">     -0.07048913 </i>
    <i name="e_0_energy">     -0.07048913 </i>
   </energy>
  </scstep>
  <scstep>
   <time name="dav">    0.95    0.95</time>
   <time name="total">    1.02    1.02</time>
   <energy>
    <i name="e_fr_energy">     -0.07053470 </i>
    <i name="e_wo_entrp">     -0.07053470 </i>
    <i name="e_0_energy">     -0.07053470 </i>
   </energy>
  </scstep>
  <scstep>
   <time name="dav">    0.94    0.94</time>
   <time name="total">    1.00    1.00</time>
   <energy>
    <i name="e_fr_energy">     -0.07053565 </i>
    <i name="e_wo_entrp">     -0.07053565 </i>
    <i name="e_0_energy">     -0.07053565 </i>
   </energy>
  </scstep>
  <scstep>
   <time name="dav">    0.95    0.95</time>
   <time name="total">    1.01    1.01</time>
   <energy>
    <i name="e_fr_energy">     -0.07053581 </i>
    <i name="e_wo_entrp">     -0.07053581 </i>
    <i name="e_0_energy">     -0.07053581 </i>
   </energy>
  </scstep>
  <scstep>
   <time name="dav">    0.93    0.93</time>
   <time name="total">    0.99    0.99</time>
   <energy>
    <i name="e_fr_energy">     -0.07053586 </i>
    <i name="e_wo_entrp">     -0.07053586 </i>
    <i name="e_0_energy">     -0.07053586 </i>
   </energy>
  </scstep>
  <scstep>
   <time name="dav">    0.94    0.94</time>
   <time name="total">    0.97    0.97</time>
   <energy>
    <i name="alphaZ">      8.51686385 </i>
    <i name="ewald">   -363.00389881 </i>
    <i name="hartreedc">   -106.39862768 </i>
    <i name="XCdc">     14.64267651 </i>
    <i name="pawpsdc">    409.71486357 </i>
    <i name="pawaedc">   -404.84699641 </i>
    <i name="eentropy">      0.00000000 </i>
    <i name="bandstr">    -65.40327593 </i>
    <i name="atom">    506.70785905 </i>
    <i name="e_fr_energy">     -0.07053585 </i>
    <i name="e_wo_entrp">     -0.07053585 </i>
    <i name="e_0_energy">     -0.07053585 </i>
   </energy>
  </scstep>
  <structure>
   <crystal>
    <varray name="basis" >
     <v>       4.11534301       0.00000000       0.00000000 </v>
     <v>       2.05767151       3.56399159      -0.00000000 </v>
     <v>       2.05767151       1.18799720       3.36016350 </v>
    </varray>
    <i name="volume">     49.28367901 </i>
    <varray name="rec_basis" >
     <v>       0.24299311      -0.14029214      -0.09920152 </v>
     <v>       0.00000000       0.28058428      -0.09920152 </v>
     <v>      -0.00000000       0.00000000       0.29760457 </v>
    </varray>
   </crystal>
   <varray name="positions" >
    <v>       0.00000000       0.00000000       0.00000000 </v>
   </varray>
  </structure>
  <varray name="forces" >
   <v>       0.00000023       0.00000005      -0.00000038 </v>
  </varray>
  <varray name="stress" >
   <v>      -0.16466434      -0.00011996      -0.00007998 </v>
   <v>      -0.00011991      -0.16451605      -0.00003691 </v>
   <v>      -0.00008007      -0.00003697      -0.16448164 </v>
  </varray>
  <energy>
   <i name="e_fr_energy">     -0.18221554 </i>
   <i name="e_wo_entrp">     -0.18221554 </i>
   <i name="e_0_energy">      0.00000000 </i>
  </energy>
  <time name="totalsc">   14.71   14.80</time>
  <eigenvalues>
   <array>
    <dimension dim="1">band</dimension>
    <dimension dim="2">kpoint</dimension>
    <dimension dim="3">spin</dimension>
    <field>eigene</field>
    <field>occ</field>
    <set>
     <set comment="spin 1">
      <set comment="kpoint 1">
       <r>  -18.6426    1.0000 </r>
       <r>  -18.6425    1.0000 </r>
       <r>   -4.6825    1.0000 </r>
       <r>   -4.6824    1.0000 </r>
       <r>   -3.9908    1.0000 </r>
       <r>   -3.9907    1.0000 </r>
       <r>   -3.9907    1.0000 </r>
       <r>   -3.9907    1.0000 </r>
       <r>    3.0221    0.0000 </r>
       <r>    3.0222    0.0000 </r>
       <r>    9.3581    0.0000 </r>
       <r>    9.3581    0.0000 </r>
       <r>    9.3581    0.0000 </r>
       <r>    9.3581    0.0000 </r>
       <r>    9.3747    0.0000 </r>
       <r>    9.3747    0.0000 </r>
       <r>   11.6966    0.0000 </r>
       <r>   11.6966    0.0000 </r>
       <r>   11.6966    0.0000 </r>
       <r>   11.6966    0.0000 </r>
      </set>
      <set comment="kpoint 2">
       <r>  -18.6092    1.0000 </r>
       <r>  -18.6091    1.0000 </r>
       <r>   -4.8461    1.0000 </r>
       <r>   -4.8461    1.0000 </r>
       <r>   -4.2152    1.0000 </r>
       <r>   -4.2152    1.0000 </r>
       <r>   -4.0284    1.0000 </r>
       <r>   -4.0284    1.0000 </r>
       <r>    3.6966    0.0000 </r>
       <r>    3.6967    0.0000 </r>
       <r>    8.5313    0.0000 </r>
       <r>    8.5313    0.0000 </r>
       <r>    9.5657    0.0000 </r>
       <r>    9.5657    0.0000 </r>
       <r>    9.5808    0.0000 </r>
       <r>    9.5808    0.0000 </r>
       <r>   11.2195    0.0000 </r>
       <r>   11.2195    0.0000 </r>
       <r>   11.2300    0.0000 </r>
       <r>   11.2300    0.0000 </r>
      </set>
      <set comment="kpoint 3">
       <r>  -18.5411    1.0000 </r>
       <r>  -18.5411    1.0000 </r>
       <r>   -5.2921    1.0000 </r>
       <r>   -5.2921    1.0000 </r>
       <r>   -4.4398    1.0000 </r>
       <r>   -4.4398    1.0000 </r>
       <r>   -4.1013    1.0000 </r>
       <r>   -4.1013    1.0000 </r>
       <r>    4.9410    0.0000 </r>
       <r>    4.9412    0.0000 </r>
       <r>    7.8389    0.0000 </r>
       <r>    7.8390    0.0000 </r>
       <r>    9.2598    0.0000 </r>
       <r>    9.2598    0.0000 </r>
       <r>    9.2773    0.0000 </r>
       <r>    9.2773    0.0000 </r>
       <r>   12.0732    0.0000 </r>
       <r>   12.0732    0.0000 </r>
       <r>   12.0949    0.0000 </r>
       <r>   12.0949    0.0000 </r>
      </set>
      <set comment="kpoint 4">
       <r>  -18.5063    1.0000 </r>
       <r>  -18.5063    1.0000 </r>
       <r>   -5.5278    1.0000 </r>
       <r>   -5.5278    1.0000 </r>
       <r>   -4.5028    1.0000 </r>
       <r>   -4.5028    1.0000 </r>
       <r>   -4.1367    1.0000 </r>
       <r>   -4.1367    1.0000 </r>
       <r>    5.4055    0.0000 </r>
       <r>    5.4055    0.0000 </r>
       <r>    7.9107    0.0000 </r>
       <r>    7.9111    0.0000 </r>
       <r>    8.9836    0.0000 </r>
       <r>    8.9836    0.0000 </r>
       <r>    9.0005    0.0000 </r>
       <r>    9.0005    0.0000 </r>
       <r>   12.6408    0.0000 </r>
       <r>   12.6411    0.0000 </r>
       <r>   13.5699    0.0000 </r>
       <r>   13.5709    0.0000 </r>
      </set>
      <set comment="kpoint 5">
       <r>  -18.5411    1.0000 </r>
       <r>  -18.5411    1.0000 </r>
       <r>   -5.2921    1.0000 </r>
       <r>   -5.2921    1.0000 </r>
       <r>   -4.4398    1.0000 </r>
       <r>   -4.4398    1.0000 </r>
       <r>   -4.1013    1.0000 </r>
       <r>   -4.1013    1.0000 </r>
       <r>    4.9410    0.0000 </r>
       <r>    4.9412    0.0000 </r>
       <r>    7.8389    0.0000 </r>
       <r>    7.8390    0.0000 </r>
       <r>    9.2598    0.0000 </r>
       <r>    9.2598    0.0000 </r>
       <r>    9.2773    0.0000 </r>
       <r>    9.2773    0.0000 </r>
       <r>   12.0732    0.0000 </r>
       <r>   12.0732    0.0000 </r>
       <r>   12.0949    0.0000 </r>
       <r>   12.0949    0.0000 </r>
      </set>
      <set comment="kpoint 6">
       <r>  -18.6092    1.0000 </r>
       <r>  -18.6091    1.0000 </r>
       <r>   -4.8461    1.0000 </r>
       <r>   -4.8461    1.0000 </r>
       <r>   -4.2152    1.0000 </r>
       <r>   -4.2152    1.0000 </r>
       <r>   -4.0284    1.0000 </r>
       <r>   -4.0284    1.0000 </r>
       <r>    3.6966    0.0000 </r>
       <r>    3.6967    0.0000 </r>
       <r>    8.5313    0.0000 </r>
       <r>    8.5313    0.0000 </r>
       <r>    9.5657    0.0000 </r>
       <r>    9.5657    0.0000 </r>
       <r>    9.5808    0.0000 </r>
       <r>    9.5808    0.0000 </r>
       <r>   11.2195    0.0000 </r>
       <r>   11.2195    0.0000 </r>
       <r>   11.2300    0.0000 </r>
       <r>   11.2300    0.0000 </r>
      </set>
      <set comment="kpoint 7">
       <r>  -18.6092    1.0000 </r>
       <r>  -18.6091    1.0000 </r>
       <r>   -4.8461    1.0000 </r>
       <r>   -4.8461    1.0000 </r>
       <r>   -4.2152    1.0000 </r>
       <r>   -4.2152    1.0000 </r>
       <r>   -4.0284    1.0000 </r>
       <r>   -4.0284    1.0000 </r>
       <r>    3.6966    0.0000 </r>
       <r>    3.6967    0.0000 </r>
       <r>    8.5313    0.0000 </r>
       <r>    8.5313    0.0000 </r>
       <r>    9.5657    0.0000 </r>
       <r>    9.5657    0.0000 </r>
       <r>    9.5808    0.0000 </r>
       <r>    9.5808    0.0000 </r>
       <r>   11.2195    0.0000 </r>
       <r>   11.2195    0.0000 </r>
       <r>   11.2300    0.0000 </r>
       <r>   11.2300    0.0000 </r>
      </set>
      <set comment="kpoint 8">
       <r>  -18.5981    1.0000 </r>
       <r>  -18.5981    1.0000 </r>
       <r>   -4.8718    1.0000 </r>
       <r>   -4.8718    1.0000 </r>
       <r>   -4.2509    1.0000 </r>
       <r>   -4.2508    1.0000 </r>
       <r>   -4.1025    1.0000 </r>
       <r>   -4.1025    1.0000 </r>
       <r>    3.9151    0.0000 </r>
       <r>    3.9153    0.0000 </r>
       <r>    8.2346    0.0000 </r>
       <r>    8.2346    0.0000 </r>
       <r>    9.8147    0.0000 </r>
       <r>    9.8147    0.0000 </r>
       <r>    9.8523    0.0000 </r>
       <r>    9.8524    0.0000 </r>
       <r>    9.8539    0.0000 </r>
       <r>    9.8539    0.0000 </r>
       <r>   12.0517    0.0000 </r>
       <r>   12.0517    0.0000 </r>
      </set>
      <set comment="kpoint 9">
       <r>  -18.5417    1.0000 </r>
       <r>  -18.5416    1.0000 </r>
       <r>   -5.1713    1.0000 </r>
       <r>   -5.1713    1.0000 </r>
       <r>   -4.4793    1.0000 </r>
       <r>   -4.4793    1.0000 </r>
       <r>   -4.1982    1.0000 </r>
       <r>   -4.1982    1.0000 </r>
       <r>    5.0126    0.0000 </r>
       <r>    5.0127    0.0000 </r>
       <r>    7.6105    0.0000 </r>
       <r>    7.6105    0.0000 </r>
       <r>    8.6063    0.0000 </r>
       <r>    8.6064    0.0000 </r>
       <r>    9.9692    0.0000 </r>
       <r>    9.9692    0.0000 </r>
       <r>   11.0038    0.0000 </r>
       <r>   11.0038    0.0000 </r>
       <r>   12.6903    0.0000 </r>
       <r>   12.6903    0.0000 </r>
      </set>
      <set comment="kpoint 10">
       <r>  -18.4955    1.0000 </r>
       <r>  -18.4955    1.0000 </r>
       <r>   -5.4339    1.0000 </r>
       <r>   -5.4339    1.0000 </r>
       <r>   -4.6141    1.0000 </r>
       <r>   -4.6141    1.0000 </r>
       <r>   -4.2658    1.0000 </r>
       <r>   -4.2658    1.0000 </r>
       <r>    5.9176    0.0000 </r>
       <r>    5.9177    0.0000 </r>
       <r>    7.3120    0.0000 </r>
       <r>    7.3123    0.0000 </r>
       <r>    8.4825    0.0000 </r>
       <r>    8.4825    0.0000 </r>
       <r>    9.5629    0.0000 </r>
       <r>    9.5629    0.0000 </r>
       <r>   12.4001    0.0000 </r>
       <r>   12.4002    0.0000 </r>
       <r>   13.6505    0.0000 </r>
       <r>   13.6506    0.0000 </r>
      </set>
      <set comment="kpoint 11">
       <r>  -18.5070    1.0000 </r>
       <r>  -18.5070    1.0000 </r>
       <r>   -5.3650    1.0000 </r>
       <r>   -5.3650    1.0000 </r>
       <r>   -4.6140    1.0000 </r>
       <r>   -4.6140    1.0000 </r>
       <r>   -4.2273    1.0000 </r>
       <r>   -4.2273    1.0000 </r>
       <r>    5.8028    0.0000 </r>
       <r>    5.8029    0.0000 </r>
       <r>    7.5323    0.0000 </r>
       <r>    7.5326    0.0000 </r>
       <r>    8.3067    0.0000 </r>
       <r>    8.3067    0.0000 </r>
       <r>    9.5291    0.0000 </r>
       <r>    9.5291    0.0000 </r>
       <r>   11.7659    0.0000 </r>
       <r>   11.7659    0.0000 </r>
       <r>   13.9027    0.0000 </r>
       <r>   13.9155    0.0000 </r>
      </set>
      <set comment="kpoint 12">
       <r>  -18.5642    1.0000 </r>
       <r>  -18.5642    1.0000 </r>
       <r>   -5.0671    1.0000 </r>
       <r>   -5.0671    1.0000 </r>
       <r>   -4.4244    1.0000 </r>
       <r>   -4.4244    1.0000 </r>
       <r>   -4.1192    1.0000 </r>
       <r>   -4.1192    1.0000 </r>
       <r>    4.6206    0.0000 </r>
       <r>    4.6208    0.0000 </r>
       <r>    7.9928    0.0000 </r>
       <r>    7.9928    0.0000 </r>
       <r>    8.8964    0.0000 </r>
       <r>    8.8966    0.0000 </r>
       <r>   10.1090    0.0000 </r>
       <r>   10.1090    0.0000 </r>
       <r>   10.1913    0.0000 </r>
       <r>   10.1914    0.0000 </r>
       <r>   12.3691    0.0000 </r>
       <r>   12.3692    0.0000 </r>
      </set>
      <set comment="kpoint 13">
       <r>  -18.5411    1.0000 </r>
       <r>  -18.5411    1.0000 </r>
       <r>   -5.2921    1.0000 </r>
       <r>   -5.2921    1.0000 </r>
       <r>   -4.4398    1.0000 </r>
       <r>   -4.4398    1.0000 </r>
       <r>   -4.1013    1.0000 </r>
       <r>   -4.1013    1.0000 </r>
       <r>    4.9410    0.0000 </r>
       <r>    4.9412    0.0000 </r>
       <r>    7.8389    0.0000 </r>
       <r>    7.8390    0.0000 </r>
       <r>    9.2598    0.0000 </r>
       <r>    9.2598    0.0000 </r>
       <r>    9.2773    0.0000 </r>
       <r>    9.2773    0.0000 </r>
       <r>   12.0732    0.0000 </r>
       <r>   12.0732    0.0000 </r>
       <r>   12.0949    0.0000 </r>
       <r>   12.0949    0.0000 </r>
      </set>
      <set comment="kpoint 14">
       <r>  -18.5417    1.0000 </r>
       <r>  -18.5416    1.0000 </r>
       <r>   -5.1713    1.0000 </r>
       <r>   -5.1713    1.0000 </r>
       <r>   -4.4793    1.0000 </r>
       <r>   -4.4793    1.0000 </r>
       <r>   -4.1982    1.0000 </r>
       <r>   -4.1982    1.0000 </r>
       <r>    5.0126    0.0000 </r>
       <r>    5.0127    0.0000 </r>
       <r>    7.6105    0.0000 </r>
       <r>    7.6105    0.0000 </r>
       <r>    8.6063    0.0000 </r>
       <r>    8.6064    0.0000 </r>
       <r>    9.9692    0.0000 </r>
       <r>    9.9692    0.0000 </r>
       <r>   11.0038    0.0000 </r>
       <r>   11.0038    0.0000 </r>
       <r>   12.6903    0.0000 </r>
       <r>   12.6903    0.0000 </r>
      </set>
      <set comment="kpoint 15">
       <r>  -18.5081    1.0000 </r>
       <r>  -18.5081    1.0000 </r>
       <r>   -5.2729    1.0000 </r>
       <r>   -5.2729    1.0000 </r>
       <r>   -4.5915    1.0000 </r>
       <r>   -4.5915    1.0000 </r>
       <r>   -4.3157    1.0000 </r>
       <r>   -4.3156    1.0000 </r>
       <r>    5.3000    0.0000 </r>
       <r>    5.3003    0.0000 </r>
       <r>    7.0088    0.0000 </r>
       <r>    7.0088    0.0000 </r>
       <r>    8.4864    0.0000 </r>
       <r>    8.4865    0.0000 </r>
       <r>   11.1824    0.0000 </r>
       <r>   11.1824    0.0000 </r>
       <r>   11.2537    0.0000 </r>
       <r>   11.2537    0.0000 </r>
       <r>   12.9611    0.0000 </r>
       <r>   12.9611    0.0000 </r>
      </set>
      <set comment="kpoint 16">
       <r>  -18.4736    1.0000 </r>
       <r>  -18.4735    1.0000 </r>
       <r>   -5.3875    1.0000 </r>
       <r>   -5.3875    1.0000 </r>
       <r>   -4.7257    1.0000 </r>
       <r>   -4.7257    1.0000 </r>
       <r>   -4.4157    1.0000 </r>
       <r>   -4.4157    1.0000 </r>
       <r>    5.7386    0.0000 </r>
       <r>    5.7389    0.0000 </r>
       <r>    6.9374    0.0000 </r>
       <r>    6.9375    0.0000 </r>
       <r>    8.5244    0.0000 </r>
       <r>    8.5245    0.0000 </r>
       <r>   11.1157    0.0000 </r>
       <r>   11.1157    0.0000 </r>
       <r>   12.0262    0.0000 </r>
       <r>   12.0262    0.0000 </r>
       <r>   13.8833    0.0000 </r>
       <r>   13.8833    0.0000 </r>
      </set>
      <set comment="kpoint 17">
       <r>  -18.4731    1.0000 </r>
       <r>  -18.4730    1.0000 </r>
       <r>   -5.3382    1.0000 </r>
       <r>   -5.3382    1.0000 </r>
       <r>   -4.8424    1.0000 </r>
       <r>   -4.8424    1.0000 </r>
       <r>   -4.3838    1.0000 </r>
       <r>   -4.3838    1.0000 </r>
       <r>    6.5333    0.0000 </r>
       <r>    6.5336    0.0000 </r>
       <r>    6.9773    0.0000 </r>
       <r>    6.9774    0.0000 </r>
       <r>    8.1954    0.0000 </r>
       <r>    8.1954    0.0000 </r>
       <r>   10.3488    0.0000 </r>
       <r>   10.3488    0.0000 </r>
       <r>   11.7243    0.0000 </r>
       <r>   11.7243    0.0000 </r>
       <r>   12.4237    0.0000 </r>
       <r>   12.4237    0.0000 </r>
      </set>
      <set comment="kpoint 18">
       <r>  -18.5070    1.0000 </r>
       <r>  -18.5070    1.0000 </r>
       <r>   -5.3650    1.0000 </r>
       <r>   -5.3650    1.0000 </r>
       <r>   -4.6140    1.0000 </r>
       <r>   -4.6140    1.0000 </r>
       <r>   -4.2273    1.0000 </r>
       <r>   -4.2273    1.0000 </r>
       <r>    5.8028    0.0000 </r>
       <r>    5.8029    0.0000 </r>
       <r>    7.5323    0.0000 </r>
       <r>    7.5326    0.0000 </r>
       <r>    8.3067    0.0000 </r>
       <r>    8.3067    0.0000 </r>
       <r>    9.5291    0.0000 </r>
       <r>    9.5291    0.0000 </r>
       <r>   11.7659    0.0000 </r>
       <r>   11.7659    0.0000 </r>
       <r>   13.9028    0.0000 </r>
       <r>   14.0169    0.0000 </r>
      </set>
      <set comment="kpoint 19">
       <r>  -18.5063    1.0000 </r>
       <r>  -18.5063    1.0000 </r>
       <r>   -5.5278    1.0000 </r>
       <r>   -5.5278    1.0000 </r>
       <r>   -4.5028    1.0000 </r>
       <r>   -4.5028    1.0000 </r>
       <r>   -4.1367    1.0000 </r>
       <r>   -4.1367    1.0000 </r>
       <r>    5.4055    0.0000 </r>
       <r>    5.4055    0.0000 </r>
       <r>    7.9107    0.0000 </r>
       <r>    7.9111    0.0000 </r>
       <r>    8.9836    0.0000 </r>
       <r>    8.9836    0.0000 </r>
       <r>    9.0005    0.0000 </r>
       <r>    9.0005    0.0000 </r>
       <r>   12.6408    0.0000 </r>
       <r>   12.6411    0.0000 </r>
       <r>   13.5660    0.0000 </r>
       <r>   13.5738    0.0000 </r>
      </set>
      <set comment="kpoint 20">
       <r>  -18.4955    1.0000 </r>
       <r>  -18.4955    1.0000 </r>
       <r>   -5.4339    1.0000 </r>
       <r>   -5.4339    1.0000 </r>
       <r>   -4.6141    1.0000 </r>
       <r>   -4.6141    1.0000 </r>
       <r>   -4.2658    1.0000 </r>
       <r>   -4.2658    1.0000 </r>
       <r>    5.9176    0.0000 </r>
       <r>    5.9177    0.0000 </r>
       <r>    7.3120    0.0000 </r>
       <r>    7.3123    0.0000 </r>
       <r>    8.4825    0.0000 </r>
       <r>    8.4825    0.0000 </r>
       <r>    9.5629    0.0000 </r>
       <r>    9.5629    0.0000 </r>
       <r>   12.4001    0.0000 </r>
       <r>   12.4002    0.0000 </r>
       <r>   13.6505    0.0000 </r>
       <r>   13.6505    0.0000 </r>
      </set>
      <set comment="kpoint 21">
       <r>  -18.4736    1.0000 </r>
       <r>  -18.4735    1.0000 </r>
       <r>   -5.3875    1.0000 </r>
       <r>   -5.3875    1.0000 </r>
       <r>   -4.7257    1.0000 </r>
       <r>   -4.7257    1.0000 </r>
       <r>   -4.4157    1.0000 </r>
       <r>   -4.4157    1.0000 </r>
       <r>    5.7386    0.0000 </r>
       <r>    5.7389    0.0000 </r>
       <r>    6.9374    0.0000 </r>
       <r>    6.9375    0.0000 </r>
       <r>    8.5244    0.0000 </r>
       <r>    8.5245    0.0000 </r>
       <r>   11.1157    0.0000 </r>
       <r>   11.1157    0.0000 </r>
       <r>   12.0262    0.0000 </r>
       <r>   12.0262    0.0000 </r>
       <r>   13.8833    0.0000 </r>
       <r>   13.8833    0.0000 </r>
      </set>
      <set comment="kpoint 22">
       <r>  -18.4625    1.0000 </r>
       <r>  -18.4624    1.0000 </r>
       <r>   -5.4640    1.0000 </r>
       <r>   -5.4640    1.0000 </r>
       <r>   -4.7181    1.0000 </r>
       <r>   -4.7181    1.0000 </r>
       <r>   -4.4175    1.0000 </r>
       <r>   -4.4175    1.0000 </r>
       <r>    5.3226    0.0000 </r>
       <r>    5.3229    0.0000 </r>
       <r>    6.5718    0.0000 </r>
       <r>    6.5718    0.0000 </r>
       <r>    9.2697    0.0000 </r>
       <r>    9.2697    0.0000 </r>
       <r>   12.8331    0.0000 </r>
       <r>   12.8331    0.0000 </r>
       <r>   12.9819    0.0000 </r>
       <r>   12.9819    0.0000 </r>
       <r>   13.6080    0.0000 </r>
       <r>   13.6080    0.0000 </r>
      </set>
      <set comment="kpoint 23">
       <r>  -18.4736    1.0000 </r>
       <r>  -18.4735    1.0000 </r>
       <r>   -5.3875    1.0000 </r>
       <r>   -5.3875    1.0000 </r>
       <r>   -4.7257    1.0000 </r>
       <r>   -4.7257    1.0000 </r>
       <r>   -4.4157    1.0000 </r>
       <r>   -4.4157    1.0000 </r>
       <r>    5.7386    0.0000 </r>
       <r>    5.7389    0.0000 </r>
       <r>    6.9374    0.0000 </r>
       <r>    6.9375    0.0000 </r>
       <r>    8.5244    0.0000 </r>
       <r>    8.5245    0.0000 </r>
       <r>   11.1157    0.0000 </r>
       <r>   11.1157    0.0000 </r>
       <r>   12.0262    0.0000 </r>
       <r>   12.0262    0.0000 </r>
       <r>   13.8833    0.0000 </r>
       <r>   13.8834    0.0000 </r>
      </set>
      <set comment="kpoint 24">
       <r>  -18.4955    1.0000 </r>
       <r>  -18.4955    1.0000 </r>
       <r>   -5.4339    1.0000 </r>
       <r>   -5.4339    1.0000 </r>
       <r>   -4.6141    1.0000 </r>
       <r>   -4.6141    1.0000 </r>
       <r>   -4.2658    1.0000 </r>
       <r>   -4.2658    1.0000 </r>
       <r>    5.9176    0.0000 </r>
       <r>    5.9177    0.0000 </r>
       <r>    7.3120    0.0000 </r>
       <r>    7.3123    0.0000 </r>
       <r>    8.4825    0.0000 </r>
       <r>    8.4825    0.0000 </r>
       <r>    9.5629    0.0000 </r>
       <r>    9.5629    0.0000 </r>
       <r>   12.4001    0.0000 </r>
       <r>   12.4002    0.0000 </r>
       <r>   13.6505    0.0000 </r>
       <r>   13.6505    0.0000 </r>
      </set>
      <set comment="kpoint 25">
       <r>  -18.5411    1.0000 </r>
       <r>  -18.5411    1.0000 </r>
       <r>   -5.2921    1.0000 </r>
       <r>   -5.2921    1.0000 </r>
       <r>   -4.4398    1.0000 </r>
       <r>   -4.4398    1.0000 </r>
       <r>   -4.1013    1.0000 </r>
       <r>   -4.1013    1.0000 </r>
       <r>    4.9410    0.0000 </r>
       <r>    4.9412    0.0000 </r>
       <r>    7.8389    0.0000 </r>
       <r>    7.8390    0.0000 </r>
       <r>    9.2598    0.0000 </r>
       <r>    9.2598    0.0000 </r>
       <r>    9.2773    0.0000 </r>
       <r>    9.2773    0.0000 </r>
       <r>   12.0732    0.0000 </r>
       <r>   12.0732    0.0000 </r>
       <r>   12.0949    0.0000 </r>
       <r>   12.0949    0.0000 </r>
      </set>
      <set comment="kpoint 26">
       <r>  -18.5070    1.0000 </r>
       <r>  -18.5070    1.0000 </r>
       <r>   -5.3650    1.0000 </r>
       <r>   -5.3650    1.0000 </r>
       <r>   -4.6140    1.0000 </r>
       <r>   -4.6140    1.0000 </r>
       <r>   -4.2273    1.0000 </r>
       <r>   -4.2273    1.0000 </r>
       <r>    5.8028    0.0000 </r>
       <r>    5.8029    0.0000 </r>
       <r>    7.5323    0.0000 </r>
       <r>    7.5326    0.0000 </r>
       <r>    8.3067    0.0000 </r>
       <r>    8.3067    0.0000 </r>
       <r>    9.5291    0.0000 </r>
       <r>    9.5291    0.0000 </r>
       <r>   11.7659    0.0000 </r>
       <r>   11.7659    0.0000 </r>
       <r>   13.9027    0.0000 </r>
       <r>   14.0606    0.0000 </r>
      </set>
      <set comment="kpoint 27">
       <r>  -18.4731    1.0000 </r>
       <r>  -18.4730    1.0000 </r>
       <r>   -5.3382    1.0000 </r>
       <r>   -5.3382    1.0000 </r>
       <r>   -4.8424    1.0000 </r>
       <r>   -4.8424    1.0000 </r>
       <r>   -4.3838    1.0000 </r>
       <r>   -4.3838    1.0000 </r>
       <r>    6.5333    0.0000 </r>
       <r>    6.5336    0.0000 </r>
       <r>    6.9773    0.0000 </r>
       <r>    6.9774    0.0000 </r>
       <r>    8.1954    0.0000 </r>
       <r>    8.1954    0.0000 </r>
       <r>   10.3488    0.0000 </r>
       <r>   10.3488    0.0000 </r>
       <r>   11.7243    0.0000 </r>
       <r>   11.7243    0.0000 </r>
       <r>   12.4237    0.0000 </r>
       <r>   12.4237    0.0000 </r>
      </set>
      <set comment="kpoint 28">
       <r>  -18.4736    1.0000 </r>
       <r>  -18.4735    1.0000 </r>
       <r>   -5.3875    1.0000 </r>
       <r>   -5.3875    1.0000 </r>
       <r>   -4.7257    1.0000 </r>
       <r>   -4.7257    1.0000 </r>
       <r>   -4.4157    1.0000 </r>
       <r>   -4.4157    1.0000 </r>
       <r>    5.7386    0.0000 </r>
       <r>    5.7389    0.0000 </r>
       <r>    6.9374    0.0000 </r>
       <r>    6.9375    0.0000 </r>
       <r>    8.5244    0.0000 </r>
       <r>    8.5245    0.0000 </r>
       <r>   11.1157    0.0000 </r>
       <r>   11.1157    0.0000 </r>
       <r>   12.0262    0.0000 </r>
       <r>   12.0262    0.0000 </r>
       <r>   13.8833    0.0000 </r>
       <r>   13.8833    0.0000 </r>
      </set>
      <set comment="kpoint 29">
       <r>  -18.5081    1.0000 </r>
       <r>  -18.5081    1.0000 </r>
       <r>   -5.2729    1.0000 </r>
       <r>   -5.2729    1.0000 </r>
       <r>   -4.5915    1.0000 </r>
       <r>   -4.5915    1.0000 </r>
       <r>   -4.3157    1.0000 </r>
       <r>   -4.3156    1.0000 </r>
       <r>    5.3000    0.0000 </r>
       <r>    5.3003    0.0000 </r>
       <r>    7.0088    0.0000 </r>
       <r>    7.0088    0.0000 </r>
       <r>    8.4864    0.0000 </r>
       <r>    8.4865    0.0000 </r>
       <r>   11.1824    0.0000 </r>
       <r>   11.1824    0.0000 </r>
       <r>   11.2537    0.0000 </r>
       <r>   11.2537    0.0000 </r>
       <r>   12.9611    0.0000 </r>
       <r>   12.9611    0.0000 </r>
      </set>
      <set comment="kpoint 30">
       <r>  -18.5417    1.0000 </r>
       <r>  -18.5416    1.0000 </r>
       <r>   -5.1713    1.0000 </r>
       <r>   -5.1713    1.0000 </r>
       <r>   -4.4793    1.0000 </r>
       <r>   -4.4793    1.0000 </r>
       <r>   -4.1982    1.0000 </r>
       <r>   -4.1982    1.0000 </r>
       <r>    5.0126    0.0000 </r>
       <r>    5.0127    0.0000 </r>
       <r>    7.6105    0.0000 </r>
       <r>    7.6105    0.0000 </r>
       <r>    8.6063    0.0000 </r>
       <r>    8.6064    0.0000 </r>
       <r>    9.9692    0.0000 </r>
       <r>    9.9692    0.0000 </r>
       <r>   11.0038    0.0000 </r>
       <r>   11.0038    0.0000 </r>
       <r>   12.6903    0.0000 </r>
       <r>   12.6903    0.0000 </r>
      </set>
      <set comment="kpoint 31">
       <r>  -18.6092    1.0000 </r>
       <r>  -18.6091    1.0000 </r>
       <r>   -4.8461    1.0000 </r>
       <r>   -4.8461    1.0000 </r>
       <r>   -4.2152    1.0000 </r>
       <r>   -4.2152    1.0000 </r>
       <r>   -4.0284    1.0000 </r>
       <r>   -4.0284    1.0000 </r>
       <r>    3.6966    0.0000 </r>
       <r>    3.6967    0.0000 </r>
       <r>    8.5313    0.0000 </r>
       <r>    8.5313    0.0000 </r>
       <r>    9.5657    0.0000 </r>
       <r>    9.5657    0.0000 </r>
       <r>    9.5808    0.0000 </r>
       <r>    9.5808    0.0000 </r>
       <r>   11.2195    0.0000 </r>
       <r>   11.2195    0.0000 </r>
       <r>   11.2300    0.0000 </r>
       <r>   11.2300    0.0000 </r>
      </set>
      <set comment="kpoint 32">
       <r>  -18.5642    1.0000 </r>
       <r>  -18.5642    1.0000 </r>
       <r>   -5.0671    1.0000 </r>
       <r>   -5.0671    1.0000 </r>
       <r>   -4.4244    1.0000 </r>
       <r>   -4.4244    1.0000 </r>
       <r>   -4.1192    1.0000 </r>
       <r>   -4.1192    1.0000 </r>
       <r>    4.6206    0.0000 </r>
       <r>    4.6208    0.0000 </r>
       <r>    7.9928    0.0000 </r>
       <r>    7.9928    0.0000 </r>
       <r>    8.8964    0.0000 </r>
       <r>    8.8966    0.0000 </r>
       <r>   10.1090    0.0000 </r>
       <r>   10.1090    0.0000 </r>
       <r>   10.1913    0.0000 </r>
       <r>   10.1914    0.0000 </r>
       <r>   12.3691    0.0000 </r>
       <r>   12.3692    0.0000 </r>
      </set>
      <set comment="kpoint 33">
       <r>  -18.5070    1.0000 </r>
       <r>  -18.5070    1.0000 </r>
       <r>   -5.3650    1.0000 </r>
       <r>   -5.3650    1.0000 </r>
       <r>   -4.6140    1.0000 </r>
       <r>   -4.6140    1.0000 </r>
       <r>   -4.2273    1.0000 </r>
       <r>   -4.2273    1.0000 </r>
       <r>    5.8028    0.0000 </r>
       <r>    5.8029    0.0000 </r>
       <r>    7.5323    0.0000 </r>
       <r>    7.5326    0.0000 </r>
       <r>    8.3067    0.0000 </r>
       <r>    8.3067    0.0000 </r>
       <r>    9.5291    0.0000 </r>
       <r>    9.5291    0.0000 </r>
       <r>   11.7659    0.0000 </r>
       <r>   11.7659    0.0000 </r>
       <r>   13.9027    0.0000 </r>
       <r>   14.0600    0.0000 </r>
      </set>
      <set comment="kpoint 34">
       <r>  -18.4955    1.0000 </r>
       <r>  -18.4955    1.0000 </r>
       <r>   -5.4339    1.0000 </r>
       <r>   -5.4339    1.0000 </r>
       <r>   -4.6141    1.0000 </r>
       <r>   -4.6141    1.0000 </r>
       <r>   -4.2658    1.0000 </r>
       <r>   -4.2658    1.0000 </r>
       <r>    5.9176    0.0000 </r>
       <r>    5.9177    0.0000 </r>
       <r>    7.3120    0.0000 </r>
       <r>    7.3123    0.0000 </r>
       <r>    8.4825    0.0000 </r>
       <r>    8.4825    0.0000 </r>
       <r>    9.5629    0.0000 </r>
       <r>    9.5629    0.0000 </r>
       <r>   12.4001    0.0000 </r>
       <r>   12.4002    0.0000 </r>
       <r>   13.6505    0.0000 </r>
       <r>   13.6505    0.0000 </r>
      </set>
      <set comment="kpoint 35">
       <r>  -18.5417    1.0000 </r>
       <r>  -18.5416    1.0000 </r>
       <r>   -5.1713    1.0000 </r>
       <r>   -5.1713    1.0000 </r>
       <r>   -4.4793    1.0000 </r>
       <r>   -4.4793    1.0000 </r>
       <r>   -4.1982    1.0000 </r>
       <r>   -4.1982    1.0000 </r>
       <r>    5.0126    0.0000 </r>
       <r>    5.0127    0.0000 </r>
       <r>    7.6105    0.0000 </r>
       <r>    7.6105    0.0000 </r>
       <r>    8.6063    0.0000 </r>
       <r>    8.6064    0.0000 </r>
       <r>    9.9692    0.0000 </r>
       <r>    9.9692    0.0000 </r>
       <r>   11.0038    0.0000 </r>
       <r>   11.0038    0.0000 </r>
       <r>   12.6903    0.0000 </r>
       <r>   12.6903    0.0000 </r>
      </set>
      <set comment="kpoint 36">
       <r>  -18.5981    1.0000 </r>
       <r>  -18.5981    1.0000 </r>
       <r>   -4.8718    1.0000 </r>
       <r>   -4.8718    1.0000 </r>
       <r>   -4.2509    1.0000 </r>
       <r>   -4.2508    1.0000 </r>
       <r>   -4.1025    1.0000 </r>
       <r>   -4.1025    1.0000 </r>
       <r>    3.9151    0.0000 </r>
       <r>    3.9153    0.0000 </r>
       <r>    8.2346    0.0000 </r>
       <r>    8.2346    0.0000 </r>
       <r>    9.8147    0.0000 </r>
       <r>    9.8147    0.0000 </r>
       <r>    9.8523    0.0000 </r>
       <r>    9.8524    0.0000 </r>
       <r>    9.8539    0.0000 </r>
       <r>    9.8539    0.0000 </r>
       <r>   12.0517    0.0000 </r>
       <r>   12.0517    0.0000 </r>
      </set>
      <set comment="kpoint 37">
       <r>  -18.6092    1.0000 </r>
       <r>  -18.6091    1.0000 </r>
       <r>   -4.8461    1.0000 </r>
       <r>   -4.8461    1.0000 </r>
       <r>   -4.2152    1.0000 </r>
       <r>   -4.2152    1.0000 </r>
       <r>   -4.0284    1.0000 </r>
       <r>   -4.0284    1.0000 </r>
       <r>    3.6966    0.0000 </r>
       <r>    3.6967    0.0000 </r>
       <r>    8.5313    0.0000 </r>
       <r>    8.5313    0.0000 </r>
       <r>    9.5657    0.0000 </r>
       <r>    9.5657    0.0000 </r>
       <r>    9.5808    0.0000 </r>
       <r>    9.5808    0.0000 </r>
       <r>   11.2195    0.0000 </r>
       <r>   11.2195    0.0000 </r>
       <r>   11.2300    0.0000 </r>
       <r>   11.2300    0.0000 </r>
      </set>
      <set comment="kpoint 38">
       <r>  -18.5981    1.0000 </r>
       <r>  -18.5981    1.0000 </r>
       <r>   -4.8718    1.0000 </r>
       <r>   -4.8718    1.0000 </r>
       <r>   -4.2509    1.0000 </r>
       <r>   -4.2508    1.0000 </r>
       <r>   -4.1025    1.0000 </r>
       <r>   -4.1025    1.0000 </r>
       <r>    3.9151    0.0000 </r>
       <r>    3.9153    0.0000 </r>
       <r>    8.2346    0.0000 </r>
       <r>    8.2346    0.0000 </r>
       <r>    9.8147    0.0000 </r>
       <r>    9.8147    0.0000 </r>
       <r>    9.8523    0.0000 </r>
       <r>    9.8524    0.0000 </r>
       <r>    9.8539    0.0000 </r>
       <r>    9.8539    0.0000 </r>
       <r>   12.0517    0.0000 </r>
       <r>   12.0517    0.0000 </r>
      </set>
      <set comment="kpoint 39">
       <r>  -18.5417    1.0000 </r>
       <r>  -18.5416    1.0000 </r>
       <r>   -5.1713    1.0000 </r>
       <r>   -5.1713    1.0000 </r>
       <r>   -4.4793    1.0000 </r>
       <r>   -4.4793    1.0000 </r>
       <r>   -4.1982    1.0000 </r>
       <r>   -4.1982    1.0000 </r>
       <r>    5.0126    0.0000 </r>
       <r>    5.0127    0.0000 </r>
       <r>    7.6105    0.0000 </r>
       <r>    7.6105    0.0000 </r>
       <r>    8.6063    0.0000 </r>
       <r>    8.6064    0.0000 </r>
       <r>    9.9692    0.0000 </r>
       <r>    9.9692    0.0000 </r>
       <r>   11.0038    0.0000 </r>
       <r>   11.0038    0.0000 </r>
       <r>   12.6903    0.0000 </r>
       <r>   12.6903    0.0000 </r>
      </set>
      <set comment="kpoint 40">
       <r>  -18.4955    1.0000 </r>
       <r>  -18.4955    1.0000 </r>
       <r>   -5.4339    1.0000 </r>
       <r>   -5.4339    1.0000 </r>
       <r>   -4.6141    1.0000 </r>
       <r>   -4.6141    1.0000 </r>
       <r>   -4.2658    1.0000 </r>
       <r>   -4.2658    1.0000 </r>
       <r>    5.9176    0.0000 </r>
       <r>    5.9177    0.0000 </r>
       <r>    7.3120    0.0000 </r>
       <r>    7.3123    0.0000 </r>
       <r>    8.4825    0.0000 </r>
       <r>    8.4825    0.0000 </r>
       <r>    9.5629    0.0000 </r>
       <r>    9.5629    0.0000 </r>
       <r>   12.4001    0.0000 </r>
       <r>   12.4002    0.0000 </r>
       <r>   13.6505    0.0000 </r>
       <r>   13.6505    0.0000 </r>
      </set>
      <set comment="kpoint 41">
       <r>  -18.5070    1.0000 </r>
       <r>  -18.5070    1.0000 </r>
       <r>   -5.3650    1.0000 </r>
       <r>   -5.3650    1.0000 </r>
       <r>   -4.6140    1.0000 </r>
       <r>   -4.6140    1.0000 </r>
       <r>   -4.2273    1.0000 </r>
       <r>   -4.2273    1.0000 </r>
       <r>    5.8028    0.0000 </r>
       <r>    5.8029    0.0000 </r>
       <r>    7.5323    0.0000 </r>
       <r>    7.5326    0.0000 </r>
       <r>    8.3067    0.0000 </r>
       <r>    8.3067    0.0000 </r>
       <r>    9.5291    0.0000 </r>
       <r>    9.5291    0.0000 </r>
       <r>   11.7659    0.0000 </r>
       <r>   11.7659    0.0000 </r>
       <r>   13.9027    0.0000 </r>
       <r>   14.0258    0.0000 </r>
      </set>
      <set comment="kpoint 42">
       <r>  -18.5642    1.0000 </r>
       <r>  -18.5642    1.0000 </r>
       <r>   -5.0671    1.0000 </r>
       <r>   -5.0671    1.0000 </r>
       <r>   -4.4244    1.0000 </r>
       <r>   -4.4244    1.0000 </r>
       <r>   -4.1192    1.0000 </r>
       <r>   -4.1192    1.0000 </r>
       <r>    4.6206    0.0000 </r>
       <r>    4.6208    0.0000 </r>
       <r>    7.9928    0.0000 </r>
       <r>    7.9928    0.0000 </r>
       <r>    8.8964    0.0000 </r>
       <r>    8.8966    0.0000 </r>
       <r>   10.1090    0.0000 </r>
       <r>   10.1090    0.0000 </r>
       <r>   10.1913    0.0000 </r>
       <r>   10.1914    0.0000 </r>
       <r>   12.3691    0.0000 </r>
       <r>   12.3692    0.0000 </r>
      </set>
      <set comment="kpoint 43">
       <r>  -18.5981    1.0000 </r>
       <r>  -18.5981    1.0000 </r>
       <r>   -4.8718    1.0000 </r>
       <r>   -4.8718    1.0000 </r>
       <r>   -4.2508    1.0000 </r>
       <r>   -4.2508    1.0000 </r>
       <r>   -4.1026    1.0000 </r>
       <r>   -4.1025    1.0000 </r>
       <r>    3.9151    0.0000 </r>
       <r>    3.9153    0.0000 </r>
       <r>    8.2346    0.0000 </r>
       <r>    8.2346    0.0000 </r>
       <r>    9.8147    0.0000 </r>
       <r>    9.8147    0.0000 </r>
       <r>    9.8523    0.0000 </r>
       <r>    9.8524    0.0000 </r>
       <r>    9.8539    0.0000 </r>
       <r>    9.8539    0.0000 </r>
       <r>   12.0517    0.0000 </r>
       <r>   12.0517    0.0000 </r>
      </set>
      <set comment="kpoint 44">
       <r>  -18.6092    1.0000 </r>
       <r>  -18.6091    1.0000 </r>
       <r>   -4.8461    1.0000 </r>
       <r>   -4.8461    1.0000 </r>
       <r>   -4.2152    1.0000 </r>
       <r>   -4.2152    1.0000 </r>
       <r>   -4.0284    1.0000 </r>
       <r>   -4.0284    1.0000 </r>
       <r>    3.6966    0.0000 </r>
       <r>    3.6967    0.0000 </r>
       <r>    8.5313    0.0000 </r>
       <r>    8.5313    0.0000 </r>
       <r>    9.5657    0.0000 </r>
       <r>    9.5657    0.0000 </r>
       <r>    9.5808    0.0000 </r>
       <r>    9.5808    0.0000 </r>
       <r>   11.2195    0.0000 </r>
       <r>   11.2195    0.0000 </r>
       <r>   11.2300    0.0000 </r>
       <r>   11.2300    0.0000 </r>
      </set>
      <set comment="kpoint 45">
       <r>  -18.5642    1.0000 </r>
       <r>  -18.5642    1.0000 </r>
       <r>   -5.0671    1.0000 </r>
       <r>   -5.0671    1.0000 </r>
       <r>   -4.4244    1.0000 </r>
       <r>   -4.4244    1.0000 </r>
       <r>   -4.1192    1.0000 </r>
       <r>   -4.1192    1.0000 </r>
       <r>    4.6206    0.0000 </r>
       <r>    4.6208    0.0000 </r>
       <r>    7.9928    0.0000 </r>
       <r>    7.9928    0.0000 </r>
       <r>    8.8964    0.0000 </r>
       <r>    8.8966    0.0000 </r>
       <r>   10.1090    0.0000 </r>
       <r>   10.1090    0.0000 </r>
       <r>   10.1913    0.0000 </r>
       <r>   10.1914    0.0000 </r>
       <r>   12.3691    0.0000 </r>
       <r>   12.3692    0.0000 </r>
      </set>
      <set comment="kpoint 46">
       <r>  -18.5070    1.0000 </r>
       <r>  -18.5070    1.0000 </r>
       <r>   -5.3650    1.0000 </r>
       <r>   -5.3650    1.0000 </r>
       <r>   -4.6140    1.0000 </r>
       <r>   -4.6140    1.0000 </r>
       <r>   -4.2273    1.0000 </r>
       <r>   -4.2273    1.0000 </r>
       <r>    5.8028    0.0000 </r>
       <r>    5.8029    0.0000 </r>
       <r>    7.5323    0.0000 </r>
       <r>    7.5326    0.0000 </r>
       <r>    8.3067    0.0000 </r>
       <r>    8.3067    0.0000 </r>
       <r>    9.5291    0.0000 </r>
       <r>    9.5291    0.0000 </r>
       <r>   11.7659    0.0000 </r>
       <r>   11.7659    0.0000 </r>
       <r>   13.9027    0.0000 </r>
       <r>   13.9357    0.0000 </r>
      </set>
      <set comment="kpoint 47">
       <r>  -18.4955    1.0000 </r>
       <r>  -18.4955    1.0000 </r>
       <r>   -5.4339    1.0000 </r>
       <r>   -5.4339    1.0000 </r>
       <r>   -4.6141    1.0000 </r>
       <r>   -4.6141    1.0000 </r>
       <r>   -4.2658    1.0000 </r>
       <r>   -4.2658    1.0000 </r>
       <r>    5.9176    0.0000 </r>
       <r>    5.9177    0.0000 </r>
       <r>    7.3120    0.0000 </r>
       <r>    7.3123    0.0000 </r>
       <r>    8.4825    0.0000 </r>
       <r>    8.4825    0.0000 </r>
       <r>    9.5629    0.0000 </r>
       <r>    9.5629    0.0000 </r>
       <r>   12.4001    0.0000 </r>
       <r>   12.4002    0.0000 </r>
       <r>   13.6505    0.0000 </r>
       <r>   13.6505    0.0000 </r>
      </set>
      <set comment="kpoint 48">
       <r>  -18.5417    1.0000 </r>
       <r>  -18.5416    1.0000 </r>
       <r>   -5.1713    1.0000 </r>
       <r>   -5.1713    1.0000 </r>
       <r>   -4.4793    1.0000 </r>
       <r>   -4.4793    1.0000 </r>
       <r>   -4.1982    1.0000 </r>
       <r>   -4.1982    1.0000 </r>
       <r>    5.0126    0.0000 </r>
       <r>    5.0127    0.0000 </r>
       <r>    7.6105    0.0000 </r>
       <r>    7.6105    0.0000 </r>
       <r>    8.6063    0.0000 </r>
       <r>    8.6064    0.0000 </r>
       <r>    9.9692    0.0000 </r>
       <r>    9.9692    0.0000 </r>
       <r>   11.0038    0.0000 </r>
       <r>   11.0038    0.0000 </r>
       <r>   12.6903    0.0000 </r>
       <r>   12.6903    0.0000 </r>
      </set>
      <set comment="kpoint 49">
[...]
       <r>     5.3969     0.0000     0.0000 </r>
       <r>     5.5175     0.0000     0.0000 </r>
       <r>     5.6381     0.0000     0.0000 </r>
       <r>     5.7586     0.0000     0.0000 </r>
       <r>     5.8792     0.0000     0.0000 </r>
       <r>     5.9998     0.0000     0.0000 </r>
       <r>     6.1204     0.0000     0.0000 </r>
       <r>     6.2410     0.0000     0.0000 </r>
       <r>     6.3615     0.0000     0.0000 </r>
       <r>     6.4821     0.0000     0.0000 </r>
       <r>     6.6027     0.0000     0.0000 </r>
       <r>     6.7233     0.0000     0.0000 </r>
       <r>     6.8439     0.0000     0.0000 </r>
       <r>     6.9644     0.0000     0.0000 </r>
       <r>     7.0850     0.0000     0.0000 </r>
       <r>     7.2056     0.0000     0.0000 </r>
       <r>     7.3262     0.0000     0.0000 </r>
       <r>     7.4468     0.0000     0.0000 </r>
       <r>     7.5674     0.0000     0.0000 </r>
       <r>     7.6879     0.0000     0.0000 </r>
       <r>     7.8085     0.0000     0.0000 </r>
       <r>     7.9291     0.0000     0.0000 </r>
       <r>     8.0497     0.0000     0.0000 </r>
       <r>     8.1703     0.0000     0.0000 </r>
       <r>     8.2908     0.0000     0.0000 </r>
       <r>     8.4114     0.0000     0.0000 </r>
       <r>     8.5320     0.0000     0.0000 </r>
       <r>     8.6526     0.0000     0.0000 </r>
       <r>     8.7732     0.0000     0.0000 </r>
       <r>     8.8937     0.0000     0.0000 </r>
       <r>     9.0143     0.0000     0.0000 </r>
       <r>     9.1349     0.0000     0.0000 </r>
       <r>     9.2555     0.0000     0.0000 </r>
       <r>     9.3761     0.0000     0.0000 </r>
       <r>     9.4966     0.0000     0.0000 </r>
       <r>     9.6172     0.0000     0.0000 </r>
       <r>     9.7378     0.0000     0.0000 </r>
       <r>     9.8584     0.0000     0.0000 </r>
       <r>     9.9790     0.0000     0.0000 </r>
       <r>    10.0996     0.0000     0.0000 </r>
       <r>    10.2201     0.0000     0.0000 </r>
       <r>    10.3407     0.0000     0.0000 </r>
       <r>    10.4613     0.0000     0.0000 </r>
       <r>    10.5819     0.0000     0.0000 </r>
       <r>    10.7025     0.0000     0.0000 </r>
       <r>    10.8230     0.0000     0.0000 </r>
       <r>    10.9436     0.0000     0.0000 </r>
       <r>    11.0642     0.0000     0.0000 </r>
       <r>    11.1848     0.0000     0.0000 </r>
       <r>    11.3054     0.0000     0.0000 </r>
       <r>    11.4259     0.0000     0.0000 </r>
       <r>    11.5465     0.0000     0.0000 </r>
       <r>    11.6671     0.0000     0.0000 </r>
       <r>    11.7877     0.0000     0.0000 </r>
       <r>    11.9083     0.0000     0.0000 </r>
       <r>    12.0288     0.0000     0.0000 </r>
       <r>    12.1494     0.0000     0.0000 </r>
       <r>    12.2700     0.0000     0.0000 </r>
       <r>    12.3906     0.0000     0.0000 </r>
       <r>    12.5112     0.0000     0.0000 </r>
       <r>    12.6318     0.0000     0.0000 </r>
       <r>    12.7523     0.0000     0.0000 </r>
       <r>    12.8729     0.0000     0.0000 </r>
       <r>    12.9935     0.0000     0.0000 </r>
       <r>    13.1141     0.0000     0.0000 </r>
       <r>    13.2347     0.0000     0.0000 </r>
       <r>    13.3552     0.0000     0.0000 </r>
       <r>    13.4758     0.0000     0.0000 </r>
       <r>    13.5964     0.0000     0.0000 </r>
       <r>    13.7170     0.0000     0.0000 </r>
       <r>    13.8376     0.0000     0.0000 </r>
       <r>    13.9581     0.0000     0.0000 </r>
       <r>    14.0787     0.0000     0.0000 </r>
       <r>    14.1993     0.0000     0.0000 </r>
       <r>    14.3199     0.0000     0.0000 </r>
       <r>    14.4405     0.0000     0.0000 </r>
       <r>    14.5610     0.0000     0.0000 </r>
       <r>    14.6816     0.0000     0.0000 </r>
       <r>    14.8022     0.0000     0.0000 </r>
       <r>    14.9228     0.0000     0.0000 </r>
       <r>    15.0434     0.0000     0.0000 </r>
       <r>    15.1640     0.0000     0.0000 </r>
       <r>    15.2845     0.0000     0.0000 </r>
       <r>    15.4051     0.0000     0.0000 </r>
       <r>    15.5257     0.0000     0.0000 </r>
       <r>    15.6463     0.0000     0.0000 </r>
       <r>    15.7669     0.0000     0.0000 </r>
       <r>    15.8874     0.0000     0.0000 </r>
      </set>
      <set comment="spin 4">
       <r>   -20.2869     0.0000     0.0000 </r>
       <r>   -20.1663     0.0000     0.0000 </r>
       <r>   -20.0457     0.0000     0.0000 </r>
       <r>   -19.9251     0.0000     0.0000 </r>
       <r>   -19.8045     0.0000     0.0000 </r>
       <r>   -19.6839     0.0000     0.0000 </r>
       <r>   -19.5634     0.0000     0.0000 </r>
       <r>   -19.4428     0.0000     0.0000 </r>
       <r>   -19.3222     0.0000     0.0000 </r>
       <r>   -19.2016     0.0000     0.0000 </r>
       <r>   -19.0810     0.0000     0.0000 </r>
       <r>   -18.9605     0.0000     0.0000 </r>
       <r>   -18.8399     0.0000     0.0000 </r>
       <r>   -18.7193     0.0000     0.0000 </r>
       <r>   -18.5987     0.0000     0.0000 </r>
       <r>   -18.4781     0.0000     0.0000 </r>
       <r>   -18.3576     0.0000     0.0000 </r>
       <r>   -18.2370     0.0000     0.0000 </r>
       <r>   -18.1164     0.0000     0.0000 </r>
       <r>   -17.9958     0.0000     0.0000 </r>
       <r>   -17.8752     0.0000     0.0000 </r>
       <r>   -17.7547     0.0000     0.0000 </r>
       <r>   -17.6341     0.0000     0.0000 </r>
       <r>   -17.5135     0.0000     0.0000 </r>
       <r>   -17.3929     0.0000     0.0000 </r>
       <r>   -17.2723     0.0000     0.0000 </r>
       <r>   -17.1517     0.0000     0.0000 </r>
       <r>   -17.0312     0.0000     0.0000 </r>
       <r>   -16.9106     0.0000     0.0000 </r>
       <r>   -16.7900     0.0000     0.0000 </r>
       <r>   -16.6694     0.0000     0.0000 </r>
       <r>   -16.5488     0.0000     0.0000 </r>
       <r>   -16.4283     0.0000     0.0000 </r>
       <r>   -16.3077     0.0000     0.0000 </r>
       <r>   -16.1871     0.0000     0.0000 </r>
       <r>   -16.0665     0.0000     0.0000 </r>
       <r>   -15.9459     0.0000     0.0000 </r>
       <r>   -15.8254     0.0000     0.0000 </r>
       <r>   -15.7048     0.0000     0.0000 </r>
       <r>   -15.5842     0.0000     0.0000 </r>
       <r>   -15.4636     0.0000     0.0000 </r>
       <r>   -15.3430     0.0000     0.0000 </r>
       <r>   -15.2225     0.0000     0.0000 </r>
       <r>   -15.1019     0.0000     0.0000 </r>
       <r>   -14.9813     0.0000     0.0000 </r>
       <r>   -14.8607     0.0000     0.0000 </r>
       <r>   -14.7401     0.0000     0.0000 </r>
       <r>   -14.6195     0.0000     0.0000 </r>
       <r>   -14.4990     0.0000     0.0000 </r>
       <r>   -14.3784     0.0000     0.0000 </r>
       <r>   -14.2578     0.0000     0.0000 </r>
       <r>   -14.1372     0.0000     0.0000 </r>
       <r>   -14.0166     0.0000     0.0000 </r>
       <r>   -13.8961     0.0000     0.0000 </r>
       <r>   -13.7755     0.0000     0.0000 </r>
       <r>   -13.6549     0.0000     0.0000 </r>
       <r>   -13.5343     0.0000     0.0000 </r>
       <r>   -13.4137     0.0000     0.0000 </r>
       <r>   -13.2932     0.0000     0.0000 </r>
       <r>   -13.1726     0.0000     0.0000 </r>
       <r>   -13.0520     0.0000     0.0000 </r>
       <r>   -12.9314     0.0000     0.0000 </r>
       <r>   -12.8108     0.0000     0.0000 </r>
       <r>   -12.6903     0.0000     0.0000 </r>
       <r>   -12.5697     0.0000     0.0000 </r>
       <r>   -12.4491     0.0000     0.0000 </r>
       <r>   -12.3285     0.0000     0.0000 </r>
       <r>   -12.2079     0.0000     0.0000 </r>
       <r>   -12.0873     0.0000     0.0000 </r>
       <r>   -11.9668     0.0000     0.0000 </r>
       <r>   -11.8462     0.0000     0.0000 </r>
       <r>   -11.7256     0.0000     0.0000 </r>
       <r>   -11.6050     0.0000     0.0000 </r>
       <r>   -11.4844     0.0000     0.0000 </r>
       <r>   -11.3639     0.0000     0.0000 </r>
       <r>   -11.2433     0.0000     0.0000 </r>
       <r>   -11.1227     0.0000     0.0000 </r>
       <r>   -11.0021     0.0000     0.0000 </r>
       <r>   -10.8815     0.0000     0.0000 </r>
       <r>   -10.7610     0.0000     0.0000 </r>
       <r>   -10.6404     0.0000     0.0000 </r>
       <r>   -10.5198     0.0000     0.0000 </r>
       <r>   -10.3992     0.0000     0.0000 </r>
       <r>   -10.2786     0.0000     0.0000 </r>
       <r>   -10.1581     0.0000     0.0000 </r>
       <r>   -10.0375     0.0000     0.0000 </r>
       <r>    -9.9169     0.0000     0.0000 </r>
       <r>    -9.7963     0.0000     0.0000 </r>
       <r>    -9.6757     0.0000     0.0000 </r>
       <r>    -9.5551     0.0000     0.0000 </r>
       <r>    -9.4346     0.0000     0.0000 </r>
       <r>    -9.3140     0.0000     0.0000 </r>
       <r>    -9.1934     0.0000     0.0000 </r>
       <r>    -9.0728     0.0000     0.0000 </r>
       <r>    -8.9522     0.0000     0.0000 </r>
       <r>    -8.8317     0.0000     0.0000 </r>
       <r>    -8.7111     0.0000     0.0000 </r>
       <r>    -8.5905     0.0000     0.0000 </r>
       <r>    -8.4699     0.0000     0.0000 </r>
       <r>    -8.3493     0.0000     0.0000 </r>
       <r>    -8.2288     0.0000     0.0000 </r>
       <r>    -8.1082     0.0000     0.0000 </r>
       <r>    -7.9876     0.0000     0.0000 </r>
       <r>    -7.8670     0.0000     0.0000 </r>
       <r>    -7.7464     0.0000     0.0000 </r>
       <r>    -7.6259     0.0000     0.0000 </r>
       <r>    -7.5053     0.0000     0.0000 </r>
       <r>    -7.3847     0.0000     0.0000 </r>
       <r>    -7.2641     0.0000     0.0000 </r>
       <r>    -7.1435     0.0000     0.0000 </r>
       <r>    -7.0229     0.0000     0.0000 </r>
       <r>    -6.9024     0.0000     0.0000 </r>
       <r>    -6.7818     0.0000     0.0000 </r>
       <r>    -6.6612     0.0000     0.0000 </r>
       <r>    -6.5406     0.0000     0.0000 </r>
       <r>    -6.4200     0.0000     0.0000 </r>
       <r>    -6.2995     0.0000     0.0000 </r>
       <r>    -6.1789     0.0000     0.0000 </r>
       <r>    -6.0583     0.0000     0.0000 </r>
       <r>    -5.9377     0.0000     0.0000 </r>
       <r>    -5.8171     0.0000     0.0000 </r>
       <r>    -5.6966     0.0000     0.0000 </r>
       <r>    -5.5760     0.0000     0.0000 </r>
       <r>    -5.4554     0.0000     0.0000 </r>
       <r>    -5.3348     0.0000     0.0000 </r>
       <r>    -5.2142     0.0000     0.0000 </r>
       <r>    -5.0937     0.0000     0.0000 </r>
       <r>    -4.9731     0.0000     0.0000 </r>
       <r>    -4.8525     0.0000     0.0000 </r>
       <r>    -4.7319     0.0000     0.0000 </r>
       <r>    -4.6113     0.0000     0.0000 </r>
       <r>    -4.4907     0.0000     0.0000 </r>
       <r>    -4.3702     0.0000     0.0000 </r>
       <r>    -4.2496     0.0000     0.0000 </r>
       <r>    -4.1290     0.0000     0.0000 </r>
       <r>    -4.0084     0.0000     0.0000 </r>
       <r>    -3.8878     0.0000     0.0000 </r>
       <r>    -3.7673     0.0000     0.0000 </r>
       <r>    -3.6467     0.0000     0.0000 </r>
       <r>    -3.5261     0.0000     0.0000 </r>
       <r>    -3.4055     0.0000     0.0000 </r>
       <r>    -3.2849     0.0000     0.0000 </r>
       <r>    -3.1644     0.0000     0.0000 </r>
       <r>    -3.0438     0.0000     0.0000 </r>
       <r>    -2.9232     0.0000     0.0000 </r>
       <r>    -2.8026     0.0000     0.0000 </r>
       <r>    -2.6820     0.0000     0.0000 </r>
       <r>    -2.5614     0.0000     0.0000 </r>
       <r>    -2.4409     0.0000     0.0000 </r>
       <r>    -2.3203     0.0000     0.0000 </r>
       <r>    -2.1997     0.0000     0.0000 </r>
       <r>    -2.0791     0.0000     0.0000 </r>
       <r>    -1.9585     0.0000     0.0000 </r>
       <r>    -1.8380     0.0000     0.0000 </r>
       <r>    -1.7174     0.0000     0.0000 </r>
       <r>    -1.5968     0.0000     0.0000 </r>
       <r>    -1.4762     0.0000     0.0000 </r>
       <r>    -1.3556     0.0000     0.0000 </r>
       <r>    -1.2351     0.0000     0.0000 </r>
       <r>    -1.1145     0.0000     0.0000 </r>
       <r>    -0.9939     0.0000     0.0000 </r>
       <r>    -0.8733     0.0000     0.0000 </r>
       <r>    -0.7527     0.0000     0.0000 </r>
       <r>    -0.6322     0.0000     0.0000 </r>
       <r>    -0.5116     0.0000     0.0000 </r>
       <r>    -0.3910     0.0000     0.0000 </r>
       <r>    -0.2704     0.0000     0.0000 </r>
       <r>    -0.1498     0.0000     0.0000 </r>
       <r>    -0.0292     0.0000     0.0000 </r>
       <r>     0.0913     0.0000     0.0000 </r>
       <r>     0.2119     0.0000     0.0000 </r>
       <r>     0.3325     0.0000     0.0000 </r>
       <r>     0.4531     0.0000     0.0000 </r>
       <r>     0.5737     0.0000     0.0000 </r>
       <r>     0.6942     0.0000     0.0000 </r>
       <r>     0.8148     0.0000     0.0000 </r>
       <r>     0.9354     0.0000     0.0000 </r>
       <r>     1.0560     0.0000     0.0000 </r>
       <r>     1.1766     0.0000     0.0000 </r>
       <r>     1.2971     0.0000     0.0000 </r>
       <r>     1.4177     0.0000     0.0000 </r>
       <r>     1.5383     0.0000     0.0000 </r>
       <r>     1.6589     0.0000     0.0000 </r>
       <r>     1.7795     0.0000     0.0000 </r>
       <r>     1.9000     0.0000     0.0000 </r>
       <r>     2.0206     0.0000     0.0000 </r>
       <r>     2.1412     0.0000     0.0000 </r>
       <r>     2.2618     0.0000     0.0000 </r>
       <r>     2.3824     0.0000     0.0000 </r>
       <r>     2.5030     0.0000     0.0000 </r>
       <r>     2.6235     0.0000     0.0000 </r>
       <r>     2.7441     0.0000     0.0000 </r>
       <r>     2.8647     0.0000     0.0000 </r>
       <r>     2.9853     0.0000     0.0000 </r>
       <r>     3.1059     0.0000     0.0000 </r>
       <r>     3.2264     0.0000     0.0000 </r>
       <r>     3.3470     0.0000     0.0000 </r>
       <r>     3.4676     0.0000     0.0000 </r>
       <r>     3.5882     0.0000     0.0000 </r>
       <r>     3.7088     0.0000     0.0000 </r>
       <r>     3.8293     0.0000     0.0000 </r>
       <r>     3.9499     0.0000     0.0000 </r>
       <r>     4.0705     0.0000     0.0000 </r>
       <r>     4.1911     0.0000     0.0000 </r>
       <r>     4.3117     0.0000     0.0000 </r>
       <r>     4.4322     0.0000     0.0000 </r>
       <r>     4.5528     0.0000     0.0000 </r>
       <r>     4.6734     0.0000     0.0000 </r>
       <r>     4.7940     0.0000     0.0000 </r>
       <r>     4.9146     0.0000     0.0000 </r>
       <r>     5.0352     0.0000     0.0000 </r>
       <r>     5.1557     0.0000     0.0000 </r>
       <r>     5.2763     0.0000     0.0000 </r>
       <r>     5.3969     0.0000     0.0000 </r>
       <r>     5.5175     0.0000     0.0000 </r>
       <r>     5.6381     0.0000     0.0000 </r>
       <r>     5.7586     0.0000     0.0000 </r>
       <r>     5.8792     0.0000     0.0000 </r>
       <r>     5.9998     0.0000     0.0000 </r>
       <r>     6.1204     0.0000     0.0000 </r>
       <r>     6.2410     0.0000     0.0000 </r>
       <r>     6.3615     0.0000     0.0000 </r>
       <r>     6.4821     0.0000     0.0000 </r>
       <r>     6.6027     0.0000     0.0000 </r>
       <r>     6.7233     0.0000     0.0000 </r>
       <r>     6.8439     0.0000     0.0000 </r>
       <r>     6.9644     0.0000     0.0000 </r>
       <r>     7.0850     0.0000     0.0000 </r>
       <r>     7.2056     0.0000     0.0000 </r>
       <r>     7.3262     0.0000     0.0000 </r>
       <r>     7.4468     0.0000     0.0000 </r>
       <r>     7.5674     0.0000     0.0000 </r>
       <r>     7.6879     0.0000     0.0000 </r>
       <r>     7.8085     0.0000     0.0000 </r>
       <r>     7.9291     0.0000     0.0000 </r>
       <r>     8.0497     0.0000     0.0000 </r>
       <r>     8.1703     0.0000     0.0000 </r>
       <r>     8.2908     0.0000     0.0000 </r>
       <r>     8.4114     0.0000     0.0000 </r>
       <r>     8.5320     0.0000     0.0000 </r>
       <r>     8.6526     0.0000     0.0000 </r>
       <r>     8.7732     0.0000     0.0000 </r>
       <r>     8.8937     0.0000     0.0000 </r>
       <r>     9.0143     0.0000     0.0000 </r>
       <r>     9.1349     0.0000     0.0000 </r>
       <r>     9.2555     0.0000     0.0000 </r>
       <r>     9.3761     0.0000     0.0000 </r>
       <r>     9.4966     0.0000     0.0000 </r>
       <r>     9.6172     0.0000     0.0000 </r>
       <r>     9.7378     0.0000     0.0000 </r>
       <r>     9.8584     0.0000     0.0000 </r>
       <r>     9.9790     0.0000     0.0000 </r>
       <r>    10.0996     0.0000     0.0000 </r>
       <r>    10.2201     0.0000     0.0000 </r>
       <r>    10.3407     0.0000     0.0000 </r>
       <r>    10.4613     0.0000     0.0000 </r>
       <r>    10.5819     0.0000     0.0000 </r>
       <r>    10.7025     0.0000     0.0000 </r>
       <r>    10.8230     0.0000     0.0000 </r>
       <r>    10.9436     0.0000     0.0000 </r>
       <r>    11.0642     0.0000     0.0000 </r>
       <r>    11.1848     0.0000     0.0000 </r>
       <r>    11.3054     0.0000     0.0000 </r>
       <r>    11.4259     0.0000     0.0000 </r>
       <r>    11.5465     0.0000     0.0000 </r>
       <r>    11.6671     0.0000     0.0000 </r>
       <r>    11.7877     0.0000     0.0000 </r>
       <r>    11.9083     0.0000     0.0000 </r>
       <r>    12.0288     0.0000     0.0000 </r>
       <r>    12.1494     0.0000     0.0000 </r>
       <r>    12.2700     0.0000     0.0000 </r>
       <r>    12.3906     0.0000     0.0000 </r>
       <r>    12.5112     0.0000     0.0000 </r>
       <r>    12.6318     0.0000     0.0000 </r>
       <r>    12.7523     0.0000     0.0000 </r>
       <r>    12.8729     0.0000     0.0000 </r>
       <r>    12.9935     0.0000     0.0000 </r>
       <r>    13.1141     0.0000     0.0000 </r>
       <r>    13.2347     0.0000     0.0000 </r>
       <r>    13.3552     0.0000     0.0000 </r>
       <r>    13.4758     0.0000     0.0000 </r>
       <r>    13.5964     0.0000     0.0000 </r>
       <r>    13.7170     0.0000     0.0000 </r>
       <r>    13.8376     0.0000     0.0000 </r>
       <r>    13.9581     0.0000     0.0000 </r>
       <r>    14.0787     0.0000     0.0000 </r>
       <r>    14.1993     0.0000     0.0000 </r>
       <r>    14.3199     0.0000     0.0000 </r>
       <r>    14.4405     0.0000     0.0000 </r>
       <r>    14.5610     0.0000     0.0000 </r>
       <r>    14.6816     0.0000     0.0000 </r>
       <r>    14.8022     0.0000     0.0000 </r>
       <r>    14.9228     0.0000     0.0000 </r>
       <r>    15.0434     0.0000     0.0000 </r>
       <r>    15.1640     0.0000     0.0000 </r>
       <r>    15.2845     0.0000     0.0000 </r>
       <r>    15.4051     0.0000     0.0000 </r>
       <r>    15.5257     0.0000     0.0000 </r>
       <r>    15.6463     0.0000     0.0000 </r>
       <r>    15.7669     0.0000     0.0000 </r>
       <r>    15.8874     0.0000     0.0000 </r>
      </set>
     </set>
    </array>
   </total>
  </dos>
 </calculation>
 <structure name="finalpos" >
  <crystal>
   <varray name="basis" >
    <v>       4.11534301       0.00000000       0.00000000 </v>
    <v>       2.05767151       3.56399159      -0.00000000 </v>
    <v>       2.05767151       1.18799720       3.36016350 </v>
   </varray>
   <i name="volume">     49.28367901 </i>
   <varray name="rec_basis" >
    <v>       0.24299311      -0.14029214      -0.09920152 </v>
    <v>       0.00000000       0.28058428      -0.09920152 </v>
    <v>      -0.00000000       0.00000000       0.29760457 </v>
   </varray>
  </crystal>
  <varray name="positions" >
   <v>       0.00000000       0.00000000       0.00000000 </v>
  </varray>
  <varray name="velocities" >
   <v>       0.00000000       0.00000000       0.00000000 </v>
  </varray>
 </structure>
</modeling>
