    1    1  999    1
  0.6541804E+02  0.4522767E-09  0.4522767E-09  0.4522767E-09  0.1000000E-15
  1.000000000000000E-004
  CAR 
 Cn_FCC                                  
     18     35     14
 
  0.0000000E+00  0.0000000E+00  0.0000000E+00  0.1371742E-02
    1      -41.674297   1.000000
    2      -41.674297   1.000000
    3      -41.674297   1.000000
    4      -41.674056   1.000000
    5      -41.674056   1.000000
    6      -17.439967   1.000000
    7       -2.426564   0.736469
    8       -2.426564   0.736469
    9       -2.426564   0.736467
   10        2.445011   0.000000
   11        7.675625   0.000000
   12        7.675625   0.000000
   13        7.675625   0.000000
   14        9.471407   0.000000
 
  0.1111111E+00  0.1002946E-17 -0.6938894E-17  0.1097394E-01
    1      -41.674289   1.000000
    2      -41.674279   1.000000
    3      -41.674279   1.000000
    4      -41.674060   1.000000
    5      -41.674060   1.000000
    6      -17.425261   1.000000
    7       -2.703705   1.000065
    8       -2.452626   0.898060
    9       -2.452626   0.898059
   10        2.836599   0.000000
   11        7.231152   0.000000
   12        7.795699   0.000000
   13        7.795699   0.000000
   14        9.555777   0.000000
 
  0.2222222E+00 -0.2574968E-16 -0.2775558E-16  0.1097394E-01
    1      -41.674238   1.000000
    2      -41.674235   1.000000
    3      -41.674235   1.000000
    4      -41.673989   1.000000
    5      -41.673989   1.000000
    6      -17.387458   1.000000
    7       -3.280547   1.000000
    8       -2.516987   1.035336
    9       -2.516987   1.035336
   10        3.636201   0.000000
   11        6.858654   0.000000
   12        7.862459   0.000000
   13        7.862459   0.000000
   14        9.379161   0.000000
 
  0.3333333E+00  0.3008839E-17 -0.2775558E-16  0.1097394E-01
    1      -41.674252   1.000000
    2      -41.674252   1.000000
    3      -41.674167   1.000000
    4      -41.673856   1.000000
    5      -41.673856   1.000000
    6      -17.343710   1.000000
    7       -3.810025   1.000000
    8       -2.587522   1.010815
    9       -2.587522   1.010815
   10        4.152745   0.000000
   11        7.204999   0.000000
   12        7.585804   0.000000
   13        7.585804   0.000000
   14        9.499559   0.000000
 
  0.4444444E+00 -0.5149937E-16 -0.5551115E-16  0.1097394E-01
    1      -41.674258   1.000000
    2      -41.674258   1.000000
    3      -41.674147   1.000000
    4      -41.673729   1.000000
    5      -41.673728   1.000000
    6      -17.314661   1.000000
    7       -4.110921   1.000000
    8       -2.632153   1.002215
    9       -2.632153   1.002215
   10        4.255437   0.000000
   11        7.366678   0.000000
   12        7.366678   0.000000
   13        7.798107   0.000000
   14        9.627619   0.000000
 
  0.1111111E+00  0.1111111E+00 -0.1387779E-16  0.8230453E-02
    1      -41.674335   1.000000
    2      -41.674235   1.000000
    3      -41.674235   1.000000
    4      -41.674088   1.000000
    5      -41.674049   1.000000
    6      -17.420360   1.000000
    7       -2.705167   1.000060
    8       -2.505864   1.031898
    9       -2.505864   1.031898
   10        2.971842   0.000000
   11        7.000460   0.000000
   12        7.924667   0.000000
   13        7.924667   0.000000
   14        8.759074   0.000000
 
  0.2222222E+00  0.1111111E+00 -0.1387779E-16  0.3292181E-01
    1      -41.674322   1.000000
    2      -41.674179   1.000000
    3      -41.674173   1.000000
    4      -41.674074   1.000000
    5      -41.673969   1.000000
    6      -17.390262   1.000000
    7       -3.137095   1.000000
    8       -2.589516   1.010189
    9       -2.562225   1.020796
   10        3.661530   0.000000
   11        6.593889   0.000000
   12        7.717299   0.000000
   13        8.136368   0.000000
   14        8.621164   0.000000
 
  0.3333333E+00  0.1111111E+00 -0.2775558E-16  0.3292181E-01
    1      -41.674272   1.000000
    2      -41.674171   1.000000
    3      -41.674159   1.000000
    4      -41.673948   1.000000
    5      -41.673827   1.000000
    6      -17.348403   1.000000
    7       -3.645644   1.000000
    8       -2.663084   1.000555
    9       -2.652348   1.000920
   10        4.336693   0.000000
   11        6.675624   0.000000
   12        7.155085   0.000000
   13        7.995377   0.000000
   14        9.465232   0.000000
 
  0.4444444E+00  0.1111111E+00 -0.2775558E-16  0.3292181E-01
    1      -41.674259   1.000000
    2      -41.674193   1.000000
    3      -41.674122   1.000000
    4      -41.673824   1.000000
    5      -41.673732   1.000000
    6      -17.314352   1.000000
    7       -3.995324   1.000000
    8       -2.753054   1.000003
    9       -2.694288   1.000110
   10        4.565804   0.000000
   11        6.708524   0.000000
   12        7.595221   0.000000
   13        7.704403   0.000000
   14        9.994108   0.000000
 
 -0.4444444E+00  0.1111111E+00  0.4163336E-16  0.3292181E-01
    1      -41.674258   1.000000
    2      -41.674208   1.000000
    3      -41.674101   1.000000
    4      -41.673758   1.000000
    5      -41.673734   1.000000
    6      -17.304607   1.000000
    7       -4.086146   1.000000
    8       -2.816864   1.000000
    9       -2.670504   1.000386
   10        4.600605   0.000000
   11        6.665248   0.000000
   12        7.559088   0.000000
   13        8.045546   0.000000
   14       10.210402   0.000000
 
 -0.3333333E+00  0.1111111E+00  0.1387779E-16  0.3292181E-01
    1      -41.674241   1.000000
    2      -41.674200   1.000000
    3      -41.674137   1.000000
    4      -41.673868   1.000000
    5      -41.673774   1.000000
    6      -17.324026   1.000000
    7       -3.898311   1.000000
    8       -2.813291   1.000000
    9       -2.601670   1.006918
   10        4.560784   0.000000
   11        6.884584   0.000000
   12        7.355866   0.000000
   13        7.647331   0.000000
   14        9.839422   0.000000
 
 -0.2222222E+00  0.1111111E+00  0.1387779E-16  0.3292181E-01
    1      -41.674235   1.000000
    2      -41.674200   1.000000
    3      -41.674187   1.000000
    4      -41.674028   1.000000
    5      -41.673877   1.000000
    6      -17.362997   1.000000
    7       -3.486485   1.000000
    8       -2.735217   1.000010
    9       -2.517448   1.035374
   10        4.168751   0.000000
   11        6.701870   0.000000
   12        7.386109   0.000000
   13        7.960804   0.000000
   14        8.831975   0.000000
 
 -0.1111111E+00  0.1111111E+00  0.4637559E-17  0.1646091E-01
    1      -41.674283   1.000000
    2      -41.674221   1.000000
    3      -41.674221   1.000000
    4      -41.674072   1.000000
    5      -41.673998   1.000000
    6      -17.402823   1.000000
    7       -3.005177   1.000000
    8       -2.593748   1.008945
    9       -2.457466   0.920869
   10        3.381288   0.000000
   11        6.846310   0.000000
   12        7.821196   0.000000
   13        7.983126   0.000000
   14        8.776952   0.000000
 
  0.2222222E+00  0.2222222E+00 -0.5551115E-16  0.8230453E-02
    1      -41.674384   1.000000
    2      -41.674141   1.000000
    3      -41.674036   1.000000
    4      -41.674036   1.000000
    5      -41.673954   1.000000
    6      -17.370091   1.000000
    7       -3.252375   1.000000
    8       -2.696673   1.000097
    9       -2.696673   1.000097
   10        4.078267   0.000000
   11        6.116939   0.000000
   12        7.405730   0.000000
   13        8.621050   0.000000
   14        8.621050   0.000000
 
  0.3333333E+00  0.2222222E+00 -0.2775558E-16  0.3292181E-01
    1      -41.674373   1.000000
    2      -41.674153   1.000000
    3      -41.674015   1.000000
    4      -41.673923   1.000000
    5      -41.673830   1.000000
    6      -17.336028   1.000000
    7       -3.577292   1.000000
    8       -2.819140   1.000000
    9       -2.787027   1.000000
   10        4.596672   0.000000
   11        5.928040   0.000000
   12        7.009616   0.000000
   13        8.796826   0.000000
   14        9.388067   0.000000
 
  0.4444444E+00  0.2222222E+00 -0.5551115E-16  0.3292181E-01
    1      -41.674318   1.000000
    2      -41.674119   1.000000
    3      -41.674026   1.000000
    4      -41.673853   1.000000
    5      -41.673722   1.000000
    6      -17.303764   1.000000
    7       -3.841696   1.000000
    8       -3.001165   1.000000
    9       -2.821852   1.000000
   10        4.922780   0.000000
   11        6.170556   0.000000
   12        6.932888   0.000000
   13        8.525066   0.000000
   14       10.313221   0.000000
 
 -0.4444444E+00  0.2222222E+00  0.5551115E-16  0.3292181E-01
    1      -41.674280   1.000000
    2      -41.674051   1.000000
    3      -41.674045   1.000000
    4      -41.673853   1.000000
    5      -41.673736   1.000000
    6      -17.288805   1.000000
    7       -3.930016   1.000000
    8       -3.172677   1.000000
    9       -2.787401   1.000000
   10        5.133394   0.000000
   11        6.184038   0.000000
   12        7.575006   0.000000
   13        8.240983   0.000000
   14       10.054472   0.000000
 
 -0.3333333E+00  0.2222222E+00  0.2775558E-16  0.3292181E-01
    1      -41.674248   1.000000
    2      -41.674054   1.000000
    3      -41.674037   1.000000
    4      -41.673864   1.000000
    5      -41.673820   1.000000
    6      -17.298385   1.000000
    7       -3.842191   1.000000
    8       -3.222708   1.000000
    9       -2.697480   1.000092
   10        5.342242   0.000000
   11        6.222752   0.000000
   12        7.254349   0.000000
   13        8.119349   0.000000
   14        9.843862   0.000000
 
 -0.2222222E+00  0.2222222E+00  0.1193240E-16  0.1646091E-01
    1      -41.674224   1.000000
    2      -41.674134   1.000000
    3      -41.674051   1.000000
    4      -41.674050   1.000000
    5      -41.673798   1.000000
    6      -17.327847   1.000000
    7       -3.673470   1.000000
    8       -3.055145   1.000000
    9       -2.590498   1.009890
   10        5.015483   0.000000
   11        6.634795   0.000000
   12        6.642024   0.000000
   13        8.144314   0.000000
   14        8.894022   0.000000
 
  0.3333333E+00  0.3333333E+00 -0.2775558E-16  0.8230453E-02
    1      -41.674437   1.000000
    2      -41.674183   1.000000
    3      -41.673857   1.000000
    4      -41.673806   1.000000
    5      -41.673806   1.000000
    6      -17.312095   1.000000
    7       -3.722645   1.000000
    8       -2.898610   1.000000
    9       -2.898610   1.000000
   10        4.510247   0.000000
   11        5.486327   0.000000
   12        7.580100   0.000000
   13        9.653654   0.000000
   14        9.653654   0.000000
 
  0.4444444E+00  0.3333333E+00 -0.1665335E-15  0.3292181E-01
    1      -41.674425   1.000000
    2      -41.674182   1.000000
    3      -41.673853   1.000000
    4      -41.673742   1.000000
    5      -41.673701   1.000000
    6      -17.287702   1.000000
    7       -3.865524   1.000000
    8       -3.056245   1.000000
    9       -2.950124   1.000000
   10        4.545786   0.000000
   11        5.484924   0.000000
   12        7.880429   0.000000
   13        9.705271   0.000000
   14       10.442691   0.000000
 
 -0.4444444E+00  0.3333333E+00  0.2775558E-16  0.3292181E-01
    1      -41.674340   1.000000
    2      -41.674120   1.000000
    3      -41.673874   1.000000
    4      -41.673782   1.000000
    5      -41.673712   1.000000
    6      -17.274496   1.000000
    7       -3.840121   1.000000
    8       -3.340033   1.000000
    9       -2.921580   1.000000
   10        4.782698   0.000000
   11        5.965481   0.000000
   12        7.883054   0.000000
   13        9.277968   0.000000
   14        9.875063   0.000000
 
 -0.3333333E+00  0.3333333E+00 -0.1418816E-16  0.1646091E-01
    1      -41.674280   1.000000
    2      -41.673972   1.000000
    3      -41.673918   1.000000
    4      -41.673888   1.000000
    5      -41.673810   1.000000
    6      -17.278749   1.000000
    7       -3.643276   1.000000
    8       -3.605009   1.000000
    9       -2.823933   1.000000
   10        5.175596   0.000000
   11        6.420884   0.000000
   12        7.526038   0.000000
   13        8.749228   0.000000
   14        9.359947   0.000000
 
  0.4444444E+00  0.4444444E+00 -0.1110223E-15  0.8230453E-02
    1      -41.674481   1.000000
    2      -41.674224   1.000000
    3      -41.673793   1.000000
    4      -41.673663   1.000000
    5      -41.673663   1.000000
    6      -17.273744   1.000000
    7       -3.977466   1.000000
    8       -3.022985   1.000000
    9       -3.022985   1.000000
   10        4.227970   0.000000
   11        5.164985   0.000000
   12        8.959522   0.000000
   13       10.812661   0.000000
   14       10.812661   0.000000
 
 -0.4444444E+00  0.4444444E+00  0.2386480E-16  0.1646091E-01
    1      -41.674439   1.000000
    2      -41.674216   1.000000
    3      -41.673797   1.000000
    4      -41.673682   1.000000
    5      -41.673675   1.000000
    6      -17.268527   1.000000
    7       -3.961626   1.000000
    8       -3.150971   1.000000
    9       -3.012107   1.000000
   10        4.354937   0.000000
   11        5.333918   0.000000
   12        8.944557   0.000000
   13       10.380834   0.000000
   14       10.419903   0.000000
 
  0.3333333E+00  0.2222222E+00  0.1111111E+00  0.3292181E-01
    1      -41.674311   1.000000
    2      -41.674174   1.000000
    3      -41.674068   1.000000
    4      -41.674053   1.000000
    5      -41.673867   1.000000
    6      -17.358128   1.000000
    7       -3.433514   1.000000
    8       -2.803701   1.000000
    9       -2.601318   1.007000
   10        4.350078   0.000000
   11        6.320322   0.000000
   12        7.103093   0.000000
   13        8.588186   0.000000
   14        8.620364   0.000000
 
  0.4444444E+00  0.2222222E+00  0.1111111E+00  0.6584362E-01
    1      -41.674249   1.000000
    2      -41.674171   1.000000
    3      -41.674070   1.000000
    4      -41.673918   1.000000
    5      -41.673778   1.000000
    6      -17.321040   1.000000
    7       -3.751503   1.000000
    8       -2.978587   1.000000
    9       -2.682676   1.000206
   10        4.970550   0.000000
   11        6.430227   0.000000
   12        6.668494   0.000000
   13        8.298648   0.000000
   14        9.509272   0.000000
 
 -0.4444444E+00  0.2222222E+00  0.1111111E+00  0.6584362E-01
    1      -41.674232   1.000000
    2      -41.674162   1.000000
    3      -41.674033   1.000000
    4      -41.673847   1.000000
    5      -41.673744   1.000000
    6      -17.296543   1.000000
    7       -3.951140   1.000000
    8       -3.059592   1.000000
    9       -2.754506   1.000003
   10        5.151543   0.000000
   11        6.145200   0.000000
   12        7.497729   0.000000
   13        8.077950   0.000000
   14       10.238621   0.000000
 
  0.4444444E+00  0.3333333E+00  0.1111111E+00  0.3292181E-01
    1      -41.674360   1.000000
    2      -41.674169   1.000000
    3      -41.673968   1.000000
    4      -41.673819   1.000000
    5      -41.673760   1.000000
    6      -17.306755   1.000000
    7       -3.749871   1.000000
    8       -3.023855   1.000000
    9       -2.853597   1.000000
   10        4.886406   0.000000
   11        5.824095   0.000000
   12        6.948873   0.000000
   13        9.284992   0.000000
   14        9.699144   0.000000
 
 -0.4444444E+00  0.3333333E+00  0.1111111E+00  0.6584362E-01
    1      -41.674290   1.000000
    2      -41.674134   1.000000
    3      -41.673978   1.000000
    4      -41.673814   1.000000
    5      -41.673720   1.000000
    6      -17.284052   1.000000
    7       -3.821815   1.000000
    8       -3.241476   1.000000
    9       -2.918869   1.000000
   10        5.158453   0.000000
   11        6.121673   0.000000
   12        6.948193   0.000000
   13        8.944713   0.000000
   14       10.247551   0.000000
 
 -0.3333333E+00  0.3333333E+00  0.1111111E+00  0.6584362E-01
    1      -41.674242   1.000000
    2      -41.674065   1.000000
    3      -41.673941   1.000000
    4      -41.673918   1.000000
    5      -41.673733   1.000000
    6      -17.278776   1.000000
    7       -3.771860   1.000000
    8       -3.415970   1.000000
    9       -2.890422   1.000000
   10        5.459700   0.000000
   11        6.154465   0.000000
   12        7.307830   0.000000
   13        8.367814   0.000000
   14        9.889138   0.000000
 
 -0.2222222E+00  0.3333333E+00  0.1111111E+00  0.3292181E-01
    1      -41.674206   1.000000
    2      -41.674122   1.000000
    3      -41.674006   1.000000
    4      -41.673825   1.000000
    5      -41.673817   1.000000
    6      -17.293455   1.000000
    7       -3.757647   1.000000
    8       -3.313347   1.000000
    9       -2.786773   1.000000
   10        5.812802   0.000000
   11        5.923103   0.000000
   12        6.667797   0.000000
   13        8.604767   0.000000
   14        9.850290   0.000000
 
 -0.4444444E+00  0.4444444E+00  0.1111111E+00  0.3292181E-01
    1      -41.674393   1.000000
    2      -41.674192   1.000000
    3      -41.673845   1.000000
    4      -41.673744   1.000000
    5      -41.673666   1.000000
    6      -17.272933   1.000000
    7       -3.897528   1.000000
    8       -3.158540   1.000000
    9       -3.042658   1.000000
   10        4.613684   0.000000
   11        5.552210   0.000000
   12        8.154099   0.000000
   13        9.564261   0.000000
   14       10.924722   0.000000
 
 -0.3333333E+00  0.4444444E+00  0.1111111E+00  0.3292181E-01
    1      -41.674299   1.000000
    2      -41.674119   1.000000
    3      -41.673861   1.000000
    4      -41.673858   1.000000
    5      -41.673671   1.000000
    6      -17.269395   1.000000
    7       -3.778602   1.000000
    8       -3.404431   1.000000
    9       -3.017715   1.000000
   10        4.974968   0.000000
   11        6.070045   0.000000
   12        7.908278   0.000000
   13        8.388453   0.000000
   14       10.708111   0.000000
 
 -0.3333333E+00  0.4444444E+00  0.2222222E+00  0.3292181E-01
    1      -41.674140   1.000000
    2      -41.674140   1.000000
    3      -41.674002   1.000000
    4      -41.673877   1.000000
    5      -41.673673   1.000000
    6      -17.271089   1.000000
    7       -3.683409   1.000000
    8       -3.469042   1.000000
    9       -3.054784   1.000000
   10        5.432529   0.000000
   11        6.579127   0.000000
   12        6.806178   0.000000
   13        8.084759   0.000000
   14       11.205268   0.000000
