Cn_FCC                                  
           1
     4.547454    0.000000    0.000000
     2.273727    3.938210   -0.000000
     2.273727    1.312737    3.712980
   Rn
   1
Direct configuration=     1
   0.00000000  0.00000000  0.00000000
Cn_FCC                                  
           1
     4.546594    0.000000    0.000000
     2.273297    3.937466   -0.000000
     2.273297    1.312489    3.712279
   Rn
   1
Direct configuration=     2
   0.00000000  0.00000000  0.00000000
Cn_FCC                                  
           1
     4.553414    0.000000    0.000000
     2.276707    3.943372   -0.000000
     2.276707    1.314457    3.717847
   Rn
   1
Direct configuration=     3
   0.00000000  0.00000000  0.00000000
Cn_FCC                                  
           1
     4.362224    0.000000    0.000000
     2.181112    3.777797   -0.000000
     2.181112    1.259266    3.561741
   Rn
   1
Direct configuration=     4
   0.00000000  0.00000000  0.00000000
Cn_FCC                                  
           1
     4.531570    0.000000    0.000000
     2.265785    3.924455   -0.000000
     2.265785    1.308152    3.700011
   Rn
   1
Direct configuration=     5
   0.00000000  0.00000000  0.00000000
Cn_FCC                                  
           1
     4.522767    0.000000    0.000000
     2.261383    3.916831   -0.000000
     2.261383    1.305610    3.692823
   Rn
   1
Direct configuration=     6
   0.00000000  0.00000000  0.00000000
