Cn_FCC                                  
           1
     4.111766    0.000000    0.000000
     2.055883    3.560894   -0.000000
     2.055883    1.186965    3.357243
   Rn
   1
Direct configuration=     1
   0.00000000  0.00000000  0.00000000
Cn_FCC                                  
           1
     4.140898    0.000000    0.000000
     2.070449    3.586123   -0.000000
     2.070449    1.195374    3.381029
   Rn
   1
Direct configuration=     2
   0.00000000  0.00000000  0.00000000
Cn_FCC                                  
           1
     4.370987    0.000000    0.000000
     2.185494    3.785386   -0.000000
     2.185494    1.261795    3.568896
   Rn
   1
Direct configuration=     3
   0.00000000  0.00000000  0.00000000
Cn_FCC                                  
           1
     4.472166    0.000000    0.000000
     2.236083    3.873009   -0.000000
     2.236083    1.291003    3.651508
   Rn
   1
Direct configuration=     4
   0.00000000  0.00000000  0.00000000
Cn_FCC                                  
           1
     4.532043    0.000000    0.000000
     2.266022    3.924865   -0.000000
     2.266022    1.308288    3.700398
   Rn
   1
Direct configuration=     5
   0.00000000  0.00000000  0.00000000
Cn_FCC                                  
           1
     4.550347    0.000000    0.000000
     2.275174    3.940716   -0.000000
     2.275174    1.313572    3.715343
   Rn
   1
Direct configuration=     6
   0.00000000  0.00000000  0.00000000
Cn_FCC                                  
           1
     4.584255    0.000000    0.000000
     2.292128    3.970081   -0.000000
     2.292128    1.323360    3.743029
   Rn
   1
Direct configuration=     7
   0.00000000  0.00000000  0.00000000
Cn_FCC                                  
           1
     4.559928    0.000000    0.000000
     2.279964    3.949014   -0.000000
     2.279964    1.316338    3.723166
   Rn
   1
Direct configuration=     8
   0.00000000  0.00000000  0.00000000
Cn_FCC                                  
           1
     4.533664    0.000000    0.000000
     2.266832    3.926268   -0.000000
     2.266832    1.308756    3.701721
   Rn
   1
Direct configuration=     9
   0.00000000  0.00000000  0.00000000
Cn_FCC                                  
           1
     4.547454    0.000000    0.000000
     2.273727    3.938210   -0.000000
     2.273727    1.312737    3.712980
   Rn
   1
Direct configuration=    10
   0.00000000  0.00000000  0.00000000
