   1   1   0   0
  0.6156630E+02  0.4432200E-09  0.4432200E-09  0.4432200E-09  0.1000000E-15
  1.000000000000000E-004
  CAR 
 Og_FCC                                  
     95.49308149    -24.65608591  301     -6.53358649      1.00000000
    -24.656  0.0000E+00  0.0000E+00
    -24.256  0.0000E+00  0.0000E+00
    -23.855  0.0000E+00  0.0000E+00
    -23.455  0.0000E+00  0.0000E+00
    -23.054  0.0000E+00  0.0000E+00
    -22.654  0.0000E+00  0.0000E+00
    -22.253  0.0000E+00  0.0000E+00
    -21.853  0.0000E+00  0.0000E+00
    -21.452  0.0000E+00  0.0000E+00
    -21.052  0.0000E+00  0.0000E+00
    -20.651  0.0000E+00  0.0000E+00
    -20.251  0.0000E+00  0.0000E+00
    -19.850  0.0000E+00  0.0000E+00
    -19.450  0.0000E+00  0.0000E+00
    -19.049  0.0000E+00  0.2500E+00
    -18.649  0.0000E+00  0.2000E+01
    -18.248  0.0000E+00  0.2000E+01
    -17.848  0.0000E+00  0.2000E+01
    -17.447  0.0000E+00  0.2000E+01
    -17.047  0.0000E+00  0.2000E+01
    -16.646  0.0000E+00  0.2000E+01
    -16.246  0.0000E+00  0.2000E+01
    -15.845  0.0000E+00  0.2000E+01
    -15.445  0.0000E+00  0.2000E+01
    -15.044  0.0000E+00  0.2000E+01
    -14.644  0.0000E+00  0.2000E+01
    -14.243  0.0000E+00  0.2000E+01
    -13.843  0.0000E+00  0.2000E+01
    -13.442  0.0000E+00  0.2000E+01
    -13.042  0.0000E+00  0.2000E+01
    -12.641  0.0000E+00  0.2000E+01
    -12.241  0.0000E+00  0.2000E+01
    -11.840  0.0000E+00  0.2000E+01
    -11.440  0.0000E+00  0.2000E+01
    -11.039  0.0000E+00  0.2000E+01
    -10.639  0.0000E+00  0.2000E+01
    -10.238  0.0000E+00  0.2000E+01
     -9.838  0.0000E+00  0.2000E+01
     -9.437  0.0000E+00  0.2000E+01
     -9.037  0.0000E+00  0.2000E+01
     -8.636  0.0000E+00  0.2037E+01
     -8.236  0.0000E+00  0.3139E+01
     -7.835  0.0000E+00  0.3861E+01
     -7.435  0.0000E+00  0.4917E+01
     -7.034  0.0000E+00  0.7157E+01
     -6.634  0.0000E+00  0.8000E+01
     -6.233  0.0000E+00  0.8000E+01
     -5.833  0.0000E+00  0.8000E+01
     -5.432  0.0000E+00  0.8000E+01
     -5.032  0.0000E+00  0.8000E+01
     -4.631  0.0000E+00  0.8000E+01
     -4.231  0.0000E+00  0.8000E+01
     -3.830  0.0000E+00  0.8000E+01
     -3.430  0.0000E+00  0.8000E+01
     -3.029  0.0000E+00  0.8000E+01
     -2.629  0.0000E+00  0.8000E+01
     -2.228  0.0000E+00  0.8000E+01
     -1.828  0.0000E+00  0.8000E+01
     -1.427  0.0000E+00  0.8000E+01
     -1.027  0.0000E+00  0.8000E+01
     -0.626  0.0000E+00  0.8000E+01
     -0.226  0.0000E+00  0.8000E+01
      0.175  0.0000E+00  0.8000E+01
      0.575  0.0000E+00  0.8000E+01
      0.976  0.0000E+00  0.8000E+01
      1.376  0.0000E+00  0.8000E+01
      1.777  0.0000E+00  0.8000E+01
      2.177  0.0000E+00  0.8000E+01
      2.578  0.0000E+00  0.8000E+01
      2.978  0.0000E+00  0.8000E+01
      3.379  0.0000E+00  0.8009E+01
      3.779  0.0000E+00  0.8009E+01
      4.180  0.0000E+00  0.8083E+01
      4.580  0.0000E+00  0.8167E+01
      4.981  0.2105E-15  0.8444E+01
      5.381  0.0000E+00  0.9000E+01
      5.782  0.0000E+00  0.9806E+01
      6.182  0.0000E+00  0.1031E+02
      6.583  0.0000E+00  0.1064E+02
      6.983  0.0000E+00  0.1164E+02
      7.384  0.0000E+00  0.1208E+02
      7.784  0.0000E+00  0.1301E+02
      8.185  0.8823E-01  0.1360E+02
      8.585  0.0000E+00  0.1509E+02
      8.986  0.5628E-04  0.1572E+02
      9.386  0.4971E-05  0.1711E+02
      9.787  0.0000E+00  0.1807E+02
     10.187  0.0000E+00  0.1843E+02
     10.588  0.0000E+00  0.1873E+02
     10.988  0.0000E+00  0.2028E+02
     11.389  0.0000E+00  0.2124E+02
     11.789  0.2774E+00  0.2238E+02
     12.190  0.0000E+00  0.2280E+02
     12.590  0.0000E+00  0.2357E+02
     12.991  0.0000E+00  0.2394E+02
     13.391  0.3186E-07  0.2464E+02
     13.792  0.0000E+00  0.2536E+02
     14.192  0.4972E+00  0.2634E+02
     14.593  0.1850E+00  0.2764E+02
     14.993  0.0000E+00  0.2875E+02
     15.394  0.0000E+00  0.2979E+02
     15.794  0.1025E-06  0.3042E+02
     16.195  0.1760E-02  0.3122E+02
     16.595  0.0000E+00  0.3281E+02
     16.996  0.0000E+00  0.3343E+02
     17.396  0.0000E+00  0.3454E+02
     17.797  0.0000E+00  0.3559E+02
     18.197  0.0000E+00  0.3644E+02
     18.598  0.0000E+00  0.3822E+02
     18.998  0.0000E+00  0.3905E+02
     19.399  0.0000E+00  0.3980E+02
     19.799  0.0000E+00  0.4007E+02
     20.200  0.0000E+00  0.4187E+02
     20.600  0.0000E+00  0.4294E+02
     21.001  0.0000E+00  0.4411E+02
     21.401  0.0000E+00  0.4532E+02
     21.802  0.0000E+00  0.4681E+02
     22.202  0.0000E+00  0.4764E+02
     22.603  0.0000E+00  0.4817E+02
     23.003  0.0000E+00  0.4895E+02
     23.404  0.0000E+00  0.4977E+02
     23.804  0.0000E+00  0.5156E+02
     24.205  0.9248E-01  0.5214E+02
     24.605  0.0000E+00  0.5327E+02
     25.006  0.0000E+00  0.5415E+02
     25.406  0.5549E+00  0.5548E+02
     25.807  0.0000E+00  0.5748E+02
     26.207  0.0000E+00  0.5813E+02
     26.608  0.0000E+00  0.5944E+02
     27.008  0.0000E+00  0.6026E+02
     27.409  0.0000E+00  0.6095E+02
     27.809  0.0000E+00  0.6169E+02
     28.210  0.0000E+00  0.6241E+02
     28.610  0.5549E+00  0.6385E+02
     29.011  0.0000E+00  0.6491E+02
     29.411  0.0000E+00  0.6613E+02
     29.812  0.0000E+00  0.6709E+02
     30.212  0.0000E+00  0.6800E+02
     30.613  0.0000E+00  0.6928E+02
     31.013  0.0000E+00  0.7047E+02
     31.414  0.7848E-01  0.7165E+02
     31.814  0.0000E+00  0.7282E+02
     32.215  0.0000E+00  0.7396E+02
     32.615  0.0000E+00  0.7507E+02
     33.016  0.5116E-01  0.7615E+02
     33.416  0.0000E+00  0.7704E+02
     33.817  0.0000E+00  0.7835E+02
     34.217  0.0000E+00  0.7922E+02
     34.618  0.0000E+00  0.7928E+02
     35.018  0.4764E-07  0.8017E+02
     35.418  0.5549E+00  0.8166E+02
     35.819  0.0000E+00  0.8304E+02
     36.219  0.0000E+00  0.8430E+02
     36.620  0.5549E+00  0.8547E+02
     37.020  0.0000E+00  0.8639E+02
     37.421  0.0000E+00  0.8796E+02
     37.821  0.2583E-04  0.8898E+02
     38.222  0.0000E+00  0.9056E+02
     38.622  0.4650E+00  0.9224E+02
     39.023  0.1850E+00  0.9354E+02
     39.423  0.2978E+00  0.9405E+02
     39.824  0.0000E+00  0.9522E+02
     40.224  0.0000E+00  0.9580E+02
     40.625  0.0000E+00  0.9728E+02
     41.025  0.0000E+00  0.9818E+02
     41.426  0.0000E+00  0.9965E+02
     41.826  0.0000E+00  0.1004E+03
     42.227  0.0000E+00  0.1017E+03
     42.627  0.0000E+00  0.1024E+03
     43.028  0.2774E+00  0.1039E+03
     43.428  0.2753E+00  0.1058E+03
     43.829  0.0000E+00  0.1072E+03
     44.229  0.0000E+00  0.1078E+03
     44.630  0.0000E+00  0.1087E+03
     45.030  0.0000E+00  0.1100E+03
     45.431  0.0000E+00  0.1110E+03
     45.831  0.2770E+00  0.1122E+03
     46.232  0.1551E-03  0.1132E+03
     46.632  0.0000E+00  0.1148E+03
     47.033  0.1222E+00  0.1161E+03
     47.433  0.0000E+00  0.1168E+03
     47.834  0.0000E+00  0.1174E+03
     48.234  0.0000E+00  0.1186E+03
     48.635  0.0000E+00  0.1207E+03
     49.035  0.0000E+00  0.1218E+03
     49.436  0.0000E+00  0.1236E+03
     49.836  0.5549E+00  0.1254E+03
     50.237  0.5549E+00  0.1268E+03
     50.637  0.0000E+00  0.1276E+03
     51.038  0.0000E+00  0.1289E+03
     51.438  0.0000E+00  0.1304E+03
     51.839  0.0000E+00  0.1313E+03
     52.239  0.0000E+00  0.1323E+03
     52.640  0.0000E+00  0.1330E+03
     53.040  0.0000E+00  0.1345E+03
     53.441  0.0000E+00  0.1360E+03
     53.841  0.0000E+00  0.1370E+03
     54.242  0.3844E-08  0.1386E+03
     54.642  0.0000E+00  0.1392E+03
     55.043  0.0000E+00  0.1400E+03
     55.443  0.1352E-02  0.1417E+03
     55.844  0.0000E+00  0.1433E+03
     56.244  0.2772E+00  0.1456E+03
     56.645  0.8861E-06  0.1473E+03
     57.045  0.0000E+00  0.1488E+03
     57.446  0.0000E+00  0.1494E+03
     57.846  0.3237E-06  0.1507E+03
     58.247  0.0000E+00  0.1530E+03
     58.647  0.0000E+00  0.1551E+03
     59.048  0.6681E-07  0.1561E+03
     59.448  0.0000E+00  0.1573E+03
     59.849  0.0000E+00  0.1583E+03
     60.249  0.0000E+00  0.1593E+03
     60.650  0.0000E+00  0.1596E+03
     61.050  0.0000E+00  0.1608E+03
     61.451  0.0000E+00  0.1617E+03
     61.851  0.0000E+00  0.1640E+03
     62.252  0.0000E+00  0.1661E+03
     62.652  0.0000E+00  0.1675E+03
     63.053  0.0000E+00  0.1687E+03
     63.453  0.0000E+00  0.1698E+03
     63.854  0.1110E+01  0.1711E+03
     64.254  0.0000E+00  0.1726E+03
     64.655  0.0000E+00  0.1746E+03
     65.055  0.0000E+00  0.1754E+03
     65.456  0.2774E+00  0.1775E+03
     65.856  0.0000E+00  0.1787E+03
     66.257  0.0000E+00  0.1794E+03
     66.657  0.0000E+00  0.1809E+03
     67.058  0.4263E-01  0.1823E+03
     67.458  0.0000E+00  0.1838E+03
     67.859  0.1369E+00  0.1848E+03
     68.259  0.0000E+00  0.1859E+03
     68.660  0.9248E-01  0.1871E+03
     69.060  0.0000E+00  0.1895E+03
     69.461  0.0000E+00  0.1909E+03
     69.861  0.0000E+00  0.1926E+03
     70.262  0.0000E+00  0.1943E+03
     70.662  0.0000E+00  0.1958E+03
     71.063  0.0000E+00  0.1973E+03
     71.463  0.0000E+00  0.1985E+03
     71.864  0.0000E+00  0.2002E+03
     72.264  0.2774E+00  0.2018E+03
     72.665  0.0000E+00  0.2035E+03
     73.065  0.0000E+00  0.2049E+03
     73.466  0.0000E+00  0.2063E+03
     73.866  0.0000E+00  0.2082E+03
     74.267  0.1709E-04  0.2093E+03
     74.667  0.0000E+00  0.2116E+03
     75.068  0.0000E+00  0.2120E+03
     75.468  0.0000E+00  0.2135E+03
     75.869  0.0000E+00  0.2146E+03
     76.269  0.0000E+00  0.2156E+03
     76.670  0.1387E+00  0.2171E+03
     77.070  0.0000E+00  0.2188E+03
     77.471  0.0000E+00  0.2204E+03
     77.871  0.2774E+00  0.2222E+03
     78.272  0.1387E+00  0.2233E+03
     78.672  0.2690E-02  0.2250E+03
     79.073  0.0000E+00  0.2270E+03
     79.473  0.0000E+00  0.2292E+03
     79.874  0.0000E+00  0.2304E+03
     80.274  0.0000E+00  0.2329E+03
     80.675  0.0000E+00  0.2338E+03
     81.075  0.0000E+00  0.2358E+03
     81.476  0.0000E+00  0.2376E+03
     81.876  0.0000E+00  0.2388E+03
     82.277  0.0000E+00  0.2405E+03
     82.677  0.0000E+00  0.2417E+03
     83.078  0.3699E+00  0.2428E+03
     83.478  0.4604E-13  0.2445E+03
     83.879  0.0000E+00  0.2454E+03
     84.279  0.2774E+00  0.2465E+03
     84.680  0.5549E+00  0.2484E+03
     85.080  0.0000E+00  0.2508E+03
     85.481  0.0000E+00  0.2521E+03
     85.881  0.0000E+00  0.2537E+03
     86.282  0.0000E+00  0.2541E+03
     86.682  0.0000E+00  0.2548E+03
     87.083  0.0000E+00  0.2549E+03
     87.483  0.0000E+00  0.2554E+03
     87.884  0.0000E+00  0.2556E+03
     88.284  0.0000E+00  0.2558E+03
     88.685  0.0000E+00  0.2560E+03
     89.085  0.0000E+00  0.2560E+03
     89.486  0.0000E+00  0.2560E+03
     89.886  0.0000E+00  0.2560E+03
     90.287  0.0000E+00  0.2560E+03
     90.687  0.0000E+00  0.2560E+03
     91.088  0.0000E+00  0.2560E+03
     91.488  0.0000E+00  0.2560E+03
     91.889  0.0000E+00  0.2560E+03
     92.289  0.0000E+00  0.2560E+03
     92.690  0.0000E+00  0.2560E+03
     93.090  0.0000E+00  0.2560E+03
     93.491  0.0000E+00  0.2560E+03
     93.891  0.0000E+00  0.2560E+03
     94.292  0.0000E+00  0.2560E+03
     94.692  0.0000E+00  0.2560E+03
     95.093  0.0000E+00  0.2560E+03
     95.493  0.0000E+00  0.2560E+03
