 vasp.5.4.4.18Apr17-6-g9f103f2a35 (build Nov 03 2018 10:20:46) complex          
  
 executed on             LinuxIFC date 2019.01.03  19:07:42
 running on   56 total cores
 distrk:  each k-point on    4 cores,   14 groups
 distr:  one band on NCORES_PER_BAND=   1 cores,    4 groups


--------------------------------------------------------------------------------------------------------


 INCAR:
 POTCAR:    PAW_PBE Rn_d_GW 14Apr2014             

 ----------------------------------------------------------------------------- 
|                                                                             |
|           W    W    AA    RRRRR   N    N  II  N    N   GGGG   !!!           |
|           W    W   A  A   R    R  NN   N  II  NN   N  G    G  !!!           |
|           W    W  A    A  R    R  N N  N  II  N N  N  G       !!!           |
|           W WW W  AAAAAA  RRRRR   N  N N  II  N  N N  G  GGG   !            |
|           WW  WW  A    A  R   R   N   NN  II  N   NN  G    G                |
|           W    W  A    A  R    R  N    N  II  N    N   GGGG   !!!           |
|                                                                             |
|      For optimal performance we recommend to set                            |
|        NCORE= 4 - approx SQRT( number of cores)                             |
|      NCORE specifies how many cores store one orbital (NPAR=cpu/NCORE).     |
|      This setting can  greatly improve the performance of VASP for DFT.     |
|      The default,   NCORE=1            might be grossly inefficient         |
|      on modern multi-core architectures or massively parallel machines.     |
|      Do your own testing !!!!                                               |
|      Unfortunately you need to use the default for GW and RPA calculations. |
|      (for HF NCORE is supported but not extensively tested yet)             |
|                                                                             |
 ----------------------------------------------------------------------------- 


 ----------------------------------------------------------------------------- 
|                                                                             |
|           W    W    AA    RRRRR   N    N  II  N    N   GGGG   !!!           |
|           W    W   A  A   R    R  NN   N  II  NN   N  G    G  !!!           |
|           W    W  A    A  R    R  N N  N  II  N N  N  G       !!!           |
|           W WW W  AAAAAA  RRRRR   N  N N  II  N  N N  G  GGG   !            |
|           WW  WW  A    A  R   R   N   NN  II  N   NN  G    G                |
|           W    W  A    A  R    R  N    N  II  N    N   GGGG   !!!           |
|                                                                             |
|      You have enabled k-point parallelism (KPAR>1).                         |
|      This developmental code was originally  written by Paul Kent at ORNL,  |
|      and carefully double checked in Vienna.                                |
|      GW as well as linear response parallelism added by Martijn Marsman     |
|      and Georg Kresse.                                                      |
|      Carefully verify results versus KPAR=1.                                |
|      Report problems to Paul Kent and Vienna.                               |
|                                                                             |
 ----------------------------------------------------------------------------- 

 POTCAR:    PAW_PBE Rn_d_GW 14Apr2014             
  local pseudopotential read in
  partial core-charges read in
  partial kinetic energy density read in
  kinetic energy density of atom read in
  atomic valenz-charges read in
  non local Contribution for L=           2  read in
    real space projection operators read in
  non local Contribution for L=           2  read in
    real space projection operators read in
  non local Contribution for L=           2  read in
    real space projection operators read in
  non local Contribution for L=           0  read in
    real space projection operators read in
  non local Contribution for L=           0  read in
    real space projection operators read in
  non local Contribution for L=           1  read in
    real space projection operators read in
  non local Contribution for L=           1  read in
    real space projection operators read in
  non local Contribution for L=           3  read in
    real space projection operators read in
  non local Contribution for L=           3  read in
    real space projection operators read in
    PAW grid and wavefunctions read in
 
   number of l-projection  operators is LMAX  =           9
   number of lm-projection operators is LMMAX =          37
 
  PAW_PBE Rn_d_GW 14Apr2014             :
 energy of atom  1       EATOM=-3030.7130
 kinetic energy error for atom=    0.0889 (will be added to EATOM!!)
 
 
 POSCAR: Rn_FCC                                  
  positions in direct lattice
  velocities in cartesian coordinates
 exchange correlation table for  LEXCH =        8
   RHO(1)=    0.500       N(1)  =     2000
   RHO(2)=  100.500       N(2)  =     4000
 


--------------------------------------------------------------------------------------------------------


 ion  position               nearest neighbor table
   1  0.000  0.000  0.000-
 

IMPORTANT INFORMATION: All symmetrisations will be switched off!
NOSYMM: (Re-)initialisation of all symmetry stuff for point group C_1.

 
 
 KPOINTS: k-points                                

Automatic generation of k-mesh.
Space group operators:
 irot       det(A)        alpha          n_x          n_y          n_z        tau_x        tau_y        tau_z
    1     1.000000     0.000000     1.000000     0.000000     0.000000     0.000000     0.000000     0.000000
 
 Subroutine IBZKPT returns following result:
 ===========================================
 
 Found    216 irreducible k-points:
 
 Following reciprocal coordinates:
            Coordinates               Weight
  0.000000  0.000000  0.000000      1.000000
  0.166667  0.000000  0.000000      1.000000
  0.333333  0.000000  0.000000      1.000000
  0.500000  0.000000  0.000000      1.000000
 -0.333333 -0.000000 -0.000000      1.000000
 -0.166667 -0.000000 -0.000000      1.000000
  0.000000  0.166667 -0.000000      1.000000
  0.166667  0.166667  0.000000      1.000000
  0.333333  0.166667  0.000000      1.000000
  0.500000  0.166667  0.000000      1.000000
 -0.333333  0.166667 -0.000000      1.000000
 -0.166667  0.166667 -0.000000      1.000000
  0.000000  0.333333  0.000000      1.000000
  0.166667  0.333333  0.000000      1.000000
  0.333333  0.333333  0.000000      1.000000
  0.500000  0.333333  0.000000      1.000000
 -0.333333  0.333333 -0.000000      1.000000
 -0.166667  0.333333 -0.000000      1.000000
  0.000000  0.500000  0.000000      1.000000
  0.166667  0.500000  0.000000      1.000000
  0.333333  0.500000  0.000000      1.000000
  0.500000  0.500000  0.000000      1.000000
 -0.333333  0.500000 -0.000000      1.000000
 -0.166667  0.500000 -0.000000      1.000000
  0.000000 -0.333333  0.000000      1.000000
  0.166667 -0.333333  0.000000      1.000000
  0.333333 -0.333333  0.000000      1.000000
  0.500000 -0.333333  0.000000      1.000000
 -0.333333 -0.333333 -0.000000      1.000000
 -0.166667 -0.333333 -0.000000      1.000000
  0.000000 -0.166667  0.000000      1.000000
  0.166667 -0.166667  0.000000      1.000000
  0.333333 -0.166667  0.000000      1.000000
  0.500000 -0.166667  0.000000      1.000000
 -0.333333 -0.166667 -0.000000      1.000000
 -0.166667 -0.166667 -0.000000      1.000000
  0.000000 -0.000000  0.166667      1.000000
  0.166667  0.000000  0.166667      1.000000
  0.333333  0.000000  0.166667      1.000000
  0.500000  0.000000  0.166667      1.000000
 -0.333333 -0.000000  0.166667      1.000000
 -0.166667 -0.000000  0.166667      1.000000
  0.000000  0.166667  0.166667      1.000000
  0.166667  0.166667  0.166667      1.000000
  0.333333  0.166667  0.166667      1.000000
  0.500000  0.166667  0.166667      1.000000
 -0.333333  0.166667  0.166667      1.000000
 -0.166667  0.166667  0.166667      1.000000
  0.000000  0.333333  0.166667      1.000000
  0.166667  0.333333  0.166667      1.000000
  0.333333  0.333333  0.166667      1.000000
  0.500000  0.333333  0.166667      1.000000
 -0.333333  0.333333  0.166667      1.000000
 -0.166667  0.333333  0.166667      1.000000
  0.000000  0.500000  0.166667      1.000000
  0.166667  0.500000  0.166667      1.000000
  0.333333  0.500000  0.166667      1.000000
  0.500000  0.500000  0.166667      1.000000
 -0.333333  0.500000  0.166667      1.000000
 -0.166667  0.500000  0.166667      1.000000
 -0.000000 -0.333333  0.166667      1.000000
  0.166667 -0.333333  0.166667      1.000000
  0.333333 -0.333333  0.166667      1.000000
  0.500000 -0.333333  0.166667      1.000000
 -0.333333 -0.333333  0.166667      1.000000
 -0.166667 -0.333333  0.166667      1.000000
 -0.000000 -0.166667  0.166667      1.000000
  0.166667 -0.166667  0.166667      1.000000
  0.333333 -0.166667  0.166667      1.000000
  0.500000 -0.166667  0.166667      1.000000
 -0.333333 -0.166667  0.166667      1.000000
 -0.166667 -0.166667  0.166667      1.000000
 -0.000000 -0.000000  0.333333      1.000000
  0.166667  0.000000  0.333333      1.000000
  0.333333  0.000000  0.333333      1.000000
  0.500000  0.000000  0.333333      1.000000
 -0.333333 -0.000000  0.333333      1.000000
 -0.166667 -0.000000  0.333333      1.000000
 -0.000000  0.166667  0.333333      1.000000
  0.166667  0.166667  0.333333      1.000000
  0.333333  0.166667  0.333333      1.000000
  0.500000  0.166667  0.333333      1.000000
 -0.333333  0.166667  0.333333      1.000000
 -0.166667  0.166667  0.333333      1.000000
 -0.000000  0.333333  0.333333      1.000000
  0.166667  0.333333  0.333333      1.000000
  0.333333  0.333333  0.333333      1.000000
  0.500000  0.333333  0.333333      1.000000
 -0.333333  0.333333  0.333333      1.000000
 -0.166667  0.333333  0.333333      1.000000
  0.000000  0.500000  0.333333      1.000000
  0.166667  0.500000  0.333333      1.000000
  0.333333  0.500000  0.333333      1.000000
  0.500000  0.500000  0.333333      1.000000
 -0.333333  0.500000  0.333333      1.000000
 -0.166667  0.500000  0.333333      1.000000
 -0.000000 -0.333333  0.333333      1.000000
  0.166667 -0.333333  0.333333      1.000000
  0.333333 -0.333333  0.333333      1.000000
  0.500000 -0.333333  0.333333      1.000000
 -0.333333 -0.333333  0.333333      1.000000
 -0.166667 -0.333333  0.333333      1.000000
 -0.000000 -0.166667  0.333333      1.000000
  0.166667 -0.166667  0.333333      1.000000
  0.333333 -0.166667  0.333333      1.000000
  0.500000 -0.166667  0.333333      1.000000
 -0.333333 -0.166667  0.333333      1.000000
 -0.166667 -0.166667  0.333333      1.000000
 -0.000000 -0.000000  0.500000      1.000000
  0.166667  0.000000  0.500000      1.000000
  0.333333  0.000000  0.500000      1.000000
  0.500000  0.000000  0.500000      1.000000
 -0.333333 -0.000000  0.500000      1.000000
 -0.166667 -0.000000  0.500000      1.000000
 -0.000000  0.166667  0.500000      1.000000
  0.166667  0.166667  0.500000      1.000000
  0.333333  0.166667  0.500000      1.000000
  0.500000  0.166667  0.500000      1.000000
 -0.333333  0.166667  0.500000      1.000000
 -0.166667  0.166667  0.500000      1.000000
 -0.000000  0.333333  0.500000      1.000000
  0.166667  0.333333  0.500000      1.000000
  0.333333  0.333333  0.500000      1.000000
  0.500000  0.333333  0.500000      1.000000
 -0.333333  0.333333  0.500000      1.000000
 -0.166667  0.333333  0.500000      1.000000
 -0.000000  0.500000  0.500000      1.000000
  0.166667  0.500000  0.500000      1.000000
  0.333333  0.500000  0.500000      1.000000
  0.500000  0.500000  0.500000      1.000000
 -0.333333  0.500000  0.500000      1.000000
 -0.166667  0.500000  0.500000      1.000000
  0.000000 -0.333333  0.500000      1.000000
  0.166667 -0.333333  0.500000      1.000000
  0.333333 -0.333333  0.500000      1.000000
  0.500000 -0.333333  0.500000      1.000000
 -0.333333 -0.333333  0.500000      1.000000
 -0.166667 -0.333333  0.500000      1.000000
  0.000000 -0.166667  0.500000      1.000000
  0.166667 -0.166667  0.500000      1.000000
  0.333333 -0.166667  0.500000      1.000000
  0.500000 -0.166667  0.500000      1.000000
 -0.333333 -0.166667  0.500000      1.000000
 -0.166667 -0.166667  0.500000      1.000000
  0.000000  0.000000 -0.333333      1.000000
  0.166667  0.000000 -0.333333      1.000000
  0.333333  0.000000 -0.333333      1.000000
  0.500000  0.000000 -0.333333      1.000000
 -0.333333 -0.000000 -0.333333      1.000000
 -0.166667 -0.000000 -0.333333      1.000000
  0.000000  0.166667 -0.333333      1.000000
  0.166667  0.166667 -0.333333      1.000000
  0.333333  0.166667 -0.333333      1.000000
  0.500000  0.166667 -0.333333      1.000000
 -0.333333  0.166667 -0.333333      1.000000
 -0.166667  0.166667 -0.333333      1.000000
  0.000000  0.333333 -0.333333      1.000000
  0.166667  0.333333 -0.333333      1.000000
  0.333333  0.333333 -0.333333      1.000000
  0.500000  0.333333 -0.333333      1.000000
 -0.333333  0.333333 -0.333333      1.000000
 -0.166667  0.333333 -0.333333      1.000000
  0.000000  0.500000 -0.333333      1.000000
  0.166667  0.500000 -0.333333      1.000000
  0.333333  0.500000 -0.333333      1.000000
  0.500000  0.500000 -0.333333      1.000000
 -0.333333  0.500000 -0.333333      1.000000
 -0.166667  0.500000 -0.333333      1.000000
  0.000000 -0.333333 -0.333333      1.000000
  0.166667 -0.333333 -0.333333      1.000000
  0.333333 -0.333333 -0.333333      1.000000
  0.500000 -0.333333 -0.333333      1.000000
 -0.333333 -0.333333 -0.333333      1.000000
 -0.166667 -0.333333 -0.333333      1.000000
  0.000000 -0.166667 -0.333333      1.000000
  0.166667 -0.166667 -0.333333      1.000000
  0.333333 -0.166667 -0.333333      1.000000
  0.500000 -0.166667 -0.333333      1.000000
 -0.333333 -0.166667 -0.333333      1.000000
 -0.166667 -0.166667 -0.333333      1.000000
  0.000000  0.000000 -0.166667      1.000000
  0.166667  0.000000 -0.166667      1.000000
  0.333333  0.000000 -0.166667      1.000000
  0.500000  0.000000 -0.166667      1.000000
 -0.333333 -0.000000 -0.166667      1.000000
 -0.166667 -0.000000 -0.166667      1.000000
  0.000000  0.166667 -0.166667      1.000000
  0.166667  0.166667 -0.166667      1.000000
  0.333333  0.166667 -0.166667      1.000000
  0.500000  0.166667 -0.166667      1.000000
 -0.333333  0.166667 -0.166667      1.000000
 -0.166667  0.166667 -0.166667      1.000000
  0.000000  0.333333 -0.166667      1.000000
  0.166667  0.333333 -0.166667      1.000000
  0.333333  0.333333 -0.166667      1.000000
  0.500000  0.333333 -0.166667      1.000000
 -0.333333  0.333333 -0.166667      1.000000
 -0.166667  0.333333 -0.166667      1.000000
 -0.000000  0.500000 -0.166667      1.000000
  0.166667  0.500000 -0.166667      1.000000
  0.333333  0.500000 -0.166667      1.000000
  0.500000  0.500000 -0.166667      1.000000
 -0.333333  0.500000 -0.166667      1.000000
 -0.166667  0.500000 -0.166667      1.000000
 -0.000000 -0.333333 -0.166667      1.000000
  0.166667 -0.333333 -0.166667      1.000000
  0.333333 -0.333333 -0.166667      1.000000
  0.500000 -0.333333 -0.166667      1.000000
 -0.333333 -0.333333 -0.166667      1.000000
 -0.166667 -0.333333 -0.166667      1.000000
 -0.000000 -0.166667 -0.166667      1.000000
  0.166667 -0.166667 -0.166667      1.000000
  0.333333 -0.166667 -0.166667      1.000000
  0.500000 -0.166667 -0.166667      1.000000
 -0.333333 -0.166667 -0.166667      1.000000
 -0.166667 -0.166667 -0.166667      1.000000
 
 Following cartesian coordinates:
            Coordinates               Weight
  0.000000  0.000000  0.000000      1.000000
  0.036869 -0.021286 -0.015052      1.000000
  0.073737 -0.042572 -0.030103      1.000000
  0.110606 -0.063858 -0.045155      1.000000
 -0.073737  0.042572  0.030103      1.000000
 -0.036869  0.021286  0.015052      1.000000
  0.000000  0.042572 -0.015052      1.000000
  0.036869  0.021286 -0.030103      1.000000
  0.073737  0.000000 -0.045155      1.000000
  0.110606 -0.021286 -0.060206      1.000000
 -0.073737  0.085144  0.015052      1.000000
 -0.036869  0.063858  0.000000      1.000000
  0.000000  0.085144 -0.030103      1.000000
  0.036869  0.063858 -0.045155      1.000000
  0.073737  0.042572 -0.060206      1.000000
  0.110606  0.021286 -0.075258      1.000000
 -0.073737  0.127716  0.000000      1.000000
 -0.036869  0.106430 -0.015052      1.000000
  0.000000  0.127716 -0.045155      1.000000
  0.036869  0.106430 -0.060206      1.000000
  0.073737  0.085144 -0.075258      1.000000
  0.110606  0.063858 -0.090309      1.000000
 -0.073737  0.170289 -0.015052      1.000000
 -0.036869  0.149002 -0.030103      1.000000
 -0.000000 -0.085144  0.030103      1.000000
  0.036869 -0.106430  0.015052      1.000000
  0.073737 -0.127716 -0.000000      1.000000
  0.110606 -0.149002 -0.015052      1.000000
 -0.073737 -0.042572  0.060206      1.000000
 -0.036869 -0.063858  0.045155      1.000000
 -0.000000 -0.042572  0.015052      1.000000
  0.036869 -0.063858 -0.000000      1.000000
  0.073737 -0.085144 -0.015052      1.000000
  0.110606 -0.106430 -0.030103      1.000000
 -0.073737 -0.000000  0.045155      1.000000
 -0.036869 -0.021286  0.030103      1.000000
 -0.000000  0.000000  0.045155      1.000000
  0.036869 -0.021286  0.030103      1.000000
  0.073737 -0.042572  0.015052      1.000000
  0.110606 -0.063858 -0.000000      1.000000
 -0.073737  0.042572  0.075258      1.000000
 -0.036869  0.021286  0.060206      1.000000
 -0.000000  0.042572  0.030103      1.000000
  0.036869  0.021286  0.015052      1.000000
  0.073737  0.000000  0.000000      1.000000
  0.110606 -0.021286 -0.015052      1.000000
 -0.073737  0.085144  0.060206      1.000000
 -0.036869  0.063858  0.045155      1.000000
 -0.000000  0.085144  0.015052      1.000000
  0.036869  0.063858  0.000000      1.000000
  0.073737  0.042572 -0.015052      1.000000
  0.110606  0.021286 -0.030103      1.000000
 -0.073737  0.127716  0.045155      1.000000
 -0.036869  0.106430  0.030103      1.000000
 -0.000000  0.127716  0.000000      1.000000
  0.036869  0.106430 -0.015052      1.000000
  0.073737  0.085144 -0.030103      1.000000
  0.110606  0.063858 -0.045155      1.000000
 -0.073737  0.170289  0.030103      1.000000
 -0.036869  0.149002  0.015052      1.000000
 -0.000000 -0.085144  0.075258      1.000000
  0.036869 -0.106430  0.060206      1.000000
  0.073737 -0.127716  0.045155      1.000000
  0.110606 -0.149002  0.030103      1.000000
 -0.073737 -0.042572  0.105361      1.000000
 -0.036869 -0.063858  0.090309      1.000000
 -0.000000 -0.042572  0.060206      1.000000
  0.036869 -0.063858  0.045155      1.000000
  0.073737 -0.085144  0.030103      1.000000
  0.110606 -0.106430  0.015052      1.000000
 -0.073737 -0.000000  0.090309      1.000000
 -0.036869 -0.021286  0.075258      1.000000
 -0.000000  0.000000  0.090309      1.000000
  0.036869 -0.021286  0.075258      1.000000
  0.073737 -0.042572  0.060206      1.000000
  0.110606 -0.063858  0.045155      1.000000
 -0.073737  0.042572  0.120412      1.000000
 -0.036869  0.021286  0.105361      1.000000
 -0.000000  0.042572  0.075258      1.000000
  0.036869  0.021286  0.060206      1.000000
  0.073737  0.000000  0.045155      1.000000
  0.110606 -0.021286  0.030103      1.000000
 -0.073737  0.085144  0.105361      1.000000
 -0.036869  0.063858  0.090309      1.000000
 -0.000000  0.085144  0.060206      1.000000
  0.036869  0.063858  0.045155      1.000000
  0.073737  0.042572  0.030103      1.000000
  0.110606  0.021286  0.015052      1.000000
 -0.073737  0.127716  0.090309      1.000000
 -0.036869  0.106430  0.075258      1.000000
 -0.000000  0.127716  0.045155      1.000000
  0.036869  0.106430  0.030103      1.000000
  0.073737  0.085144  0.015052      1.000000
  0.110606  0.063858  0.000000      1.000000
 -0.073737  0.170289  0.075258      1.000000
 -0.036869  0.149002  0.060206      1.000000
 -0.000000 -0.085144  0.120412      1.000000
  0.036869 -0.106430  0.105361      1.000000
  0.073737 -0.127716  0.090309      1.000000
  0.110606 -0.149002  0.075258      1.000000
 -0.073737 -0.042572  0.150515      1.000000
 -0.036869 -0.063858  0.135464      1.000000
 -0.000000 -0.042572  0.105361      1.000000
  0.036869 -0.063858  0.090309      1.000000
  0.073737 -0.085144  0.075258      1.000000
  0.110606 -0.106430  0.060206      1.000000
 -0.073737 -0.000000  0.135464      1.000000
 -0.036869 -0.021286  0.120412      1.000000
 -0.000000  0.000000  0.135464      1.000000
  0.036869 -0.021286  0.120412      1.000000
  0.073737 -0.042572  0.105361      1.000000
  0.110606 -0.063858  0.090309      1.000000
 -0.073737  0.042572  0.165567      1.000000
 -0.036869  0.021286  0.150515      1.000000
 -0.000000  0.042572  0.120412      1.000000
  0.036869  0.021286  0.105361      1.000000
  0.073737  0.000000  0.090309      1.000000
  0.110606 -0.021286  0.075258      1.000000
 -0.073737  0.085144  0.150515      1.000000
 -0.036869  0.063858  0.135464      1.000000
 -0.000000  0.085144  0.105361      1.000000
  0.036869  0.063858  0.090309      1.000000
  0.073737  0.042572  0.075258      1.000000
  0.110606  0.021286  0.060206      1.000000
 -0.073737  0.127716  0.135464      1.000000
 -0.036869  0.106430  0.120412      1.000000
 -0.000000  0.127716  0.090309      1.000000
  0.036869  0.106430  0.075258      1.000000
  0.073737  0.085144  0.060206      1.000000
  0.110606  0.063858  0.045155      1.000000
 -0.073737  0.170289  0.120412      1.000000
 -0.036869  0.149002  0.105361      1.000000
 -0.000000 -0.085144  0.165567      1.000000
  0.036869 -0.106430  0.150515      1.000000
  0.073737 -0.127716  0.135464      1.000000
  0.110606 -0.149002  0.120412      1.000000
 -0.073737 -0.042572  0.195670      1.000000
 -0.036869 -0.063858  0.180618      1.000000
 -0.000000 -0.042572  0.150515      1.000000
  0.036869 -0.063858  0.135464      1.000000
  0.073737 -0.085144  0.120412      1.000000
  0.110606 -0.106430  0.105361      1.000000
 -0.073737 -0.000000  0.180618      1.000000
 -0.036869 -0.021286  0.165567      1.000000
  0.000000 -0.000000 -0.090309      1.000000
  0.036869 -0.021286 -0.105361      1.000000
  0.073737 -0.042572 -0.120412      1.000000
  0.110606 -0.063858 -0.135464      1.000000
 -0.073737  0.042572 -0.060206      1.000000
 -0.036869  0.021286 -0.075258      1.000000
  0.000000  0.042572 -0.105361      1.000000
  0.036869  0.021286 -0.120412      1.000000
  0.073737  0.000000 -0.135464      1.000000
  0.110606 -0.021286 -0.150515      1.000000
 -0.073737  0.085144 -0.075258      1.000000
 -0.036869  0.063858 -0.090309      1.000000
  0.000000  0.085144 -0.120412      1.000000
  0.036869  0.063858 -0.135464      1.000000
  0.073737  0.042572 -0.150515      1.000000
  0.110606  0.021286 -0.165567      1.000000
 -0.073737  0.127716 -0.090309      1.000000
 -0.036869  0.106430 -0.105361      1.000000
  0.000000  0.127716 -0.135464      1.000000
  0.036869  0.106430 -0.150515      1.000000
  0.073737  0.085144 -0.165567      1.000000
  0.110606  0.063858 -0.180618      1.000000
 -0.073737  0.170289 -0.105361      1.000000
 -0.036869  0.149002 -0.120412      1.000000
  0.000000 -0.085144 -0.060206      1.000000
  0.036869 -0.106430 -0.075258      1.000000
  0.073737 -0.127716 -0.090309      1.000000
  0.110606 -0.149002 -0.105361      1.000000
 -0.073737 -0.042572 -0.030103      1.000000
 -0.036869 -0.063858 -0.045155      1.000000
  0.000000 -0.042572 -0.075258      1.000000
  0.036869 -0.063858 -0.090309      1.000000
  0.073737 -0.085144 -0.105361      1.000000
  0.110606 -0.106430 -0.120412      1.000000
 -0.073737 -0.000000 -0.045155      1.000000
 -0.036869 -0.021286 -0.060206      1.000000
  0.000000 -0.000000 -0.045155      1.000000
  0.036869 -0.021286 -0.060206      1.000000
  0.073737 -0.042572 -0.075258      1.000000
  0.110606 -0.063858 -0.090309      1.000000
 -0.073737  0.042572 -0.015052      1.000000
 -0.036869  0.021286 -0.030103      1.000000
  0.000000  0.042572 -0.060206      1.000000
  0.036869  0.021286 -0.075258      1.000000
  0.073737  0.000000 -0.090309      1.000000
  0.110606 -0.021286 -0.105361      1.000000
 -0.073737  0.085144 -0.030103      1.000000
 -0.036869  0.063858 -0.045155      1.000000
  0.000000  0.085144 -0.075258      1.000000
  0.036869  0.063858 -0.090309      1.000000
  0.073737  0.042572 -0.105361      1.000000
  0.110606  0.021286 -0.120412      1.000000
 -0.073737  0.127716 -0.045155      1.000000
 -0.036869  0.106430 -0.060206      1.000000
  0.000000  0.127716 -0.090309      1.000000
  0.036869  0.106430 -0.105361      1.000000
  0.073737  0.085144 -0.120412      1.000000
  0.110606  0.063858 -0.135464      1.000000
 -0.073737  0.170289 -0.060206      1.000000
 -0.036869  0.149002 -0.075258      1.000000
  0.000000 -0.085144 -0.015052      1.000000
  0.036869 -0.106430 -0.030103      1.000000
  0.073737 -0.127716 -0.045155      1.000000
  0.110606 -0.149002 -0.060206      1.000000
 -0.073737 -0.042572  0.015052      1.000000
 -0.036869 -0.063858 -0.000000      1.000000
  0.000000 -0.042572 -0.030103      1.000000
  0.036869 -0.063858 -0.045155      1.000000
  0.073737 -0.085144 -0.060206      1.000000
  0.110606 -0.106430 -0.075258      1.000000
 -0.073737 -0.000000 -0.000000      1.000000
 -0.036869 -0.021286 -0.015052      1.000000
 
 
 Subroutine IBZKPT_HF returns following result:
 ==============================================
 
 Found    216 k-points in 1st BZ
 the following    216 k-points will be used (e.g. in the exchange kernel)
 Following reciprocal coordinates:   # in IRBZ
  0.000000  0.000000  0.000000    0.00462963   1 t-inv F
  0.166667  0.000000  0.000000    0.00462963   2 t-inv F
  0.333333  0.000000  0.000000    0.00462963   3 t-inv F
  0.500000  0.000000  0.000000    0.00462963   4 t-inv F
 -0.333333 -0.000000 -0.000000    0.00462963   5 t-inv F
 -0.166667 -0.000000 -0.000000    0.00462963   6 t-inv F
  0.000000  0.166667 -0.000000    0.00462963   7 t-inv F
  0.166667  0.166667  0.000000    0.00462963   8 t-inv F
  0.333333  0.166667  0.000000    0.00462963   9 t-inv F
  0.500000  0.166667  0.000000    0.00462963  10 t-inv F
 -0.333333  0.166667 -0.000000    0.00462963  11 t-inv F
 -0.166667  0.166667 -0.000000    0.00462963  12 t-inv F
  0.000000  0.333333  0.000000    0.00462963  13 t-inv F
  0.166667  0.333333  0.000000    0.00462963  14 t-inv F
  0.333333  0.333333  0.000000    0.00462963  15 t-inv F
  0.500000  0.333333  0.000000    0.00462963  16 t-inv F
 -0.333333  0.333333 -0.000000    0.00462963  17 t-inv F
 -0.166667  0.333333 -0.000000    0.00462963  18 t-inv F
  0.000000  0.500000  0.000000    0.00462963  19 t-inv F
  0.166667  0.500000  0.000000    0.00462963  20 t-inv F
  0.333333  0.500000  0.000000    0.00462963  21 t-inv F
  0.500000  0.500000  0.000000    0.00462963  22 t-inv F
 -0.333333  0.500000 -0.000000    0.00462963  23 t-inv F
 -0.166667  0.500000 -0.000000    0.00462963  24 t-inv F
  0.000000 -0.333333  0.000000    0.00462963  25 t-inv F
  0.166667 -0.333333  0.000000    0.00462963  26 t-inv F
  0.333333 -0.333333  0.000000    0.00462963  27 t-inv F
  0.500000 -0.333333  0.000000    0.00462963  28 t-inv F
 -0.333333 -0.333333 -0.000000    0.00462963  29 t-inv F
 -0.166667 -0.333333 -0.000000    0.00462963  30 t-inv F
  0.000000 -0.166667  0.000000    0.00462963  31 t-inv F
  0.166667 -0.166667  0.000000    0.00462963  32 t-inv F
  0.333333 -0.166667  0.000000    0.00462963  33 t-inv F
  0.500000 -0.166667  0.000000    0.00462963  34 t-inv F
 -0.333333 -0.166667 -0.000000    0.00462963  35 t-inv F
 -0.166667 -0.166667 -0.000000    0.00462963  36 t-inv F
  0.000000 -0.000000  0.166667    0.00462963  37 t-inv F
  0.166667  0.000000  0.166667    0.00462963  38 t-inv F
  0.333333  0.000000  0.166667    0.00462963  39 t-inv F
  0.500000  0.000000  0.166667    0.00462963  40 t-inv F
 -0.333333 -0.000000  0.166667    0.00462963  41 t-inv F
 -0.166667 -0.000000  0.166667    0.00462963  42 t-inv F
  0.000000  0.166667  0.166667    0.00462963  43 t-inv F
  0.166667  0.166667  0.166667    0.00462963  44 t-inv F
  0.333333  0.166667  0.166667    0.00462963  45 t-inv F
  0.500000  0.166667  0.166667    0.00462963  46 t-inv F
 -0.333333  0.166667  0.166667    0.00462963  47 t-inv F
 -0.166667  0.166667  0.166667    0.00462963  48 t-inv F
  0.000000  0.333333  0.166667    0.00462963  49 t-inv F
  0.166667  0.333333  0.166667    0.00462963  50 t-inv F
  0.333333  0.333333  0.166667    0.00462963  51 t-inv F
  0.500000  0.333333  0.166667    0.00462963  52 t-inv F
 -0.333333  0.333333  0.166667    0.00462963  53 t-inv F
 -0.166667  0.333333  0.166667    0.00462963  54 t-inv F
  0.000000  0.500000  0.166667    0.00462963  55 t-inv F
  0.166667  0.500000  0.166667    0.00462963  56 t-inv F
  0.333333  0.500000  0.166667    0.00462963  57 t-inv F
  0.500000  0.500000  0.166667    0.00462963  58 t-inv F
 -0.333333  0.500000  0.166667    0.00462963  59 t-inv F
 -0.166667  0.500000  0.166667    0.00462963  60 t-inv F
 -0.000000 -0.333333  0.166667    0.00462963  61 t-inv F
  0.166667 -0.333333  0.166667    0.00462963  62 t-inv F
  0.333333 -0.333333  0.166667    0.00462963  63 t-inv F
  0.500000 -0.333333  0.166667    0.00462963  64 t-inv F
 -0.333333 -0.333333  0.166667    0.00462963  65 t-inv F
 -0.166667 -0.333333  0.166667    0.00462963  66 t-inv F
 -0.000000 -0.166667  0.166667    0.00462963  67 t-inv F
  0.166667 -0.166667  0.166667    0.00462963  68 t-inv F
  0.333333 -0.166667  0.166667    0.00462963  69 t-inv F
  0.500000 -0.166667  0.166667    0.00462963  70 t-inv F
 -0.333333 -0.166667  0.166667    0.00462963  71 t-inv F
 -0.166667 -0.166667  0.166667    0.00462963  72 t-inv F
 -0.000000 -0.000000  0.333333    0.00462963  73 t-inv F
  0.166667  0.000000  0.333333    0.00462963  74 t-inv F
  0.333333  0.000000  0.333333    0.00462963  75 t-inv F
  0.500000  0.000000  0.333333    0.00462963  76 t-inv F
 -0.333333 -0.000000  0.333333    0.00462963  77 t-inv F
 -0.166667 -0.000000  0.333333    0.00462963  78 t-inv F
 -0.000000  0.166667  0.333333    0.00462963  79 t-inv F
  0.166667  0.166667  0.333333    0.00462963  80 t-inv F
  0.333333  0.166667  0.333333    0.00462963  81 t-inv F
  0.500000  0.166667  0.333333    0.00462963  82 t-inv F
 -0.333333  0.166667  0.333333    0.00462963  83 t-inv F
 -0.166667  0.166667  0.333333    0.00462963  84 t-inv F
 -0.000000  0.333333  0.333333    0.00462963  85 t-inv F
  0.166667  0.333333  0.333333    0.00462963  86 t-inv F
  0.333333  0.333333  0.333333    0.00462963  87 t-inv F
  0.500000  0.333333  0.333333    0.00462963  88 t-inv F
 -0.333333  0.333333  0.333333    0.00462963  89 t-inv F
 -0.166667  0.333333  0.333333    0.00462963  90 t-inv F
  0.000000  0.500000  0.333333    0.00462963  91 t-inv F
  0.166667  0.500000  0.333333    0.00462963  92 t-inv F
  0.333333  0.500000  0.333333    0.00462963  93 t-inv F
  0.500000  0.500000  0.333333    0.00462963  94 t-inv F
 -0.333333  0.500000  0.333333    0.00462963  95 t-inv F
 -0.166667  0.500000  0.333333    0.00462963  96 t-inv F
 -0.000000 -0.333333  0.333333    0.00462963  97 t-inv F
  0.166667 -0.333333  0.333333    0.00462963  98 t-inv F
  0.333333 -0.333333  0.333333    0.00462963  99 t-inv F
  0.500000 -0.333333  0.333333    0.00462963 100 t-inv F
 -0.333333 -0.333333  0.333333    0.00462963 101 t-inv F
 -0.166667 -0.333333  0.333333    0.00462963 102 t-inv F
 -0.000000 -0.166667  0.333333    0.00462963 103 t-inv F
  0.166667 -0.166667  0.333333    0.00462963 104 t-inv F
  0.333333 -0.166667  0.333333    0.00462963 105 t-inv F
  0.500000 -0.166667  0.333333    0.00462963 106 t-inv F
 -0.333333 -0.166667  0.333333    0.00462963 107 t-inv F
 -0.166667 -0.166667  0.333333    0.00462963 108 t-inv F
 -0.000000 -0.000000  0.500000    0.00462963 109 t-inv F
  0.166667  0.000000  0.500000    0.00462963 110 t-inv F
  0.333333  0.000000  0.500000    0.00462963 111 t-inv F
  0.500000  0.000000  0.500000    0.00462963 112 t-inv F
 -0.333333 -0.000000  0.500000    0.00462963 113 t-inv F
 -0.166667 -0.000000  0.500000    0.00462963 114 t-inv F
 -0.000000  0.166667  0.500000    0.00462963 115 t-inv F
  0.166667  0.166667  0.500000    0.00462963 116 t-inv F
  0.333333  0.166667  0.500000    0.00462963 117 t-inv F
  0.500000  0.166667  0.500000    0.00462963 118 t-inv F
 -0.333333  0.166667  0.500000    0.00462963 119 t-inv F
 -0.166667  0.166667  0.500000    0.00462963 120 t-inv F
 -0.000000  0.333333  0.500000    0.00462963 121 t-inv F
  0.166667  0.333333  0.500000    0.00462963 122 t-inv F
  0.333333  0.333333  0.500000    0.00462963 123 t-inv F
  0.500000  0.333333  0.500000    0.00462963 124 t-inv F
 -0.333333  0.333333  0.500000    0.00462963 125 t-inv F
 -0.166667  0.333333  0.500000    0.00462963 126 t-inv F
 -0.000000  0.500000  0.500000    0.00462963 127 t-inv F
  0.166667  0.500000  0.500000    0.00462963 128 t-inv F
  0.333333  0.500000  0.500000    0.00462963 129 t-inv F
  0.500000  0.500000  0.500000    0.00462963 130 t-inv F
 -0.333333  0.500000  0.500000    0.00462963 131 t-inv F
 -0.166667  0.500000  0.500000    0.00462963 132 t-inv F
  0.000000 -0.333333  0.500000    0.00462963 133 t-inv F
  0.166667 -0.333333  0.500000    0.00462963 134 t-inv F
  0.333333 -0.333333  0.500000    0.00462963 135 t-inv F
  0.500000 -0.333333  0.500000    0.00462963 136 t-inv F
 -0.333333 -0.333333  0.500000    0.00462963 137 t-inv F
 -0.166667 -0.333333  0.500000    0.00462963 138 t-inv F
  0.000000 -0.166667  0.500000    0.00462963 139 t-inv F
  0.166667 -0.166667  0.500000    0.00462963 140 t-inv F
  0.333333 -0.166667  0.500000    0.00462963 141 t-inv F
  0.500000 -0.166667  0.500000    0.00462963 142 t-inv F
 -0.333333 -0.166667  0.500000    0.00462963 143 t-inv F
 -0.166667 -0.166667  0.500000    0.00462963 144 t-inv F
  0.000000  0.000000 -0.333333    0.00462963 145 t-inv F
  0.166667  0.000000 -0.333333    0.00462963 146 t-inv F
  0.333333  0.000000 -0.333333    0.00462963 147 t-inv F
  0.500000  0.000000 -0.333333    0.00462963 148 t-inv F
 -0.333333 -0.000000 -0.333333    0.00462963 149 t-inv F
 -0.166667 -0.000000 -0.333333    0.00462963 150 t-inv F
  0.000000  0.166667 -0.333333    0.00462963 151 t-inv F
  0.166667  0.166667 -0.333333    0.00462963 152 t-inv F
  0.333333  0.166667 -0.333333    0.00462963 153 t-inv F
  0.500000  0.166667 -0.333333    0.00462963 154 t-inv F
 -0.333333  0.166667 -0.333333    0.00462963 155 t-inv F
 -0.166667  0.166667 -0.333333    0.00462963 156 t-inv F
  0.000000  0.333333 -0.333333    0.00462963 157 t-inv F
  0.166667  0.333333 -0.333333    0.00462963 158 t-inv F
  0.333333  0.333333 -0.333333    0.00462963 159 t-inv F
  0.500000  0.333333 -0.333333    0.00462963 160 t-inv F
 -0.333333  0.333333 -0.333333    0.00462963 161 t-inv F
 -0.166667  0.333333 -0.333333    0.00462963 162 t-inv F
  0.000000  0.500000 -0.333333    0.00462963 163 t-inv F
  0.166667  0.500000 -0.333333    0.00462963 164 t-inv F
  0.333333  0.500000 -0.333333    0.00462963 165 t-inv F
  0.500000  0.500000 -0.333333    0.00462963 166 t-inv F
 -0.333333  0.500000 -0.333333    0.00462963 167 t-inv F
 -0.166667  0.500000 -0.333333    0.00462963 168 t-inv F
  0.000000 -0.333333 -0.333333    0.00462963 169 t-inv F
  0.166667 -0.333333 -0.333333    0.00462963 170 t-inv F
  0.333333 -0.333333 -0.333333    0.00462963 171 t-inv F
  0.500000 -0.333333 -0.333333    0.00462963 172 t-inv F
 -0.333333 -0.333333 -0.333333    0.00462963 173 t-inv F
 -0.166667 -0.333333 -0.333333    0.00462963 174 t-inv F
  0.000000 -0.166667 -0.333333    0.00462963 175 t-inv F
  0.166667 -0.166667 -0.333333    0.00462963 176 t-inv F
  0.333333 -0.166667 -0.333333    0.00462963 177 t-inv F
  0.500000 -0.166667 -0.333333    0.00462963 178 t-inv F
 -0.333333 -0.166667 -0.333333    0.00462963 179 t-inv F
 -0.166667 -0.166667 -0.333333    0.00462963 180 t-inv F
  0.000000  0.000000 -0.166667    0.00462963 181 t-inv F
  0.166667  0.000000 -0.166667    0.00462963 182 t-inv F
  0.333333  0.000000 -0.166667    0.00462963 183 t-inv F
  0.500000  0.000000 -0.166667    0.00462963 184 t-inv F
 -0.333333 -0.000000 -0.166667    0.00462963 185 t-inv F
 -0.166667 -0.000000 -0.166667    0.00462963 186 t-inv F
  0.000000  0.166667 -0.166667    0.00462963 187 t-inv F
  0.166667  0.166667 -0.166667    0.00462963 188 t-inv F
  0.333333  0.166667 -0.166667    0.00462963 189 t-inv F
  0.500000  0.166667 -0.166667    0.00462963 190 t-inv F
 -0.333333  0.166667 -0.166667    0.00462963 191 t-inv F
 -0.166667  0.166667 -0.166667    0.00462963 192 t-inv F
  0.000000  0.333333 -0.166667    0.00462963 193 t-inv F
  0.166667  0.333333 -0.166667    0.00462963 194 t-inv F
  0.333333  0.333333 -0.166667    0.00462963 195 t-inv F
  0.500000  0.333333 -0.166667    0.00462963 196 t-inv F
 -0.333333  0.333333 -0.166667    0.00462963 197 t-inv F
 -0.166667  0.333333 -0.166667    0.00462963 198 t-inv F
 -0.000000  0.500000 -0.166667    0.00462963 199 t-inv F
  0.166667  0.500000 -0.166667    0.00462963 200 t-inv F
  0.333333  0.500000 -0.166667    0.00462963 201 t-inv F
  0.500000  0.500000 -0.166667    0.00462963 202 t-inv F
 -0.333333  0.500000 -0.166667    0.00462963 203 t-inv F
 -0.166667  0.500000 -0.166667    0.00462963 204 t-inv F
 -0.000000 -0.333333 -0.166667    0.00462963 205 t-inv F
  0.166667 -0.333333 -0.166667    0.00462963 206 t-inv F
  0.333333 -0.333333 -0.166667    0.00462963 207 t-inv F
  0.500000 -0.333333 -0.166667    0.00462963 208 t-inv F
 -0.333333 -0.333333 -0.166667    0.00462963 209 t-inv F
 -0.166667 -0.333333 -0.166667    0.00462963 210 t-inv F
 -0.000000 -0.166667 -0.166667    0.00462963 211 t-inv F
  0.166667 -0.166667 -0.166667    0.00462963 212 t-inv F
  0.333333 -0.166667 -0.166667    0.00462963 213 t-inv F
  0.500000 -0.166667 -0.166667    0.00462963 214 t-inv F
 -0.333333 -0.166667 -0.166667    0.00462963 215 t-inv F
 -0.166667 -0.166667 -0.166667    0.00462963 216 t-inv F


--------------------------------------------------------------------------------------------------------




 Dimension of arrays:
   k-points           NKPTS =    216   k-points in BZ     NKDIM =    216   number of bands    NBANDS=    512
   number of dos      NEDOS =    301   number of ions     NIONS =      1
   non local maximal  LDIM  =      9   non local SUM 2l+1 LMDIM =     37
   total plane-waves  NPLWV =  21952
   max r-space proj   IRMAX =      1   max aug-charges    IRDMAX= 111272
   dimension x,y,z NGX =    28 NGY =   28 NGZ =   28
   dimension x,y,z NGXF=    56 NGYF=   56 NGZF=   56
   support grid    NGXF=   112 NGYF=  112 NGZF=  112
   ions per type =               1
   NGX,Y,Z   is equivalent  to a cutoff of  10.54, 10.54, 10.54 a.u.
   NGXF,Y,Z  is equivalent  to a cutoff of  21.09, 21.09, 21.09 a.u.

 SYSTEM =  Og_FCC                                  
 POSCAR =  Rn_FCC                                  

 Startparameter for this run:
   NWRITE =      1    write-flag & timer
   PREC   = accura    normal or accurate (medium, high low for compatibility)
   ISTART =      1    job   : 0-new  1-cont  2-samecut
   ICHARG =      0    charge: 1-file 2-atom 10-const
   ISPIN  =      1    spin polarized calculation?
   LNONCOLLINEAR =      T non collinear calculations
   LSORBIT =      T    spin-orbit coupling
   INIWAV =      1    electr: 0-lowe 1-rand  2-diag
   LASPH  =      F    aspherical Exc in radial PAW
   METAGGA=      F    non-selfconsistent MetaGGA calc.

 Electronic Relaxation 1
   ENCUT  =  300.0 eV  22.05 Ry    4.70 a.u.   6.23  6.23  6.23*2*pi/ulx,y,z
   ENINI  =  300.0     initial cutoff
   ENAUG  =  715.6 eV  augmentation charge cutoff
   NELM   =      1;   NELMIN=  2; NELMDL=  0     # of ELM steps 
   EDIFF  = 0.1E-07   stopping-criterion for ELM
   LREAL  =      F    real-space projection
   NLSPLINE    = F    spline interpolate recip. space projectors
   LCOMPAT=      F    compatible to vasp.4.4
   GGA_COMPAT  = F    GGA compatible to vasp.4.4-vasp.4.6
   LMAXPAW     = -100 max onsite density
   LMAXMIX     =    2 max onsite mixed and CHGCAR
   VOSKOWN=      0    Vosko Wilk Nusair interpolation
   ROPT   =    0.00000
 Ionic relaxation
   EDIFFG = 0.1E-04   stopping-criterion for IOM
   NSW    =      1    number of steps for IOM
   NBLOCK =      1;   KBLOCK =      1    inner block; outer block 
   IBRION =     -1    ionic relax: 0-MD 1-quasi-New 2-CG
   NFREE  =      5    steps in history (QN), initial steepest desc. (CG)
   ISIF   =      3    stress and relaxation
   IWAVPR =     10    prediction:  0-non 1-charg 2-wave 3-comb
   ISYM   =      0    0-nonsym 1-usesym 2-fastsym
   LCORR  =      T    Harris-Foulkes like correction to forces

   POTIM  = 0.1000    time-step for ionic-motion
   TEIN   =    0.0    initial temperature
   TEBEG  =    0.0;   TEEND  =   0.0 temperature during run
   SMASS  =  -3.00    Nose mass-parameter (am)
   estimated Nose-frequenzy (Omega)   =  0.10E-29 period in steps =****** mass=  -0.445E-27a.u.
   SCALEE = 1.0000    scale energy and forces
   NPACO  =    256;   APACO  = 16.0  distance and # of slots for P.C.
   PSTRESS=    0.0 pullay stress

  Mass of Ions in am
   POMASS = 220.17
  Ionic Valenz
   ZVAL   =  18.00
  Atomic Wigner-Seitz radii
   RWIGS  =  -1.00
  virtual crystal weights 
   VCA    =   1.00
   NELECT =      18.0000    total number of electrons
   NUPDOWN=      -1.0000    fix difference up-down

 DOS related values:
   EMIN   =  10.00;   EMAX   =-10.00  energy-range for DOS
   EFERMI =   0.00
   ISMEAR =     0;   SIGMA  =   0.05  broadening in eV -4-tet -1-fermi 0-gaus

 Electronic relaxation 2 (details)
   IALGO  =     38    algorithm
   LDIAG  =      T    sub-space diagonalisation (order eigenvalues)
   LSUBROT=      F    optimize rotation matrix (better conditioning)
   TURBO    =      0    0=normal 1=particle mesh
   IRESTART =      0    0=no restart 2=restart with 2 vectors
   NREBOOT  =      0    no. of reboots
   NMIN     =      0    reboot dimension
   EREF     =   0.00    reference energy to select bands
   IMIX   =      1    mixing-type and parameters
     AMIX     =   0.40;   BMIX     =  1.00
     AMIX_MAG =   1.60;   BMIX_MAG =  1.00
     AMIN     =   0.10
     WC   =   100.;   INIMIX=   1;  MIXPRE=   1;  MAXMIX=  50

 Intra band minimization:
   WEIMIN = 0.0000     energy-eigenvalue tresh-hold
   EBREAK =  0.49E-11  absolut break condition
   DEPER  =   0.30     relativ break condition  

   TIME   =   0.40     timestep for ELM

  volume/ion in A,a.u.               =      60.83       410.53
  Fermi-wavevector in a.u.,A,eV,Ry     =   1.090892  2.061487 16.191546  1.190045
  Thomas-Fermi vector in A             =   2.227126
 
 Write flags
   LWAVE        =      T    write WAVECAR
   LDOWNSAMPLE  =      F    k-point downsampling of WAVECAR
   LCHARG       =      F    write CHGCAR
   LVTOT        =      F    write LOCPOT, total local potential
   LVHAR        =      F    write LOCPOT, Hartree potential only
   LELF         =      F    write electronic localiz. function (ELF)
   LORBIT       =      0    0 simple, 1 ext, 2 COOP (PROOUT), +10 PAW based schemes


 Dipole corrections
   LMONO  =      F    monopole corrections only (constant potential shift)
   LDIPOL =      F    correct potential (dipole corrections)
   IDIPOL =      0    1-x, 2-y, 3-z, 4-all directions 
   EPSILON=  1.0000000 bulk dielectric constant

 Exchange correlation treatment:
   GGA     =    PE    GGA type
   LEXCH   =     8    internal setting for exchange type
   VOSKOWN=      0    Vosko Wilk Nusair interpolation
   EXXOEP  =     0    0=HF, 1=EXX-LHF (local Hartree Fock) 2=EXX OEP
   LHFCALC =     T    Hartree Fock is set to
   LSYMGRAD=     F    symmetrize gradient (conserves proper symmetry)
   PRECFOCK=normal    Normal, Fast or Accurate (Low or Medium for compatibility)
   LRHFCALC=     F    long range Hartree Fock
   LRSCOR  =     F    long range correlation only (use DFT for short range part)
   LTHOMAS =     F    Thomas Fermi screening in HF
   LMODELHF=     F    short range full HF, long range fraction AEXX
   ENCUT4O =  -1.0   cutoff for four orbital integrals eV
   LMAXFOCK=     4    L truncation for augmentation on plane wave grid
   LMAXFOCKAE=   4    L truncation for all-electron charge restoration on plane wave grid
   NMAXFOCKAE=   1    number of basis functions for all-electron charge restoration
   LFOCKAEDFT=     F  apply the AE augmentation even for DFT
   NKREDX  =     1    reduce k-point grid by
   NKREDY  =     1    reduce k-point grid by
   NKREDZ  =     1    reduce k-point grid by
   SHIFTRED=     F    shift reduced grid of Gamma
   HFKIDENT=     F    idential grid for each k-point
   ODDONLY =     F    use only odd q-grid points
   EVENONLY=     F    use only even q-grid points
   HFALPHA =   -1.0000 decay constant for conv. correction
   MCALPHA =    0.0000 extent of test-charge in conv. correction in multipole expansion
   AEXX    =    1.0000 exact exchange contribution
   HFSCREEN=    0.0000 screening length (either q_TF or 0.3 A-1)
   HFSCREENC=   0.0000 screening length for correlation (either q_TF or 0.3 A-1)
   HFRCUT  =    0.0000 spherical cutoff for potential kernel
   ALDAX   =    0.0000 LDA exchange part
   AGGAX   =    0.0000 GGA exchange part
   ALDAC   =    0.0000 LDA correlation
   AGGAC   =    0.0000 GGA correlation
   ENCUTFOCK=  -1.0 apply spherical cutoff to Coloumb kernel
   NBANDSGWLOW=     1    first orbital included in HF term
   NBLOCK_FOCK=    64    blocking factor in FOCK_ACC
 Linear response parameters
   LEPSILON=     F    determine dielectric tensor
   LRPA    =     F    only Hartree local field effects (RPA)
   LNABLA  =     F    use nabla operator in PAW spheres
   LVEL    =     F    velocity operator in full k-point grid
   LINTERFAST=   F  fast interpolation
   KINTER  =     0    interpolate to denser k-point grid
   CSHIFT  =0.1000    complex shift for real part using Kramers Kronig
   OMEGAMAX=  -1.0    maximum frequency
   DEG_THRESHOLD= 0.2000000E-02 threshold for treating states as degnerate
   RTIME   =   -0.100 relaxation time in fs
  (WPLASMAI=    0.000 imaginary part of plasma frequency in eV, 0.658/RTIME)
   DFIELD  = 0.0000000 0.0000000 0.0000000 field for delta impulse in time
 
 Orbital magnetization related:
   ORBITALMAG=     F  switch on orbital magnetization
   LCHIMAG   =     F  perturbation theory with respect to B field
   DQ        =  0.001000  dq finite difference perturbation B field
   LLRAUG    =     F  two centre corrections for induced B field

 Response functions by sum over occupied states:
   ALGO    =QPGW       execute GW part
   LFXC    =     F    include DFT xc kernel in TD-HF and W
   LADDER  =     F    particle hole ladder diagrams for BSE/TD-HF and W (Nano-quanta)
   LRPAFORCE=     F   calculate RPA forces
   LHARTREE=     T    include Hartree terms (bubbles-RPA) in BSE/TD-HF
   IBSE    =     0    BSE modus: 0 exact, 1 time-evolution (store matrix), 10 time-evolution (implicit)
   KPOINT  =    -1   0   0   0    k-point index at which BSE equation is solved (and G at which response is eval.)
   LTRIPLET=     F    triplet instead of singlet excitation (BSE only)
   LRSRPA  =     F    range separated RPA (total - short) in ACFDT
   LTCTE   =     F    use test-charge test-electron dielectric function
   LTETE   =     F    use test-electron test-electron dielectric function
   LFXCEPS =     F    determine f_xc=epsilon-1/Xi Sharma and Gross kernel
   LFXHEG  =     F    model exchange using f_x(G,k_F) from free electron gas
   NATURALO=     2    0 natural orbitals, 1 only virtual, 2 only occupied-virtual rotation
   L2ORDER =     F    2nd order terms only
   LMP2LT   =     F    use LT MP2
   LUSEW   =     F    use screened W from WXXXX.tmp files instead of (screened) HF kernel
   ENCUTGW = 200.0    cutoff for response function in eV
   ENCUTGWSOFT = 200.0 soft cutoff for Coulomb kernel in GW response function in eV
   ENCUTLF =  -1.0    cutoff for local field effects
   LMAXMP2 =    -1    maximum L for one center terms
   SCISSOR =   0.0    scissor correction
   NOMEGA  =    50    number of frequencies
   NOMEGAR =    50    number of frequencies along real axis
   NBANDSGW=    -1    number of bands for which selfenergy shift is calculated
   NBANDSGWLOW=     1 lowest band included in GW (to exclude core correlation)
   NBANDSO =    -1    number of bands for electron-hole treatment (occupied)
   NBANDSV =    -1    number of bands for electron-hole treatment (virtual)
   NELM    =     1    number of iterations in solving QP/BSE equation
   NELMHF  =     1    number of iterations in the inner HF iteration
   DIM     =     3    dimensionality of system (0=0D molecules, 3=3D)
   ANTIRES =     0    antiresonant part (0) no TDA (1) w=0 exact (2) accurate
   OMEGAMAX= -30.0    maximum frequency
   OMEGAMIN= -30.000    minimum frequency
   OMEGATL =-200.0    maximum frequency of tail
   OMEGAGRID=     0    grid type (0 default)
   CSHIFT  =-0.100    complex shift used in evaluation of response functions
   SELFENERGY=   F    calculate selfenergy instead of QP shifts
   LSPECTRAL =   T    use spectral functions                   
   LSPECTRALGW=   F   use spectral functions to calculate int dz G(w-z) W(z) (more accurate)
   LSINGLES  =   F   calculate the singles contribution to the correlation energy
   LFERMIGW  =   F   update Fermi-energy in the Greens function

   ODDONLYGW =   F    avoid all even points for polarizability 
   EVENONLYGW=   F    avoid all odd  points for polarizability 
   NKREDLFX  =   1   NKREDLFY  =   1   NKREDLFZ  =   1

   TELESCOPE =   0   use telescope k-point sampling
   TAUPAR    =   1   number of TAU groups used in imaginary time calculation
   OMEGAPAR  =  -1   number of OMEGA groups used in imaginary frequency calculation



--------------------------------------------------------------------------------------------------------


 Static calculation
 charge density and potential will be updated during run
 non collinear spin polarized calculation
 Variant of blocked Davidson
 Davidson routine will perform the subspace rotation
 perform sub-space diagonalisation
    after iterative eigenvector-optimisation
 Kerker-like  mixing scheme
 using additional bands          503
 reciprocal scheme for non local part
 use partial core corrections
 calculate Harris-corrections to forces 
   (improved forces if not selfconsistent)
 use gradient corrections 
 use of overlap-Matrix (Vanderbilt PP)
 Gauss-broadening in eV      SIGMA  =   0.05


--------------------------------------------------------------------------------------------------------


  energy-cutoff  :      300.00
  volume of cell :       60.83
      direct lattice vectors                 reciprocal lattice vectors
     4.414575608  0.000000000  0.000000000     0.226522341 -0.130782734 -0.092477358
     2.207287804  3.823134623 -0.000000000     0.000000000  0.261565469 -0.092477358
     2.207287804  1.274378208  3.604485890    -0.000000000  0.000000000  0.277432075

  length of vectors
     4.414575608  4.414575608  4.414575608     0.277432075  0.277432075  0.277432075


 
 old parameters found on file WAVECAR:
  energy-cutoff  :      300.00
  volume of cell :       60.83
      direct lattice vectors                 reciprocal lattice vectors
     4.414575608  0.000000000  0.000000000     0.226522341 -0.130782734 -0.092477358
     2.207287804  3.823134623 -0.000000000     0.000000000  0.261565469 -0.092477358
     2.207287804  1.274378208  3.604485890    -0.000000000  0.000000000  0.277432075

  length of vectors

 
 k-points in units of 2pi/SCALE and weight: k-points                                
   0.00000000  0.00000000  0.00000000       0.005
   0.03686855 -0.02128607 -0.01505152       0.005
   0.07373710 -0.04257213 -0.03010304       0.005
   0.11060565 -0.06385820 -0.04515457       0.005
  -0.07373710  0.04257213  0.03010304       0.005
  -0.03686855  0.02128607  0.01505152       0.005
   0.00000000  0.04257213 -0.01505152       0.005
   0.03686855  0.02128607 -0.03010304       0.005
   0.07373710  0.00000000 -0.04515457       0.005
   0.11060565 -0.02128607 -0.06020609       0.005
  -0.07373710  0.08514427  0.01505152       0.005
  -0.03686855  0.06385820  0.00000000       0.005
   0.00000000  0.08514427 -0.03010304       0.005
   0.03686855  0.06385820 -0.04515457       0.005
   0.07373710  0.04257213 -0.06020609       0.005
   0.11060565  0.02128607 -0.07525761       0.005
  -0.07373710  0.12771640  0.00000000       0.005
  -0.03686855  0.10643034 -0.01505152       0.005
   0.00000000  0.12771640 -0.04515457       0.005
   0.03686855  0.10643034 -0.06020609       0.005
   0.07373710  0.08514427 -0.07525761       0.005
   0.11060565  0.06385820 -0.09030913       0.005
  -0.07373710  0.17028854 -0.01505152       0.005
  -0.03686855  0.14900247 -0.03010304       0.005
  -0.00000000 -0.08514427  0.03010304       0.005
   0.03686855 -0.10643034  0.01505152       0.005
   0.07373710 -0.12771640 -0.00000000       0.005
   0.11060565 -0.14900247 -0.01505152       0.005
  -0.07373710 -0.04257213  0.06020609       0.005
  -0.03686855 -0.06385820  0.04515457       0.005
  -0.00000000 -0.04257213  0.01505152       0.005
   0.03686855 -0.06385820 -0.00000000       0.005
   0.07373710 -0.08514427 -0.01505152       0.005
   0.11060565 -0.10643034 -0.03010304       0.005
  -0.07373710 -0.00000000  0.04515457       0.005
  -0.03686855 -0.02128607  0.03010304       0.005
  -0.00000000  0.00000000  0.04515457       0.005
   0.03686855 -0.02128607  0.03010304       0.005
   0.07373710 -0.04257213  0.01505152       0.005
   0.11060565 -0.06385820 -0.00000000       0.005
  -0.07373710  0.04257213  0.07525761       0.005
  -0.03686855  0.02128607  0.06020609       0.005
  -0.00000000  0.04257213  0.03010304       0.005
   0.03686855  0.02128607  0.01505152       0.005
   0.07373710  0.00000000  0.00000000       0.005
   0.11060565 -0.02128607 -0.01505152       0.005
  -0.07373710  0.08514427  0.06020609       0.005
  -0.03686855  0.06385820  0.04515457       0.005
  -0.00000000  0.08514427  0.01505152       0.005
   0.03686855  0.06385820  0.00000000       0.005
   0.07373710  0.04257213 -0.01505152       0.005
   0.11060565  0.02128607 -0.03010304       0.005
  -0.07373710  0.12771640  0.04515457       0.005
  -0.03686855  0.10643034  0.03010304       0.005
  -0.00000000  0.12771640  0.00000000       0.005
   0.03686855  0.10643034 -0.01505152       0.005
   0.07373710  0.08514427 -0.03010304       0.005
   0.11060565  0.06385820 -0.04515457       0.005
  -0.07373710  0.17028854  0.03010304       0.005
  -0.03686855  0.14900247  0.01505152       0.005
  -0.00000000 -0.08514427  0.07525761       0.005
   0.03686855 -0.10643034  0.06020609       0.005
   0.07373710 -0.12771640  0.04515457       0.005
   0.11060565 -0.14900247  0.03010304       0.005
  -0.07373710 -0.04257213  0.10536066       0.005
  -0.03686855 -0.06385820  0.09030913       0.005
  -0.00000000 -0.04257213  0.06020609       0.005
   0.03686855 -0.06385820  0.04515457       0.005
   0.07373710 -0.08514427  0.03010304       0.005
   0.11060565 -0.10643034  0.01505152       0.005
  -0.07373710 -0.00000000  0.09030913       0.005
  -0.03686855 -0.02128607  0.07525761       0.005
  -0.00000000  0.00000000  0.09030913       0.005
   0.03686855 -0.02128607  0.07525761       0.005
   0.07373710 -0.04257213  0.06020609       0.005
   0.11060565 -0.06385820  0.04515457       0.005
  -0.07373710  0.04257213  0.12041218       0.005
  -0.03686855  0.02128607  0.10536066       0.005
  -0.00000000  0.04257213  0.07525761       0.005
   0.03686855  0.02128607  0.06020609       0.005
   0.07373710  0.00000000  0.04515457       0.005
   0.11060565 -0.02128607  0.03010304       0.005
  -0.07373710  0.08514427  0.10536066       0.005
  -0.03686855  0.06385820  0.09030913       0.005
  -0.00000000  0.08514427  0.06020609       0.005
   0.03686855  0.06385820  0.04515457       0.005
   0.07373710  0.04257213  0.03010304       0.005
   0.11060565  0.02128607  0.01505152       0.005
  -0.07373710  0.12771640  0.09030913       0.005
  -0.03686855  0.10643034  0.07525761       0.005
  -0.00000000  0.12771640  0.04515457       0.005
   0.03686855  0.10643034  0.03010304       0.005
   0.07373710  0.08514427  0.01505152       0.005
   0.11060565  0.06385820  0.00000000       0.005
  -0.07373710  0.17028854  0.07525761       0.005
  -0.03686855  0.14900247  0.06020609       0.005
  -0.00000000 -0.08514427  0.12041218       0.005
   0.03686855 -0.10643034  0.10536066       0.005
   0.07373710 -0.12771640  0.09030913       0.005
   0.11060565 -0.14900247  0.07525761       0.005
  -0.07373710 -0.04257213  0.15051522       0.005
  -0.03686855 -0.06385820  0.13546370       0.005
  -0.00000000 -0.04257213  0.10536066       0.005
   0.03686855 -0.06385820  0.09030913       0.005
   0.07373710 -0.08514427  0.07525761       0.005
   0.11060565 -0.10643034  0.06020609       0.005
  -0.07373710 -0.00000000  0.13546370       0.005
  -0.03686855 -0.02128607  0.12041218       0.005
  -0.00000000  0.00000000  0.13546370       0.005
   0.03686855 -0.02128607  0.12041218       0.005
   0.07373710 -0.04257213  0.10536066       0.005
   0.11060565 -0.06385820  0.09030913       0.005
  -0.07373710  0.04257213  0.16556675       0.005
  -0.03686855  0.02128607  0.15051522       0.005
  -0.00000000  0.04257213  0.12041218       0.005
   0.03686855  0.02128607  0.10536066       0.005
   0.07373710  0.00000000  0.09030913       0.005
   0.11060565 -0.02128607  0.07525761       0.005
  -0.07373710  0.08514427  0.15051522       0.005
  -0.03686855  0.06385820  0.13546370       0.005
  -0.00000000  0.08514427  0.10536066       0.005
   0.03686855  0.06385820  0.09030913       0.005
   0.07373710  0.04257213  0.07525761       0.005
   0.11060565  0.02128607  0.06020609       0.005
  -0.07373710  0.12771640  0.13546370       0.005
  -0.03686855  0.10643034  0.12041218       0.005
  -0.00000000  0.12771640  0.09030913       0.005
   0.03686855  0.10643034  0.07525761       0.005
   0.07373710  0.08514427  0.06020609       0.005
   0.11060565  0.06385820  0.04515457       0.005
  -0.07373710  0.17028854  0.12041218       0.005
  -0.03686855  0.14900247  0.10536066       0.005
  -0.00000000 -0.08514427  0.16556675       0.005
   0.03686855 -0.10643034  0.15051522       0.005
   0.07373710 -0.12771640  0.13546370       0.005
   0.11060565 -0.14900247  0.12041218       0.005
  -0.07373710 -0.04257213  0.19566979       0.005
  -0.03686855 -0.06385820  0.18061827       0.005
  -0.00000000 -0.04257213  0.15051522       0.005
   0.03686855 -0.06385820  0.13546370       0.005
   0.07373710 -0.08514427  0.12041218       0.005
   0.11060565 -0.10643034  0.10536066       0.005
  -0.07373710 -0.00000000  0.18061827       0.005
  -0.03686855 -0.02128607  0.16556675       0.005
   0.00000000 -0.00000000 -0.09030913       0.005
   0.03686855 -0.02128607 -0.10536066       0.005
   0.07373710 -0.04257213 -0.12041218       0.005
   0.11060565 -0.06385820 -0.13546370       0.005
  -0.07373710  0.04257213 -0.06020609       0.005
  -0.03686855  0.02128607 -0.07525761       0.005
   0.00000000  0.04257213 -0.10536066       0.005
   0.03686855  0.02128607 -0.12041218       0.005
   0.07373710  0.00000000 -0.13546370       0.005
   0.11060565 -0.02128607 -0.15051522       0.005
  -0.07373710  0.08514427 -0.07525761       0.005
  -0.03686855  0.06385820 -0.09030913       0.005
   0.00000000  0.08514427 -0.12041218       0.005
   0.03686855  0.06385820 -0.13546370       0.005
   0.07373710  0.04257213 -0.15051522       0.005
   0.11060565  0.02128607 -0.16556675       0.005
  -0.07373710  0.12771640 -0.09030913       0.005
  -0.03686855  0.10643034 -0.10536066       0.005
   0.00000000  0.12771640 -0.13546370       0.005
   0.03686855  0.10643034 -0.15051522       0.005
   0.07373710  0.08514427 -0.16556675       0.005
   0.11060565  0.06385820 -0.18061827       0.005
  -0.07373710  0.17028854 -0.10536066       0.005
  -0.03686855  0.14900247 -0.12041218       0.005
   0.00000000 -0.08514427 -0.06020609       0.005
   0.03686855 -0.10643034 -0.07525761       0.005
   0.07373710 -0.12771640 -0.09030913       0.005
   0.11060565 -0.14900247 -0.10536066       0.005
  -0.07373710 -0.04257213 -0.03010304       0.005
  -0.03686855 -0.06385820 -0.04515457       0.005
   0.00000000 -0.04257213 -0.07525761       0.005
   0.03686855 -0.06385820 -0.09030913       0.005
   0.07373710 -0.08514427 -0.10536066       0.005
   0.11060565 -0.10643034 -0.12041218       0.005
  -0.07373710 -0.00000000 -0.04515457       0.005
  -0.03686855 -0.02128607 -0.06020609       0.005
   0.00000000 -0.00000000 -0.04515457       0.005
   0.03686855 -0.02128607 -0.06020609       0.005
   0.07373710 -0.04257213 -0.07525761       0.005
   0.11060565 -0.06385820 -0.09030913       0.005
  -0.07373710  0.04257213 -0.01505152       0.005
  -0.03686855  0.02128607 -0.03010304       0.005
   0.00000000  0.04257213 -0.06020609       0.005
   0.03686855  0.02128607 -0.07525761       0.005
   0.07373710  0.00000000 -0.09030913       0.005
   0.11060565 -0.02128607 -0.10536066       0.005
  -0.07373710  0.08514427 -0.03010304       0.005
  -0.03686855  0.06385820 -0.04515457       0.005
   0.00000000  0.08514427 -0.07525761       0.005
   0.03686855  0.06385820 -0.09030913       0.005
   0.07373710  0.04257213 -0.10536066       0.005
   0.11060565  0.02128607 -0.12041218       0.005
  -0.07373710  0.12771640 -0.04515457       0.005
  -0.03686855  0.10643034 -0.06020609       0.005
   0.00000000  0.12771640 -0.09030913       0.005
   0.03686855  0.10643034 -0.10536066       0.005
   0.07373710  0.08514427 -0.12041218       0.005
   0.11060565  0.06385820 -0.13546370       0.005
  -0.07373710  0.17028854 -0.06020609       0.005
  -0.03686855  0.14900247 -0.07525761       0.005
   0.00000000 -0.08514427 -0.01505152       0.005
   0.03686855 -0.10643034 -0.03010304       0.005
   0.07373710 -0.12771640 -0.04515457       0.005
   0.11060565 -0.14900247 -0.06020609       0.005
  -0.07373710 -0.04257213  0.01505152       0.005
  -0.03686855 -0.06385820 -0.00000000       0.005
   0.00000000 -0.04257213 -0.03010304       0.005
   0.03686855 -0.06385820 -0.04515457       0.005
   0.07373710 -0.08514427 -0.06020609       0.005
   0.11060565 -0.10643034 -0.07525761       0.005
  -0.07373710 -0.00000000 -0.00000000       0.005
  -0.03686855 -0.02128607 -0.01505152       0.005
 
 k-points in reciprocal lattice and weights: k-points                                
   0.00000000  0.00000000  0.00000000       0.005
   0.16666667  0.00000000  0.00000000       0.005
   0.33333333  0.00000000  0.00000000       0.005
   0.50000000  0.00000000  0.00000000       0.005
  -0.33333333 -0.00000000 -0.00000000       0.005
  -0.16666667 -0.00000000 -0.00000000       0.005
   0.00000000  0.16666667 -0.00000000       0.005
   0.16666667  0.16666667  0.00000000       0.005
   0.33333333  0.16666667  0.00000000       0.005
   0.50000000  0.16666667  0.00000000       0.005
  -0.33333333  0.16666667 -0.00000000       0.005
  -0.16666667  0.16666667 -0.00000000       0.005
   0.00000000  0.33333333  0.00000000       0.005
   0.16666667  0.33333333  0.00000000       0.005
   0.33333333  0.33333333  0.00000000       0.005
   0.50000000  0.33333333  0.00000000       0.005
  -0.33333333  0.33333333 -0.00000000       0.005
  -0.16666667  0.33333333 -0.00000000       0.005
   0.00000000  0.50000000  0.00000000       0.005
   0.16666667  0.50000000  0.00000000       0.005
   0.33333333  0.50000000  0.00000000       0.005
   0.50000000  0.50000000  0.00000000       0.005
  -0.33333333  0.50000000 -0.00000000       0.005
  -0.16666667  0.50000000 -0.00000000       0.005
   0.00000000 -0.33333333  0.00000000       0.005
   0.16666667 -0.33333333  0.00000000       0.005
   0.33333333 -0.33333333  0.00000000       0.005
   0.50000000 -0.33333333  0.00000000       0.005
  -0.33333333 -0.33333333 -0.00000000       0.005
  -0.16666667 -0.33333333 -0.00000000       0.005
   0.00000000 -0.16666667  0.00000000       0.005
   0.16666667 -0.16666667  0.00000000       0.005
   0.33333333 -0.16666667  0.00000000       0.005
   0.50000000 -0.16666667  0.00000000       0.005
  -0.33333333 -0.16666667 -0.00000000       0.005
  -0.16666667 -0.16666667 -0.00000000       0.005
   0.00000000 -0.00000000  0.16666667       0.005
   0.16666667  0.00000000  0.16666667       0.005
   0.33333333  0.00000000  0.16666667       0.005
   0.50000000  0.00000000  0.16666667       0.005
  -0.33333333 -0.00000000  0.16666667       0.005
  -0.16666667 -0.00000000  0.16666667       0.005
   0.00000000  0.16666667  0.16666667       0.005
   0.16666667  0.16666667  0.16666667       0.005
   0.33333333  0.16666667  0.16666667       0.005
   0.50000000  0.16666667  0.16666667       0.005
  -0.33333333  0.16666667  0.16666667       0.005
  -0.16666667  0.16666667  0.16666667       0.005
   0.00000000  0.33333333  0.16666667       0.005
   0.16666667  0.33333333  0.16666667       0.005
   0.33333333  0.33333333  0.16666667       0.005
   0.50000000  0.33333333  0.16666667       0.005
  -0.33333333  0.33333333  0.16666667       0.005
  -0.16666667  0.33333333  0.16666667       0.005
   0.00000000  0.50000000  0.16666667       0.005
   0.16666667  0.50000000  0.16666667       0.005
   0.33333333  0.50000000  0.16666667       0.005
   0.50000000  0.50000000  0.16666667       0.005
  -0.33333333  0.50000000  0.16666667       0.005
  -0.16666667  0.50000000  0.16666667       0.005
  -0.00000000 -0.33333333  0.16666667       0.005
   0.16666667 -0.33333333  0.16666667       0.005
   0.33333333 -0.33333333  0.16666667       0.005
   0.50000000 -0.33333333  0.16666667       0.005
  -0.33333333 -0.33333333  0.16666667       0.005
  -0.16666667 -0.33333333  0.16666667       0.005
  -0.00000000 -0.16666667  0.16666667       0.005
   0.16666667 -0.16666667  0.16666667       0.005
   0.33333333 -0.16666667  0.16666667       0.005
   0.50000000 -0.16666667  0.16666667       0.005
  -0.33333333 -0.16666667  0.16666667       0.005
  -0.16666667 -0.16666667  0.16666667       0.005
  -0.00000000 -0.00000000  0.33333333       0.005
   0.16666667  0.00000000  0.33333333       0.005
   0.33333333  0.00000000  0.33333333       0.005
   0.50000000  0.00000000  0.33333333       0.005
  -0.33333333 -0.00000000  0.33333333       0.005
  -0.16666667 -0.00000000  0.33333333       0.005
  -0.00000000  0.16666667  0.33333333       0.005
   0.16666667  0.16666667  0.33333333       0.005
   0.33333333  0.16666667  0.33333333       0.005
   0.50000000  0.16666667  0.33333333       0.005
  -0.33333333  0.16666667  0.33333333       0.005
  -0.16666667  0.16666667  0.33333333       0.005
  -0.00000000  0.33333333  0.33333333       0.005
   0.16666667  0.33333333  0.33333333       0.005
   0.33333333  0.33333333  0.33333333       0.005
   0.50000000  0.33333333  0.33333333       0.005
  -0.33333333  0.33333333  0.33333333       0.005
  -0.16666667  0.33333333  0.33333333       0.005
   0.00000000  0.50000000  0.33333333       0.005
   0.16666667  0.50000000  0.33333333       0.005
   0.33333333  0.50000000  0.33333333       0.005
   0.50000000  0.50000000  0.33333333       0.005
  -0.33333333  0.50000000  0.33333333       0.005
  -0.16666667  0.50000000  0.33333333       0.005
  -0.00000000 -0.33333333  0.33333333       0.005
   0.16666667 -0.33333333  0.33333333       0.005
   0.33333333 -0.33333333  0.33333333       0.005
   0.50000000 -0.33333333  0.33333333       0.005
  -0.33333333 -0.33333333  0.33333333       0.005
  -0.16666667 -0.33333333  0.33333333       0.005
  -0.00000000 -0.16666667  0.33333333       0.005
   0.16666667 -0.16666667  0.33333333       0.005
   0.33333333 -0.16666667  0.33333333       0.005
   0.50000000 -0.16666667  0.33333333       0.005
  -0.33333333 -0.16666667  0.33333333       0.005
  -0.16666667 -0.16666667  0.33333333       0.005
  -0.00000000 -0.00000000  0.50000000       0.005
   0.16666667  0.00000000  0.50000000       0.005
   0.33333333  0.00000000  0.50000000       0.005
   0.50000000  0.00000000  0.50000000       0.005
  -0.33333333 -0.00000000  0.50000000       0.005
  -0.16666667 -0.00000000  0.50000000       0.005
  -0.00000000  0.16666667  0.50000000       0.005
   0.16666667  0.16666667  0.50000000       0.005
   0.33333333  0.16666667  0.50000000       0.005
   0.50000000  0.16666667  0.50000000       0.005
  -0.33333333  0.16666667  0.50000000       0.005
  -0.16666667  0.16666667  0.50000000       0.005
  -0.00000000  0.33333333  0.50000000       0.005
   0.16666667  0.33333333  0.50000000       0.005
   0.33333333  0.33333333  0.50000000       0.005
   0.50000000  0.33333333  0.50000000       0.005
  -0.33333333  0.33333333  0.50000000       0.005
  -0.16666667  0.33333333  0.50000000       0.005
  -0.00000000  0.50000000  0.50000000       0.005
   0.16666667  0.50000000  0.50000000       0.005
   0.33333333  0.50000000  0.50000000       0.005
   0.50000000  0.50000000  0.50000000       0.005
  -0.33333333  0.50000000  0.50000000       0.005
  -0.16666667  0.50000000  0.50000000       0.005
   0.00000000 -0.33333333  0.50000000       0.005
   0.16666667 -0.33333333  0.50000000       0.005
   0.33333333 -0.33333333  0.50000000       0.005
   0.50000000 -0.33333333  0.50000000       0.005
  -0.33333333 -0.33333333  0.50000000       0.005
  -0.16666667 -0.33333333  0.50000000       0.005
   0.00000000 -0.16666667  0.50000000       0.005
   0.16666667 -0.16666667  0.50000000       0.005
   0.33333333 -0.16666667  0.50000000       0.005
   0.50000000 -0.16666667  0.50000000       0.005
  -0.33333333 -0.16666667  0.50000000       0.005
  -0.16666667 -0.16666667  0.50000000       0.005
   0.00000000  0.00000000 -0.33333333       0.005
   0.16666667  0.00000000 -0.33333333       0.005
   0.33333333  0.00000000 -0.33333333       0.005
   0.50000000  0.00000000 -0.33333333       0.005
  -0.33333333 -0.00000000 -0.33333333       0.005
  -0.16666667 -0.00000000 -0.33333333       0.005
   0.00000000  0.16666667 -0.33333333       0.005
   0.16666667  0.16666667 -0.33333333       0.005
   0.33333333  0.16666667 -0.33333333       0.005
   0.50000000  0.16666667 -0.33333333       0.005
  -0.33333333  0.16666667 -0.33333333       0.005
  -0.16666667  0.16666667 -0.33333333       0.005
   0.00000000  0.33333333 -0.33333333       0.005
   0.16666667  0.33333333 -0.33333333       0.005
   0.33333333  0.33333333 -0.33333333       0.005
   0.50000000  0.33333333 -0.33333333       0.005
  -0.33333333  0.33333333 -0.33333333       0.005
  -0.16666667  0.33333333 -0.33333333       0.005
   0.00000000  0.50000000 -0.33333333       0.005
   0.16666667  0.50000000 -0.33333333       0.005
   0.33333333  0.50000000 -0.33333333       0.005
   0.50000000  0.50000000 -0.33333333       0.005
  -0.33333333  0.50000000 -0.33333333       0.005
  -0.16666667  0.50000000 -0.33333333       0.005
   0.00000000 -0.33333333 -0.33333333       0.005
   0.16666667 -0.33333333 -0.33333333       0.005
   0.33333333 -0.33333333 -0.33333333       0.005
   0.50000000 -0.33333333 -0.33333333       0.005
  -0.33333333 -0.33333333 -0.33333333       0.005
  -0.16666667 -0.33333333 -0.33333333       0.005
   0.00000000 -0.16666667 -0.33333333       0.005
   0.16666667 -0.16666667 -0.33333333       0.005
   0.33333333 -0.16666667 -0.33333333       0.005
   0.50000000 -0.16666667 -0.33333333       0.005
  -0.33333333 -0.16666667 -0.33333333       0.005
  -0.16666667 -0.16666667 -0.33333333       0.005
   0.00000000  0.00000000 -0.16666667       0.005
   0.16666667  0.00000000 -0.16666667       0.005
   0.33333333  0.00000000 -0.16666667       0.005
   0.50000000  0.00000000 -0.16666667       0.005
  -0.33333333 -0.00000000 -0.16666667       0.005
  -0.16666667 -0.00000000 -0.16666667       0.005
   0.00000000  0.16666667 -0.16666667       0.005
   0.16666667  0.16666667 -0.16666667       0.005
   0.33333333  0.16666667 -0.16666667       0.005
   0.50000000  0.16666667 -0.16666667       0.005
  -0.33333333  0.16666667 -0.16666667       0.005
  -0.16666667  0.16666667 -0.16666667       0.005
   0.00000000  0.33333333 -0.16666667       0.005
   0.16666667  0.33333333 -0.16666667       0.005
   0.33333333  0.33333333 -0.16666667       0.005
   0.50000000  0.33333333 -0.16666667       0.005
  -0.33333333  0.33333333 -0.16666667       0.005
  -0.16666667  0.33333333 -0.16666667       0.005
  -0.00000000  0.50000000 -0.16666667       0.005
   0.16666667  0.50000000 -0.16666667       0.005
   0.33333333  0.50000000 -0.16666667       0.005
   0.50000000  0.50000000 -0.16666667       0.005
  -0.33333333  0.50000000 -0.16666667       0.005
  -0.16666667  0.50000000 -0.16666667       0.005
  -0.00000000 -0.33333333 -0.16666667       0.005
   0.16666667 -0.33333333 -0.16666667       0.005
   0.33333333 -0.33333333 -0.16666667       0.005
   0.50000000 -0.33333333 -0.16666667       0.005
  -0.33333333 -0.33333333 -0.16666667       0.005
  -0.16666667 -0.33333333 -0.16666667       0.005
  -0.00000000 -0.16666667 -0.16666667       0.005
   0.16666667 -0.16666667 -0.16666667       0.005
   0.33333333 -0.16666667 -0.16666667       0.005
   0.50000000 -0.16666667 -0.16666667       0.005
  -0.33333333 -0.16666667 -0.16666667       0.005
  -0.16666667 -0.16666667 -0.16666667       0.005
 
 position of ions in fractional coordinates (direct lattice) 
   0.00000000  0.00000000  0.00000000
 
 position of ions in cartesian coordinates  (Angst):
   0.00000000  0.00000000  0.00000000
 
 Euler angles ALPHA=     0.0000000  BETA=     0.0000000

 transformation matrix from SAXIS to cartesian coordinates
 ---------------------------------------------------------
     1.0000000 m_x     0.0000000 m_y     0.0000000 m_z
     0.0000000 m_x     1.0000000 m_y     0.0000000 m_z
     0.0000000 m_x     0.0000000 m_y     1.0000000 m_z

 transformation matrix from cartesian coordinates to SAXIS
 ---------------------------------------------------------
     1.0000000 m_x     0.0000000 m_y     0.0000000 m_z
     0.0000000 m_x     1.0000000 m_y     0.0000000 m_z
     0.0000000 m_x     0.0000000 m_y     1.0000000 m_z




--------------------------------------------------------------------------------------------------------


 k-point  1 :   0.0000 0.0000 0.0000  plane waves:    1450
 k-point  2 :   0.1667 0.0000 0.0000  plane waves:    1424
 k-point  3 :   0.3333 0.0000 0.0000  plane waves:    1490
 k-point  4 :   0.5000 0.0000 0.0000  plane waves:    1436
 k-point  5 :  -0.3333-0.0000-0.0000  plane waves:    1490
 k-point  6 :  -0.1667-0.0000-0.0000  plane waves:    1424
 k-point  7 :   0.0000 0.1667-0.0000  plane waves:    1424
 k-point  8 :   0.1667 0.1667 0.0000  plane waves:    1418
 k-point  9 :   0.3333 0.1667 0.0000  plane waves:    1436
 k-point 10 :   0.5000 0.1667 0.0000  plane waves:    1428
 k-point 11 :  -0.3333 0.1667-0.0000  plane waves:    1434
 k-point 12 :  -0.1667 0.1667-0.0000  plane waves:    1440
 k-point 13 :   0.0000 0.3333 0.0000  plane waves:    1490
 k-point 14 :   0.1667 0.3333 0.0000  plane waves:    1436
 k-point 15 :   0.3333 0.3333 0.0000  plane waves:    1434
 k-point 16 :   0.5000 0.3333 0.0000  plane waves:    1430
 k-point 17 :  -0.3333 0.3333-0.0000  plane waves:    1432
 k-point 18 :  -0.1667 0.3333-0.0000  plane waves:    1434
 k-point 19 :   0.0000 0.5000 0.0000  plane waves:    1436
 k-point 20 :   0.1667 0.5000 0.0000  plane waves:    1428
 k-point 21 :   0.3333 0.5000 0.0000  plane waves:    1430
 k-point 22 :   0.5000 0.5000 0.0000  plane waves:    1448
 k-point 23 :  -0.3333 0.5000-0.0000  plane waves:    1430
 k-point 24 :  -0.1667 0.5000-0.0000  plane waves:    1428
 k-point 25 :   0.0000-0.3333 0.0000  plane waves:    1490
 k-point 26 :   0.1667-0.3333 0.0000  plane waves:    1434
 k-point 27 :   0.3333-0.3333 0.0000  plane waves:    1432
 k-point 28 :   0.5000-0.3333 0.0000  plane waves:    1430
 k-point 29 :  -0.3333-0.3333-0.0000  plane waves:    1434
 k-point 30 :  -0.1667-0.3333-0.0000  plane waves:    1436
 k-point 31 :   0.0000-0.1667 0.0000  plane waves:    1424
 k-point 32 :   0.1667-0.1667 0.0000  plane waves:    1440
 k-point 33 :   0.3333-0.1667 0.0000  plane waves:    1434
 k-point 34 :   0.5000-0.1667 0.0000  plane waves:    1428
 k-point 35 :  -0.3333-0.1667-0.0000  plane waves:    1436
 k-point 36 :  -0.1667-0.1667-0.0000  plane waves:    1418
 k-point 37 :   0.0000-0.0000 0.1667  plane waves:    1424
 k-point 38 :   0.1667 0.0000 0.1667  plane waves:    1418
 k-point 39 :   0.3333 0.0000 0.1667  plane waves:    1436
 k-point 40 :   0.5000 0.0000 0.1667  plane waves:    1428
 k-point 41 :  -0.3333-0.0000 0.1667  plane waves:    1434
 k-point 42 :  -0.1667-0.0000 0.1667  plane waves:    1440
 k-point 43 :   0.0000 0.1667 0.1667  plane waves:    1418
 k-point 44 :   0.1667 0.1667 0.1667  plane waves:    1424
 k-point 45 :   0.3333 0.1667 0.1667  plane waves:    1440
 k-point 46 :   0.5000 0.1667 0.1667  plane waves:    1434
 k-point 47 :  -0.3333 0.1667 0.1667  plane waves:    1428
 k-point 48 :  -0.1667 0.1667 0.1667  plane waves:    1436
 k-point 49 :   0.0000 0.3333 0.1667  plane waves:    1436
 k-point 50 :   0.1667 0.3333 0.1667  plane waves:    1440
 k-point 51 :   0.3333 0.3333 0.1667  plane waves:    1436
 k-point 52 :   0.5000 0.3333 0.1667  plane waves:    1434
 k-point 53 :  -0.3333 0.3333 0.1667  plane waves:    1444
 k-point 54 :  -0.1667 0.3333 0.1667  plane waves:    1434
 k-point 55 :   0.0000 0.5000 0.1667  plane waves:    1428
 k-point 56 :   0.1667 0.5000 0.1667  plane waves:    1434
 k-point 57 :   0.3333 0.5000 0.1667  plane waves:    1434
 k-point 58 :   0.5000 0.5000 0.1667  plane waves:    1430
 k-point 59 :  -0.3333 0.5000 0.1667  plane waves:    1436
 k-point 60 :  -0.1667 0.5000 0.1667  plane waves:    1444
 k-point 61 :  -0.0000-0.3333 0.1667  plane waves:    1434
 k-point 62 :   0.1667-0.3333 0.1667  plane waves:    1428
 k-point 63 :   0.3333-0.3333 0.1667  plane waves:    1444
 k-point 64 :   0.5000-0.3333 0.1667  plane waves:    1436
 k-point 65 :  -0.3333-0.3333 0.1667  plane waves:    1430
 k-point 66 :  -0.1667-0.3333 0.1667  plane waves:    1434
 k-point 67 :  -0.0000-0.1667 0.1667  plane waves:    1440
 k-point 68 :   0.1667-0.1667 0.1667  plane waves:    1436
 k-point 69 :   0.3333-0.1667 0.1667  plane waves:    1434
 k-point 70 :   0.5000-0.1667 0.1667  plane waves:    1444
 k-point 71 :  -0.3333-0.1667 0.1667  plane waves:    1434
 k-point 72 :  -0.1667-0.1667 0.1667  plane waves:    1436
 k-point 73 :  -0.0000-0.0000 0.3333  plane waves:    1490
 k-point 74 :   0.1667 0.0000 0.3333  plane waves:    1436
 k-point 75 :   0.3333 0.0000 0.3333  plane waves:    1434
 k-point 76 :   0.5000 0.0000 0.3333  plane waves:    1430
 k-point 77 :  -0.3333-0.0000 0.3333  plane waves:    1432
 k-point 78 :  -0.1667-0.0000 0.3333  plane waves:    1434
 k-point 79 :  -0.0000 0.1667 0.3333  plane waves:    1436
 k-point 80 :   0.1667 0.1667 0.3333  plane waves:    1440
 k-point 81 :   0.3333 0.1667 0.3333  plane waves:    1436
 k-point 82 :   0.5000 0.1667 0.3333  plane waves:    1434
 k-point 83 :  -0.3333 0.1667 0.3333  plane waves:    1444
 k-point 84 :  -0.1667 0.1667 0.3333  plane waves:    1434
 k-point 85 :  -0.0000 0.3333 0.3333  plane waves:    1434
 k-point 86 :   0.1667 0.3333 0.3333  plane waves:    1436
 k-point 87 :   0.3333 0.3333 0.3333  plane waves:    1490
 k-point 88 :   0.5000 0.3333 0.3333  plane waves:    1434
 k-point 89 :  -0.3333 0.3333 0.3333  plane waves:    1432
 k-point 90 :  -0.1667 0.3333 0.3333  plane waves:    1430
 k-point 91 :   0.0000 0.5000 0.3333  plane waves:    1430
 k-point 92 :   0.1667 0.5000 0.3333  plane waves:    1434
 k-point 93 :   0.3333 0.5000 0.3333  plane waves:    1434
 k-point 94 :   0.5000 0.5000 0.3333  plane waves:    1428
[...]
   KRAMKRO:  cpu time    0.0283: real time    0.0283
   TWOEINT:  cpu time    1.7790: real time    1.7781
   KRAMKRO:  cpu time    0.0097: real time    0.0097
   TWOEINT:  cpu time    2.1711: real time    2.1823
   KRAMKRO:  cpu time    0.0097: real time    0.0097
   TWOEINT:  cpu time    1.7266: real time    1.7258
   KRAMKRO:  cpu time    0.0155: real time    0.0155
   TWOEINT:  cpu time    2.1633: real time    2.1626
   KRAMKRO:  cpu time    0.0265: real time    0.0265
   TWOEINT:  cpu time    1.7292: real time    1.7284
   KRAMKRO:  cpu time    0.0274: real time    0.0273
   TWOEINT:  cpu time    2.2047: real time    2.2037
   KRAMKRO:  cpu time    0.0119: real time    0.0119
   TWOEINT:  cpu time    1.7120: real time    1.7111
   KRAMKRO:  cpu time    0.0234: real time    0.0234
   TWOEINT:  cpu time    2.2090: real time    2.2080
   KRAMKRO:  cpu time    0.0096: real time    0.0096
   TWOEINT:  cpu time    1.7013: real time    1.7006
   KRAMKRO:  cpu time    0.0126: real time    0.0126
   TWOEINT:  cpu time    2.2189: real time    2.2188
   KRAMKRO:  cpu time    0.0188: real time    0.0188
   TWOEINT:  cpu time    1.7103: real time    1.7096
   KRAMKRO:  cpu time    0.0096: real time    0.0096
   TWOEINT:  cpu time    2.2364: real time    2.2354
   KRAMKRO:  cpu time    0.0099: real time    0.0099
   TWOEINT:  cpu time    1.6809: real time    1.6801
   KRAMKRO:  cpu time    0.0097: real time    0.0097
   TWOEINT:  cpu time    2.2097: real time    2.2089
   KRAMKRO:  cpu time    0.0097: real time    0.0097
   TWOEINT:  cpu time    1.6642: real time    1.6634
   KRAMKRO:  cpu time    0.0097: real time    0.0097
   TWOEINT:  cpu time    2.2382: real time    2.2370
   KRAMKRO:  cpu time    0.0242: real time    0.0242
   TWOEINT:  cpu time    1.6601: real time    1.6766
   KRAMKRO:  cpu time    0.0097: real time    0.0097
   TWOEINT:  cpu time    2.3256: real time    2.3247
   KRAMKRO:  cpu time    0.0132: real time    0.0132
   TWOEINT:  cpu time    1.6806: real time    1.6799
   KRAMKRO:  cpu time    0.0102: real time    0.0102
   TWOEINT:  cpu time    2.3468: real time    2.3462
   KRAMKRO:  cpu time    0.0099: real time    0.0099
   TWOEINT:  cpu time    1.6548: real time    1.6540
   KRAMKRO:  cpu time    0.0105: real time    0.0104
   TWOEINT:  cpu time    2.3106: real time    2.3097
   KRAMKRO:  cpu time    0.0098: real time    0.0098
   TWOEINT:  cpu time    1.6576: real time    1.6568
   KRAMKRO:  cpu time    0.0097: real time    0.0097
   TWOEINT:  cpu time    2.3271: real time    2.3259
   KRAMKRO:  cpu time    0.0096: real time    0.0096
   TWOEINT:  cpu time    1.7070: real time    1.7062
   KRAMKRO:  cpu time    0.0107: real time    0.0107
   TWOEINT:  cpu time    2.2961: real time    2.2951
   KRAMKRO:  cpu time    0.0754: real time    0.0753
   TWOEINT:  cpu time    1.7417: real time    1.7413
   KRAMKRO:  cpu time    0.0100: real time    0.0100
   TWOEINT:  cpu time    2.3227: real time    2.3215
   KRAMKRO:  cpu time    0.0097: real time    0.0097
   TWOEINT:  cpu time    1.6755: real time    1.6748
   KRAMKRO:  cpu time    0.0096: real time    0.0096
   TWOEINT:  cpu time    2.2418: real time    2.2408
   KRAMKRO:  cpu time    0.0511: real time    0.0511
   TWOEINT:  cpu time    1.6699: real time    1.6691
   KRAMKRO:  cpu time    0.0097: real time    0.0097
   TWOEINT:  cpu time    2.2860: real time    2.2924
   KRAMKRO:  cpu time    0.0380: real time    0.0380
   TWOEINT:  cpu time    1.6832: real time    1.6824
   KRAMKRO:  cpu time    0.0109: real time    0.0109
   TWOEINT:  cpu time    2.3121: real time    2.3114
   KRAMKRO:  cpu time    0.0480: real time    0.0479
   TWOEINT:  cpu time    1.6829: real time    1.6821
   KRAMKRO:  cpu time    0.0103: real time    0.0103
   TWOEINT:  cpu time    2.3352: real time    2.3340
   KRAMKRO:  cpu time    0.0458: real time    0.0458
   TWOEINT:  cpu time    1.6163: real time    1.6324
   KRAMKRO:  cpu time    0.0174: real time    0.0176
   TWOEINT:  cpu time    2.3981: real time    2.4122
   KRAMKRO:  cpu time    0.0119: real time    0.0119
   TWOEINT:  cpu time    1.6609: real time    1.6603
   KRAMKRO:  cpu time    0.0097: real time    0.0097
   TWOEINT:  cpu time    2.3932: real time    2.3920
   KRAMKRO:  cpu time    0.0098: real time    0.0098
   TWOEINT:  cpu time    1.6674: real time    1.6667
   KRAMKRO:  cpu time    0.0097: real time    0.0097
   TWOEINT:  cpu time    2.4647: real time    2.4642
   KRAMKRO:  cpu time    0.0342: real time    0.0342
   TWOEINT:  cpu time    1.7528: real time    1.7520
   KRAMKRO:  cpu time    0.0097: real time    0.0096
   TWOEINT:  cpu time    2.4908: real time    2.4897
   KRAMKRO:  cpu time    0.0258: real time    0.0258
   TWOEINT:  cpu time    1.7389: real time    1.7385
   KRAMKRO:  cpu time    0.0097: real time    0.0096
   TWOEINT:  cpu time    2.5876: real time    2.5866
   KRAMKRO:  cpu time    0.0240: real time    0.0240
   TWOEINT:  cpu time    1.7550: real time    1.7541
   KRAMKRO:  cpu time    0.0098: real time    0.0097
   TWOEINT:  cpu time    2.6906: real time    2.6895
   KRAMKRO:  cpu time    0.0097: real time    0.0097
   TWOEINT:  cpu time    1.8002: real time    1.7994
   KRAMKRO:  cpu time    0.0100: real time    0.0100
   TWOEINT:  cpu time    2.7656: real time    2.7642
   KRAMKRO:  cpu time    0.0101: real time    0.0101
   TWOEINT:  cpu time    1.7220: real time    1.7221
   KRAMKRO:  cpu time    0.0097: real time    0.0097
   TWOEINT:  cpu time    2.8072: real time    2.8058
   KRAMKRO:  cpu time    0.0098: real time    0.0097
   TWOEINT:  cpu time    1.7318: real time    1.7311
   KRAMKRO:  cpu time    0.0097: real time    0.0097
   TWOEINT:  cpu time    2.9174: real time    2.9161
   KRAMKRO:  cpu time    0.0097: real time    0.0096
   TWOEINT:  cpu time    1.7212: real time    1.7206
   KRAMKRO:  cpu time    0.0097: real time    0.0097
   TWOEINT:  cpu time    3.1229: real time    3.1214
   KRAMKRO:  cpu time    0.0097: real time    0.0097
   TWOEINT:  cpu time    1.6753: real time    1.6746
   KRAMKRO:  cpu time    0.0097: real time    0.0097
   TWOEINT:  cpu time    3.3856: real time    3.3841
   KRAMKRO:  cpu time    0.0728: real time    0.0727
   TWOEINT:  cpu time    1.6707: real time    1.6709
   KRAMKRO:  cpu time    0.0096: real time    0.0096
   TWOEINT:  cpu time    3.7472: real time    3.7508
   KRAMKRO:  cpu time    0.0801: real time    0.0809
   TWOEINT:  cpu time    1.6316: real time    1.6556
   KRAMKRO:  cpu time    0.0095: real time    0.0098
   TWOEINT:  cpu time    4.2012: real time    4.2637
   KRAMKRO:  cpu time    0.0097: real time    0.0097
   TWOEINT:  cpu time    1.6425: real time    1.6671
   KRAMKRO:  cpu time    0.0097: real time    0.0097
   TWOEINT:  cpu time    4.8463: real time    4.8649
   KRAMKRO:  cpu time    0.0097: real time    0.0097
   TWOEINT:  cpu time    1.6450: real time    1.6455
   KRAMKRO:  cpu time    0.0141: real time    0.0141
   TWOEINT:  cpu time    5.3063: real time    5.3063
   KRAMKRO:  cpu time    0.0097: real time    0.0097
   TWOEINT:  cpu time    1.6578: real time    1.6573
   KRAMKRO:  cpu time    0.0108: real time    0.0108
   TWOEINT:  cpu time    5.6773: real time    5.6863
   KRAMKRO:  cpu time    0.0097: real time    0.0097
   TWOEINT:  cpu time    1.6619: real time    1.6612
   KRAMKRO:  cpu time    0.0097: real time    0.0097
   TWOEINT:  cpu time    6.4025: real time    6.4003
   KRAMKRO:  cpu time    0.0101: real time    0.0101
   TWOEINT:  cpu time    1.6608: real time    1.6605
   KRAMKRO:  cpu time    0.0097: real time    0.0097
   TWOEINT:  cpu time    7.5497: real time    7.5464
   KRAMKRO:  cpu time    0.0097: real time    0.0097
   TWOEINT:  cpu time    1.6687: real time    1.6684
   KRAMKRO:  cpu time    0.0097: real time    0.0097
   TWOEINT:  cpu time    9.1485: real time    9.1446
   KRAMKRO:  cpu time    0.0097: real time    0.0097
   TWOEINT:  cpu time    1.6843: real time    1.6843
   KRAMKRO:  cpu time    0.0097: real time    0.0097
   TWOEINT:  cpu time   11.5238: real time   11.5191
   KRAMKRO:  cpu time    0.0097: real time    0.0097
   TWOEINT:  cpu time    1.6577: real time    1.6568
   KRAMKRO:  cpu time    0.0097: real time    0.0097
   TWOEINT:  cpu time   14.9294: real time   14.9237
   KRAMKRO:  cpu time    0.0097: real time    0.0097
   TWOEINT:  cpu time    1.6688: real time    1.6683
   KRAMKRO:  cpu time    0.0097: real time    0.0096
   TWOEINT:  cpu time   15.2202: real time   15.2136
   KRAMKRO:  cpu time    0.0101: real time    0.0100
   TWOEINT:  cpu time    1.6616: real time    1.6608
   KRAMKRO:  cpu time    0.0096: real time    0.0096
   TWOEINT:  cpu time   11.9258: real time   11.9208
   KRAMKRO:  cpu time    0.0098: real time    0.0098
   TWOEINT:  cpu time    1.6647: real time    1.6739
   KRAMKRO:  cpu time    0.0097: real time    0.0097
   TWOEINT:  cpu time    8.4025: real time    8.4047
   KRAMKRO:  cpu time    0.0118: real time    0.0125
   TWOEINT:  cpu time    1.6293: real time    1.6319
   KRAMKRO:  cpu time    0.0115: real time    0.0115
   TWOEINT:  cpu time    4.1387: real time    4.1493
   KRAMKRO:  cpu time    0.0123: real time    0.0123
   TWOEINT:  cpu time    1.6604: real time    1.6670
        GW:  cpu time  330.2085: real time  330.3537
 
 performed     659776000 updates of chi_q(r,r)
 total number of BLAS operations   795132.15 Gflops


--------------------------------------------------------------------------------------------------------


NQ=  53   -0.3333    0.3333    0.1667, 
       CHI:  cpu time    0.4440: real time    0.4437
   KRAMKRO:  cpu time    0.0114: real time    0.0114
       CHI:  cpu time    0.4443: real time    0.4442
   KRAMKRO:  cpu time    0.0112: real time    0.0112
       CHI:  cpu time    0.4444: real time    0.4442
   KRAMKRO:  cpu time    0.0115: real time    0.0115
       CHI:  cpu time    0.4451: real time    0.4449
   KRAMKRO:  cpu time    0.0114: real time    0.0114
       CHI:  cpu time    0.4442: real time    0.4438
   KRAMKRO:  cpu time    0.0114: real time    0.0114
       CHI:  cpu time    0.4449: real time    0.4457
   KRAMKRO:  cpu time    0.0114: real time    0.0114
       CHI:  cpu time    0.4428: real time    0.4425
   KRAMKRO:  cpu time    0.0154: real time    0.0153
       CHI:  cpu time    0.4489: real time    0.4488
   KRAMKRO:  cpu time    0.0195: real time    0.0195
       CHI:  cpu time    0.4610: real time    0.4609
   KRAMKRO:  cpu time    0.0143: real time    0.0143
       CHI:  cpu time    0.4696: real time    0.4694
   KRAMKRO:  cpu time    0.0112: real time    0.0112
       CHI:  cpu time    0.4731: real time    0.4727
   KRAMKRO:  cpu time    0.0114: real time    0.0114
       CHI:  cpu time    0.4711: real time    0.4710
   KRAMKRO:  cpu time    0.0129: real time    0.0129
       CHI:  cpu time    0.4754: real time    0.4751
   KRAMKRO:  cpu time    0.0114: real time    0.0114
       CHI:  cpu time    0.4707: real time    0.4706
   KRAMKRO:  cpu time    0.0199: real time    0.0198
       CHI:  cpu time    0.4757: real time    0.4755
   KRAMKRO:  cpu time    0.0197: real time    0.0197
       CHI:  cpu time    0.4910: real time    0.4909
   KRAMKRO:  cpu time    0.0136: real time    0.0136
       CHI:  cpu time    0.4966: real time    0.4964
   KRAMKRO:  cpu time    0.0156: real time    0.0156
       CHI:  cpu time    0.4962: real time    0.4959
   KRAMKRO:  cpu time    0.0125: real time    0.0125
       CHI:  cpu time    0.4942: real time    0.4940
   KRAMKRO:  cpu time    0.0194: real time    0.0194
       CHI:  cpu time    0.4996: real time    0.4993
   KRAMKRO:  cpu time    0.0163: real time    0.0163
       CHI:  cpu time    0.5024: real time    0.5022
   KRAMKRO:  cpu time    0.0136: real time    0.0136
       CHI:  cpu time    0.5003: real time    0.5001
   KRAMKRO:  cpu time    0.0114: real time    0.0114
       CHI:  cpu time    0.4965: real time    0.4962
   KRAMKRO:  cpu time    0.0132: real time    0.0132
       CHI:  cpu time    0.5031: real time    0.5030
   KRAMKRO:  cpu time    0.0115: real time    0.0115
       CHI:  cpu time    0.5064: real time    0.5060
   KRAMKRO:  cpu time    0.0121: real time    0.0121
       CHI:  cpu time    0.5011: real time    0.5010
   KRAMKRO:  cpu time    0.0172: real time    0.0172
       CHI:  cpu time    0.5145: real time    0.5401
   KRAMKRO:  cpu time    0.0113: real time    0.0113
       CHI:  cpu time    0.5267: real time    0.5265
   KRAMKRO:  cpu time    0.0139: real time    0.0139
       CHI:  cpu time    0.5166: real time    0.5164
   KRAMKRO:  cpu time    0.0218: real time    0.0218
       CHI:  cpu time    0.5273: real time    0.5270
   KRAMKRO:  cpu time    0.0123: real time    0.0123
       CHI:  cpu time    0.5334: real time    0.5332
   KRAMKRO:  cpu time    0.0143: real time    0.0143
       CHI:  cpu time    0.5378: real time    0.5375
   KRAMKRO:  cpu time    0.0124: real time    0.0124
       CHI:  cpu time    0.5463: real time    0.5461
   KRAMKRO:  cpu time    0.0115: real time    0.0115
       CHI:  cpu time    0.5612: real time    0.5610
   KRAMKRO:  cpu time    0.0173: real time    0.0173
       CHI:  cpu time    0.5864: real time    0.5862
   KRAMKRO:  cpu time    0.0186: real time    0.0186
       CHI:  cpu time    0.6375: real time    0.6372
   KRAMKRO:  cpu time    0.0121: real time    0.0121
       CHI:  cpu time    0.6899: real time    0.6895
   KRAMKRO:  cpu time    0.0116: real time    0.0116
       CHI:  cpu time    0.7516: real time    0.7515
   KRAMKRO:  cpu time    0.0116: real time    0.0116
       CHI:  cpu time    0.8539: real time    0.8535
   KRAMKRO:  cpu time    0.0308: real time    0.0308
       CHI:  cpu time    0.9690: real time    0.9686
   KRAMKRO:  cpu time    0.0151: real time    0.0151
       CHI:  cpu time    1.0444: real time    1.0440
   KRAMKRO:  cpu time    0.0120: real time    0.0120
       CHI:  cpu time    1.1609: real time    1.1603
   KRAMKRO:  cpu time    0.0120: real time    0.0120
       CHI:  cpu time    1.3423: real time    1.3418
   KRAMKRO:  cpu time    0.0121: real time    0.0121
       CHI:  cpu time    1.6211: real time    1.6203
   KRAMKRO:  cpu time    0.0127: real time    0.0127
       CHI:  cpu time    2.0056: real time    2.0046
   KRAMKRO:  cpu time    0.0132: real time    0.0132
       CHI:  cpu time    2.5487: real time    2.5688
   KRAMKRO:  cpu time    0.0144: real time    0.0144
       CHI:  cpu time    3.4917: real time    3.4901
   KRAMKRO:  cpu time    0.0149: real time    0.0149
       CHI:  cpu time    4.0243: real time    4.0222
   KRAMKRO:  cpu time    0.0149: real time    0.0149
       CHI:  cpu time    3.2058: real time    3.2043
   KRAMKRO:  cpu time    0.0152: real time    0.0152
       CHI:  cpu time    1.4397: real time    1.4417
   KRAMKRO:  cpu time    0.0128: real time    0.0128
    LFIELD:  cpu time    0.0000: real time    0.0000
  XI_LOCAL:  cpu time    0.0370: real time    0.0372
  XI_RED_T:  cpu time    0.0023: real time    0.0023
   XI_TO_W:  cpu time    0.0018: real time    0.0018
   KRAMKRO:  cpu time    0.0133: real time    0.0219
   TWOEINT:  cpu time    2.0083: real time    2.0073
   KRAMKRO:  cpu time    0.0223: real time    0.0223
   TWOEINT:  cpu time    1.9887: real time    1.9879
   KRAMKRO:  cpu time    0.0097: real time    0.0096
   TWOEINT:  cpu time    2.2121: real time    2.2112
   KRAMKRO:  cpu time    0.0098: real time    0.0098
   TWOEINT:  cpu time    2.1405: real time    2.1394
   KRAMKRO:  cpu time    0.0096: real time    0.0096
   TWOEINT:  cpu time    2.1512: real time    2.1501
   KRAMKRO:  cpu time    0.0096: real time    0.0096
   TWOEINT:  cpu time    1.9351: real time    1.9342
   KRAMKRO:  cpu time    0.0520: real time    0.0521
   TWOEINT:  cpu time    2.1581: real time    2.1572
   KRAMKRO:  cpu time    0.0403: real time    0.0403
   TWOEINT:  cpu time    1.9892: real time    1.9892
   KRAMKRO:  cpu time    0.0097: real time    0.0097
   TWOEINT:  cpu time    2.1613: real time    2.1615
   KRAMKRO:  cpu time    0.0097: real time    0.0097
   TWOEINT:  cpu time    1.9272: real time    1.9262
   KRAMKRO:  cpu time    0.0098: real time    0.0097
   TWOEINT:  cpu time    2.1361: real time    2.1350
   KRAMKRO:  cpu time    0.0096: real time    0.0096
   TWOEINT:  cpu time    1.8067: real time    1.8060
   KRAMKRO:  cpu time    0.0097: real time    0.0097
   TWOEINT:  cpu time    2.1596: real time    2.1588
   KRAMKRO:  cpu time    0.0096: real time    0.0096
   TWOEINT:  cpu time    1.7775: real time    1.7767
   KRAMKRO:  cpu time    0.0098: real time    0.0098
   TWOEINT:  cpu time    2.2107: real time    2.2100
   KRAMKRO:  cpu time    0.0169: real time    0.0169
   TWOEINT:  cpu time    1.7477: real time    1.7469
   KRAMKRO:  cpu time    0.0098: real time    0.0098
   TWOEINT:  cpu time    2.2098: real time    2.2100
   KRAMKRO:  cpu time    0.0100: real time    0.0100
   TWOEINT:  cpu time    1.7612: real time    1.7604
   KRAMKRO:  cpu time    0.0156: real time    0.0156
   TWOEINT:  cpu time    2.2174: real time    2.2164
   KRAMKRO:  cpu time    0.0116: real time    0.0116
   TWOEINT:  cpu time    1.6903: real time    1.6895
   KRAMKRO:  cpu time    0.0528: real time    0.0527
   TWOEINT:  cpu time    2.2338: real time    2.2327
   KRAMKRO:  cpu time    0.0096: real time    0.0098
   TWOEINT:  cpu time    1.7038: real time    1.7029
   KRAMKRO:  cpu time    0.0126: real time    0.0126
   TWOEINT:  cpu time    2.2039: real time    2.2029
   KRAMKRO:  cpu time    0.0098: real time    0.0097
   TWOEINT:  cpu time    1.7222: real time    1.7215
   KRAMKRO:  cpu time    0.0097: real time    0.0097
   TWOEINT:  cpu time    2.2326: real time    2.2325
   KRAMKRO:  cpu time    0.0097: real time    0.0097
   TWOEINT:  cpu time    1.6735: real time    1.6729
   KRAMKRO:  cpu time    0.0097: real time    0.0097
   TWOEINT:  cpu time    2.2327: real time    2.2318
   KRAMKRO:  cpu time    0.0098: real time    0.0097
   TWOEINT:  cpu time    1.6594: real time    1.6587
   KRAMKRO:  cpu time    0.0097: real time    0.0097
   TWOEINT:  cpu time    2.2722: real time    2.2710
   KRAMKRO:  cpu time    0.0209: real time    0.0208
   TWOEINT:  cpu time    1.6619: real time    1.6613
   KRAMKRO:  cpu time    0.0097: real time    0.0096
   TWOEINT:  cpu time    2.2675: real time    2.2666
   KRAMKRO:  cpu time    0.0157: real time    0.0157
   TWOEINT:  cpu time    1.6781: real time    1.6772
   KRAMKRO:  cpu time    0.0097: real time    0.0097
   TWOEINT:  cpu time    2.2810: real time    2.2803
   KRAMKRO:  cpu time    0.0297: real time    0.0297
   TWOEINT:  cpu time    1.6691: real time    1.6799
   KRAMKRO:  cpu time    0.1203: real time    0.1202
   TWOEINT:  cpu time    2.2902: real time    2.3243
   KRAMKRO:  cpu time    0.0101: real time    0.0101
   TWOEINT:  cpu time    1.6182: real time    1.6173
   KRAMKRO:  cpu time    0.3590: real time    0.3589
   TWOEINT:  cpu time    2.3255: real time    2.3246
   KRAMKRO:  cpu time    0.1147: real time    0.1147
   TWOEINT:  cpu time    1.7256: real time    1.7247
   KRAMKRO:  cpu time    0.0160: real time    0.0160
   TWOEINT:  cpu time    2.2845: real time    2.2849
   KRAMKRO:  cpu time    0.0825: real time    0.0824
   TWOEINT:  cpu time    1.7296: real time    1.7289
   KRAMKRO:  cpu time    0.0122: real time    0.0122
   TWOEINT:  cpu time    2.2774: real time    2.2765
   KRAMKRO:  cpu time    0.0568: real time    0.0567
   TWOEINT:  cpu time    1.6889: real time    1.6882
   KRAMKRO:  cpu time    0.0097: real time    0.0096
   TWOEINT:  cpu time    2.2841: real time    2.2829
   KRAMKRO:  cpu time    0.0149: real time    0.0148
   TWOEINT:  cpu time    1.6715: real time    1.6710
   KRAMKRO:  cpu time    0.0097: real time    0.0097
   TWOEINT:  cpu time    2.2865: real time    2.2885
   KRAMKRO:  cpu time    0.0397: real time    0.0396
   TWOEINT:  cpu time    1.6863: real time    1.6855
   KRAMKRO:  cpu time    0.0098: real time    0.0097
