<?xml version="1.0" encoding="ISO-8859-1"?>
<modeling>
 <generator>
  <i name="program" type="string">vasp </i>
  <i name="version" type="string">5.4.4.18Apr17-6-g9f103f2a35  </i>
  <i name="subversion" type="string">(build Jul 09 2018 16:43:14) complex            parallel </i>
  <i name="platform" type="string">LinuxIFC </i>
  <i name="date" type="string">2018 12 04 </i>
  <i name="time" type="string">00:17:32 </i>
 </generator>
 <incar>
  <i type="string" name="SYSTEM">   Og_FCC</i>
  <i type="string" name="PREC">accurate</i>
  <i type="string" name="ALGO">   QPGW</i>
  <i type="logical" name="ADDGRID"> T  </i>
  <i type="logical" name="LSORBIT"> T  </i>
  <i type="int" name="ISPIN">     1</i>
  <i type="int" name="MAXMIX">    50</i>
  <i type="int" name="NELM">     1</i>
  <i type="int" name="IBRION">    -1</i>
  <i type="int" name="NFREE">     5</i>
  <i name="EDIFF">      0.00000001</i>
  <i name="EDIFFG">      0.00001000</i>
  <i type="int" name="NSW">     1</i>
  <i type="int" name="ISIF">     3</i>
  <i type="int" name="ISYM">     0</i>
  <i name="SYMPREC">      0.00000010</i>
  <i name="ENCUT">    300.00000000</i>
  <i type="int" name="NBANDS">   128</i>
  <i name="POTIM">      0.10000000</i>
  <i type="logical" name="LREAL"> F  </i>
  <i type="int" name="ISMEAR">     0</i>
  <i name="SIGMA">      0.00100000</i>
  <i type="int" name="NWRITE">     1</i>
  <i type="logical" name="LWAVE"> T  </i>
  <i type="logical" name="LCHARG"> F  </i>
  <i type="logical" name="LVTOT"> F  </i>
  <i type="logical" name="GGA_COMPAT"> F  </i>
  <i type="int" name="NOMEGA">    50</i>
  <v type="int" name="KPOINT_BSE">    -1     0     0     0</v>
  <i type="logical" name="LSPECTRAL"> T  </i>
  <i type="int" name="NELM">     1</i>
  <i type="string" name="GGA"> PE</i>
 </incar>
 <structure name="primitive_cell" >
  <crystal>
   <varray name="basis" >
    <v>       3.74748430       0.00000000       0.00000000 </v>
    <v>       1.87374215       3.24541660      -0.00000000 </v>
    <v>       1.87374215       1.08180553       3.05980811 </v>
   </varray>
   <i name="volume">     37.21383833 </i>
   <varray name="rec_basis" >
    <v>       0.26684568      -0.15406343      -0.10893929 </v>
    <v>       0.00000000       0.30812685      -0.10893929 </v>
    <v>      -0.00000000       0.00000000       0.32681788 </v>
   </varray>
  </crystal>
  <varray name="positions" >
   <v>       0.00000000       0.00000000       0.00000000 </v>
  </varray>
 </structure>
 <varray name="primitive_index" >
  <v type="int" >        1 </v>
 </varray>
 <kpoints>
  <generation param="Gamma">
   <v type="int" name="divisions">       6        6        6 </v>
   <v name="usershift">      0.00000000       0.00000000       0.00000000 </v>
   <v name="genvec1">      0.16666667       0.00000000       0.00000000 </v>
   <v name="genvec2">      0.00000000       0.16666667       0.00000000 </v>
   <v name="genvec3">      0.00000000      -0.00000000       0.16666667 </v>
   <v name="shift">      0.00000000       0.00000000       0.00000000 </v>
  </generation>
  <varray name="kpointlist" >
   <v>       0.00000000       0.00000000       0.00000000 </v>
   <v>       0.16666667       0.00000000       0.00000000 </v>
   <v>       0.33333333       0.00000000       0.00000000 </v>
   <v>       0.50000000       0.00000000       0.00000000 </v>
   <v>      -0.33333333      -0.00000000      -0.00000000 </v>
   <v>      -0.16666667      -0.00000000      -0.00000000 </v>
   <v>       0.00000000       0.16666667       0.00000000 </v>
   <v>       0.16666667       0.16666667       0.00000000 </v>
   <v>       0.33333333       0.16666667       0.00000000 </v>
   <v>       0.50000000       0.16666667       0.00000000 </v>
   <v>      -0.33333333       0.16666667      -0.00000000 </v>
   <v>      -0.16666667       0.16666667      -0.00000000 </v>
   <v>       0.00000000       0.33333333       0.00000000 </v>
   <v>       0.16666667       0.33333333       0.00000000 </v>
   <v>       0.33333333       0.33333333       0.00000000 </v>
   <v>       0.50000000       0.33333333       0.00000000 </v>
   <v>      -0.33333333       0.33333333      -0.00000000 </v>
   <v>      -0.16666667       0.33333333       0.00000000 </v>
   <v>       0.00000000       0.50000000       0.00000000 </v>
   <v>       0.16666667       0.50000000       0.00000000 </v>
   <v>       0.33333333       0.50000000       0.00000000 </v>
   <v>       0.50000000       0.50000000       0.00000000 </v>
   <v>      -0.33333333       0.50000000       0.00000000 </v>
   <v>      -0.16666667       0.50000000       0.00000000 </v>
   <v>       0.00000000      -0.33333333      -0.00000000 </v>
   <v>       0.16666667      -0.33333333      -0.00000000 </v>
   <v>       0.33333333      -0.33333333       0.00000000 </v>
   <v>       0.50000000      -0.33333333       0.00000000 </v>
   <v>      -0.33333333      -0.33333333       0.00000000 </v>
   <v>      -0.16666667      -0.33333333      -0.00000000 </v>
   <v>       0.00000000      -0.16666667      -0.00000000 </v>
   <v>       0.16666667      -0.16666667       0.00000000 </v>
   <v>       0.33333333      -0.16666667       0.00000000 </v>
   <v>       0.50000000      -0.16666667       0.00000000 </v>
   <v>      -0.33333333      -0.16666667      -0.00000000 </v>
   <v>      -0.16666667      -0.16666667       0.00000000 </v>
   <v>       0.00000000       0.00000000       0.16666667 </v>
   <v>       0.16666667       0.00000000       0.16666667 </v>
   <v>       0.33333333       0.00000000       0.16666667 </v>
   <v>       0.50000000       0.00000000       0.16666667 </v>
   <v>      -0.33333333      -0.00000000       0.16666667 </v>
   <v>      -0.16666667      -0.00000000       0.16666667 </v>
   <v>       0.00000000       0.16666667       0.16666667 </v>
   <v>       0.16666667       0.16666667       0.16666667 </v>
   <v>       0.33333333       0.16666667       0.16666667 </v>
   <v>       0.50000000       0.16666667       0.16666667 </v>
   <v>      -0.33333333       0.16666667       0.16666667 </v>
   <v>      -0.16666667       0.16666667       0.16666667 </v>
   <v>       0.00000000       0.33333333       0.16666667 </v>
   <v>       0.16666667       0.33333333       0.16666667 </v>
   <v>       0.33333333       0.33333333       0.16666667 </v>
   <v>       0.50000000       0.33333333       0.16666667 </v>
   <v>      -0.33333333       0.33333333       0.16666667 </v>
   <v>      -0.16666667       0.33333333       0.16666667 </v>
   <v>      -0.00000000       0.50000000       0.16666667 </v>
   <v>       0.16666667       0.50000000       0.16666667 </v>
   <v>       0.33333333       0.50000000       0.16666667 </v>
   <v>       0.50000000       0.50000000       0.16666667 </v>
   <v>      -0.33333333       0.50000000       0.16666667 </v>
   <v>      -0.16666667       0.50000000       0.16666667 </v>
   <v>      -0.00000000      -0.33333333       0.16666667 </v>
   <v>       0.16666667      -0.33333333       0.16666667 </v>
   <v>       0.33333333      -0.33333333       0.16666667 </v>
   <v>       0.50000000      -0.33333333       0.16666667 </v>
   <v>      -0.33333333      -0.33333333       0.16666667 </v>
   <v>      -0.16666667      -0.33333333       0.16666667 </v>
   <v>      -0.00000000      -0.16666667       0.16666667 </v>
   <v>       0.16666667      -0.16666667       0.16666667 </v>
   <v>       0.33333333      -0.16666667       0.16666667 </v>
   <v>       0.50000000      -0.16666667       0.16666667 </v>
   <v>      -0.33333333      -0.16666667       0.16666667 </v>
   <v>      -0.16666667      -0.16666667       0.16666667 </v>
   <v>       0.00000000       0.00000000       0.33333333 </v>
   <v>       0.16666667       0.00000000       0.33333333 </v>
   <v>       0.33333333       0.00000000       0.33333333 </v>
   <v>       0.50000000       0.00000000       0.33333333 </v>
   <v>      -0.33333333      -0.00000000       0.33333333 </v>
   <v>      -0.16666667       0.00000000       0.33333333 </v>
   <v>      -0.00000000       0.16666667       0.33333333 </v>
   <v>       0.16666667       0.16666667       0.33333333 </v>
   <v>       0.33333333       0.16666667       0.33333333 </v>
   <v>       0.50000000       0.16666667       0.33333333 </v>
   <v>      -0.33333333       0.16666667       0.33333333 </v>
   <v>      -0.16666667       0.16666667       0.33333333 </v>
   <v>       0.00000000       0.33333333       0.33333333 </v>
   <v>       0.16666667       0.33333333       0.33333333 </v>
   <v>       0.33333333       0.33333333       0.33333333 </v>
   <v>       0.50000000       0.33333333       0.33333333 </v>
   <v>      -0.33333333       0.33333333       0.33333333 </v>
   <v>      -0.16666667       0.33333333       0.33333333 </v>
   <v>       0.00000000       0.50000000       0.33333333 </v>
   <v>       0.16666667       0.50000000       0.33333333 </v>
   <v>       0.33333333       0.50000000       0.33333333 </v>
   <v>       0.50000000       0.50000000       0.33333333 </v>
   <v>      -0.33333333       0.50000000       0.33333333 </v>
   <v>      -0.16666667       0.50000000       0.33333333 </v>
   <v>      -0.00000000      -0.33333333       0.33333333 </v>
   <v>       0.16666667      -0.33333333       0.33333333 </v>
   <v>       0.33333333      -0.33333333       0.33333333 </v>
   <v>       0.50000000      -0.33333333       0.33333333 </v>
   <v>      -0.33333333      -0.33333333       0.33333333 </v>
   <v>      -0.16666667      -0.33333333       0.33333333 </v>
   <v>       0.00000000      -0.16666667       0.33333333 </v>
   <v>       0.16666667      -0.16666667       0.33333333 </v>
   <v>       0.33333333      -0.16666667       0.33333333 </v>
   <v>       0.50000000      -0.16666667       0.33333333 </v>
   <v>      -0.33333333      -0.16666667       0.33333333 </v>
   <v>      -0.16666667      -0.16666667       0.33333333 </v>
   <v>      -0.00000000       0.00000000       0.50000000 </v>
   <v>       0.16666667      -0.00000000       0.50000000 </v>
   <v>       0.33333333       0.00000000       0.50000000 </v>
   <v>       0.50000000       0.00000000       0.50000000 </v>
   <v>      -0.33333333      -0.00000000       0.50000000 </v>
   <v>      -0.16666667      -0.00000000       0.50000000 </v>
   <v>       0.00000000       0.16666667       0.50000000 </v>
   <v>       0.16666667       0.16666667       0.50000000 </v>
   <v>       0.33333333       0.16666667       0.50000000 </v>
   <v>       0.50000000       0.16666667       0.50000000 </v>
   <v>      -0.33333333       0.16666667       0.50000000 </v>
   <v>      -0.16666667       0.16666667       0.50000000 </v>
   <v>      -0.00000000       0.33333333       0.50000000 </v>
   <v>       0.16666667       0.33333333       0.50000000 </v>
   <v>       0.33333333       0.33333333       0.50000000 </v>
   <v>       0.50000000       0.33333333       0.50000000 </v>
   <v>      -0.33333333       0.33333333       0.50000000 </v>
   <v>      -0.16666667       0.33333333       0.50000000 </v>
   <v>      -0.00000000       0.50000000       0.50000000 </v>
   <v>       0.16666667       0.50000000       0.50000000 </v>
   <v>       0.33333333       0.50000000       0.50000000 </v>
   <v>       0.50000000       0.50000000       0.50000000 </v>
   <v>      -0.33333333       0.50000000       0.50000000 </v>
   <v>      -0.16666667       0.50000000       0.50000000 </v>
   <v>      -0.00000000      -0.33333333       0.50000000 </v>
   <v>       0.16666667      -0.33333333       0.50000000 </v>
   <v>       0.33333333      -0.33333333       0.50000000 </v>
   <v>       0.50000000      -0.33333333       0.50000000 </v>
   <v>      -0.33333333      -0.33333333       0.50000000 </v>
   <v>      -0.16666667      -0.33333333       0.50000000 </v>
   <v>      -0.00000000      -0.16666667       0.50000000 </v>
   <v>       0.16666667      -0.16666667       0.50000000 </v>
   <v>       0.33333333      -0.16666667       0.50000000 </v>
   <v>       0.50000000      -0.16666667       0.50000000 </v>
   <v>      -0.33333333      -0.16666667       0.50000000 </v>
   <v>      -0.16666667      -0.16666667       0.50000000 </v>
   <v>       0.00000000      -0.00000000      -0.33333333 </v>
   <v>       0.16666667      -0.00000000      -0.33333333 </v>
   <v>       0.33333333       0.00000000      -0.33333333 </v>
   <v>       0.50000000       0.00000000      -0.33333333 </v>
   <v>      -0.33333333      -0.00000000      -0.33333333 </v>
   <v>      -0.16666667      -0.00000000      -0.33333333 </v>
   <v>       0.00000000       0.16666667      -0.33333333 </v>
   <v>       0.16666667       0.16666667      -0.33333333 </v>
   <v>       0.33333333       0.16666667      -0.33333333 </v>
   <v>       0.50000000       0.16666667      -0.33333333 </v>
   <v>      -0.33333333       0.16666667      -0.33333333 </v>
   <v>      -0.16666667       0.16666667      -0.33333333 </v>
   <v>       0.00000000       0.33333333      -0.33333333 </v>
   <v>       0.16666667       0.33333333      -0.33333333 </v>
   <v>       0.33333333       0.33333333      -0.33333333 </v>
   <v>       0.50000000       0.33333333      -0.33333333 </v>
   <v>      -0.33333333       0.33333333      -0.33333333 </v>
   <v>      -0.16666667       0.33333333      -0.33333333 </v>
   <v>       0.00000000       0.50000000      -0.33333333 </v>
   <v>       0.16666667       0.50000000      -0.33333333 </v>
   <v>       0.33333333       0.50000000      -0.33333333 </v>
   <v>       0.50000000       0.50000000      -0.33333333 </v>
   <v>      -0.33333333       0.50000000      -0.33333333 </v>
   <v>      -0.16666667       0.50000000      -0.33333333 </v>
   <v>      -0.00000000      -0.33333333      -0.33333333 </v>
   <v>       0.16666667      -0.33333333      -0.33333333 </v>
   <v>       0.33333333      -0.33333333      -0.33333333 </v>
   <v>       0.50000000      -0.33333333      -0.33333333 </v>
   <v>      -0.33333333      -0.33333333      -0.33333333 </v>
   <v>      -0.16666667      -0.33333333      -0.33333333 </v>
   <v>       0.00000000      -0.16666667      -0.33333333 </v>
   <v>       0.16666667      -0.16666667      -0.33333333 </v>
   <v>       0.33333333      -0.16666667      -0.33333333 </v>
   <v>       0.50000000      -0.16666667      -0.33333333 </v>
   <v>      -0.33333333      -0.16666667      -0.33333333 </v>
   <v>      -0.16666667      -0.16666667      -0.33333333 </v>
   <v>       0.00000000       0.00000000      -0.16666667 </v>
   <v>       0.16666667       0.00000000      -0.16666667 </v>
   <v>       0.33333333       0.00000000      -0.16666667 </v>
   <v>       0.50000000       0.00000000      -0.16666667 </v>
   <v>      -0.33333333      -0.00000000      -0.16666667 </v>
   <v>      -0.16666667      -0.00000000      -0.16666667 </v>
   <v>       0.00000000       0.16666667      -0.16666667 </v>
   <v>       0.16666667       0.16666667      -0.16666667 </v>
   <v>       0.33333333       0.16666667      -0.16666667 </v>
   <v>       0.50000000       0.16666667      -0.16666667 </v>
   <v>      -0.33333333       0.16666667      -0.16666667 </v>
   <v>      -0.16666667       0.16666667      -0.16666667 </v>
   <v>       0.00000000       0.33333333      -0.16666667 </v>
   <v>       0.16666667       0.33333333      -0.16666667 </v>
   <v>       0.33333333       0.33333333      -0.16666667 </v>
   <v>       0.50000000       0.33333333      -0.16666667 </v>
   <v>      -0.33333333       0.33333333      -0.16666667 </v>
   <v>      -0.16666667       0.33333333      -0.16666667 </v>
   <v>       0.00000000       0.50000000      -0.16666667 </v>
   <v>       0.16666667       0.50000000      -0.16666667 </v>
   <v>       0.33333333       0.50000000      -0.16666667 </v>
   <v>       0.50000000       0.50000000      -0.16666667 </v>
   <v>      -0.33333333       0.50000000      -0.16666667 </v>
   <v>      -0.16666667       0.50000000      -0.16666667 </v>
   <v>       0.00000000      -0.33333333      -0.16666667 </v>
   <v>       0.16666667      -0.33333333      -0.16666667 </v>
   <v>       0.33333333      -0.33333333      -0.16666667 </v>
   <v>       0.50000000      -0.33333333      -0.16666667 </v>
   <v>      -0.33333333      -0.33333333      -0.16666667 </v>
   <v>      -0.16666667      -0.33333333      -0.16666667 </v>
   <v>       0.00000000      -0.16666667      -0.16666667 </v>
   <v>       0.16666667      -0.16666667      -0.16666667 </v>
   <v>       0.33333333      -0.16666667      -0.16666667 </v>
   <v>       0.50000000      -0.16666667      -0.16666667 </v>
   <v>      -0.33333333      -0.16666667      -0.16666667 </v>
   <v>      -0.16666667      -0.16666667      -0.16666667 </v>
  </varray>
  <varray name="weights" >
   <v>       0.00462963 </v>
   <v>       0.00462963 </v>
   <v>       0.00462963 </v>
   <v>       0.00462963 </v>
   <v>       0.00462963 </v>
   <v>       0.00462963 </v>
   <v>       0.00462963 </v>
   <v>       0.00462963 </v>
   <v>       0.00462963 </v>
   <v>       0.00462963 </v>
   <v>       0.00462963 </v>
   <v>       0.00462963 </v>
   <v>       0.00462963 </v>
   <v>       0.00462963 </v>
   <v>       0.00462963 </v>
   <v>       0.00462963 </v>
   <v>       0.00462963 </v>
   <v>       0.00462963 </v>
   <v>       0.00462963 </v>
   <v>       0.00462963 </v>
   <v>       0.00462963 </v>
   <v>       0.00462963 </v>
   <v>       0.00462963 </v>
   <v>       0.00462963 </v>
   <v>       0.00462963 </v>
   <v>       0.00462963 </v>
   <v>       0.00462963 </v>
   <v>       0.00462963 </v>
   <v>       0.00462963 </v>
   <v>       0.00462963 </v>
   <v>       0.00462963 </v>
   <v>       0.00462963 </v>
   <v>       0.00462963 </v>
   <v>       0.00462963 </v>
   <v>       0.00462963 </v>
   <v>       0.00462963 </v>
   <v>       0.00462963 </v>
   <v>       0.00462963 </v>
   <v>       0.00462963 </v>
   <v>       0.00462963 </v>
   <v>       0.00462963 </v>
   <v>       0.00462963 </v>
   <v>       0.00462963 </v>
   <v>       0.00462963 </v>
   <v>       0.00462963 </v>
   <v>       0.00462963 </v>
   <v>       0.00462963 </v>
   <v>       0.00462963 </v>
   <v>       0.00462963 </v>
   <v>       0.00462963 </v>
   <v>       0.00462963 </v>
   <v>       0.00462963 </v>
   <v>       0.00462963 </v>
   <v>       0.00462963 </v>
   <v>       0.00462963 </v>
   <v>       0.00462963 </v>
   <v>       0.00462963 </v>
   <v>       0.00462963 </v>
   <v>       0.00462963 </v>
   <v>       0.00462963 </v>
   <v>       0.00462963 </v>
   <v>       0.00462963 </v>
   <v>       0.00462963 </v>
   <v>       0.00462963 </v>
   <v>       0.00462963 </v>
   <v>       0.00462963 </v>
   <v>       0.00462963 </v>
   <v>       0.00462963 </v>
   <v>       0.00462963 </v>
   <v>       0.00462963 </v>
   <v>       0.00462963 </v>
   <v>       0.00462963 </v>
   <v>       0.00462963 </v>
   <v>       0.00462963 </v>
   <v>       0.00462963 </v>
   <v>       0.00462963 </v>
   <v>       0.00462963 </v>
   <v>       0.00462963 </v>
   <v>       0.00462963 </v>
   <v>       0.00462963 </v>
   <v>       0.00462963 </v>
   <v>       0.00462963 </v>
   <v>       0.00462963 </v>
   <v>       0.00462963 </v>
   <v>       0.00462963 </v>
   <v>       0.00462963 </v>
   <v>       0.00462963 </v>
   <v>       0.00462963 </v>
   <v>       0.00462963 </v>
   <v>       0.00462963 </v>
   <v>       0.00462963 </v>
   <v>       0.00462963 </v>
   <v>       0.00462963 </v>
   <v>       0.00462963 </v>
   <v>       0.00462963 </v>
   <v>       0.00462963 </v>
   <v>       0.00462963 </v>
   <v>       0.00462963 </v>
   <v>       0.00462963 </v>
   <v>       0.00462963 </v>
   <v>       0.00462963 </v>
   <v>       0.00462963 </v>
   <v>       0.00462963 </v>
   <v>       0.00462963 </v>
   <v>       0.00462963 </v>
   <v>       0.00462963 </v>
   <v>       0.00462963 </v>
   <v>       0.00462963 </v>
   <v>       0.00462963 </v>
   <v>       0.00462963 </v>
   <v>       0.00462963 </v>
   <v>       0.00462963 </v>
   <v>       0.00462963 </v>
   <v>       0.00462963 </v>
   <v>       0.00462963 </v>
   <v>       0.00462963 </v>
   <v>       0.00462963 </v>
   <v>       0.00462963 </v>
   <v>       0.00462963 </v>
   <v>       0.00462963 </v>
   <v>       0.00462963 </v>
   <v>       0.00462963 </v>
   <v>       0.00462963 </v>
   <v>       0.00462963 </v>
   <v>       0.00462963 </v>
   <v>       0.00462963 </v>
   <v>       0.00462963 </v>
   <v>       0.00462963 </v>
   <v>       0.00462963 </v>
   <v>       0.00462963 </v>
   <v>       0.00462963 </v>
   <v>       0.00462963 </v>
   <v>       0.00462963 </v>
   <v>       0.00462963 </v>
   <v>       0.00462963 </v>
   <v>       0.00462963 </v>
   <v>       0.00462963 </v>
   <v>       0.00462963 </v>
   <v>       0.00462963 </v>
   <v>       0.00462963 </v>
   <v>       0.00462963 </v>
   <v>       0.00462963 </v>
   <v>       0.00462963 </v>
   <v>       0.00462963 </v>
   <v>       0.00462963 </v>
   <v>       0.00462963 </v>
   <v>       0.00462963 </v>
   <v>       0.00462963 </v>
   <v>       0.00462963 </v>
   <v>       0.00462963 </v>
   <v>       0.00462963 </v>
   <v>       0.00462963 </v>
   <v>       0.00462963 </v>
   <v>       0.00462963 </v>
   <v>       0.00462963 </v>
   <v>       0.00462963 </v>
   <v>       0.00462963 </v>
   <v>       0.00462963 </v>
   <v>       0.00462963 </v>
   <v>       0.00462963 </v>
   <v>       0.00462963 </v>
   <v>       0.00462963 </v>
   <v>       0.00462963 </v>
   <v>       0.00462963 </v>
   <v>       0.00462963 </v>
   <v>       0.00462963 </v>
   <v>       0.00462963 </v>
   <v>       0.00462963 </v>
   <v>       0.00462963 </v>
   <v>       0.00462963 </v>
   <v>       0.00462963 </v>
   <v>       0.00462963 </v>
   <v>       0.00462963 </v>
   <v>       0.00462963 </v>
   <v>       0.00462963 </v>
   <v>       0.00462963 </v>
   <v>       0.00462963 </v>
   <v>       0.00462963 </v>
   <v>       0.00462963 </v>
   <v>       0.00462963 </v>
   <v>       0.00462963 </v>
   <v>       0.00462963 </v>
   <v>       0.00462963 </v>
   <v>       0.00462963 </v>
   <v>       0.00462963 </v>
   <v>       0.00462963 </v>
   <v>       0.00462963 </v>
   <v>       0.00462963 </v>
   <v>       0.00462963 </v>
   <v>       0.00462963 </v>
   <v>       0.00462963 </v>
   <v>       0.00462963 </v>
   <v>       0.00462963 </v>
   <v>       0.00462963 </v>
   <v>       0.00462963 </v>
   <v>       0.00462963 </v>
   <v>       0.00462963 </v>
   <v>       0.00462963 </v>
   <v>       0.00462963 </v>
   <v>       0.00462963 </v>
   <v>       0.00462963 </v>
   <v>       0.00462963 </v>
   <v>       0.00462963 </v>
   <v>       0.00462963 </v>
   <v>       0.00462963 </v>
   <v>       0.00462963 </v>
   <v>       0.00462963 </v>
   <v>       0.00462963 </v>
   <v>       0.00462963 </v>
   <v>       0.00462963 </v>
   <v>       0.00462963 </v>
   <v>       0.00462963 </v>
   <v>       0.00462963 </v>
   <v>       0.00462963 </v>
   <v>       0.00462963 </v>
   <v>       0.00462963 </v>
  </varray>
 </kpoints>
 <parameters>
  <separator name="general" >
   <i type="string" name="SYSTEM">Og_FCC</i>
   <i type="logical" name="LCOMPAT"> F  </i>
  </separator>
  <separator name="electronic" >
   <i type="string" name="PREC">accura</i>
   <i name="ENMAX">    300.00000000</i>
   <i name="ENAUG">    799.85900000</i>
   <i name="EDIFF">      0.00000001</i>
   <i type="int" name="IALGO">    38</i>
   <i type="int" name="IWAVPR">    10</i>
   <i type="int" name="NBANDS">   128</i>
   <i name="NELECT">      8.00000000</i>
   <i type="int" name="TURBO">     0</i>
   <i type="int" name="IRESTART">     0</i>
   <i type="int" name="NREBOOT">     0</i>
   <i type="int" name="NMIN">     0</i>
   <i name="EREF">      0.00000000</i>
   <separator name="electronic smearing" >
    <i type="int" name="ISMEAR">     0</i>
    <i name="SIGMA">      0.00100000</i>
    <i name="KSPACING">      0.50000000</i>
    <i type="logical" name="KGAMMA"> T  </i>
   </separator>
   <separator name="electronic projectors" >
    <i type="logical" name="LREAL"> F  </i>
    <v name="ROPT">      0.00000000</v>
    <i type="int" name="LMAXPAW">  -100</i>
    <i type="int" name="LMAXMIX">     2</i>
    <i type="logical" name="NLSPLINE"> F  </i>
   </separator>
   <separator name="electronic startup" >
    <i type="int" name="ISTART">     1</i>
    <i type="int" name="ICHARG">     0</i>
    <i type="int" name="INIWAV">     1</i>
   </separator>
   <separator name="electronic spin" >
    <i type="int" name="ISPIN">     1</i>
    <i type="logical" name="LNONCOLLINEAR"> T  </i>
    <v name="MAGMOM">      1.00000000      1.00000000      1.00000000</v>
    <i name="NUPDOWN">     -1.00000000</i>
    <i type="logical" name="LSORBIT"> T  </i>
    <v name="SAXIS">      0.00000000      0.00000000      1.00000000</v>
    <i type="logical" name="LSPIRAL"> F  </i>
    <v name="QSPIRAL">      0.00000000      0.00000000      0.00000000</v>
    <i type="logical" name="LZEROZ"> F  </i>
   </separator>
   <separator name="electronic exchange-correlation" >
    <i type="logical" name="LASPH"> F  </i>
    <i type="logical" name="LMETAGGA"> F  </i>
   </separator>
   <separator name="electronic convergence" >
    <i type="int" name="NELM">     1</i>
    <i type="int" name="NELMDL">     0</i>
    <i type="int" name="NELMIN">     2</i>
    <i name="ENINI">    300.00000000</i>
    <separator name="electronic convergence detail" >
     <i type="logical" name="LDIAG"> T  </i>
     <i type="logical" name="LSUBROT"> F  </i>
     <i name="WEIMIN">      0.00000000</i>
     <i name="EBREAK">      0.00000000</i>
     <i name="DEPER">      0.30000000</i>
     <i type="int" name="NRMM">     4</i>
     <i name="TIME">      0.40000000</i>
    </separator>
   </separator>
   <separator name="electronic mixer" >
    <i name="AMIX">      0.40000000</i>
    <i name="BMIX">      1.00000000</i>
    <i name="AMIN">      0.10000000</i>
    <i name="AMIX_MAG">      1.60000000</i>
    <i name="BMIX_MAG">      1.00000000</i>
    <separator name="electronic mixer details" >
     <i type="int" name="IMIX">     1</i>
     <i type="logical" name="MIXFIRST"> F  </i>
     <i type="int" name="MAXMIX">    50</i>
     <i name="WC">    100.00000000</i>
     <i type="int" name="INIMIX">     1</i>
     <i type="int" name="MIXPRE">     1</i>
     <i type="int" name="MREMOVE">     5</i>
    </separator>
   </separator>
   <separator name="electronic dipolcorrection" >
    <i type="logical" name="LDIPOL"> F  </i>
    <i type="logical" name="LMONO"> F  </i>
    <i type="int" name="IDIPOL">     0</i>
    <i name="EPSILON">      1.00000000</i>
    <v name="DIPOL">   -100.00000000   -100.00000000   -100.00000000</v>
    <i name="EFIELD">      0.00000000</i>
   </separator>
  </separator>
  <separator name="grids" >
   <i type="int" name="NGX">    24</i>
   <i type="int" name="NGY">    24</i>
   <i type="int" name="NGZ">    24</i>
   <i type="int" name="NGXF">    48</i>
   <i type="int" name="NGYF">    48</i>
   <i type="int" name="NGZF">    48</i>
   <i type="logical" name="ADDGRID"> T  </i>
  </separator>
  <separator name="ionic" >
   <i type="int" name="NSW">     1</i>
   <i type="int" name="IBRION">    -1</i>
   <i type="int" name="MDALGO">     0</i>
   <i type="int" name="ISIF">     3</i>
   <i name="PSTRESS">      0.00000000</i>
   <i name="EDIFFG">      0.00001000</i>
   <i type="int" name="NFREE">     5</i>
   <i name="POTIM">      0.10000000</i>
   <i name="SMASS">     -3.00000000</i>
   <i name="SCALEE">      1.00000000</i>
  </separator>
  <separator name="ionic md" >
   <i name="TEBEG">      0.00010000</i>
   <i name="TEEND">      0.00010000</i>
   <i type="int" name="NBLOCK">     1</i>
   <i type="int" name="KBLOCK">     1</i>
   <i type="int" name="NPACO">   256</i>
   <i name="APACO">     16.00000000</i>
  </separator>
  <separator name="symmetry" >
   <i type="int" name="ISYM">     0</i>
   <i name="SYMPREC">      0.00000010</i>
  </separator>
  <separator name="dos" >
   <i type="int" name="LORBIT">     0</i>
   <v name="RWIGS">     -1.00000000</v>
   <i type="int" name="NEDOS">   301</i>
   <i name="EMIN">     10.00000000</i>
   <i name="EMAX">    -10.00000000</i>
   <i name="EFERMI">      0.00000000</i>
  </separator>
  <separator name="writing" >
   <i type="int" name="NWRITE">     1</i>
   <i type="logical" name="LWAVE"> T  </i>
   <i type="logical" name="LDOWNSAMPLE"> F  </i>
   <i type="logical" name="LCHARG"> F  </i>
   <i type="logical" name="LPARD"> F  </i>
   <i type="logical" name="LVTOT"> F  </i>
   <i type="logical" name="LVHAR"> F  </i>
   <i type="logical" name="LELF"> F  </i>
   <i type="logical" name="LOPTICS"> F  </i>
   <v name="STM">      0.00000000      0.00000000      0.00000000      0.00000000      0.00000000      0.00000000      0.00000000</v>
  </separator>
  <separator name="performance" >
   <i type="int" name="NPAR">     2</i>
   <i type="int" name="NSIM">     4</i>
   <i type="int" name="NBLK">    -1</i>
   <i type="logical" name="LPLANE"> T  </i>
   <i type="logical" name="LSCALAPACK"> T  </i>
   <i type="logical" name="LSCAAWARE"> F  </i>
   <i type="logical" name="LSCALU"> F  </i>
   <i type="logical" name="LASYNC"> F  </i>
   <i type="logical" name="LORBITALREAL"> F  </i>
  </separator>
  <separator name="miscellaneous" >
   <i type="int" name="IDIOT">     3</i>
   <i type="int" name="ISPECIAL">     0</i>
   <i type="logical" name="LMUSIC"> F  </i>
   <v name="POMASS">     39.94900000</v>
   <v name="DARWINR">      0.00000000</v>
   <v name="DARWINV">      1.00000000</v>
   <i type="logical" name="LCORR"> T  </i>
  </separator>
  <i type="logical" name="GGA_COMPAT"> F  </i>
  <i type="logical" name="LBERRY"> F  </i>
  <i type="int" name="ICORELEVEL">     0</i>
  <i type="logical" name="LDAU"> F  </i>
  <i type="int" name="I_CONSTRAINED_M">     0</i>
  <separator name="electronic exchange-correlation" >
   <i type="string" name="GGA">PE</i>
   <i type="int" name="VOSKOWN">     0</i>
   <i type="logical" name="LHFCALC"> T  </i>
   <i type="string" name="PRECFOCK">normal</i>
   <i type="logical" name="LSYMGRAD"> F  </i>
   <i type="logical" name="LHFONE"> F  </i>
   <i type="logical" name="LRHFCALC"> F  </i>
   <i type="logical" name="LTHOMAS"> F  </i>
   <i type="logical" name="LMODELHF"> F  </i>
   <i name="ENCUT4O">     -1.00000000</i>
   <i type="int" name="EXXOEP">     0</i>
   <i type="int" name="FOURORBIT">     0</i>
   <i name="AEXX">      1.00000000</i>
   <i name="HFALPHA">     -1.00000000</i>
   <i name="MCALPHA">      0.00000000</i>
   <i name="ALDAX">      0.00000000</i>
   <i name="AGGAX">      0.00000000</i>
   <i name="ALDAC">      0.00000000</i>
   <i name="AGGAC">      0.00000000</i>
   <i type="int" name="NKREDX">     1</i>
   <i type="int" name="NKREDY">     1</i>
   <i type="int" name="NKREDZ">     1</i>
   <i type="logical" name="SHIFTRED"> F  </i>
   <i type="logical" name="ODDONLY"> F  </i>
   <i type="logical" name="EVENONLY"> F  </i>
   <i type="int" name="LMAXFOCK">     4</i>
   <i type="int" name="NMAXFOCKAE">     1</i>
   <i type="logical" name="LFOCKAEDFT"> F  </i>
   <i name="HFSCREEN">      0.00000000</i>
   <i name="HFSCREENC">      0.00000000</i>
   <i type="int" name="NBANDSGWLOW">     1</i>
  </separator>
  <separator name="vdW DFT" >
   <i type="logical" name="LUSE_VDW"> F  </i>
   <i name="Zab_VDW">     -0.84910000</i>
   <i name="PARAM1">      0.12340000</i>
   <i name="PARAM2">      1.00000000</i>
   <i name="PARAM3">      0.00000000</i>
  </separator>
  <separator name="model GW" >
   <i type="int" name="MODEL_GW">     0</i>
   <i name="MODEL_EPS0">     22.32830300</i>
   <i name="MODEL_ALPHA">      1.00000000</i>
  </separator>
  <separator name="linear response parameters" >
   <i type="logical" name="LEPSILON"> F  </i>
   <i type="logical" name="LRPA"> F  </i>
   <i type="logical" name="LNABLA"> F  </i>
   <i type="logical" name="LVEL"> F  </i>
   <i type="int" name="KINTER">     0</i>
   <i name="CSHIFT">      0.10000000</i>
   <i name="OMEGAMAX">     -1.00000000</i>
   <i name="DEG_THRESHOLD">      0.00200000</i>
   <i name="RTIME">     -0.10000000</i>
   <i name="WPLASMAI">      0.00000000</i>
   <v name="DFIELD">      0.00000000      0.00000000      0.00000000</v>
   <v name="WPLASMA">      0.00000000      0.00000000      0.00000000      0.00000000      0.00000000      0.00000000      0.00000000      0.00000000      0.00000000</v>
  </separator>
  <separator name="orbital magnetization" >
   <i type="logical" name="NUCIND"> F  </i>
   <v name="MAGPOS">      0.00000000      0.00000000      0.00000000</v>
   <i type="logical" name="LNICSALL"> T  </i>
   <i type="logical" name="ORBITALMAG"> F  </i>
   <i type="logical" name="LMAGBLOCH"> F  </i>
   <i type="logical" name="LCHIMAG"> F  </i>
   <i type="logical" name="LGAUGE"> T  </i>
   <i type="int" name="MAGATOM">     0</i>
   <v name="MAGDIPOL">      0.00000000      0.00000000      0.00000000</v>
   <v name="AVECCONST">      0.00000000      0.00000000      0.00000000</v>
  </separator>
  <separator name="response functions" >
   <i type="logical" name="LADDER"> F  </i>
   <i type="logical" name="LRPAFORCE"> F  </i>
   <i type="logical" name="LFXC"> F  </i>
   <i type="logical" name="LHARTREE"> T  </i>
   <i type="int" name="IBSE">     0</i>
   <v type="int" name="KPOINT">    -1     0     0     0</v>
   <i type="logical" name="LTCTE"> F  </i>
   <i type="logical" name="LTETE"> F  </i>
   <i type="logical" name="LTRIPLET"> F  </i>
   <i type="logical" name="LFXCEPS"> F  </i>
   <i type="logical" name="LFXHEG"> F  </i>
   <i type="int" name="NATURALO">     2</i>
   <i type="logical" name="L2ORDER"> F  </i>
   <i type="logical" name="LMP2LT"> F  </i>
   <i type="logical" name="LUSEW"> F  </i>
   <i name="ENCUTGW">    200.00000000</i>
   <i name="ENCUTGWSOFT">    200.00000000</i>
   <i name="ENCUTLF">     -1.00000000</i>
   <i type="int" name="LMAXMP2">    -1</i>
   <i name="SCISSOR">      0.00000000</i>
   <i type="int" name="NOMEGA">    50</i>
   <i type="int" name="NOMEGAR">    50</i>
   <i type="int" name="NBANDSGW">    -1</i>
   <i type="int" name="NBANDSO">    -1</i>
   <i type="int" name="NBANDSV">    -1</i>
   <i type="int" name="NELM">     1</i>
   <i type="int" name="NELMHF">     1</i>
   <i type="int" name="DIM">     3</i>
   <i type="int" name="ANTIRES">     0</i>
   <i name="OMEGAMAX">    -30.00000000</i>
   <i name="OMEGAMIN">    -30.00000000</i>
   <i name="OMEGATL">   -200.00000000</i>
   <i type="int" name="OMEGAGRID">     0</i>
   <i name="CSHIFT">     -0.10000000</i>
   <i type="logical" name="SELFENERGY"> F  </i>
   <i type="logical" name="LSPECTRAL"> T  </i>
   <i type="logical" name="LSPECTRALGW"> F  </i>
   <i type="logical" name="LSINGLES"> F  </i>
   <i type="logical" name="LFERMIGW"> F  </i>
   <i type="logical" name="ODDONLYGW"> F  </i>
   <i type="logical" name="EVENONLYGW"> F  </i>
   <i type="int" name="NKREDLFX">     1</i>
   <i type="int" name="NKREDLFY">     1</i>
   <i type="int" name="NKREDLFZ">     1</i>
   <i type="int" name="MAXMEM">  2800</i>
   <i type="int" name="TELESCOPE">     0</i>
   <i type="int" name="TAUPAR">     1</i>
   <i type="int" name="OMEGAPAR">    -1</i>
   <i name="LAMBDA">      1.00000000</i>
  </separator>
  <separator name="External order field" >
   <i name="OFIELD_KAPPA">      0.00000000</i>
   <v name="OFIELD_K">      0.00000000      0.00000000      0.00000000</v>
   <i name="OFIELD_Q6_NEAR">      0.00000000</i>
   <i name="OFIELD_Q6_FAR">      0.00000000</i>
   <i name="OFIELD_A">      0.00000000</i>
  </separator>
 </parameters>
 <atominfo>
  <atoms>       1 </atoms>
  <types>       1 </types>
  <array name="atoms" >
   <dimension dim="1">ion</dimension>
   <field type="string">element</field>
   <field type="int">atomtype</field>
   <set>
    <rc><c>Ar</c><c>   1</c></rc>
   </set>
  </array>
  <array name="atomtypes" >
   <dimension dim="1">type</dimension>
   <field type="int">atomspertype</field>
   <field type="string">element</field>
   <field>mass</field>
   <field>valence</field>
   <field type="string">pseudopotential</field>
   <set>
    <rc><c>   1</c><c>Ar</c><c>     39.94900000</c><c>      8.00000000</c><c>  PAW_PBE Ar_GW 21Aug2013               </c></rc>
   </set>
  </array>
 </atominfo>
 <structure name="initialpos" >
  <crystal>
   <varray name="basis" >
    <v>       3.74748430       0.00000000       0.00000000 </v>
    <v>       1.87374215       3.24541660      -0.00000000 </v>
    <v>       1.87374215       1.08180553       3.05980811 </v>
   </varray>
   <i name="volume">     37.21383833 </i>
   <varray name="rec_basis" >
    <v>       0.26684568      -0.15406343      -0.10893929 </v>
    <v>       0.00000000       0.30812685      -0.10893929 </v>
    <v>      -0.00000000       0.00000000       0.32681788 </v>
   </varray>
  </crystal>
  <varray name="positions" >
   <v>       0.00000000       0.00000000       0.00000000 </v>
  </varray>
  <varray name="velocities" >
   <v>       0.00000000       0.00000000       0.00000000 </v>
  </varray>
 </structure>
 <kpoints>
  <generation param="Gamma">
   <v type="int" name="divisions">       6        6        6 </v>
   <v name="usershift">      0.00000000       0.00000000       0.00000000 </v>
   <v name="genvec1">      0.16666667       0.00000000       0.00000000 </v>
   <v name="genvec2">      0.00000000       0.16666667       0.00000000 </v>
   <v name="genvec3">      0.00000000      -0.00000000       0.16666667 </v>
   <v name="shift">      0.00000000       0.00000000       0.00000000 </v>
  </generation>
  <varray name="kpointlist" >
   <v>       0.00000000       0.00000000       0.00000000 </v>
   <v>       0.16666667       0.00000000       0.00000000 </v>
   <v>       0.33333333       0.00000000       0.00000000 </v>
   <v>       0.50000000       0.00000000       0.00000000 </v>
   <v>      -0.33333333      -0.00000000      -0.00000000 </v>
   <v>      -0.16666667      -0.00000000      -0.00000000 </v>
   <v>       0.00000000       0.16666667       0.00000000 </v>
   <v>       0.16666667       0.16666667       0.00000000 </v>
   <v>       0.33333333       0.16666667       0.00000000 </v>
   <v>       0.50000000       0.16666667       0.00000000 </v>
   <v>      -0.33333333       0.16666667      -0.00000000 </v>
   <v>      -0.16666667       0.16666667      -0.00000000 </v>
   <v>       0.00000000       0.33333333       0.00000000 </v>
   <v>       0.16666667       0.33333333       0.00000000 </v>
   <v>       0.33333333       0.33333333       0.00000000 </v>
   <v>       0.50000000       0.33333333       0.00000000 </v>
   <v>      -0.33333333       0.33333333      -0.00000000 </v>
   <v>      -0.16666667       0.33333333       0.00000000 </v>
   <v>       0.00000000       0.50000000       0.00000000 </v>
   <v>       0.16666667       0.50000000       0.00000000 </v>
   <v>       0.33333333       0.50000000       0.00000000 </v>
   <v>       0.50000000       0.50000000       0.00000000 </v>
   <v>      -0.33333333       0.50000000       0.00000000 </v>
   <v>      -0.16666667       0.50000000       0.00000000 </v>
   <v>       0.00000000      -0.33333333      -0.00000000 </v>
   <v>       0.16666667      -0.33333333      -0.00000000 </v>
   <v>       0.33333333      -0.33333333       0.00000000 </v>
   <v>       0.50000000      -0.33333333       0.00000000 </v>
   <v>      -0.33333333      -0.33333333       0.00000000 </v>
   <v>      -0.16666667      -0.33333333      -0.00000000 </v>
   <v>       0.00000000      -0.16666667      -0.00000000 </v>
   <v>       0.16666667      -0.16666667       0.00000000 </v>
   <v>       0.33333333      -0.16666667       0.00000000 </v>
   <v>       0.50000000      -0.16666667       0.00000000 </v>
   <v>      -0.33333333      -0.16666667      -0.00000000 </v>
   <v>      -0.16666667      -0.16666667       0.00000000 </v>
   <v>       0.00000000       0.00000000       0.16666667 </v>
   <v>       0.16666667       0.00000000       0.16666667 </v>
   <v>       0.33333333       0.00000000       0.16666667 </v>
   <v>       0.50000000       0.00000000       0.16666667 </v>
   <v>      -0.33333333      -0.00000000       0.16666667 </v>
   <v>      -0.16666667      -0.00000000       0.16666667 </v>
   <v>       0.00000000       0.16666667       0.16666667 </v>
   <v>       0.16666667       0.16666667       0.16666667 </v>
   <v>       0.33333333       0.16666667       0.16666667 </v>
   <v>       0.50000000       0.16666667       0.16666667 </v>
   <v>      -0.33333333       0.16666667       0.16666667 </v>
   <v>      -0.16666667       0.16666667       0.16666667 </v>
   <v>       0.00000000       0.33333333       0.16666667 </v>
   <v>       0.16666667       0.33333333       0.16666667 </v>
   <v>       0.33333333       0.33333333       0.16666667 </v>
   <v>       0.50000000       0.33333333       0.16666667 </v>
   <v>      -0.33333333       0.33333333       0.16666667 </v>
   <v>      -0.16666667       0.33333333       0.16666667 </v>
   <v>      -0.00000000       0.50000000       0.16666667 </v>
   <v>       0.16666667       0.50000000       0.16666667 </v>
   <v>       0.33333333       0.50000000       0.16666667 </v>
   <v>       0.50000000       0.50000000       0.16666667 </v>
   <v>      -0.33333333       0.50000000       0.16666667 </v>
   <v>      -0.16666667       0.50000000       0.16666667 </v>
   <v>      -0.00000000      -0.33333333       0.16666667 </v>
   <v>       0.16666667      -0.33333333       0.16666667 </v>
   <v>       0.33333333      -0.33333333       0.16666667 </v>
   <v>       0.50000000      -0.33333333       0.16666667 </v>
   <v>      -0.33333333      -0.33333333       0.16666667 </v>
   <v>      -0.16666667      -0.33333333       0.16666667 </v>
   <v>      -0.00000000      -0.16666667       0.16666667 </v>
   <v>       0.16666667      -0.16666667       0.16666667 </v>
   <v>       0.33333333      -0.16666667       0.16666667 </v>
   <v>       0.50000000      -0.16666667       0.16666667 </v>
   <v>      -0.33333333      -0.16666667       0.16666667 </v>
   <v>      -0.16666667      -0.16666667       0.16666667 </v>
   <v>       0.00000000       0.00000000       0.33333333 </v>
   <v>       0.16666667       0.00000000       0.33333333 </v>
   <v>       0.33333333       0.00000000       0.33333333 </v>
   <v>       0.50000000       0.00000000       0.33333333 </v>
   <v>      -0.33333333      -0.00000000       0.33333333 </v>
   <v>      -0.16666667       0.00000000       0.33333333 </v>
   <v>      -0.00000000       0.16666667       0.33333333 </v>
   <v>       0.16666667       0.16666667       0.33333333 </v>
   <v>       0.33333333       0.16666667       0.33333333 </v>
   <v>       0.50000000       0.16666667       0.33333333 </v>
   <v>      -0.33333333       0.16666667       0.33333333 </v>
   <v>      -0.16666667       0.16666667       0.33333333 </v>
   <v>       0.00000000       0.33333333       0.33333333 </v>
   <v>       0.16666667       0.33333333       0.33333333 </v>
   <v>       0.33333333       0.33333333       0.33333333 </v>
   <v>       0.50000000       0.33333333       0.33333333 </v>
   <v>      -0.33333333       0.33333333       0.33333333 </v>
   <v>      -0.16666667       0.33333333       0.33333333 </v>
   <v>       0.00000000       0.50000000       0.33333333 </v>
   <v>       0.16666667       0.50000000       0.33333333 </v>
   <v>       0.33333333       0.50000000       0.33333333 </v>
   <v>       0.50000000       0.50000000       0.33333333 </v>
   <v>      -0.33333333       0.50000000       0.33333333 </v>
   <v>      -0.16666667       0.50000000       0.33333333 </v>
   <v>      -0.00000000      -0.33333333       0.33333333 </v>
   <v>       0.16666667      -0.33333333       0.33333333 </v>
   <v>       0.33333333      -0.33333333       0.33333333 </v>
   <v>       0.50000000      -0.33333333       0.33333333 </v>
   <v>      -0.33333333      -0.33333333       0.33333333 </v>
   <v>      -0.16666667      -0.33333333       0.33333333 </v>
   <v>       0.00000000      -0.16666667       0.33333333 </v>
   <v>       0.16666667      -0.16666667       0.33333333 </v>
   <v>       0.33333333      -0.16666667       0.33333333 </v>
   <v>       0.50000000      -0.16666667       0.33333333 </v>
   <v>      -0.33333333      -0.16666667       0.33333333 </v>
   <v>      -0.16666667      -0.16666667       0.33333333 </v>
   <v>      -0.00000000       0.00000000       0.50000000 </v>
   <v>       0.16666667      -0.00000000       0.50000000 </v>
   <v>       0.33333333       0.00000000       0.50000000 </v>
   <v>       0.50000000       0.00000000       0.50000000 </v>
   <v>      -0.33333333      -0.00000000       0.50000000 </v>
   <v>      -0.16666667      -0.00000000       0.50000000 </v>
   <v>       0.00000000       0.16666667       0.50000000 </v>
   <v>       0.16666667       0.16666667       0.50000000 </v>
   <v>       0.33333333       0.16666667       0.50000000 </v>
   <v>       0.50000000       0.16666667       0.50000000 </v>
   <v>      -0.33333333       0.16666667       0.50000000 </v>
   <v>      -0.16666667       0.16666667       0.50000000 </v>
   <v>      -0.00000000       0.33333333       0.50000000 </v>
   <v>       0.16666667       0.33333333       0.50000000 </v>
   <v>       0.33333333       0.33333333       0.50000000 </v>
   <v>       0.50000000       0.33333333       0.50000000 </v>
   <v>      -0.33333333       0.33333333       0.50000000 </v>
   <v>      -0.16666667       0.33333333       0.50000000 </v>
   <v>      -0.00000000       0.50000000       0.50000000 </v>
   <v>       0.16666667       0.50000000       0.50000000 </v>
   <v>       0.33333333       0.50000000       0.50000000 </v>
   <v>       0.50000000       0.50000000       0.50000000 </v>
   <v>      -0.33333333       0.50000000       0.50000000 </v>
   <v>      -0.16666667       0.50000000       0.50000000 </v>
   <v>      -0.00000000      -0.33333333       0.50000000 </v>
   <v>       0.16666667      -0.33333333       0.50000000 </v>
   <v>       0.33333333      -0.33333333       0.50000000 </v>
   <v>       0.50000000      -0.33333333       0.50000000 </v>
   <v>      -0.33333333      -0.33333333       0.50000000 </v>
   <v>      -0.16666667      -0.33333333       0.50000000 </v>
   <v>      -0.00000000      -0.16666667       0.50000000 </v>
   <v>       0.16666667      -0.16666667       0.50000000 </v>
   <v>       0.33333333      -0.16666667       0.50000000 </v>
   <v>       0.50000000      -0.16666667       0.50000000 </v>
   <v>      -0.33333333      -0.16666667       0.50000000 </v>
   <v>      -0.16666667      -0.16666667       0.50000000 </v>
   <v>       0.00000000      -0.00000000      -0.33333333 </v>
   <v>       0.16666667      -0.00000000      -0.33333333 </v>
   <v>       0.33333333       0.00000000      -0.33333333 </v>
   <v>       0.50000000       0.00000000      -0.33333333 </v>
   <v>      -0.33333333      -0.00000000      -0.33333333 </v>
   <v>      -0.16666667      -0.00000000      -0.33333333 </v>
   <v>       0.00000000       0.16666667      -0.33333333 </v>
   <v>       0.16666667       0.16666667      -0.33333333 </v>
   <v>       0.33333333       0.16666667      -0.33333333 </v>
   <v>       0.50000000       0.16666667      -0.33333333 </v>
   <v>      -0.33333333       0.16666667      -0.33333333 </v>
   <v>      -0.16666667       0.16666667      -0.33333333 </v>
   <v>       0.00000000       0.33333333      -0.33333333 </v>
   <v>       0.16666667       0.33333333      -0.33333333 </v>
   <v>       0.33333333       0.33333333      -0.33333333 </v>
   <v>       0.50000000       0.33333333      -0.33333333 </v>
   <v>      -0.33333333       0.33333333      -0.33333333 </v>
   <v>      -0.16666667       0.33333333      -0.33333333 </v>
   <v>       0.00000000       0.50000000      -0.33333333 </v>
   <v>       0.16666667       0.50000000      -0.33333333 </v>
   <v>       0.33333333       0.50000000      -0.33333333 </v>
   <v>       0.50000000       0.50000000      -0.33333333 </v>
   <v>      -0.33333333       0.50000000      -0.33333333 </v>
   <v>      -0.16666667       0.50000000      -0.33333333 </v>
   <v>      -0.00000000      -0.33333333      -0.33333333 </v>
   <v>       0.16666667      -0.33333333      -0.33333333 </v>
   <v>       0.33333333      -0.33333333      -0.33333333 </v>
   <v>       0.50000000      -0.33333333      -0.33333333 </v>
   <v>      -0.33333333      -0.33333333      -0.33333333 </v>
   <v>      -0.16666667      -0.33333333      -0.33333333 </v>
   <v>       0.00000000      -0.16666667      -0.33333333 </v>
   <v>       0.16666667      -0.16666667      -0.33333333 </v>
   <v>       0.33333333      -0.16666667      -0.33333333 </v>
   <v>       0.50000000      -0.16666667      -0.33333333 </v>
   <v>      -0.33333333      -0.16666667      -0.33333333 </v>
   <v>      -0.16666667      -0.16666667      -0.33333333 </v>
   <v>       0.00000000       0.00000000      -0.16666667 </v>
   <v>       0.16666667       0.00000000      -0.16666667 </v>
   <v>       0.33333333       0.00000000      -0.16666667 </v>
   <v>       0.50000000       0.00000000      -0.16666667 </v>
   <v>      -0.33333333      -0.00000000      -0.16666667 </v>
   <v>      -0.16666667      -0.00000000      -0.16666667 </v>
   <v>       0.00000000       0.16666667      -0.16666667 </v>
   <v>       0.16666667       0.16666667      -0.16666667 </v>
   <v>       0.33333333       0.16666667      -0.16666667 </v>
   <v>       0.50000000       0.16666667      -0.16666667 </v>
   <v>      -0.33333333       0.16666667      -0.16666667 </v>
   <v>      -0.16666667       0.16666667      -0.16666667 </v>
   <v>       0.00000000       0.33333333      -0.16666667 </v>
   <v>       0.16666667       0.33333333      -0.16666667 </v>
   <v>       0.33333333       0.33333333      -0.16666667 </v>
   <v>       0.50000000       0.33333333      -0.16666667 </v>
   <v>      -0.33333333       0.33333333      -0.16666667 </v>
   <v>      -0.16666667       0.33333333      -0.16666667 </v>
   <v>       0.00000000       0.50000000      -0.16666667 </v>
   <v>       0.16666667       0.50000000      -0.16666667 </v>
   <v>       0.33333333       0.50000000      -0.16666667 </v>
   <v>       0.50000000       0.50000000      -0.16666667 </v>
   <v>      -0.33333333       0.50000000      -0.16666667 </v>
   <v>      -0.16666667       0.50000000      -0.16666667 </v>
   <v>       0.00000000      -0.33333333      -0.16666667 </v>
   <v>       0.16666667      -0.33333333      -0.16666667 </v>
   <v>       0.33333333      -0.33333333      -0.16666667 </v>
   <v>       0.50000000      -0.33333333      -0.16666667 </v>
   <v>      -0.33333333      -0.33333333      -0.16666667 </v>
   <v>      -0.16666667      -0.33333333      -0.16666667 </v>
   <v>       0.00000000      -0.16666667      -0.16666667 </v>
   <v>       0.16666667      -0.16666667      -0.16666667 </v>
   <v>       0.33333333      -0.16666667      -0.16666667 </v>
   <v>       0.50000000      -0.16666667      -0.16666667 </v>
   <v>      -0.33333333      -0.16666667      -0.16666667 </v>
   <v>      -0.16666667      -0.16666667      -0.16666667 </v>
  </varray>
  <varray name="weights" >
   <v>       0.00462963 </v>
   <v>       0.00462963 </v>
   <v>       0.00462963 </v>
   <v>       0.00462963 </v>
   <v>       0.00462963 </v>
   <v>       0.00462963 </v>
   <v>       0.00462963 </v>
   <v>       0.00462963 </v>
   <v>       0.00462963 </v>
   <v>       0.00462963 </v>
   <v>       0.00462963 </v>
   <v>       0.00462963 </v>
   <v>       0.00462963 </v>
   <v>       0.00462963 </v>
   <v>       0.00462963 </v>
   <v>       0.00462963 </v>
   <v>       0.00462963 </v>
   <v>       0.00462963 </v>
   <v>       0.00462963 </v>
   <v>       0.00462963 </v>
   <v>       0.00462963 </v>
   <v>       0.00462963 </v>
   <v>       0.00462963 </v>
   <v>       0.00462963 </v>
   <v>       0.00462963 </v>
   <v>       0.00462963 </v>
   <v>       0.00462963 </v>
   <v>       0.00462963 </v>
   <v>       0.00462963 </v>
   <v>       0.00462963 </v>
   <v>       0.00462963 </v>
   <v>       0.00462963 </v>
   <v>       0.00462963 </v>
   <v>       0.00462963 </v>
   <v>       0.00462963 </v>
   <v>       0.00462963 </v>
   <v>       0.00462963 </v>
   <v>       0.00462963 </v>
   <v>       0.00462963 </v>
   <v>       0.00462963 </v>
   <v>       0.00462963 </v>
   <v>       0.00462963 </v>
   <v>       0.00462963 </v>
   <v>       0.00462963 </v>
   <v>       0.00462963 </v>
   <v>       0.00462963 </v>
   <v>       0.00462963 </v>
   <v>       0.00462963 </v>
   <v>       0.00462963 </v>
   <v>       0.00462963 </v>
   <v>       0.00462963 </v>
   <v>       0.00462963 </v>
   <v>       0.00462963 </v>
   <v>       0.00462963 </v>
   <v>       0.00462963 </v>
   <v>       0.00462963 </v>
   <v>       0.00462963 </v>
   <v>       0.00462963 </v>
   <v>       0.00462963 </v>
   <v>       0.00462963 </v>
   <v>       0.00462963 </v>
   <v>       0.00462963 </v>
   <v>       0.00462963 </v>
   <v>       0.00462963 </v>
   <v>       0.00462963 </v>
   <v>       0.00462963 </v>
   <v>       0.00462963 </v>
   <v>       0.00462963 </v>
   <v>       0.00462963 </v>
   <v>       0.00462963 </v>
   <v>       0.00462963 </v>
   <v>       0.00462963 </v>
   <v>       0.00462963 </v>
   <v>       0.00462963 </v>
   <v>       0.00462963 </v>
   <v>       0.00462963 </v>
   <v>       0.00462963 </v>
   <v>       0.00462963 </v>
   <v>       0.00462963 </v>
   <v>       0.00462963 </v>
   <v>       0.00462963 </v>
   <v>       0.00462963 </v>
   <v>       0.00462963 </v>
   <v>       0.00462963 </v>
   <v>       0.00462963 </v>
   <v>       0.00462963 </v>
   <v>       0.00462963 </v>
   <v>       0.00462963 </v>
   <v>       0.00462963 </v>
   <v>       0.00462963 </v>
   <v>       0.00462963 </v>
   <v>       0.00462963 </v>
   <v>       0.00462963 </v>
   <v>       0.00462963 </v>
   <v>       0.00462963 </v>
   <v>       0.00462963 </v>
   <v>       0.00462963 </v>
   <v>       0.00462963 </v>
   <v>       0.00462963 </v>
   <v>       0.00462963 </v>
   <v>       0.00462963 </v>
   <v>       0.00462963 </v>
   <v>       0.00462963 </v>
   <v>       0.00462963 </v>
   <v>       0.00462963 </v>
   <v>       0.00462963 </v>
   <v>       0.00462963 </v>
   <v>       0.00462963 </v>
   <v>       0.00462963 </v>
   <v>       0.00462963 </v>
   <v>       0.00462963 </v>
   <v>       0.00462963 </v>
   <v>       0.00462963 </v>
   <v>       0.00462963 </v>
   <v>       0.00462963 </v>
   <v>       0.00462963 </v>
   <v>       0.00462963 </v>
   <v>       0.00462963 </v>
   <v>       0.00462963 </v>
   <v>       0.00462963 </v>
   <v>       0.00462963 </v>
   <v>       0.00462963 </v>
   <v>       0.00462963 </v>
   <v>       0.00462963 </v>
   <v>       0.00462963 </v>
   <v>       0.00462963 </v>
   <v>       0.00462963 </v>
   <v>       0.00462963 </v>
   <v>       0.00462963 </v>
   <v>       0.00462963 </v>
   <v>       0.00462963 </v>
   <v>       0.00462963 </v>
   <v>       0.00462963 </v>
   <v>       0.00462963 </v>
   <v>       0.00462963 </v>
   <v>       0.00462963 </v>
   <v>       0.00462963 </v>
   <v>       0.00462963 </v>
   <v>       0.00462963 </v>
   <v>       0.00462963 </v>
   <v>       0.00462963 </v>
   <v>       0.00462963 </v>
   <v>       0.00462963 </v>
   <v>       0.00462963 </v>
   <v>       0.00462963 </v>
   <v>       0.00462963 </v>
   <v>       0.00462963 </v>
   <v>       0.00462963 </v>
   <v>       0.00462963 </v>
   <v>       0.00462963 </v>
   <v>       0.00462963 </v>
   <v>       0.00462963 </v>
   <v>       0.00462963 </v>
   <v>       0.00462963 </v>
   <v>       0.00462963 </v>
   <v>       0.00462963 </v>
   <v>       0.00462963 </v>
   <v>       0.00462963 </v>
   <v>       0.00462963 </v>
   <v>       0.00462963 </v>
   <v>       0.00462963 </v>
   <v>       0.00462963 </v>
   <v>       0.00462963 </v>
   <v>       0.00462963 </v>
   <v>       0.00462963 </v>
   <v>       0.00462963 </v>
   <v>       0.00462963 </v>
   <v>       0.00462963 </v>
   <v>       0.00462963 </v>
   <v>       0.00462963 </v>
   <v>       0.00462963 </v>
   <v>       0.00462963 </v>
   <v>       0.00462963 </v>
   <v>       0.00462963 </v>
   <v>       0.00462963 </v>
   <v>       0.00462963 </v>
   <v>       0.00462963 </v>
   <v>       0.00462963 </v>
   <v>       0.00462963 </v>
   <v>       0.00462963 </v>
   <v>       0.00462963 </v>
   <v>       0.00462963 </v>
   <v>       0.00462963 </v>
   <v>       0.00462963 </v>
   <v>       0.00462963 </v>
   <v>       0.00462963 </v>
   <v>       0.00462963 </v>
   <v>       0.00462963 </v>
   <v>       0.00462963 </v>
   <v>       0.00462963 </v>
   <v>       0.00462963 </v>
   <v>       0.00462963 </v>
   <v>       0.00462963 </v>
   <v>       0.00462963 </v>
   <v>       0.00462963 </v>
   <v>       0.00462963 </v>
   <v>       0.00462963 </v>
   <v>       0.00462963 </v>
   <v>       0.00462963 </v>
   <v>       0.00462963 </v>
   <v>       0.00462963 </v>
   <v>       0.00462963 </v>
   <v>       0.00462963 </v>
   <v>       0.00462963 </v>
   <v>       0.00462963 </v>
   <v>       0.00462963 </v>
   <v>       0.00462963 </v>
   <v>       0.00462963 </v>
   <v>       0.00462963 </v>
   <v>       0.00462963 </v>
   <v>       0.00462963 </v>
   <v>       0.00462963 </v>
   <v>       0.00462963 </v>
   <v>       0.00462963 </v>
   <v>       0.00462963 </v>
   <v>       0.00462963 </v>
  </varray>
 </kpoints>
 <dielectricfunction comment="HEAD OF MICROSCOPIC DIELECTRIC TENSOR (INDEPENDENT PARTICLE)">
  <imag>
   <array>
    <dimension dim="1">gridpoints</dimension>
    <field>energy</field>
    <field>xx</field>
    <field>yy</field>
    <field>zz</field>
    <field>xy</field>
    <field>yz</field>
    <field>zx</field>
    <set>
     <r>     0.0000    -0.0000     0.0000    -0.0000     0.0000     0.0000     0.0000 </r>
     <r>     0.7676     0.0031     0.0031     0.0031    -0.0000     0.0000     0.0000 </r>
     <r>     1.5323     0.0064     0.0064     0.0064    -0.0000     0.0000    -0.0000 </r>
     <r>     2.2915     0.0099     0.0099     0.0099    -0.0000     0.0000    -0.0000 </r>
     <r>     3.0425     0.0139     0.0139     0.0139    -0.0000     0.0000    -0.0000 </r>
     <r>     3.7835     0.0185     0.0185     0.0185    -0.0000     0.0000    -0.0000 </r>
     <r>     4.5133     0.0241     0.0241     0.0241    -0.0000     0.0000    -0.0000 </r>
     <r>     5.2307     0.0311     0.0311     0.0311    -0.0000     0.0000    -0.0000 </r>
     <r>     5.9354     0.0404     0.0404     0.0404    -0.0000     0.0000    -0.0000 </r>
     <r>     6.6275     0.0538     0.0538     0.0538     0.0000     0.0000    -0.0000 </r>
     <r>     7.3076     0.0758     0.0758     0.0758     0.0000     0.0000    -0.0000 </r>
     <r>     7.9765     0.1213     0.1213     0.1213    -0.0000    -0.0000    -0.0000 </r>
     <r>     8.6356     0.2295     0.2295     0.2295    -0.0000     0.0000    -0.0000 </r>
     <r>     9.2864     0.4060     0.4060     0.4060    -0.0000     0.0000    -0.0000 </r>
     <r>     9.9306     0.5655     0.5655     0.5655    -0.0000    -0.0000    -0.0000 </r>
     <r>    10.5702     0.8050     0.8050     0.8050    -0.0000     0.0000    -0.0000 </r>
     <r>    11.2072     1.1061     1.1061     1.1061    -0.0000     0.0000    -0.0000 </r>
     <r>    11.8438     1.4924     1.4924     1.4924    -0.0000     0.0000    -0.0000 </r>
     <r>    12.4826     1.7429     1.7429     1.7429    -0.0000     0.0000    -0.0000 </r>
     <r>    13.1261     2.0065     2.0065     2.0065     0.0000     0.0000    -0.0000 </r>
     <r>    13.7771     2.3531     2.3531     2.3531     0.0000     0.0000     0.0000 </r>
     <r>    14.4387     2.3876     2.3876     2.3876     0.0000    -0.0000     0.0000 </r>
     <r>    15.1141     2.3402     2.3402     2.3402    -0.0000    -0.0000     0.0000 </r>
     <r>    15.8072     2.0652     2.0652     2.0652    -0.0000    -0.0000     0.0000 </r>
     <r>    16.5220     1.8695     1.8695     1.8695     0.0000    -0.0000     0.0000 </r>
     <r>    17.2630     1.5045     1.5045     1.5045     0.0000    -0.0000     0.0000 </r>
     <r>    18.0352     1.3042     1.3042     1.3042     0.0000    -0.0000     0.0000 </r>
     <r>    18.8456     1.1732     1.1732     1.1732     0.0000    -0.0000     0.0000 </r>
     <r>    19.6999     1.1193     1.1193     1.1193     0.0000    -0.0000     0.0000 </r>
     <r>    20.6070     0.9586     0.9586     0.9586    -0.0000    -0.0000     0.0000 </r>
     <r>    21.5767     0.8113     0.8113     0.8113    -0.0000    -0.0000    -0.0000 </r>
     <r>    22.6197     0.5493     0.5493     0.5493    -0.0000    -0.0000    -0.0000 </r>
     <r>    23.7512     0.3809     0.3809     0.3809    -0.0000     0.0000    -0.0000 </r>
     <r>    24.9884     0.2891     0.2891     0.2891    -0.0000     0.0000    -0.0000 </r>
     <r>    26.3519     0.1632     0.1632     0.1632    -0.0000    -0.0000    -0.0000 </r>
     <r>    27.8685     0.1025     0.1025     0.1025    -0.0000     0.0000    -0.0000 </r>
     <r>    29.5739     0.0823     0.0823     0.0823    -0.0000     0.0000    -0.0000 </r>
     <r>    31.5105     0.0598     0.0598     0.0598    -0.0000     0.0000    -0.0000 </r>
     <r>    33.7384     0.0446     0.0446     0.0446    -0.0000     0.0000    -0.0000 </r>
     <r>    36.3349     0.0311     0.0311     0.0311    -0.0000     0.0000    -0.0000 </r>
     <r>    39.4088     0.0204     0.0204     0.0204     0.0000     0.0000     0.0000 </r>
     <r>    43.1117     0.0145     0.0145     0.0145     0.0000     0.0000     0.0000 </r>
     <r>    47.6664     0.0122     0.0122     0.0122     0.0000     0.0000     0.0000 </r>
     <r>    53.4098     0.0117     0.0117     0.0117     0.0000     0.0000    -0.0000 </r>
     <r>    60.8789     0.0096     0.0096     0.0096    -0.0000     0.0000    -0.0000 </r>
     <r>    70.9831     0.0081     0.0081     0.0081     0.0000     0.0000    -0.0000 </r>
     <r>    85.3956     0.0034     0.0034     0.0034     0.0000    -0.0000     0.0000 </r>
     <r>   107.5684     0.0004     0.0004     0.0004     0.0000    -0.0000     0.0000 </r>
     <r>   145.9514     0.0001     0.0001     0.0001     0.0000     0.0000     0.0000 </r>
     <r>   228.1815     0.0000     0.0000     0.0000     0.0000     0.0000     0.0000 </r>
    </set>
   </array>
  </imag>
  <real>
   <array>
    <dimension dim="1">gridpoints</dimension>
    <field>energy</field>
    <field>xx</field>
    <field>yy</field>
    <field>zz</field>
    <field>xy</field>
    <field>yz</field>
    <field>zx</field>
    <set>
     <r>     0.0000     1.9063     1.9063     1.9063    -0.0000     0.0000    -0.0000 </r>
     <r>     0.7676     1.9089     1.9089     1.9089    -0.0000     0.0000    -0.0000 </r>
     <r>     1.5323     1.9169     1.9169     1.9169    -0.0000     0.0000    -0.0000 </r>
     <r>     2.2915     1.9304     1.9304     1.9304    -0.0000     0.0000    -0.0000 </r>
     <r>     3.0425     1.9498     1.9498     1.9498    -0.0000     0.0000    -0.0000 </r>
     <r>     3.7835     1.9758     1.9758     1.9758    -0.0000     0.0000    -0.0000 </r>
     <r>     4.5133     2.0094     2.0094     2.0094    -0.0000     0.0000    -0.0000 </r>
     <r>     5.2307     2.0521     2.0521     2.0521    -0.0000     0.0000    -0.0000 </r>
     <r>     5.9354     2.1062     2.1062     2.1062    -0.0000     0.0000    -0.0000 </r>
     <r>     6.6275     2.1756     2.1756     2.1756    -0.0000     0.0000    -0.0000 </r>
     <r>     7.3076     2.2673     2.2673     2.2673    -0.0000     0.0000    -0.0000 </r>
     <r>     7.9765     2.3916     2.3916     2.3916    -0.0000     0.0000    -0.0000 </r>
     <r>     8.6356     2.5412     2.5412     2.5412    -0.0000     0.0000    -0.0000 </r>
     <r>     9.2864     2.6406     2.6406     2.6406    -0.0000     0.0000    -0.0000 </r>
     <r>     9.9306     2.7297     2.7297     2.7297    -0.0000     0.0000    -0.0000 </r>
     <r>    10.5702     2.8206     2.8206     2.8206    -0.0000     0.0000    -0.0000 </r>
     <r>    11.2072     2.8682     2.8682     2.8682    -0.0000     0.0000    -0.0000 </r>
     <r>    11.8438     2.7651     2.7651     2.7651     0.0000    -0.0000     0.0000 </r>
     <r>    12.4826     2.5510     2.5510     2.5510     0.0000    -0.0000     0.0000 </r>
     <r>    13.1261     2.3893     2.3893     2.3893     0.0000    -0.0000     0.0000 </r>
     <r>    13.7771     2.0006     2.0006     2.0006    -0.0000    -0.0000     0.0000 </r>
     <r>    14.4387     1.5046     1.5046     1.5046    -0.0000    -0.0000     0.0000 </r>
     <r>    15.1141     1.0513     1.0513     1.0513    -0.0000    -0.0000     0.0000 </r>
     <r>    15.8072     0.7081     0.7081     0.7081     0.0000    -0.0000     0.0000 </r>
     <r>    16.5220     0.4665     0.4665     0.4665     0.0000    -0.0000     0.0000 </r>
     <r>    17.2630     0.3206     0.3206     0.3206     0.0000    -0.0000     0.0000 </r>
     <r>    18.0352     0.3537     0.3537     0.3537    -0.0000    -0.0000     0.0000 </r>
     <r>    18.8456     0.3621     0.3621     0.3621    -0.0000    -0.0000     0.0000 </r>
     <r>    19.6999     0.3033     0.3033     0.3033    -0.0000     0.0000    -0.0000 </r>
     <r>    20.6070     0.2125     0.2125     0.2125    -0.0000     0.0000    -0.0000 </r>
     <r>    21.5767     0.1425     0.1425     0.1425    -0.0000     0.0000    -0.0000 </r>
     <r>    22.6197     0.1302     0.1302     0.1302    -0.0000     0.0000    -0.0000 </r>
     <r>    23.7512     0.2439     0.2439     0.2439    -0.0000     0.0000    -0.0000 </r>
     <r>    24.9884     0.3199     0.3199     0.3199     0.0000     0.0000    -0.0000 </r>
     <r>    26.3519     0.4014     0.4014     0.4014     0.0000     0.0000     0.0000 </r>
     <r>    27.8685     0.5208     0.5208     0.5208     0.0000     0.0000     0.0000 </r>
     <r>    29.5739     0.6058     0.6058     0.6058     0.0000     0.0000     0.0000 </r>
     <r>    31.5105     0.6682     0.6682     0.6682     0.0000     0.0000     0.0000 </r>
     <r>    33.7384     0.7240     0.7240     0.7240     0.0000     0.0000     0.0000 </r>
     <r>    36.3349     0.7711     0.7711     0.7711     0.0000     0.0000     0.0000 </r>
     <r>    39.4088     0.8142     0.8142     0.8142     0.0000     0.0000     0.0000 </r>
     <r>    43.1117     0.8529     0.8529     0.8529     0.0000     0.0000     0.0000 </r>
     <r>    47.6664     0.8855     0.8855     0.8855     0.0000     0.0000     0.0000 </r>
     <r>    53.4098     0.9112     0.9112     0.9112     0.0000     0.0000    -0.0000 </r>
     <r>    60.8789     0.9318     0.9318     0.9318     0.0000     0.0000     0.0000 </r>
     <r>    70.9831     0.9487     0.9487     0.9487     0.0000    -0.0000     0.0000 </r>
     <r>    85.3956     0.9630     0.9630     0.9630     0.0000    -0.0000     0.0000 </r>
     <r>   107.5684     0.9770     0.9770     0.9770     0.0000     0.0000     0.0000 </r>
     <r>   145.9514     0.9881     0.9881     0.9881     0.0000     0.0000     0.0000 </r>
     <r>   228.1815     0.9953     0.9953     0.9953     0.0000     0.0000     0.0000 </r>
    </set>
   </array>
  </real>
 </dielectricfunction>
 <varray name="epsilon_diag_mic" >
  <v>       0.00000000       1.90630329 </v>
  <v>       2.05345730       1.33442039 </v>
  <v>       4.10691460       1.06580133 </v>
  <v>       6.16037190       1.00925997 </v>
  <v>       6.16037190       1.00925997 </v>
  <v>       4.10691460       1.06580133 </v>
  <v>       2.05345730       1.33442039 </v>
  <v>       2.05345730       1.33442039 </v>
  <v>       2.37112825       1.26319343 </v>
  <v>       3.93207137       1.07651833 </v>
  <v>       5.80805433       1.01326880 </v>
  <v>       7.11338475       1.00337107 </v>
  <v>       5.16775421       1.02490352 </v>
  <v>       3.35328173       1.12311467 </v>
  <v>       4.10691460       1.06580133 </v>
  <v>       3.93207137       1.07651833 </v>
  <v>       4.74225650       1.03722034 </v>
  <v>       6.16037190       1.00927104 </v>
  <v>       6.70656346       1.00521706 </v>
  <v>       5.16775421       1.02490352 </v>
  <v>       6.16037190       1.00925997 </v>
  <v>       5.80805433       1.01326880 </v>
  <v>       6.16037190       1.00927104 </v>
  <v>       7.11338475       1.00337629 </v>
  <v>       7.11338475       1.00337107 </v>
  <v>       6.16037190       1.00925997 </v>
  <v>       7.11338475       1.00337107 </v>
  <v>       7.11338475       1.00337629 </v>
  <v>       6.16037190       1.00927104 </v>
  <v>       5.80805433       1.01326880 </v>
  <v>       4.10691460       1.06580133 </v>
  <v>       5.16775421       1.02490352 </v>
  <v>       6.70656346       1.00521706 </v>
  <v>       6.16037190       1.00927104 </v>
  <v>       4.74225650       1.03722034 </v>
  <v>       3.93207137       1.07651833 </v>
  <v>       2.05345730       1.33442039 </v>
  <v>       3.35328173       1.12311467 </v>
  <v>       5.16775421       1.02490352 </v>
  <v>       7.11338475       1.00337107 </v>
  <v>       5.80805433       1.01326880 </v>
  <v>       3.93207137       1.07651833 </v>
  <v>       2.37112825       1.26319343 </v>
  <v>       2.05345730       1.33442039 </v>
  <v>       2.37112825       1.26319343 </v>
  <v>       3.93207137       1.07651833 </v>
  <v>       5.80805433       1.01326880 </v>
  <v>       7.11338475       1.00337107 </v>
  <v>       5.16775421       1.02490352 </v>
  <v>       3.35328173       1.12311467 </v>
  <v>       2.37112825       1.26319343 </v>
  <v>       2.05345730       1.33442039 </v>
  <v>       3.35328173       1.12311467 </v>
  <v>       5.16775421       1.02490352 </v>
  <v>       7.11338475       1.00337107 </v>
  <v>       5.80805433       1.01326880 </v>
  <v>       3.93207137       1.07651833 </v>
  <v>       3.93207137       1.07651833 </v>
  <v>       3.35328173       1.12311467 </v>
  <v>       3.93207137       1.07651833 </v>
  <v>       5.30200395       1.02188865 </v>
  <v>       7.01389195       1.00375720 </v>
  <v>       7.01389195       1.00375720 </v>
  <v>       5.30200395       1.02188865 </v>
  <v>       5.80805433       1.01326880 </v>
  <v>       5.16775421       1.02490352 </v>
  <v>       5.30200395       1.02188865 </v>
  <v>       6.16037190       1.00927104 </v>
  <v>       7.01389195       1.00375720 </v>
  <v>       7.11338475       1.00337107 </v>
  <v>       7.01389195       1.00375720 </v>
  <v>       7.11338475       1.00337107 </v>
  <v>       7.01389195       1.00375720 </v>
  <v>       5.16775421       1.02490352 </v>
  <v>       5.80805433       1.01326880 </v>
  <v>       7.01389195       1.00375720 </v>
  <v>       6.16037190       1.00927104 </v>
  <v>       5.30200395       1.02188865 </v>
  <v>       3.35328173       1.12311467 </v>
  <v>       3.93207137       1.07651833 </v>
  <v>       5.30200395       1.02188865 </v>
  <v>       7.01389195       1.00375720 </v>
  <v>       7.01389195       1.00375720 </v>
  <v>       5.30200395       1.02188865 </v>
  <v>       3.93207137       1.07651833 </v>
  <v>       4.10691460       1.06580133 </v>
  <v>       3.93207137       1.07651833 </v>
  <v>       4.74225650       1.03722034 </v>
  <v>       6.16037190       1.00927104 </v>
  <v>       6.70656346       1.00521706 </v>
  <v>       5.16775421       1.02490352 </v>
  <v>       3.93207137       1.07651833 </v>
  <v>       3.35328173       1.12311467 </v>
  <v>       3.93207137       1.07651833 </v>
  <v>       5.30200395       1.02188865 </v>
  <v>       7.01389195       1.00375720 </v>
  <v>       7.01389195       1.00375720 </v>
  <v>       5.30200395       1.02188865 </v>
  <v>       4.74225650       1.03722034 </v>
  <v>       3.93207137       1.07651833 </v>
  <v>       4.10691460       1.06580133 </v>
  <v>       5.16775421       1.02490352 </v>
  <v>       6.70656346       1.00521706 </v>
  <v>       6.16037190       1.00927104 </v>
  <v>       6.16037190       1.00927104 </v>
  <v>       5.30200395       1.02188865 </v>
  <v>       5.16775421       1.02490352 </v>
  <v>       5.80805433       1.01326880 </v>
  <v>       7.01389195       1.00375720 </v>
  <v>       7.01389195       1.00375720 </v>
  <v>       6.70656346       1.00521706 </v>
  <v>       7.01389195       1.00375720 </v>
  <v>       6.70656346       1.00521706 </v>
  <v>       7.01389195       1.00375720 </v>
  <v>       7.01389195       1.00375720 </v>
  <v>       5.16775421       1.02490352 </v>
  <v>       5.30200395       1.02188865 </v>
  <v>       6.16037190       1.00927104 </v>
  <v>       7.01389195       1.00375720 </v>
  <v>       5.80805433       1.01326880 </v>
  <v>       6.16037190       1.00925997 </v>
  <v>       5.80805433       1.01326880 </v>
  <v>       6.16037190       1.00927104 </v>
  <v>       7.11338475       1.00337629 </v>
  <v>       7.11338475       1.00337107 </v>
  <v>       5.80805433       1.01326880 </v>
  <v>       5.16775421       1.02490352 </v>
  <v>       5.30200395       1.02188865 </v>
  <v>       6.16037190       1.00927104 </v>
  <v>       7.01389195       1.00375720 </v>
  <v>       6.16037190       1.00927104 </v>
  <v>       5.30200395       1.02188865 </v>
  <v>       5.16775421       1.02490352 </v>
  <v>       5.80805433       1.01326880 </v>
  <v>       7.01389195       1.00375720 </v>
  <v>       7.11338475       1.00337629 </v>
  <v>       6.16037190       1.00927104 </v>
  <v>       5.80805433       1.01326880 </v>
  <v>       6.16037190       1.00925997 </v>
  <v>       7.11338475       1.00337107 </v>
  <v>       7.01389195       1.00375720 </v>
  <v>       7.11338475       1.00337107 </v>
  <v>       7.11338475       1.00337107 </v>
  <v>       7.01389195       1.00375720 </v>
  <v>       7.11338475       1.00337107 </v>
  <v>       7.01389195       1.00375720 </v>
  <v>       7.01389195       1.00375720 </v>
  <v>       6.70656346       1.00521706 </v>
  <v>       7.01389195       1.00375720 </v>
  <v>       7.01389195       1.00375720 </v>
  <v>       7.11338475       1.00337107 </v>
  <v>       7.11338475       1.00337107 </v>
  <v>       7.01389195       1.00375720 </v>
  <v>       7.01389195       1.00375720 </v>
  <v>       6.70656346       1.00521706 </v>
  <v>       7.01389195       1.00375720 </v>
  <v>       7.01389195       1.00375720 </v>
  <v>       7.11338475       1.00337107 </v>
  <v>       6.16037190       1.00925997 </v>
  <v>       7.11338475       1.00337107 </v>
  <v>       7.11338475       1.00337629 </v>
  <v>       6.16037190       1.00927104 </v>
  <v>       5.80805433       1.01326880 </v>
  <v>       7.11338475       1.00337107 </v>
  <v>       7.01389195       1.00375720 </v>
  <v>       7.11338475       1.00337107 </v>
  <v>       7.01389195       1.00375720 </v>
  <v>       7.11338475       1.00337629 </v>
  <v>       7.11338475       1.00337107 </v>
  <v>       6.16037190       1.00925997 </v>
  <v>       5.80805433       1.01326880 </v>
  <v>       6.16037190       1.00927104 </v>
  <v>       6.16037190       1.00927104 </v>
  <v>       7.01389195       1.00375720 </v>
  <v>       5.80805433       1.01326880 </v>
  <v>       5.16775421       1.02490352 </v>
  <v>       5.30200395       1.02188865 </v>
  <v>       5.80805433       1.01326880 </v>
  <v>       7.01389195       1.00375720 </v>
  <v>       6.16037190       1.00927104 </v>
  <v>       5.30200395       1.02188865 </v>
  <v>       5.16775421       1.02490352 </v>
  <v>       4.10691460       1.06580133 </v>
  <v>       5.16775421       1.02490352 </v>
  <v>       6.70656346       1.00521706 </v>
  <v>       6.16037190       1.00927104 </v>
  <v>       4.74225650       1.03722034 </v>
  <v>       3.93207137       1.07651833 </v>
  <v>       5.16775421       1.02490352 </v>
  <v>       5.80805433       1.01326880 </v>
  <v>       7.01389195       1.00375720 </v>
  <v>       6.16037190       1.00927104 </v>
  <v>       5.30200395       1.02188865 </v>
  <v>       6.70656346       1.00521706 </v>
  <v>       7.01389195       1.00375720 </v>
  <v>       7.01389195       1.00375720 </v>
  <v>       7.01389195       1.00375720 </v>
  <v>       6.70656346       1.00521706 </v>
  <v>       7.01389195       1.00375720 </v>
  <v>       6.16037190       1.00927104 </v>
  <v>       7.01389195       1.00375720 </v>
  <v>       5.80805433       1.01326880 </v>
  <v>       5.16775421       1.02490352 </v>
  <v>       5.30200395       1.02188865 </v>
  <v>       4.74225650       1.03722034 </v>
  <v>       6.16037190       1.00927104 </v>
  <v>       6.70656346       1.00521706 </v>
  <v>       5.16775421       1.02490352 </v>
  <v>       4.10691460       1.06580133 </v>
  <v>       3.93207137       1.07651833 </v>
  <v>       3.93207137       1.07651833 </v>
  <v>       5.30200395       1.02188865 </v>
  <v>       7.01389195       1.00375720 </v>
  <v>       7.01389195       1.00375720 </v>
  <v>       5.30200395       1.02188865 </v>
  <v>       3.93207137       1.07651833 </v>
  <v>       3.35328173       1.12311467 </v>
  <v>       2.05345730       1.33442039 </v>
  <v>       3.35328173       1.12311467 </v>
  <v>       5.16775421       1.02490352 </v>
  <v>       7.11338475       1.00337107 </v>
  <v>       5.80805433       1.01326880 </v>
  <v>       3.93207137       1.07651833 </v>
  <v>       2.37112825       1.26319343 </v>
  <v>       3.35328173       1.12311467 </v>
  <v>       3.93207137       1.07651833 </v>
  <v>       5.30200395       1.02188865 </v>
  <v>       7.01389195       1.00375720 </v>
  <v>       7.01389195       1.00375720 </v>
  <v>       5.30200395       1.02188865 </v>
  <v>       3.93207137       1.07651833 </v>
  <v>       5.16775421       1.02490352 </v>
  <v>       5.30200395       1.02188865 </v>
  <v>       6.16037190       1.00927104 </v>
  <v>       7.01389195       1.00375720 </v>
  <v>       5.80805433       1.01326880 </v>
  <v>       7.11338475       1.00337107 </v>
  <v>       7.01389195       1.00375720 </v>
  <v>       7.01389195       1.00375720 </v>
  <v>       7.11338475       1.00337107 </v>
  <v>       5.80805433       1.01326880 </v>
  <v>       7.01389195       1.00375720 </v>
  <v>       6.16037190       1.00927104 </v>
  <v>       5.30200395       1.02188865 </v>
  <v>       5.16775421       1.02490352 </v>
  <v>       3.93207137       1.07651833 </v>
  <v>       5.30200395       1.02188865 </v>
  <v>       7.01389195       1.00375720 </v>
  <v>       7.01389195       1.00375720 </v>
  <v>       5.30200395       1.02188865 </v>
  <v>       3.93207137       1.07651833 </v>
  <v>       3.35328173       1.12311467 </v>
  <v>       2.37112825       1.26319343 </v>
  <v>       3.93207137       1.07651833 </v>
  <v>       5.80805433       1.01326880 </v>
  <v>       7.11338475       1.00337107 </v>
  <v>       5.16775421       1.02490352 </v>
  <v>       3.35328173       1.12311467 </v>
  <v>       2.05345730       1.33442039 </v>
 </varray>
 <dielectricfunction comment="1 + v P,  with REDUCIBLE POLARIZABILTY P=P_0 (1 -(v+f) P_0)^-1">
  <imag>
   <array>
    <dimension dim="1">gridpoints</dimension>
    <field>energy</field>
    <field>xx</field>
    <field>yy</field>
    <field>zz</field>
    <field>xy</field>
    <field>yz</field>
    <field>zx</field>
    <set>
     <r>     0.0000    -0.0000    -0.0000    -0.0000    -0.0000    -0.0000    -0.0000 </r>
     <r>     0.7676     0.0020     0.0020     0.0020     0.0000    -0.0000    -0.0000 </r>
     <r>     1.5323     0.0041     0.0041     0.0041     0.0000    -0.0000     0.0000 </r>
     <r>     2.2915     0.0064     0.0064     0.0064     0.0000    -0.0000     0.0000 </r>
     <r>     3.0425     0.0090     0.0090     0.0090     0.0000    -0.0000     0.0000 </r>
     <r>     3.7835     0.0120     0.0120     0.0120     0.0000    -0.0000     0.0000 </r>
     <r>     4.5133     0.0157     0.0157     0.0157     0.0000    -0.0000     0.0000 </r>
[...]
  <v>       7.20879751       1.00303849 </v>
  <v>       5.76419386       1.01385073 </v>
  <v>       4.78732431       1.03563688 </v>
  <v>       2.64362782       1.21454501 </v>
  <v>       3.27672614       1.13105668 </v>
  <v>       4.78732431       1.03564532 </v>
  <v>       6.59798361       1.00585032 </v>
  <v>       6.80768039       1.00468458 </v>
  <v>       4.97921250       1.02976708 </v>
  <v>       3.41672002       1.11720527 </v>
  <v>       3.13047802       1.14702339 </v>
  <v>       2.81528144       1.18778367 </v>
  <v>       3.80592962       1.08521316 </v>
  <v>       5.42934294       1.01931313 </v>
  <v>       6.23283082       1.00857589 </v>
  <v>       4.48412193       1.04707714 </v>
  <v>       3.13047802       1.14708030 </v>
  <v>       2.26156694       1.28720908 </v>
  <v>       2.97705410       1.16572887 </v>
  <v>       4.58741659       1.04287993 </v>
  <v>       6.45440196       1.00681003 </v>
  <v>       6.66861524       1.00543221 </v>
  <v>       4.78732431       1.03565023 </v>
  <v>       4.27004291       1.05710412 </v>
  <v>       3.27672614       1.13108498 </v>
  <v>       3.41672002       1.11718080 </v>
  <v>       4.58741659       1.04287993 </v>
  <v>       6.23283082       1.00858136 </v>
  <v>       5.84490996       1.01279321 </v>
  <v>       5.92452647       1.01180052 </v>
  <v>       4.97921250       1.02978003 </v>
  <v>       4.78732431       1.03564532 </v>
  <v>       5.42934294       1.01931313 </v>
  <v>       6.66861524       1.00543586 </v>
  <v>       6.87615836       1.00435066 </v>
  <v>       6.52658764       1.00630544 </v>
  <v>       6.80768039       1.00468604 </v>
  <v>       5.92452647       1.01178823 </v>
  <v>       6.23283082       1.00858828 </v>
  <v>       7.14350894       1.00326073 </v>
  <v>       6.30755274       1.00795302 </v>
  <v>       4.27004291       1.05706405 </v>
  <v>       4.37839102       1.05183059 </v>
  <v>       5.34235185       1.02102190 </v>
  <v>       6.80768039       1.00468604 </v>
  <v>       6.45440196       1.00681234 </v>
  <v>       5.07243518       1.02725076 </v>
  <v>       5.16397523       1.02496265 </v>
  <v>       4.68843604       1.03904494 </v>
  <v>       5.07243518       1.02724827 </v>
  <v>       6.15720217       1.00928672 </v>
  <v>       6.30755274       1.00793885 </v>
  <v>       4.88421085       1.03255759 </v>
  <v>       4.04464873       1.06950546 </v>
  <v>       4.15887303       1.06294657 </v>
  <v>       5.16397523       1.02496499 </v>
  <v>       6.66861524       1.00543586 </v>
  <v>       6.30755274       1.00793910 </v>
  <v>       5.42934294       1.01930718 </v>
  <v>       4.37839102       1.05183605 </v>
  <v>       4.15887303       1.06293139 </v>
  <v>       4.88421085       1.03254742 </v>
  <v>       6.23283082       1.00858136 </v>
  <v>       6.94396107       1.00404846 </v>
  <v>       6.59798361       1.00586249 </v>
  <v>       5.51496204       1.01775139 </v>
  <v>       5.07243518       1.02725613 </v>
  <v>       5.42934294       1.01930416 </v>
  <v>       6.45440196       1.00681003 </v>
  <v>       7.07761813       1.00350314 </v>
  <v>       6.52658764       1.00630592 </v>
  <v>       6.59798361       1.00585032 </v>
  <v>       6.15720217       1.00928925 </v>
  <v>       6.00308716       1.01088439 </v>
  <v>       6.52658764       1.00632146 </v>
  <v>       6.94396107       1.00404855 </v>
  <v>       7.20879751       1.00303725 </v>
  <v>       6.66861524       1.00543712 </v>
  <v>       6.73850657       1.00505084 </v>
  <v>       6.80768039       1.00468554 </v>
  <v>       6.00308716       1.01088896 </v>
  <v>       5.84490996       1.01279120 </v>
  <v>       6.38139978       1.00736533 </v>
  <v>       7.01110811       1.00376610 </v>
  <v>       6.00308716       1.01089344 </v>
  <v>       5.59927208       1.01634857 </v>
  <v>       5.92452647       1.01179911 </v>
  <v>       6.87615836       1.00435577 </v>
  <v>       6.66861524       1.00543953 </v>
  <v>       6.08063294       1.01005885 </v>
  <v>       6.15720217       1.00929230 </v>
  <v>       6.87615836       1.00435234 </v>
  <v>       7.14350894       1.00326137 </v>
  <v>       7.01110811       1.00376327 </v>
  <v>       7.20879751       1.00303725 </v>
  <v>       6.94396107       1.00404855 </v>
  <v>       7.01110811       1.00376341 </v>
  <v>       6.66861524       1.00543221 </v>
  <v>       6.94396107       1.00404846 </v>
  <v>       7.01110811       1.00376610 </v>
  <v>       6.80768039       1.00468458 </v>
  <v>       6.23283082       1.00857589 </v>
  <v>       6.30755274       1.00793910 </v>
  <v>       6.80768039       1.00468554 </v>
  <v>       7.20879751       1.00303849 </v>
  <v>       6.45440196       1.00681234 </v>
  <v>       6.30755274       1.00793885 </v>
  <v>       5.16397523       1.02496265 </v>
  <v>       6.00308716       1.01088896 </v>
  <v>       7.01110811       1.00376713 </v>
  <v>       5.76419386       1.01385073 </v>
  <v>       5.07243518       1.02725076 </v>
  <v>       6.15720217       1.00928925 </v>
  <v>       6.66861524       1.00543712 </v>
  <v>       7.07761813       1.00350503 </v>
  <v>       6.30755274       1.00795302 </v>
  <v>       7.07761813       1.00350901 </v>
  <v>       6.59798361       1.00586249 </v>
  <v>       6.38139978       1.00736386 </v>
  <v>       5.76419386       1.01387078 </v>
  <v>       5.84490996       1.01279321 </v>
  <v>       5.42934294       1.01930718 </v>
  <v>       6.66861524       1.00543953 </v>
  <v>       5.92452647       1.01179601 </v>
  <v>       4.97921250       1.02976267 </v>
  <v>       4.78732431       1.03565023 </v>
  <v>       4.88421085       1.03255759 </v>
  <v>       6.00308716       1.01089344 </v>
  <v>       6.15720217       1.00929780 </v>
  <v>       4.97921250       1.02976708 </v>
  <v>       4.48412193       1.04707714 </v>
  <v>       3.13047802       1.14702339 </v>
  <v>       4.04464873       1.06950546 </v>
  <v>       5.59927208       1.01634858 </v>
  <v>       6.38139978       1.00736716 </v>
  <v>       4.68843604       1.03906144 </v>
  <v>       3.41672002       1.11720527 </v>
  <v>       4.27004291       1.05706405 </v>
  <v>       4.68843604       1.03904494 </v>
  <v>       5.84490996       1.01279120 </v>
  <v>       6.00308716       1.01088481 </v>
  <v>       4.78732431       1.03563688 </v>
  <v>       5.92452647       1.01178823 </v>
  <v>       6.00308716       1.01088439 </v>
  <v>       6.73850657       1.00505084 </v>
  <v>       6.52658764       1.00632059 </v>
  <v>       7.07761813       1.00350794 </v>
  <v>       7.14350894       1.00326733 </v>
  <v>       5.92452647       1.01180052 </v>
  <v>       7.07761813       1.00350314 </v>
  <v>       6.38139978       1.00736716 </v>
  <v>       5.51496204       1.01777669 </v>
  <v>       5.34235185       1.02104872 </v>
  <v>       4.27004291       1.05710412 </v>
  <v>       5.51496204       1.01775139 </v>
  <v>       7.14350894       1.00326137 </v>
  <v>       5.68233133       1.01505819 </v>
  <v>       4.37839102       1.05179457 </v>
  <v>       3.80592962       1.08518493 </v>
  <v>       3.13047802       1.14708030 </v>
  <v>       4.37839102       1.05183605 </v>
  <v>       6.08063294       1.01005885 </v>
  <v>       5.68233133       1.01505819 </v>
  <v>       4.04464873       1.06953592 </v>
  <v>       2.97705410       1.16581398 </v>
  <v>       1.16898199       1.61298955 </v>
  <v>       2.26156694       1.28720908 </v>
  <v>       4.15887303       1.06293138 </v>
  <v>       6.15720217       1.00929230 </v>
  <v>       6.38139978       1.00736386 </v>
  <v>       4.37839102       1.05179457 </v>
  <v>       2.46002572       1.24703882 </v>
  <v>       2.64362782       1.21454500 </v>
  <v>       2.81528144       1.18778367 </v>
  <v>       4.15887303       1.06294657 </v>
  <v>       5.92452647       1.01179911 </v>
  <v>       5.51496204       1.01777669 </v>
  <v>       3.80592962       1.08517468 </v>
  <v>       4.58741659       1.04286017 </v>
  <v>       4.37839102       1.05183059 </v>
  <v>       5.07243518       1.02724827 </v>
  <v>       6.38139978       1.00736533 </v>
  <v>       7.07761813       1.00350794 </v>
  <v>       5.59927208       1.01635458 </v>
  <v>       6.59798361       1.00585731 </v>
  <v>       6.23283082       1.00858828 </v>
  <v>       6.52658764       1.00632146 </v>
  <v>       5.92452647       1.01179399 </v>
  <v>       6.87615836       1.00435066 </v>
  <v>       7.01110811       1.00376713 </v>
  <v>       6.00308716       1.01088481 </v>
  <v>       5.59927208       1.01635458 </v>
  <v>       3.92710349       1.07688580 </v>
  <v>       4.97921250       1.02978003 </v>
  <v>       6.52658764       1.00630592 </v>
  <v>       6.15720217       1.00929780 </v>
  <v>       4.68843604       1.03906144 </v>
  <v>       3.80592962       1.08517468 </v>
  <v>       2.04392844       1.33870721 </v>
  <v>       3.27672614       1.13108498 </v>
  <v>       5.07243518       1.02725613 </v>
  <v>       7.01110811       1.00376327 </v>
  <v>       5.92452647       1.01179601 </v>
  <v>       4.04464873       1.06953592 </v>
  <v>       2.46002572       1.24703882 </v>
 </varray>
 <varray name="epsilon_diag" >
  <v>       1.16898199       0.69059649 </v>
  <v>       1.51774847       0.73326339 </v>
  <v>       3.41672002       0.92285367 </v>
  <v>       5.42934294       0.98420056 </v>
  <v>       7.01110811       0.99672399 </v>
  <v>       4.97921250       0.97649888 </v>
  <v>       2.97705410       0.89751688 </v>
  <v>       2.04392844       0.80420749 </v>
  <v>       1.51774847       0.73326339 </v>
  <v>       2.97705410       0.89668626 </v>
  <v>       4.88421085       0.97449571 </v>
  <v>       6.87615836       0.99621775 </v>
  <v>       5.76419386       0.98841941 </v>
  <v>       3.80592962       0.94061967 </v>
  <v>       3.92710349       0.94563927 </v>
  <v>       3.27672614       0.91517658 </v>
  <v>       3.80592962       0.94072641 </v>
  <v>       5.16397523       0.97996016 </v>
  <v>       6.87615836       0.99621591 </v>
  <v>       7.07761813       0.99693404 </v>
  <v>       5.34235185       0.98287227 </v>
  <v>       5.92452647       0.99006656 </v>
  <v>       5.25392060       0.98150839 </v>
  <v>       5.34235185       0.98290259 </v>
  <v>       6.15720217       0.99209148 </v>
  <v>       7.14350894       0.99714167 </v>
  <v>       7.14350894       0.99715212 </v>
  <v>       6.59798361       0.99493953 </v>
  <v>       7.07761813       0.99694382 </v>
  <v>       6.52658764       0.99455563 </v>
  <v>       4.58741659       0.96732819 </v>
  <v>       5.25392060       0.98150839 </v>
  <v>       6.52658764       0.99457754 </v>
  <v>       7.20879751       0.99734710 </v>
  <v>       5.76419386       0.98845181 </v>
  <v>       4.78732431       0.97230257 </v>
  <v>       2.64362782       0.87155704 </v>
  <v>       3.27672614       0.91517658 </v>
  <v>       4.78732431       0.97231872 </v>
  <v>       6.59798361       0.99495244 </v>
  <v>       6.80768039       0.99594138 </v>
  <v>       4.97921250       0.97648096 </v>
  <v>       3.41672002       0.92278685 </v>
  <v>       3.13047802       0.90772730 </v>
  <v>       2.81528144       0.88534142 </v>
  <v>       3.80592962       0.94072641 </v>
  <v>       5.42934294       0.98417763 </v>
  <v>       6.23283082       0.99270305 </v>
  <v>       4.48412193       0.96451419 </v>
  <v>       3.13047802       0.90646811 </v>
  <v>       2.26156694       0.83356753 </v>
  <v>       2.97705410       0.89668626 </v>
  <v>       4.58741659       0.96731238 </v>
  <v>       6.45440196       0.99414603 </v>
  <v>       6.66861524       0.99530782 </v>
  <v>       4.78732431       0.97231040 </v>
  <v>       4.27004291       0.95793765 </v>
  <v>       3.27672614       0.91478562 </v>
  <v>       3.41672002       0.92285367 </v>
  <v>       4.58741659       0.96731238 </v>
  <v>       6.23283082       0.99269357 </v>
  <v>       5.84490996       0.98927095 </v>
  <v>       5.92452647       0.99006595 </v>
  <v>       4.97921250       0.97648756 </v>
  <v>       4.78732431       0.97231872 </v>
  <v>       5.42934294       0.98417763 </v>
  <v>       6.66861524       0.99529425 </v>
  <v>       6.87615836       0.99622101 </v>
  <v>       6.52658764       0.99457754 </v>
  <v>       6.80768039       0.99593004 </v>
  <v>       5.92452647       0.99007757 </v>
  <v>       6.23283082       0.99267359 </v>
  <v>       7.14350894       0.99715212 </v>
  <v>       6.30755274       0.99319703 </v>
  <v>       4.27004291       0.95791060 </v>
  <v>       4.37839102       0.96131138 </v>
  <v>       5.34235185       0.98290259 </v>
  <v>       6.80768039       0.99593004 </v>
  <v>       6.45440196       0.99415129 </v>
  <v>       5.07243518       0.97827920 </v>
  <v>       5.16397523       0.97999212 </v>
  <v>       4.68843604       0.96994278 </v>
  <v>       5.07243518       0.97828230 </v>
  <v>       6.15720217       0.99209148 </v>
  <v>       6.30755274       0.99322374 </v>
  <v>       4.88421085       0.97449371 </v>
  <v>       4.04464873       0.95005704 </v>
  <v>       4.15887303       0.95410844 </v>
  <v>       5.16397523       0.97996016 </v>
  <v>       6.66861524       0.99529425 </v>
  <v>       6.30755274       0.99322646 </v>
  <v>       5.42934294       0.98422800 </v>
  <v>       4.37839102       0.96132809 </v>
  <v>       4.15887303       0.95420069 </v>
  <v>       4.88421085       0.97449571 </v>
  <v>       6.23283082       0.99269357 </v>
  <v>       6.94396107       0.99647891 </v>
  <v>       6.59798361       0.99493981 </v>
  <v>       5.51496204       0.98542674 </v>
  <v>       5.07243518       0.97831118 </v>
  <v>       5.42934294       0.98420056 </v>
  <v>       6.45440196       0.99414603 </v>
  <v>       7.07761813       0.99694769 </v>
  <v>       6.52658764       0.99458415 </v>
  <v>       6.59798361       0.99495244 </v>
  <v>       6.15720217       0.99210725 </v>
  <v>       6.00308716       0.99081073 </v>
  <v>       6.52658764       0.99455250 </v>
  <v>       6.94396107       0.99647843 </v>
  <v>       7.20879751       0.99735035 </v>
  <v>       6.66861524       0.99530282 </v>
  <v>       6.73850657       0.99562297 </v>
  <v>       6.80768039       0.99594115 </v>
  <v>       6.00308716       0.99079885 </v>
  <v>       5.84490996       0.98925783 </v>
  <v>       6.38139978       0.99367559 </v>
  <v>       7.01110811       0.99672198 </v>
  <v>       6.00308716       0.99079047 </v>
  <v>       5.59927208       0.98644156 </v>
  <v>       5.92452647       0.99005439 </v>
  <v>       6.87615836       0.99621591 </v>
  <v>       6.66861524       0.99529710 </v>
  <v>       6.08063294       0.99146822 </v>
  <v>       6.15720217       0.99208900 </v>
  <v>       6.87615836       0.99621775 </v>
  <v>       7.14350894       0.99715656 </v>
  <v>       7.01110811       0.99672220 </v>
  <v>       7.20879751       0.99735035 </v>
  <v>       6.94396107       0.99647843 </v>
  <v>       7.01110811       0.99672399 </v>
  <v>       6.66861524       0.99530782 </v>
  <v>       6.94396107       0.99647891 </v>
  <v>       7.01110811       0.99672198 </v>
  <v>       6.80768039       0.99594138 </v>
  <v>       6.23283082       0.99270305 </v>
  <v>       6.30755274       0.99322646 </v>
  <v>       6.80768039       0.99594115 </v>
  <v>       7.20879751       0.99734710 </v>
  <v>       6.45440196       0.99415129 </v>
  <v>       6.30755274       0.99322374 </v>
  <v>       5.16397523       0.97999212 </v>
  <v>       6.00308716       0.99079885 </v>
  <v>       7.01110811       0.99672040 </v>
  <v>       5.76419386       0.98845181 </v>
  <v>       5.07243518       0.97827920 </v>
  <v>       6.15720217       0.99210725 </v>
  <v>       6.66861524       0.99530282 </v>
  <v>       7.07761813       0.99694382 </v>
  <v>       6.30755274       0.99319703 </v>
  <v>       7.07761813       0.99693404 </v>
  <v>       6.59798361       0.99493981 </v>
  <v>       6.38139978       0.99367983 </v>
  <v>       5.76419386       0.98841941 </v>
  <v>       5.84490996       0.98927095 </v>
  <v>       5.42934294       0.98422800 </v>
  <v>       6.66861524       0.99529710 </v>
  <v>       5.92452647       0.99006365 </v>
  <v>       4.97921250       0.97649888 </v>
  <v>       4.78732431       0.97231040 </v>
  <v>       4.88421085       0.97449371 </v>
  <v>       6.00308716       0.99079047 </v>
  <v>       6.15720217       0.99209561 </v>
  <v>       4.97921250       0.97648096 </v>
  <v>       4.48412193       0.96451419 </v>
  <v>       3.13047802       0.90772730 </v>
  <v>       4.04464873       0.95005704 </v>
  <v>       5.59927208       0.98644156 </v>
  <v>       6.38139978       0.99367918 </v>
  <v>       4.68843604       0.96993930 </v>
  <v>       3.41672002       0.92278685 </v>
  <v>       4.27004291       0.95791060 </v>
  <v>       4.68843604       0.96994278 </v>
  <v>       5.84490996       0.98925783 </v>
  <v>       6.00308716       0.99081527 </v>
  <v>       4.78732431       0.97230257 </v>
  <v>       5.92452647       0.99007757 </v>
  <v>       6.00308716       0.99081073 </v>
  <v>       6.73850657       0.99562297 </v>
  <v>       6.52658764       0.99455563 </v>
  <v>       7.07761813       0.99693747 </v>
  <v>       7.14350894       0.99714167 </v>
  <v>       5.92452647       0.99006595 </v>
  <v>       7.07761813       0.99694769 </v>
  <v>       6.38139978       0.99367918 </v>
  <v>       5.51496204       0.98537166 </v>
  <v>       5.34235185       0.98287227 </v>
  <v>       4.27004291       0.95793765 </v>
  <v>       5.51496204       0.98542674 </v>
  <v>       7.14350894       0.99715656 </v>
  <v>       5.68233133       0.98745798 </v>
  <v>       4.37839102       0.96136290 </v>
  <v>       3.80592962       0.94061967 </v>
  <v>       3.13047802       0.90646811 </v>
  <v>       4.37839102       0.96132809 </v>
  <v>       6.08063294       0.99146822 </v>
  <v>       5.68233133       0.98745798 </v>
  <v>       4.04464873       0.94999091 </v>
  <v>       2.97705410       0.89751687 </v>
  <v>       1.16898199       0.69059650 </v>
  <v>       2.26156694       0.83356753 </v>
  <v>       4.15887303       0.95420069 </v>
  <v>       6.15720217       0.99208900 </v>
  <v>       6.38139978       0.99367983 </v>
  <v>       4.37839102       0.96136290 </v>
  <v>       2.46002572       0.85401978 </v>
  <v>       2.64362782       0.87155704 </v>
  <v>       2.81528144       0.88534142 </v>
  <v>       4.15887303       0.95410844 </v>
  <v>       5.92452647       0.99005439 </v>
  <v>       5.51496204       0.98537166 </v>
  <v>       3.80592962       0.94053990 </v>
  <v>       4.58741659       0.96732819 </v>
  <v>       4.37839102       0.96131138 </v>
  <v>       5.07243518       0.97828230 </v>
  <v>       6.38139978       0.99367559 </v>
  <v>       7.07761813       0.99693747 </v>
  <v>       5.59927208       0.98647330 </v>
  <v>       6.59798361       0.99493953 </v>
  <v>       6.23283082       0.99267359 </v>
  <v>       6.52658764       0.99455250 </v>
  <v>       5.92452647       0.99006656 </v>
  <v>       6.87615836       0.99622101 </v>
  <v>       7.01110811       0.99672040 </v>
  <v>       6.00308716       0.99081527 </v>
  <v>       5.59927208       0.98647330 </v>
  <v>       3.92710349       0.94563927 </v>
  <v>       4.97921250       0.97648756 </v>
  <v>       6.52658764       0.99458415 </v>
  <v>       6.15720217       0.99209561 </v>
  <v>       4.68843604       0.96993930 </v>
  <v>       3.80592962       0.94053990 </v>
  <v>       2.04392844       0.80420749 </v>
  <v>       3.27672614       0.91478562 </v>
  <v>       5.07243518       0.97831118 </v>
  <v>       7.01110811       0.99672220 </v>
  <v>       5.92452647       0.99006365 </v>
  <v>       4.04464873       0.94999091 </v>
  <v>       2.46002572       0.85401978 </v>
 </varray>
