   1   1   0   0
  0.1628488E+02  0.2845115E-09  0.2845115E-09  0.2845115E-09  0.1000000E-15
  1.000000000000000E-004
  CAR 
 Og_FCC                                  
    166.72150486    -25.26386021  301    -15.34461635      1.00000000
    -25.264  0.0000E+00  0.0000E+00
    -24.624  0.0000E+00  0.0000E+00
    -23.984  0.0000E+00  0.0000E+00
    -23.344  0.0000E+00  0.0000E+00
    -22.704  0.0000E+00  0.0000E+00
    -22.064  0.0000E+00  0.0000E+00
    -21.424  0.0000E+00  0.0000E+00
    -20.784  0.0000E+00  0.0000E+00
    -20.144  0.0000E+00  0.0000E+00
    -19.504  0.0000E+00  0.0000E+00
    -18.864  0.0000E+00  0.0000E+00
    -18.224  0.0000E+00  0.0000E+00
    -17.584  0.0000E+00  0.0000E+00
    -16.944  0.0000E+00  0.0000E+00
    -16.305  0.0000E+00  0.8333E-01
    -15.665  0.0000E+00  0.8241E+00
    -15.025  0.0000E+00  0.2000E+01
    -14.385  0.0000E+00  0.2000E+01
    -13.745  0.0000E+00  0.2000E+01
    -13.105  0.0000E+00  0.2000E+01
    -12.465  0.0000E+00  0.2000E+01
    -11.825  0.0000E+00  0.2000E+01
    -11.185  0.0000E+00  0.2000E+01
    -10.545  0.0000E+00  0.2000E+01
     -9.905  0.0000E+00  0.2000E+01
     -9.265  0.0000E+00  0.2000E+01
     -8.625  0.0000E+00  0.2000E+01
     -7.985  0.0000E+00  0.2000E+01
     -7.345  0.0000E+00  0.2000E+01
     -6.705  0.0000E+00  0.2000E+01
     -6.065  0.0000E+00  0.2000E+01
     -5.425  0.0000E+00  0.2000E+01
     -4.785  0.0000E+00  0.2000E+01
     -4.145  0.0000E+00  0.2000E+01
     -3.506  0.0000E+00  0.2000E+01
     -2.866  0.0000E+00  0.2000E+01
     -2.226  0.0000E+00  0.2000E+01
     -1.586  0.0000E+00  0.2000E+01
     -0.946  0.0000E+00  0.2000E+01
     -0.306  0.0000E+00  0.2000E+01
      0.334  0.0000E+00  0.2000E+01
      0.974  0.0000E+00  0.2000E+01
      1.614  0.0000E+00  0.2000E+01
      2.254  0.0000E+00  0.2000E+01
      2.894  0.0000E+00  0.2000E+01
      3.534  0.0000E+00  0.2000E+01
      4.174  0.0000E+00  0.2037E+01
      4.814  0.0000E+00  0.3028E+01
      5.454  0.0000E+00  0.3306E+01
      6.094  0.0000E+00  0.3556E+01
      6.734  0.0000E+00  0.3889E+01
      7.374  0.0000E+00  0.4000E+01
      8.014  0.0000E+00  0.4000E+01
      8.654  0.0000E+00  0.4111E+01
      9.294  0.0000E+00  0.4333E+01
      9.933  0.0000E+00  0.4444E+01
     10.573  0.0000E+00  0.4778E+01
     11.213  0.4341E-01  0.5250E+01
     11.853  0.0000E+00  0.5509E+01
     12.493  0.0000E+00  0.5731E+01
     13.133  0.0000E+00  0.5806E+01
     13.773  0.0000E+00  0.6028E+01
     14.413  0.0000E+00  0.6639E+01
     15.053  0.0000E+00  0.6750E+01
     15.693  0.0000E+00  0.7139E+01
     16.333  0.0000E+00  0.7139E+01
     16.973  0.0000E+00  0.7278E+01
     17.613  0.0000E+00  0.8241E+01
     18.253  0.0000E+00  0.8519E+01
     18.893  0.0000E+00  0.8630E+01
     19.533  0.0000E+00  0.9519E+01
     20.173  0.0000E+00  0.9741E+01
     20.813  0.0000E+00  0.9889E+01
     21.453  0.0000E+00  0.1028E+02
     22.093  0.0000E+00  0.1031E+02
     22.732  0.0000E+00  0.1036E+02
     23.372  0.0000E+00  0.1136E+02
     24.012  0.0000E+00  0.1171E+02
     24.652  0.3256E+00  0.1218E+02
     25.292  0.0000E+00  0.1264E+02
     25.932  0.0000E+00  0.1271E+02
     26.572  0.0000E+00  0.1296E+02
     27.212  0.0000E+00  0.1336E+02
     27.852  0.0000E+00  0.1395E+02
     28.492  0.0000E+00  0.1406E+02
     29.132  0.0000E+00  0.1436E+02
     29.772  0.0000E+00  0.1472E+02
     30.412  0.0000E+00  0.1539E+02
     31.052  0.0000E+00  0.1561E+02
     31.692  0.0000E+00  0.1617E+02
     32.332  0.0000E+00  0.1651E+02
     32.972  0.0000E+00  0.1718E+02
     33.612  0.0000E+00  0.1740E+02
     34.252  0.0000E+00  0.1760E+02
     34.892  0.0000E+00  0.1841E+02
     35.532  0.0000E+00  0.1848E+02
     36.171  0.0000E+00  0.1893E+02
     36.811  0.0000E+00  0.1943E+02
     37.451  0.0000E+00  0.2009E+02
     38.091  0.0000E+00  0.2054E+02
     38.731  0.0000E+00  0.2069E+02
     39.371  0.0000E+00  0.2091E+02
     40.011  0.0000E+00  0.2141E+02
     40.651  0.0000E+00  0.2148E+02
     41.291  0.0000E+00  0.2281E+02
     41.931  0.0000E+00  0.2329E+02
     42.571  0.0000E+00  0.2369E+02
     43.211  0.0000E+00  0.2432E+02
     43.851  0.0000E+00  0.2452E+02
     44.491  0.0000E+00  0.2496E+02
     45.131  0.0000E+00  0.2530E+02
     45.771  0.0000E+00  0.2593E+02
     46.411  0.0000E+00  0.2629E+02
     47.051  0.0000E+00  0.2662E+02
     47.691  0.0000E+00  0.2701E+02
     48.331  0.0000E+00  0.2712E+02
     48.970  0.0000E+00  0.2768E+02
     49.610  0.0000E+00  0.2870E+02
     50.250  0.0000E+00  0.2959E+02
     50.890  0.0000E+00  0.3010E+02
     51.530  0.0000E+00  0.3010E+02
     52.170  0.0000E+00  0.3077E+02
     52.810  0.0000E+00  0.3127E+02
     53.450  0.0000E+00  0.3188E+02
     54.090  0.0000E+00  0.3238E+02
     54.730  0.0000E+00  0.3321E+02
     55.370  0.0000E+00  0.3371E+02
     56.010  0.0000E+00  0.3416E+02
     56.650  0.0000E+00  0.3427E+02
     57.290  0.0000E+00  0.3486E+02
     57.930  0.0000E+00  0.3519E+02
     58.570  0.0000E+00  0.3565E+02
     59.210  0.0000E+00  0.3598E+02
     59.850  0.0000E+00  0.3654E+02
     60.490  0.0000E+00  0.3720E+02
     61.130  0.0000E+00  0.3772E+02
     61.770  0.0000E+00  0.3844E+02
     62.409  0.1736E+00  0.3924E+02
     63.049  0.0000E+00  0.3969E+02
     63.689  0.8681E-01  0.4041E+02
     64.329  0.0000E+00  0.4115E+02
     64.969  0.0000E+00  0.4193E+02
     65.609  0.0000E+00  0.4215E+02
     66.249  0.8681E-01  0.4281E+02
     66.889  0.0000E+00  0.4322E+02
     67.529  0.0000E+00  0.4389E+02
     68.169  0.0000E+00  0.4400E+02
     68.809  0.0000E+00  0.4450E+02
     69.449  0.0000E+00  0.4522E+02
     70.089  0.0000E+00  0.4525E+02
     70.729  0.1447E-01  0.4629E+02
     71.369  0.0000E+00  0.4651E+02
     72.009  0.0000E+00  0.4740E+02
     72.649  0.0000E+00  0.4802E+02
     73.289  0.0000E+00  0.4841E+02
     73.929  0.0000E+00  0.4894E+02
     74.569  0.0000E+00  0.4972E+02
     75.208  0.0000E+00  0.5046E+02
     75.848  0.0000E+00  0.5135E+02
     76.488  0.0000E+00  0.5206E+02
     77.128  0.0000E+00  0.5293E+02
     77.768  0.0000E+00  0.5372E+02
     78.408  0.0000E+00  0.5450E+02
     79.048  0.0000E+00  0.5472E+02
     79.688  0.4341E-01  0.5504E+02
     80.328  0.0000E+00  0.5541E+02
     80.968  0.0000E+00  0.5574E+02
     81.608  0.0000E+00  0.5587E+02
     82.248  0.0000E+00  0.5669E+02
     82.888  0.0000E+00  0.5758E+02
     83.528  0.0000E+00  0.5831E+02
     84.168  0.0000E+00  0.5903E+02
     84.808  0.7821E-03  0.5945E+02
     85.448  0.0000E+00  0.6051E+02
     86.088  0.0000E+00  0.6084E+02
     86.728  0.0000E+00  0.6147E+02
     87.368  0.0000E+00  0.6203E+02
     88.008  0.0000E+00  0.6292E+02
     88.647  0.0000E+00  0.6387E+02
     89.287  0.0000E+00  0.6431E+02
     89.927  0.0000E+00  0.6519E+02
     90.567  0.0000E+00  0.6586E+02
     91.207  0.0000E+00  0.6647E+02
     91.847  0.1736E+00  0.6729E+02
     92.487  0.1010E+00  0.6802E+02
     93.127  0.0000E+00  0.6864E+02
     93.767  0.0000E+00  0.6912E+02
     94.407  0.0000E+00  0.6989E+02
     95.047  0.0000E+00  0.7041E+02
     95.687  0.0000E+00  0.7071E+02
     96.327  0.0000E+00  0.7169E+02
     96.967  0.0000E+00  0.7186E+02
     97.607  0.0000E+00  0.7231E+02
     98.247  0.0000E+00  0.7327E+02
     98.887  0.0000E+00  0.7338E+02
     99.527  0.0000E+00  0.7425E+02
    100.167  0.0000E+00  0.7531E+02
    100.807  0.0000E+00  0.7602E+02
    101.446  0.0000E+00  0.7691E+02
    102.086  0.1033E+00  0.7794E+02
    102.726  0.0000E+00  0.7888E+02
    103.366  0.0000E+00  0.7913E+02
    104.006  0.1176E-02  0.7948E+02
    104.646  0.0000E+00  0.8062E+02
    105.286  0.0000E+00  0.8177E+02
    105.926  0.0000E+00  0.8206E+02
    106.566  0.0000E+00  0.8255E+02
    107.206  0.0000E+00  0.8366E+02
    107.846  0.0000E+00  0.8421E+02
    108.486  0.0000E+00  0.8484E+02
    109.126  0.0000E+00  0.8579E+02
    109.766  0.0000E+00  0.8636E+02
    110.406  0.0000E+00  0.8715E+02
    111.046  0.4341E-01  0.8719E+02
    111.686  0.0000E+00  0.8820E+02
    112.326  0.0000E+00  0.8865E+02
    112.966  0.0000E+00  0.8923E+02
    113.606  0.0000E+00  0.9056E+02
    114.246  0.0000E+00  0.9069E+02
    114.885  0.0000E+00  0.9172E+02
    115.525  0.0000E+00  0.9231E+02
    116.165  0.0000E+00  0.9260E+02
    116.805  0.0000E+00  0.9371E+02
    117.445  0.0000E+00  0.9445E+02
    118.085  0.0000E+00  0.9532E+02
    118.725  0.8681E-01  0.9595E+02
    119.365  0.0000E+00  0.9731E+02
    120.005  0.0000E+00  0.9834E+02
    120.645  0.0000E+00  0.9919E+02
    121.285  0.0000E+00  0.9992E+02
    121.925  0.0000E+00  0.1004E+03
    122.565  0.0000E+00  0.1013E+03
    123.205  0.0000E+00  0.1020E+03
    123.845  0.0000E+00  0.1022E+03
    124.485  0.0000E+00  0.1024E+03
    125.125  0.2287E+00  0.1037E+03
    125.765  0.0000E+00  0.1045E+03
    126.405  0.5180E+00  0.1055E+03
    127.045  0.0000E+00  0.1062E+03
    127.684  0.0000E+00  0.1068E+03
    128.324  0.0000E+00  0.1075E+03
    128.964  0.0000E+00  0.1083E+03
    129.604  0.0000E+00  0.1092E+03
    130.244  0.0000E+00  0.1103E+03
    130.884  0.0000E+00  0.1108E+03
    131.524  0.0000E+00  0.1113E+03
    132.164  0.0000E+00  0.1118E+03
    132.804  0.0000E+00  0.1122E+03
    133.444  0.0000E+00  0.1137E+03
    134.084  0.0000E+00  0.1145E+03
    134.724  0.0000E+00  0.1152E+03
    135.364  0.0000E+00  0.1163E+03
    136.004  0.0000E+00  0.1165E+03
    136.644  0.0000E+00  0.1176E+03
    137.284  0.0000E+00  0.1183E+03
    137.924  0.0000E+00  0.1189E+03
    138.564  0.1400E-01  0.1199E+03
    139.204  0.0000E+00  0.1216E+03
    139.844  0.0000E+00  0.1220E+03
    140.484  0.0000E+00  0.1228E+03
    141.123  0.3471E+00  0.1235E+03
    141.763  0.0000E+00  0.1240E+03
    142.403  0.0000E+00  0.1246E+03
    143.043  0.0000E+00  0.1256E+03
    143.683  0.0000E+00  0.1264E+03
    144.323  0.0000E+00  0.1268E+03
    144.963  0.0000E+00  0.1268E+03
    145.603  0.0000E+00  0.1274E+03
    146.243  0.0000E+00  0.1274E+03
    146.883  0.0000E+00  0.1275E+03
    147.523  0.0000E+00  0.1275E+03
    148.163  0.0000E+00  0.1275E+03
    148.803  0.0000E+00  0.1277E+03
    149.443  0.0000E+00  0.1278E+03
    150.083  0.0000E+00  0.1278E+03
    150.723  0.0000E+00  0.1278E+03
    151.363  0.0000E+00  0.1278E+03
    152.003  0.0000E+00  0.1278E+03
    152.643  0.0000E+00  0.1278E+03
    153.283  0.0000E+00  0.1279E+03
    153.922  0.0000E+00  0.1279E+03
    154.562  0.0000E+00  0.1279E+03
    155.202  0.0000E+00  0.1279E+03
    155.842  0.0000E+00  0.1279E+03
    156.482  0.0000E+00  0.1279E+03
    157.122  0.0000E+00  0.1279E+03
    157.762  0.0000E+00  0.1279E+03
    158.402  0.0000E+00  0.1280E+03
    159.042  0.0000E+00  0.1280E+03
    159.682  0.0000E+00  0.1280E+03
    160.322  0.0000E+00  0.1280E+03
    160.962  0.0000E+00  0.1280E+03
    161.602  0.0000E+00  0.1280E+03
    162.242  0.0000E+00  0.1280E+03
    162.882  0.0000E+00  0.1280E+03
    163.522  0.0000E+00  0.1280E+03
    164.162  0.0000E+00  0.1280E+03
    164.802  0.0000E+00  0.1280E+03
    165.442  0.0000E+00  0.1280E+03
    166.082  0.0000E+00  0.1280E+03
    166.722  0.0000E+00  0.1280E+03
