    1    1    1    1
  0.1628488E+02  0.2845115E-09  0.2845115E-09  0.2845115E-09  0.1000000E-15
  1.000000000000000E-004
  CAR 
 Og_FCC                                  
      2    216    128
 
  0.0000000E+00  0.0000000E+00  0.0000000E+00  0.4629630E-02
    1      -16.537253   1.000000
    2      -16.537252   1.000000
    3        4.790922   0.000000
    4        4.790925   0.000000
    5       21.715217   0.000000
    6       21.715219   0.000000
    7       21.715593   0.000000
    8       21.715595   0.000000
    9       21.715929   0.000000
   10       21.715930   0.000000
   11       26.189678   0.000000
   12       26.189681   0.000000
   13       26.189758   0.000000
   14       26.189761   0.000000
   15       26.189769   0.000000
   16       26.189773   0.000000
   17       26.721486   0.000000
   18       26.721489   0.000000
   19       32.315811   0.000000
   20       32.315816   0.000000
   21       34.311358   0.000000
   22       34.311363   0.000000
   23       34.311457   0.000000
   24       34.311463   0.000000
   25       34.312461   0.000000
   26       34.312466   0.000000
   27       35.155181   0.000000
   28       35.155182   0.000000
   29       35.155184   0.000000
   30       35.155185   0.000000
   31       58.103148   0.000000
   32       58.103150   0.000000
   33       69.519097   0.000000
   34       69.519100   0.000000
   35       69.520200   0.000000
   36       69.520204   0.000000
   37       69.520228   0.000000
   38       69.520233   0.000000
   39       72.395250   0.000000
   40       72.395256   0.000000
   41       72.395632   0.000000
   42       72.395636   0.000000
   43       72.395723   0.000000
   44       72.395727   0.000000
   45       74.035162   0.000000
   46       74.035172   0.000000
   47       74.037363   0.000000
   48       74.037366   0.000000
   49       74.037371   0.000000
   50       74.037375   0.000000
   51       74.100379   0.000000
   52       74.100381   0.000000
   53       74.100386   0.000000
   54       74.100388   0.000000
   55       88.190422   0.000000
   56       88.190427   0.000000
   57       95.117734   0.000000
   58       95.117738   0.000000
   59       95.119351   0.000000
   60       95.119356   0.000000
   61       95.119544   0.000000
   62       95.119547   0.000000
   63      100.714368   0.000000
   64      100.714373   0.000000
   65      101.489600   0.000000
   66      101.489606   0.000000
   67      101.489878   0.000000
   68      101.489879   0.000000
   69      101.489931   0.000000
   70      101.489936   0.000000
   71      101.694801   0.000000
   72      101.694810   0.000000
   73      101.695131   0.000000
   74      101.695137   0.000000
   75      101.695145   0.000000
   76      101.695151   0.000000
   77      101.756307   0.000000
   78      101.756318   0.000000
   79      101.756333   0.000000
   80      101.756344   0.000000
   81      102.492282   0.000000
   82      102.492292   0.000000
   83      102.495428   0.000000
   84      102.495431   0.000000
   85      102.495437   0.000000
   86      102.495440   0.000000
   87      102.829475   0.000000
   88      102.829483   0.000000
   89      102.829632   0.000000
   90      102.829634   0.000000
   91      102.829638   0.000000
   92      102.829642   0.000000
   93      103.514616   0.000000
   94      103.514619   0.000000
   95      103.514623   0.000000
   96      103.514625   0.000000
   97      104.149390   0.000000
   98      104.149406   0.000000
   99      104.149858   0.000000
  100      104.149863   0.000000
  101      104.149875   0.000000
  102      104.149880   0.000000
  103      110.006819   0.000000
  104      110.006825   0.000000
  105      110.432482   0.000000
  106      110.432489   0.000000
  107      111.040927   0.000000
  108      111.040937   0.000000
  109      111.041086   0.000000
  110      111.041097   0.000000
  111      111.042843   0.000000
  112      111.042855   0.000000
  113      112.406803   0.000000
  114      112.406807   0.000000
  115      112.407020   0.000000
  116      112.407022   0.000000
  117      112.407087   0.000000
  118      112.407094   0.000000
  119      145.861270   0.000000
  120      145.861281   0.000000
  121      148.463452   0.000000
  122      148.463462   0.000000
  123      148.463962   0.000000
  124      148.463975   0.000000
  125      148.464352   0.000000
  126      148.464367   0.000000
  127      152.137853   0.000000
  128      152.137855   0.000000
 
  0.1666667E+00 -0.1387779E-16  0.1387779E-16  0.4629630E-02
    1      -16.329582   1.000000
    2      -16.329582   1.000000
    3        4.602021   0.000000
    4        4.602023   0.000000
    5       17.531381   0.000000
    6       17.531383   0.000000
    7       20.719339   0.000000
    8       20.719340   0.000000
    9       20.719635   0.000000
   10       20.719636   0.000000
   11       25.703296   0.000000
   12       25.703299   0.000000
   13       27.719470   0.000000
   14       27.719474   0.000000
   15       27.720322   0.000000
   16       27.720324   0.000000
   17       28.498665   0.000000
   18       28.498670   0.000000
   19       30.333878   0.000000
   20       30.333883   0.000000
   21       30.334107   0.000000
   22       30.334112   0.000000
   23       34.344915   0.000000
   24       34.344918   0.000000
   25       40.346862   0.000000
   26       40.346868   0.000000
   27       41.800594   0.000000
   28       41.800598   0.000000
   29       41.801029   0.000000
   30       41.801035   0.000000
   31       53.371942   0.000000
   32       53.371945   0.000000
   33       60.772977   0.000000
   34       60.772983   0.000000
   35       60.773213   0.000000
   36       60.773217   0.000000
   37       66.282431   0.000000
   38       66.282437   0.000000
   39       71.419718   0.000000
   40       71.419722   0.000000
   41       71.420474   0.000000
   42       71.420482   0.000000
   43       74.047856   0.000000
   44       74.047861   0.000000
   45       74.049072   0.000000
   46       74.049079   0.000000
   47       74.841665   0.000000
   48       74.841674   0.000000
   49       80.180219   0.000000
   50       80.180225   0.000000
   51       82.614773   0.000000
   52       82.614779   0.000000
   53       86.164841   0.000000
   54       86.164848   0.000000
   55       86.165855   0.000000
   56       86.165867   0.000000
   57       87.113536   0.000000
   58       87.113549   0.000000
   59       87.114073   0.000000
   60       87.114079   0.000000
   61       89.634133   0.000000
   62       89.634139   0.000000
   63       91.412073   0.000000
   64       91.412081   0.000000
   65       91.412464   0.000000
   66       91.412467   0.000000
   67       93.112649   0.000000
   68       93.112656   0.000000
   69       93.376933   0.000000
   70       93.376939   0.000000
   71       93.377678   0.000000
   72       93.377689   0.000000
   73       94.367429   0.000000
   74       94.367441   0.000000
   75       97.681318   0.000000
   76       97.681324   0.000000
   77       99.044739   0.000000
   78       99.044749   0.000000
   79       99.045859   0.000000
   80       99.045864   0.000000
   81      101.775943   0.000000
   82      101.775950   0.000000
   83      104.917673   0.000000
   84      104.917681   0.000000
   85      104.918442   0.000000
   86      104.918456   0.000000
   87      105.710619   0.000000
   88      105.710627   0.000000
   89      106.543528   0.000000
   90      106.543541   0.000000
   91      106.543722   0.000000
   92      106.543734   0.000000
   93      108.452486   0.000000
   94      108.452493   0.000000
   95      111.643913   0.000000
   96      111.643920   0.000000
   97      111.644006   0.000000
   98      111.644021   0.000000
   99      112.806610   0.000000
  100      112.806616   0.000000
  101      112.807159   0.000000
  102      112.807174   0.000000
  103      113.889785   0.000000
  104      113.889800   0.000000
  105      115.998404   0.000000
  106      115.998412   0.000000
  107      118.509725   0.000000
  108      118.509733   0.000000
  109      118.840801   0.000000
  110      118.840812   0.000000
  111      118.842029   0.000000
  112      118.842043   0.000000
  113      119.625884   0.000000
  114      119.625899   0.000000
  115      119.626248   0.000000
  116      119.626256   0.000000
  117      131.183559   0.000000
  118      131.183570   0.000000
  119      135.073771   0.000000
  120      135.073784   0.000000
  121      138.186071   0.000000
  122      138.186083   0.000000
  123      138.186389   0.000000
  124      138.186402   0.000000
  125      152.825501   0.000000
  126      152.825511   0.000000
  127      157.994738   0.000000
  128      157.994747   0.000000
 
  0.3333333E+00 -0.5551115E-16  0.4163336E-16  0.4629630E-02
    1      -15.884865   1.000000
    2      -15.884864   1.000000
    3        4.257948   0.000000
    4        4.257950   0.000000
    5       13.104810   0.000000
    6       13.104812   0.000000
    7       19.826543   0.000000
    8       19.826544   0.000000
    9       19.826794   0.000000
   10       19.826795   0.000000
   11       25.003545   0.000000
   12       25.003550   0.000000
   13       25.261789   0.000000
   14       25.261792   0.000000
   15       25.262886   0.000000
   16       25.262890   0.000000
   17       30.023932   0.000000
   18       30.023934   0.000000
   19       34.542023   0.000000
   20       34.542027   0.000000
   21       34.542308   0.000000
   22       34.542312   0.000000
   23       42.875018   0.000000
   24       42.875021   0.000000
   25       45.745561   0.000000
   26       45.745565   0.000000
   27       50.139637   0.000000
   28       50.139644   0.000000
   29       50.140206   0.000000
   30       50.140211   0.000000
   31       50.140422   0.000000
   32       50.140423   0.000000
   33       50.825086   0.000000
   34       50.825092   0.000000
   35       50.825675   0.000000
   36       50.825680   0.000000
   37       64.218559   0.000000
   38       64.218565   0.000000
   39       71.666099   0.000000
   40       71.666102   0.000000
   41       72.168938   0.000000
   42       72.168942   0.000000
   43       72.169488   0.000000
   44       72.169494   0.000000
   45       74.375678   0.000000
   46       74.375682   0.000000
   47       74.376330   0.000000
   48       74.376338   0.000000
   49       76.460818   0.000000
   50       76.460826   0.000000
   51       76.506699   0.000000
   52       76.506704   0.000000
   53       76.508488   0.000000
   54       76.508496   0.000000
   55       77.257301   0.000000
   56       77.257310   0.000000
   57       82.538057   0.000000
   58       82.538062   0.000000
   59       84.450026   0.000000
   60       84.450037   0.000000
   61       84.450443   0.000000
   62       84.450447   0.000000
   63       86.178881   0.000000
   64       86.178886   0.000000
   65       86.179643   0.000000
   66       86.179653   0.000000
   67       87.103017   0.000000
   68       87.103028   0.000000
   69       94.439021   0.000000
   70       94.439026   0.000000
   71       97.928752   0.000000
   72       97.928762   0.000000
   73       97.930048   0.000000
   74       97.930054   0.000000
   75       99.108956   0.000000
   76       99.108965   0.000000
   77      100.528202   0.000000
   78      100.528208   0.000000
   79      101.922899   0.000000
   80      101.922908   0.000000
   81      101.923493   0.000000
   82      101.923504   0.000000
   83      102.324931   0.000000
   84      102.324944   0.000000
   85      102.325145   0.000000
   86      102.325152   0.000000
   87      109.585809   0.000000
   88      109.585818   0.000000
   89      111.353070   0.000000
   90      111.353081   0.000000
   91      111.353535   0.000000
   92      111.353550   0.000000
   93      118.949441   0.000000
   94      118.949448   0.000000
   95      122.980838   0.000000
   96      122.980854   0.000000
   97      122.981608   0.000000
   98      122.981615   0.000000
   99      124.010771   0.000000
  100      124.010782   0.000000
  101      124.586221   0.000000
  102      124.586228   0.000000
  103      124.586545   0.000000
  104      124.586562   0.000000
  105      126.023198   0.000000
  106      126.023213   0.000000
  107      126.768768   0.000000
  108      126.768778   0.000000
  109      127.065830   0.000000
  110      127.065838   0.000000
  111      127.068580   0.000000
  112      127.068587   0.000000
  113      128.671044   0.000000
  114      128.671062   0.000000
  115      128.672251   0.000000
  116      128.672267   0.000000
  117      132.782863   0.000000
  118      132.782871   0.000000
  119      136.253997   0.000000
  120      136.254005   0.000000
  121      137.625362   0.000000
  122      137.625379   0.000000
  123      137.626559   0.000000
  124      137.626566   0.000000
  125      138.632169   0.000000
  126      138.632180   0.000000
  127      138.633338   0.000000
  128      138.633363   0.000000
 
  0.5000000E+00 -0.5551115E-16  0.0000000E+00  0.4629630E-02
    1      -15.636390   1.000000
    2      -15.636389   1.000000
    3        4.098484   0.000000
    4        4.098486   0.000000
    5       11.506128   0.000000
    6       11.506130   0.000000
    7       19.637423   0.000000
    8       19.637425   0.000000
    9       19.637764   0.000000
   10       19.637765   0.000000
   11       23.974616   0.000000
   12       23.974619   0.000000
   13       23.975812   0.000000
   14       23.975816   0.000000
   15       24.089025   0.000000
   16       24.089030   0.000000
   17       34.213145   0.000000
   18       34.213148   0.000000
   19       38.443986   0.000000
   20       38.443988   0.000000
   21       41.261999   0.000000
   22       41.262005   0.000000
   23       41.263183   0.000000
   24       41.263188   0.000000
   25       41.979394   0.000000
   26       41.979397   0.000000
   27       41.980208   0.000000
   28       41.980213   0.000000
   29       53.168895   0.000000
   30       53.168902   0.000000
   31       56.711850   0.000000
   32       56.711854   0.000000
   33       60.835363   0.000000
   34       60.835368   0.000000
   35       60.835730   0.000000
   36       60.835740   0.000000
   37       60.996207   0.000000
   38       60.996211   0.000000
   39       60.996618   0.000000
   40       60.996625   0.000000
   41       62.082349   0.000000
   42       62.082356   0.000000
   43       62.087128   0.000000
   44       62.087135   0.000000
   45       70.720752   0.000000
   46       70.720756   0.000000
   47       75.910489   0.000000
   48       75.910492   0.000000
   49       75.911992   0.000000
   50       75.912001   0.000000
   51       79.680533   0.000000
   52       79.680539   0.000000
   53       79.856128   0.000000
   54       79.856133   0.000000
   55       79.859705   0.000000
   56       79.859711   0.000000
   57       80.620197   0.000000
   58       80.620204   0.000000
   59       80.720021   0.000000
   60       80.720034   0.000000
   61       80.720865   0.000000
   62       80.720872   0.000000
   63       81.172325   0.000000
   64       81.172337   0.000000
   65       81.173616   0.000000
   66       81.173621   0.000000
   67       82.129567   0.000000
   68       82.129582   0.000000
   69       95.945515   0.000000
   70       95.945521   0.000000
   71       97.967332   0.000000
   72       97.967343   0.000000
   73       97.968852   0.000000
   74       97.968857   0.000000
   75       98.964070   0.000000
   76       98.964076   0.000000
   77      100.359890   0.000000
   78      100.359898   0.000000
   79      100.360264   0.000000
   80      100.360275   0.000000
   81      112.464276   0.000000
   82      112.464282   0.000000
   83      112.597272   0.000000
   84      112.597288   0.000000
   85      116.851129   0.000000
   86      116.851139   0.000000
   87      116.851964   0.000000
   88      116.851975   0.000000
   89      117.647921   0.000000
   90      117.647929   0.000000
   91      118.934798   0.000000
   92      118.934818   0.000000
   93      118.936344   0.000000
   94      118.936353   0.000000
   95      119.477502   0.000000
   96      119.477507   0.000000
   97      119.598265   0.000000
   98      119.598269   0.000000
   99      119.598396   0.000000
  100      119.598399   0.000000
  101      120.112034   0.000000
  102      120.112042   0.000000
  103      120.113178   0.000000
  104      120.113197   0.000000
  105      131.353877   0.000000
  106      131.353885   0.000000
  107      132.548083   0.000000
  108      132.548091   0.000000
  109      134.193635   0.000000
  110      134.193641   0.000000
  111      134.194269   0.000000
  112      134.194271   0.000000
  113      137.073964   0.000000
  114      137.073976   0.000000
  115      137.075326   0.000000
  116      137.075345   0.000000
  117      137.326185   0.000000
  118      137.326192   0.000000
  119      137.555927   0.000000
  120      137.555940   0.000000
  121      138.563971   0.000000
  122      138.563983   0.000000
  123      138.567196   0.000000
  124      138.567207   0.000000
  125      139.104013   0.000000
  126      139.104033   0.000000
  127      139.104990   0.000000
  128      139.105000   0.000000
 
 -0.3333333E+00  0.5551115E-16 -0.4163336E-16  0.4629630E-02
    1      -15.884865   1.000000
    2      -15.884864   1.000000
    3        4.257948   0.000000
    4        4.257950   0.000000
    5       13.104810   0.000000
    6       13.104812   0.000000
    7       19.826543   0.000000
    8       19.826544   0.000000
    9       19.826794   0.000000
   10       19.826795   0.000000
   11       25.003545   0.000000
   12       25.003550   0.000000
   13       25.261789   0.000000
   14       25.261792   0.000000
   15       25.262886   0.000000
   16       25.262890   0.000000
   17       30.023932   0.000000
   18       30.023934   0.000000
   19       34.542023   0.000000
   20       34.542027   0.000000
   21       34.542308   0.000000
   22       34.542312   0.000000
   23       42.875018   0.000000
   24       42.875021   0.000000
   25       45.745561   0.000000
   26       45.745565   0.000000
   27       50.139636   0.000000
   28       50.139644   0.000000
   29       50.140206   0.000000
   30       50.140212   0.000000
   31       50.140422   0.000000
   32       50.140423   0.000000
   33       50.825086   0.000000
   34       50.825092   0.000000
   35       50.825675   0.000000
   36       50.825680   0.000000
   37       64.218559   0.000000
   38       64.218565   0.000000
   39       71.666099   0.000000
   40       71.666102   0.000000
   41       72.168938   0.000000
   42       72.168942   0.000000
   43       72.169488   0.000000
   44       72.169494   0.000000
   45       74.375678   0.000000
   46       74.375682   0.000000
   47       74.376330   0.000000
   48       74.376338   0.000000
   49       76.460818   0.000000
   50       76.460826   0.000000
   51       76.506699   0.000000
   52       76.506704   0.000000
   53       76.508488   0.000000
   54       76.508496   0.000000
   55       77.257301   0.000000
   56       77.257310   0.000000
   57       82.538057   0.000000
   58       82.538062   0.000000
   59       84.450026   0.000000
   60       84.450037   0.000000
   61       84.450443   0.000000
   62       84.450447   0.000000
   63       86.178881   0.000000
   64       86.178886   0.000000
   65       86.179643   0.000000
   66       86.179653   0.000000
   67       87.103017   0.000000
   68       87.103028   0.000000
   69       94.439021   0.000000
   70       94.439026   0.000000
   71       97.928752   0.000000
   72       97.928762   0.000000
   73       97.930048   0.000000
   74       97.930054   0.000000
   75       99.108956   0.000000
   76       99.108965   0.000000
   77      100.528202   0.000000
   78      100.528208   0.000000
   79      101.922899   0.000000
   80      101.922908   0.000000
   81      101.923493   0.000000
   82      101.923504   0.000000
   83      102.324931   0.000000
   84      102.324944   0.000000
   85      102.325145   0.000000
   86      102.325152   0.000000
   87      109.585809   0.000000
   88      109.585818   0.000000
   89      111.353070   0.000000
   90      111.353081   0.000000
   91      111.353535   0.000000
   92      111.353550   0.000000
   93      118.949441   0.000000
   94      118.949448   0.000000
   95      122.980838   0.000000
   96      122.980854   0.000000
   97      122.981608   0.000000
   98      122.981615   0.000000
   99      124.010771   0.000000
  100      124.010782   0.000000
  101      124.586221   0.000000
  102      124.586228   0.000000
  103      124.586545   0.000000
  104      124.586562   0.000000
  105      126.023198   0.000000
  106      126.023213   0.000000
  107      126.768768   0.000000
  108      126.768778   0.000000
  109      127.065830   0.000000
  110      127.065838   0.000000
  111      127.068580   0.000000
  112      127.068587   0.000000
  113      128.671044   0.000000
  114      128.671062   0.000000
  115      128.672251   0.000000
  116      128.672267   0.000000
  117      132.782863   0.000000
  118      132.782871   0.000000
  119      136.253997   0.000000
  120      136.254005   0.000000
  121      137.625362   0.000000
  122      137.625379   0.000000
  123      137.626559   0.000000
  124      137.626566   0.000000
  125      138.632169   0.000000
  126      138.632180   0.000000
  127      138.633338   0.000000
  128      138.633363   0.000000
 
 -0.1666667E+00  0.1387779E-16 -0.1387779E-16  0.4629630E-02
    1      -16.329582   1.000000
    2      -16.329582   1.000000
    3        4.602021   0.000000
    4        4.602023   0.000000
    5       17.531381   0.000000
    6       17.531383   0.000000
    7       20.719339   0.000000
    8       20.719341   0.000000
    9       20.719635   0.000000
   10       20.719636   0.000000
   11       25.703296   0.000000
   12       25.703299   0.000000
   13       27.719470   0.000000
   14       27.719474   0.000000
   15       27.720322   0.000000
   16       27.720324   0.000000
   17       28.498665   0.000000
   18       28.498670   0.000000
   19       30.333877   0.000000
   20       30.333883   0.000000
   21       30.334107   0.000000
   22       30.334112   0.000000
   23       34.344915   0.000000
   24       34.344918   0.000000
   25       40.346862   0.000000
   26       40.346868   0.000000
   27       41.800594   0.000000
   28       41.800598   0.000000
   29       41.801029   0.000000
   30       41.801035   0.000000
   31       53.371942   0.000000
   32       53.371945   0.000000
   33       60.772976   0.000000
   34       60.772983   0.000000
   35       60.773213   0.000000
   36       60.773217   0.000000
   37       66.282431   0.000000
   38       66.282437   0.000000
   39       71.419718   0.000000
   40       71.419722   0.000000
   41       71.420474   0.000000
   42       71.420482   0.000000
   43       74.047856   0.000000
   44       74.047861   0.000000
   45       74.049072   0.000000
   46       74.049079   0.000000
   47       74.841665   0.000000
   48       74.841674   0.000000
   49       80.180219   0.000000
   50       80.180225   0.000000
   51       82.614773   0.000000
   52       82.614779   0.000000
   53       86.164841   0.000000
   54       86.164848   0.000000
   55       86.165854   0.000000
   56       86.165867   0.000000
   57       87.113536   0.000000
   58       87.113549   0.000000
   59       87.114073   0.000000
   60       87.114079   0.000000
   61       89.634133   0.000000
   62       89.634139   0.000000
   63       91.412073   0.000000
   64       91.412081   0.000000
   65       91.412464   0.000000
   66       91.412467   0.000000
   67       93.112649   0.000000
   68       93.112656   0.000000
   69       93.376933   0.000000
   70       93.376939   0.000000
   71       93.377678   0.000000
   72       93.377689   0.000000
   73       94.367429   0.000000
   74       94.367441   0.000000
   75       97.681318   0.000000
   76       97.681324   0.000000
   77       99.044739   0.000000
   78       99.044749   0.000000
   79       99.045859   0.000000
   80       99.045864   0.000000
   81      101.775943   0.000000
   82      101.775950   0.000000
   83      104.917673   0.000000
   84      104.917682   0.000000
   85      104.918442   0.000000
   86      104.918456   0.000000
   87      105.710619   0.000000
   88      105.710627   0.000000
   89      106.543528   0.000000
   90      106.543541   0.000000
   91      106.543722   0.000000
   92      106.543734   0.000000
   93      108.452486   0.000000
   94      108.452493   0.000000
   95      111.643913   0.000000
   96      111.643920   0.000000
   97      111.644006   0.000000
   98      111.644021   0.000000
   99      112.806610   0.000000
  100      112.806616   0.000000
  101      112.807159   0.000000
  102      112.807174   0.000000
  103      113.889785   0.000000
  104      113.889800   0.000000
  105      115.998404   0.000000
  106      115.998412   0.000000
  107      118.509725   0.000000
  108      118.509733   0.000000
  109      118.840801   0.000000
  110      118.840812   0.000000
  111      118.842029   0.000000
  112      118.842043   0.000000
  113      119.625884   0.000000
  114      119.625899   0.000000
  115      119.626248   0.000000
  116      119.626256   0.000000
  117      131.183559   0.000000
  118      131.183570   0.000000
  119      135.073771   0.000000
  120      135.073784   0.000000
  121      138.186071   0.000000
  122      138.186083   0.000000
  123      138.186389   0.000000
  124      138.186402   0.000000
  125      152.825501   0.000000
  126      152.825511   0.000000
  127      157.994738   0.000000
  128      157.994747   0.000000
 
  0.0000000E+00  0.1666667E+00 -0.6938894E-17  0.4629630E-02
    1      -16.329582   1.000000
    2      -16.329582   1.000000
    3        4.602021   0.000000
    4        4.602023   0.000000
    5       17.531381   0.000000
    6       17.531382   0.000000
    7       20.719339   0.000000
    8       20.719341   0.000000
    9       20.719635   0.000000
   10       20.719636   0.000000
   11       25.703297   0.000000
   12       25.703299   0.000000
   13       27.719471   0.000000
   14       27.719474   0.000000
   15       27.720321   0.000000
   16       27.720324   0.000000
   17       28.498665   0.000000
   18       28.498670   0.000000
   19       30.333878   0.000000
   20       30.333883   0.000000
   21       30.334107   0.000000
   22       30.334112   0.000000
   23       34.344915   0.000000
   24       34.344918   0.000000
   25       40.346862   0.000000
   26       40.346868   0.000000
   27       41.800593   0.000000
   28       41.800599   0.000000
   29       41.801030   0.000000
   30       41.801034   0.000000
   31       53.371942   0.000000
   32       53.371945   0.000000
   33       60.772977   0.000000
   34       60.772982   0.000000
   35       60.773212   0.000000
   36       60.773218   0.000000
   37       66.282431   0.000000
   38       66.282437   0.000000
   39       71.419717   0.000000
   40       71.419724   0.000000
   41       71.420476   0.000000
   42       71.420480   0.000000
   43       74.047854   0.000000
   44       74.047862   0.000000
   45       74.049072   0.000000
   46       74.049079   0.000000
   47       74.841665   0.000000
   48       74.841674   0.000000
   49       80.180219   0.000000
   50       80.180224   0.000000
   51       82.614774   0.000000
   52       82.614779   0.000000
   53       86.164839   0.000000
   54       86.164850   0.000000
   55       86.165857   0.000000
   56       86.165864   0.000000
   57       87.113538   0.000000
   58       87.113546   0.000000
   59       87.114070   0.000000
   60       87.114082   0.000000
   61       89.634133   0.000000
   62       89.634139   0.000000
   63       91.412074   0.000000
   64       91.412079   0.000000
   65       91.412461   0.000000
   66       91.412469   0.000000
   67       93.112649   0.000000
   68       93.112656   0.000000
   69       93.376931   0.000000
   70       93.376941   0.000000
   71       93.377679   0.000000
   72       93.377687   0.000000
   73       94.367430   0.000000
   74       94.367441   0.000000
   75       97.681318   0.000000
   76       97.681324   0.000000
   77       99.044741   0.000000
   78       99.044748   0.000000
   79       99.045857   0.000000
   80       99.045866   0.000000
   81      101.775943   0.000000
   82      101.775951   0.000000
   83      104.917670   0.000000
   84      104.917683   0.000000
   85      104.918444   0.000000
   86      104.918454   0.000000
   87      105.710619   0.000000
   88      105.710626   0.000000
   89      106.543528   0.000000
   90      106.543541   0.000000
   91      106.543722   0.000000
   92      106.543734   0.000000
   93      108.452487   0.000000
   94      108.452492   0.000000
   95      111.643910   0.000000
   96      111.643923   0.000000
   97      111.644009   0.000000
   98      111.644017   0.000000
   99      112.806606   0.000000
  100      112.806620   0.000000
  101      112.807162   0.000000
  102      112.807171   0.000000
  103      113.889785   0.000000
  104      113.889800   0.000000
  105      115.998404   0.000000
  106      115.998412   0.000000
  107      118.509725   0.000000
  108      118.509733   0.000000
  109      118.840800   0.000000
  110      118.840813   0.000000
  111      118.842031   0.000000
  112      118.842042   0.000000
  113      119.625887   0.000000
  114      119.625897   0.000000
  115      119.626245   0.000000
  116      119.626258   0.000000
  117      131.183559   0.000000
  118      131.183570   0.000000
  119      135.073771   0.000000
  120      135.073784   0.000000
  121      138.186070   0.000000