       N       E                     dE             d eps       ncg     rms          rms(c)
DIA:   1    -0.375827078300E+00   -0.37583E+00    0.00000E+00     0   0.000E+00
DIA:   2    -0.375827078301E+00   -0.71054E-12    0.00000E+00     0   0.000E+00
DIA:   3    -0.375827078301E+00   -0.34106E-12    0.00000E+00     0   0.000E+00
DIA:   4    -0.375827078300E+00    0.11369E-11    0.00000E+00     0   0.000E+00
DIA:   5    -0.375827078300E+00   -0.36948E-12    0.00000E+00     0   0.000E+00    0.504E-06
DIA:   6    -0.375827078310E+00   -0.99334E-11    0.00000E+00     0   0.000E+00
   1 F= -.37582708E+00 E0= -.37582708E+00  d E =0.000000E+00  mag=    -0.0000     0.0000    -0.0000
 imaginary and real dielectric function
