 vasp.5.4.4.18Apr17-6-g9f103f2a35 (build Jul 09 2018 16:43:14) complex          
  
 executed on             LinuxIFC date 2018.11.29  21:58:27
 running on   32 total cores
 distrk:  each k-point on    8 cores,    4 groups
 distr:  one band on NCORES_PER_BAND=   4 cores,    2 groups


--------------------------------------------------------------------------------------------------------


 INCAR:
 POTCAR:    PAW_PBE He_GW 13May2007               

 ----------------------------------------------------------------------------- 
|                                                                             |
|           W    W    AA    RRRRR   N    N  II  N    N   GGGG   !!!           |
|           W    W   A  A   R    R  NN   N  II  NN   N  G    G  !!!           |
|           W    W  A    A  R    R  N N  N  II  N N  N  G       !!!           |
|           W WW W  AAAAAA  RRRRR   N  N N  II  N  N N  G  GGG   !            |
|           WW  WW  A    A  R   R   N   NN  II  N   NN  G    G                |
|           W    W  A    A  R    R  N    N  II  N    N   GGGG   !!!           |
|                                                                             |
|      You have enabled k-point parallelism (KPAR>1).                         |
|      This developmental code was originally  written by Paul Kent at ORNL,  |
|      and carefully double checked in Vienna.                                |
|      GW as well as linear response parallelism added by Martijn Marsman     |
|      and Georg Kresse.                                                      |
|      Carefully verify results versus KPAR=1.                                |
|      Report problems to Paul Kent and Vienna.                               |
|                                                                             |
 ----------------------------------------------------------------------------- 

 POTCAR:    PAW_PBE He_GW 13May2007               
   VRHFIN =He: 1s                                                               
   LEXCH  = PE                                                                  
   EATOM  =    78.7251 eV,    5.7861 Ry                                         
                                                                                
   TITEL  = PAW_PBE He_GW 13May2007                                             
   LULTRA =        F    use ultrasoft PP ?                                      
   IUNSCR =        0    unscreen: 0-lin 1-nonlin 2-no                           
   RPACOR =    0.000    partial core radius                                     
   POMASS =    4.000; ZVAL   =    2.000    mass and valenz                      
   RCORE  =    1.200    outmost cutoff radius                                   
   RWIGS  =    1.200; RWIGS  =    0.635    wigner-seitz radius (au A)           
   ENMAX  =  405.780; ENMIN  =  304.335 eV                                      
   RCLOC  =    0.703    cutoff for local pot                                    
   LCOR   =        T    correct aug charges                                     
   LPAW   =        T    paw PP                                                  
   EAUG   = 1514.192                                                            
   RMAX   =    1.224    core radius for proj-oper                               
   RAUG   =    1.200    factor for augmentation sphere                          
   RDEP   =    1.261    radius for radial grids                                 
   RDEPT  =    1.051    core radius for aug-charge                              
                                                                                
   Atomic configuration                                                         
    3 entries                                                                   
     n  l   j            E        occ.                                          
     1  0  0.50       -15.7639   2.0000                                         
     2  1  0.50        -2.8912   0.0000                                         
     3  2  1.50        -2.8912   0.0000                                         
   Description                                                                  
     l       E           TYP  RCUT    TYP  RCUT                                 
     0    -15.7638891     23  1.200                                             
     0     27.2116520     23  1.200                                             
     1     -6.8029130     23  1.200                                             
     1     81.6349560     23  1.200                                             
     1    476.2039100     23  1.200                                             
     2     -6.8029130     23  1.200                                             
  local pseudopotential read in
  kinetic energy density of atom read in
  atomic valenz-charges read in
  non local Contribution for L=           0  read in
    real space projection operators read in
  non local Contribution for L=           0  read in
    real space projection operators read in
  non local Contribution for L=           1  read in
    real space projection operators read in
  non local Contribution for L=           1  read in
    real space projection operators read in
  non local Contribution for L=           1  read in
    real space projection operators read in
  non local Contribution for L=           2  read in
    real space projection operators read in
    PAW grid and wavefunctions read in
 
   number of l-projection  operators is LMAX  =           6
   number of lm-projection operators is LMMAX =          16
 
  PAW_PBE He_GW 13May2007               :
 energy of atom  1       EATOM=  -78.7251
 kinetic energy error for atom=    0.3139 (will be added to EATOM!!)
 
 
 POSCAR: He_FCC                                  
  positions in direct lattice
  velocities in cartesian coordinates

 METAGGA = SCAN     LMAXTAU =  0    LMIXTAU =  F

 exchange correlation table for  LEXCH =        8
   RHO(1)=    0.500       N(1)  =     2000
   RHO(2)=  100.500       N(2)  =     4000
 


--------------------------------------------------------------------------------------------------------


 ion  position               nearest neighbor table
   1  0.000  0.000  0.000-
 

IMPORTANT INFORMATION: All symmetrisations will be switched off!
NOSYMM: (Re-)initialisation of all symmetry stuff for point group C_1.

 
 
 KPOINTS: k-points                                

Automatic generation of k-mesh.
Space group operators:
 irot       det(A)        alpha          n_x          n_y          n_z        tau_x        tau_y        tau_z
    1     1.000000     0.000000     1.000000     0.000000     0.000000     0.000000     0.000000     0.000000
 
 Subroutine IBZKPT returns following result:
 ===========================================
 
 Found    216 irreducible k-points:
 
 Following reciprocal coordinates:
            Coordinates               Weight
  0.000000  0.000000  0.000000      1.000000
  0.166667 -0.000000  0.000000      1.000000
  0.333333 -0.000000  0.000000      1.000000
  0.500000 -0.000000  0.000000      1.000000
 -0.333333  0.000000 -0.000000      1.000000
 -0.166667  0.000000 -0.000000      1.000000
  0.000000  0.166667 -0.000000      1.000000
  0.166667  0.166667  0.000000      1.000000
  0.333333  0.166667  0.000000      1.000000
  0.500000  0.166667  0.000000      1.000000
 -0.333333  0.166667 -0.000000      1.000000
 -0.166667  0.166667 -0.000000      1.000000
  0.000000  0.333333  0.000000      1.000000
  0.166667  0.333333  0.000000      1.000000
  0.333333  0.333333  0.000000      1.000000
  0.500000  0.333333  0.000000      1.000000
 -0.333333  0.333333 -0.000000      1.000000
 -0.166667  0.333333  0.000000      1.000000
  0.000000  0.500000  0.000000      1.000000
  0.166667  0.500000  0.000000      1.000000
  0.333333  0.500000  0.000000      1.000000
  0.500000  0.500000  0.000000      1.000000
 -0.333333  0.500000 -0.000000      1.000000
 -0.166667  0.500000 -0.000000      1.000000
  0.000000 -0.333333  0.000000      1.000000
  0.166667 -0.333333 -0.000000      1.000000
  0.333333 -0.333333  0.000000      1.000000
  0.500000 -0.333333 -0.000000      1.000000
 -0.333333 -0.333333 -0.000000      1.000000
 -0.166667 -0.333333  0.000000      1.000000
  0.000000 -0.166667  0.000000      1.000000
  0.166667 -0.166667  0.000000      1.000000
  0.333333 -0.166667  0.000000      1.000000
  0.500000 -0.166667  0.000000      1.000000
 -0.333333 -0.166667 -0.000000      1.000000
 -0.166667 -0.166667 -0.000000      1.000000
  0.000000  0.000000  0.166667      1.000000
  0.166667 -0.000000  0.166667      1.000000
  0.333333 -0.000000  0.166667      1.000000
  0.500000 -0.000000  0.166667      1.000000
 -0.333333  0.000000  0.166667      1.000000
 -0.166667  0.000000  0.166667      1.000000
  0.000000  0.166667  0.166667      1.000000
  0.166667  0.166667  0.166667      1.000000
  0.333333  0.166667  0.166667      1.000000
  0.500000  0.166667  0.166667      1.000000
 -0.333333  0.166667  0.166667      1.000000
 -0.166667  0.166667  0.166667      1.000000
  0.000000  0.333333  0.166667      1.000000
  0.166667  0.333333  0.166667      1.000000
  0.333333  0.333333  0.166667      1.000000
  0.500000  0.333333  0.166667      1.000000
 -0.333333  0.333333  0.166667      1.000000
 -0.166667  0.333333  0.166667      1.000000
  0.000000  0.500000  0.166667      1.000000
  0.166667  0.500000  0.166667      1.000000
  0.333333  0.500000  0.166667      1.000000
  0.500000  0.500000  0.166667      1.000000
 -0.333333  0.500000  0.166667      1.000000
 -0.166667  0.500000  0.166667      1.000000
  0.000000 -0.333333  0.166667      1.000000
  0.166667 -0.333333  0.166667      1.000000
  0.333333 -0.333333  0.166667      1.000000
  0.500000 -0.333333  0.166667      1.000000
 -0.333333 -0.333333  0.166667      1.000000
 -0.166667 -0.333333  0.166667      1.000000
  0.000000 -0.166667  0.166667      1.000000
  0.166667 -0.166667  0.166667      1.000000
  0.333333 -0.166667  0.166667      1.000000
  0.500000 -0.166667  0.166667      1.000000
 -0.333333 -0.166667  0.166667      1.000000
 -0.166667 -0.166667  0.166667      1.000000
  0.000000  0.000000  0.333333      1.000000
  0.166667 -0.000000  0.333333      1.000000
  0.333333 -0.000000  0.333333      1.000000
  0.500000 -0.000000  0.333333      1.000000
 -0.333333  0.000000  0.333333      1.000000
 -0.166667  0.000000  0.333333      1.000000
  0.000000  0.166667  0.333333      1.000000
  0.166667  0.166667  0.333333      1.000000
  0.333333  0.166667  0.333333      1.000000
  0.500000  0.166667  0.333333      1.000000
 -0.333333  0.166667  0.333333      1.000000
 -0.166667  0.166667  0.333333      1.000000
  0.000000  0.333333  0.333333      1.000000
  0.166667  0.333333  0.333333      1.000000
  0.333333  0.333333  0.333333      1.000000
  0.500000  0.333333  0.333333      1.000000
 -0.333333  0.333333  0.333333      1.000000
 -0.166667  0.333333  0.333333      1.000000
  0.000000  0.500000  0.333333      1.000000
  0.166667  0.500000  0.333333      1.000000
  0.333333  0.500000  0.333333      1.000000
  0.500000  0.500000  0.333333      1.000000
 -0.333333  0.500000  0.333333      1.000000
 -0.166667  0.500000  0.333333      1.000000
  0.000000 -0.333333  0.333333      1.000000
  0.166667 -0.333333  0.333333      1.000000
  0.333333 -0.333333  0.333333      1.000000
  0.500000 -0.333333  0.333333      1.000000
 -0.333333 -0.333333  0.333333      1.000000
 -0.166667 -0.333333  0.333333      1.000000
  0.000000 -0.166667  0.333333      1.000000
  0.166667 -0.166667  0.333333      1.000000
  0.333333 -0.166667  0.333333      1.000000
  0.500000 -0.166667  0.333333      1.000000
 -0.333333 -0.166667  0.333333      1.000000
 -0.166667 -0.166667  0.333333      1.000000
  0.000000  0.000000  0.500000      1.000000
  0.166667 -0.000000  0.500000      1.000000
  0.333333 -0.000000  0.500000      1.000000
  0.500000 -0.000000  0.500000      1.000000
 -0.333333  0.000000  0.500000      1.000000
 -0.166667  0.000000  0.500000      1.000000
  0.000000  0.166667  0.500000      1.000000
  0.166667  0.166667  0.500000      1.000000
  0.333333  0.166667  0.500000      1.000000
  0.500000  0.166667  0.500000      1.000000
 -0.333333  0.166667  0.500000      1.000000
 -0.166667  0.166667  0.500000      1.000000
  0.000000  0.333333  0.500000      1.000000
  0.166667  0.333333  0.500000      1.000000
  0.333333  0.333333  0.500000      1.000000
  0.500000  0.333333  0.500000      1.000000
 -0.333333  0.333333  0.500000      1.000000
 -0.166667  0.333333  0.500000      1.000000
  0.000000  0.500000  0.500000      1.000000
  0.166667  0.500000  0.500000      1.000000
  0.333333  0.500000  0.500000      1.000000
  0.500000  0.500000  0.500000      1.000000
 -0.333333  0.500000  0.500000      1.000000
 -0.166667  0.500000  0.500000      1.000000
  0.000000 -0.333333  0.500000      1.000000
  0.166667 -0.333333  0.500000      1.000000
  0.333333 -0.333333  0.500000      1.000000
  0.500000 -0.333333  0.500000      1.000000
 -0.333333 -0.333333  0.500000      1.000000
 -0.166667 -0.333333  0.500000      1.000000
  0.000000 -0.166667  0.500000      1.000000
  0.166667 -0.166667  0.500000      1.000000
  0.333333 -0.166667  0.500000      1.000000
  0.500000 -0.166667  0.500000      1.000000
 -0.333333 -0.166667  0.500000      1.000000
 -0.166667 -0.166667  0.500000      1.000000
  0.000000  0.000000 -0.333333      1.000000
  0.166667 -0.000000 -0.333333      1.000000
  0.333333 -0.000000 -0.333333      1.000000
  0.500000 -0.000000 -0.333333      1.000000
 -0.333333  0.000000 -0.333333      1.000000
 -0.166667  0.000000 -0.333333      1.000000
  0.000000  0.166667 -0.333333      1.000000
  0.166667  0.166667 -0.333333      1.000000
  0.333333  0.166667 -0.333333      1.000000
  0.500000  0.166667 -0.333333      1.000000
 -0.333333  0.166667 -0.333333      1.000000
 -0.166667  0.166667 -0.333333      1.000000
  0.000000  0.333333 -0.333333      1.000000
  0.166667  0.333333 -0.333333      1.000000
  0.333333  0.333333 -0.333333      1.000000
  0.500000  0.333333 -0.333333      1.000000
 -0.333333  0.333333 -0.333333      1.000000
 -0.166667  0.333333 -0.333333      1.000000
  0.000000  0.500000 -0.333333      1.000000
  0.166667  0.500000 -0.333333      1.000000
  0.333333  0.500000 -0.333333      1.000000
  0.500000  0.500000 -0.333333      1.000000
 -0.333333  0.500000 -0.333333      1.000000
 -0.166667  0.500000 -0.333333      1.000000
  0.000000 -0.333333 -0.333333      1.000000
  0.166667 -0.333333 -0.333333      1.000000
  0.333333 -0.333333 -0.333333      1.000000
  0.500000 -0.333333 -0.333333      1.000000
 -0.333333 -0.333333 -0.333333      1.000000
 -0.166667 -0.333333 -0.333333      1.000000
  0.000000 -0.166667 -0.333333      1.000000
  0.166667 -0.166667 -0.333333      1.000000
  0.333333 -0.166667 -0.333333      1.000000
  0.500000 -0.166667 -0.333333      1.000000
 -0.333333 -0.166667 -0.333333      1.000000
 -0.166667 -0.166667 -0.333333      1.000000
  0.000000  0.000000 -0.166667      1.000000
  0.166667 -0.000000 -0.166667      1.000000
  0.333333 -0.000000 -0.166667      1.000000
  0.500000 -0.000000 -0.166667      1.000000
 -0.333333  0.000000 -0.166667      1.000000
 -0.166667  0.000000 -0.166667      1.000000
  0.000000  0.166667 -0.166667      1.000000
  0.166667  0.166667 -0.166667      1.000000
  0.333333  0.166667 -0.166667      1.000000
  0.500000  0.166667 -0.166667      1.000000
 -0.333333  0.166667 -0.166667      1.000000
 -0.166667  0.166667 -0.166667      1.000000
  0.000000  0.333333 -0.166667      1.000000
  0.166667  0.333333 -0.166667      1.000000
  0.333333  0.333333 -0.166667      1.000000
  0.500000  0.333333 -0.166667      1.000000
 -0.333333  0.333333 -0.166667      1.000000
 -0.166667  0.333333 -0.166667      1.000000
  0.000000  0.500000 -0.166667      1.000000
  0.166667  0.500000 -0.166667      1.000000
  0.333333  0.500000 -0.166667      1.000000
  0.500000  0.500000 -0.166667      1.000000
 -0.333333  0.500000 -0.166667      1.000000
 -0.166667  0.500000 -0.166667      1.000000
  0.000000 -0.333333 -0.166667      1.000000
  0.166667 -0.333333 -0.166667      1.000000
  0.333333 -0.333333 -0.166667      1.000000
  0.500000 -0.333333 -0.166667      1.000000
 -0.333333 -0.333333 -0.166667      1.000000
 -0.166667 -0.333333 -0.166667      1.000000
  0.000000 -0.166667 -0.166667      1.000000
  0.166667 -0.166667 -0.166667      1.000000
  0.333333 -0.166667 -0.166667      1.000000
  0.500000 -0.166667 -0.166667      1.000000
 -0.333333 -0.166667 -0.166667      1.000000
 -0.166667 -0.166667 -0.166667      1.000000
 
 Following cartesian coordinates:
            Coordinates               Weight
  0.000000  0.000000  0.000000      1.000000
  0.058580 -0.033821 -0.023915      1.000000
  0.117160 -0.067642 -0.047830      1.000000
  0.175740 -0.101463 -0.071745      1.000000
 -0.117160  0.067642  0.047830      1.000000
 -0.058580  0.033821  0.023915      1.000000
  0.000000  0.067642 -0.023915      1.000000
  0.058580  0.033821 -0.047830      1.000000
  0.117160  0.000000 -0.071745      1.000000
  0.175740 -0.033821 -0.095661      1.000000
 -0.117160  0.135285  0.023915      1.000000
 -0.058580  0.101463 -0.000000      1.000000
  0.000000  0.135285 -0.047830      1.000000
  0.058580  0.101463 -0.071745      1.000000
  0.117160  0.067642 -0.095661      1.000000
  0.175740  0.033821 -0.119576      1.000000
 -0.117160  0.202927 -0.000000      1.000000
 -0.058580  0.169106 -0.023915      1.000000
  0.000000  0.202927 -0.071745      1.000000
  0.058580  0.169106 -0.095661      1.000000
  0.117160  0.135285 -0.119576      1.000000
  0.175740  0.101463 -0.143491      1.000000
 -0.117160  0.270569 -0.023915      1.000000
 -0.058580  0.236748 -0.047830      1.000000
  0.000000 -0.135285  0.047830      1.000000
  0.058580 -0.169106  0.023915      1.000000
  0.117160 -0.202927  0.000000      1.000000
  0.175740 -0.236748 -0.023915      1.000000
 -0.117160 -0.067642  0.095661      1.000000
 -0.058580 -0.101463  0.071745      1.000000
  0.000000 -0.067642  0.023915      1.000000
  0.058580 -0.101463  0.000000      1.000000
  0.117160 -0.135285 -0.023915      1.000000
  0.175740 -0.169106 -0.047830      1.000000
 -0.117160 -0.000000  0.071745      1.000000
 -0.058580 -0.033821  0.047830      1.000000
  0.000000  0.000000  0.071745      1.000000
  0.058580 -0.033821  0.047830      1.000000
  0.117160 -0.067642  0.023915      1.000000
  0.175740 -0.101463  0.000000      1.000000
 -0.117160  0.067642  0.119576      1.000000
 -0.058580  0.033821  0.095661      1.000000
  0.000000  0.067642  0.047830      1.000000
  0.058580  0.033821  0.023915      1.000000
  0.117160  0.000000  0.000000      1.000000
  0.175740 -0.033821 -0.023915      1.000000
 -0.117160  0.135285  0.095661      1.000000
 -0.058580  0.101463  0.071745      1.000000
  0.000000  0.135285  0.023915      1.000000
  0.058580  0.101463 -0.000000      1.000000
  0.117160  0.067642 -0.023915      1.000000
  0.175740  0.033821 -0.047830      1.000000
 -0.117160  0.202927  0.071745      1.000000
 -0.058580  0.169106  0.047830      1.000000
  0.000000  0.202927 -0.000000      1.000000
  0.058580  0.169106 -0.023915      1.000000
  0.117160  0.135285 -0.047830      1.000000
  0.175740  0.101463 -0.071745      1.000000
 -0.117160  0.270569  0.047830      1.000000
 -0.058580  0.236748  0.023915      1.000000
  0.000000 -0.135285  0.119576      1.000000
  0.058580 -0.169106  0.095661      1.000000
  0.117160 -0.202927  0.071745      1.000000
  0.175740 -0.236748  0.047830      1.000000
 -0.117160 -0.067642  0.167406      1.000000
 -0.058580 -0.101463  0.143491      1.000000
  0.000000 -0.067642  0.095661      1.000000
  0.058580 -0.101463  0.071745      1.000000
  0.117160 -0.135285  0.047830      1.000000
  0.175740 -0.169106  0.023915      1.000000
 -0.117160 -0.000000  0.143491      1.000000
 -0.058580 -0.033821  0.119576      1.000000
  0.000000  0.000000  0.143491      1.000000
  0.058580 -0.033821  0.119576      1.000000
  0.117160 -0.067642  0.095661      1.000000
  0.175740 -0.101463  0.071745      1.000000
 -0.117160  0.067642  0.191321      1.000000
 -0.058580  0.033821  0.167406      1.000000
  0.000000  0.067642  0.119576      1.000000
  0.058580  0.033821  0.095661      1.000000
  0.117160  0.000000  0.071745      1.000000
  0.175740 -0.033821  0.047830      1.000000
 -0.117160  0.135285  0.167406      1.000000
 -0.058580  0.101463  0.143491      1.000000
  0.000000  0.135285  0.095661      1.000000
  0.058580  0.101463  0.071745      1.000000
  0.117160  0.067642  0.047830      1.000000
  0.175740  0.033821  0.023915      1.000000
 -0.117160  0.202927  0.143491      1.000000
 -0.058580  0.169106  0.119576      1.000000
  0.000000  0.202927  0.071745      1.000000
  0.058580  0.169106  0.047830      1.000000
  0.117160  0.135285  0.023915      1.000000
  0.175740  0.101463 -0.000000      1.000000
 -0.117160  0.270569  0.119576      1.000000
 -0.058580  0.236748  0.095661      1.000000
  0.000000 -0.135285  0.191321      1.000000
  0.058580 -0.169106  0.167406      1.000000
  0.117160 -0.202927  0.143491      1.000000
  0.175740 -0.236748  0.119576      1.000000
 -0.117160 -0.067642  0.239152      1.000000
 -0.058580 -0.101463  0.215236      1.000000
  0.000000 -0.067642  0.167406      1.000000
  0.058580 -0.101463  0.143491      1.000000
  0.117160 -0.135285  0.119576      1.000000
  0.175740 -0.169106  0.095661      1.000000
 -0.117160 -0.000000  0.215236      1.000000
 -0.058580 -0.033821  0.191321      1.000000
  0.000000  0.000000  0.215236      1.000000
  0.058580 -0.033821  0.191321      1.000000
  0.117160 -0.067642  0.167406      1.000000
  0.175740 -0.101463  0.143491      1.000000
 -0.117160  0.067642  0.263067      1.000000
 -0.058580  0.033821  0.239152      1.000000
  0.000000  0.067642  0.191321      1.000000
  0.058580  0.033821  0.167406      1.000000
  0.117160  0.000000  0.143491      1.000000
  0.175740 -0.033821  0.119576      1.000000
 -0.117160  0.135285  0.239152      1.000000
 -0.058580  0.101463  0.215236      1.000000
  0.000000  0.135285  0.167406      1.000000
  0.058580  0.101463  0.143491      1.000000
  0.117160  0.067642  0.119576      1.000000
  0.175740  0.033821  0.095661      1.000000
 -0.117160  0.202927  0.215236      1.000000
 -0.058580  0.169106  0.191321      1.000000
  0.000000  0.202927  0.143491      1.000000
  0.058580  0.169106  0.119576      1.000000
  0.117160  0.135285  0.095661      1.000000
  0.175740  0.101463  0.071745      1.000000
 -0.117160  0.270569  0.191321      1.000000
 -0.058580  0.236748  0.167406      1.000000
  0.000000 -0.135285  0.263067      1.000000
  0.058580 -0.169106  0.239152      1.000000
  0.117160 -0.202927  0.215236      1.000000
  0.175740 -0.236748  0.191321      1.000000
 -0.117160 -0.067642  0.310897      1.000000
 -0.058580 -0.101463  0.286982      1.000000
  0.000000 -0.067642  0.239152      1.000000
  0.058580 -0.101463  0.215236      1.000000
  0.117160 -0.135285  0.191321      1.000000
  0.175740 -0.169106  0.167406      1.000000
 -0.117160 -0.000000  0.286982      1.000000
 -0.058580 -0.033821  0.263067      1.000000
  0.000000  0.000000 -0.143491      1.000000
  0.058580 -0.033821 -0.167406      1.000000
  0.117160 -0.067642 -0.191321      1.000000
  0.175740 -0.101463 -0.215236      1.000000
 -0.117160  0.067642 -0.095661      1.000000
 -0.058580  0.033821 -0.119576      1.000000
  0.000000  0.067642 -0.167406      1.000000
  0.058580  0.033821 -0.191321      1.000000
  0.117160  0.000000 -0.215236      1.000000
  0.175740 -0.033821 -0.239152      1.000000
 -0.117160  0.135285 -0.119576      1.000000
 -0.058580  0.101463 -0.143491      1.000000
  0.000000  0.135285 -0.191321      1.000000
  0.058580  0.101463 -0.215236      1.000000
  0.117160  0.067642 -0.239152      1.000000
  0.175740  0.033821 -0.263067      1.000000
 -0.117160  0.202927 -0.143491      1.000000
 -0.058580  0.169106 -0.167406      1.000000
  0.000000  0.202927 -0.215236      1.000000
  0.058580  0.169106 -0.239152      1.000000
  0.117160  0.135285 -0.263067      1.000000
  0.175740  0.101463 -0.286982      1.000000
 -0.117160  0.270569 -0.167406      1.000000
 -0.058580  0.236748 -0.191321      1.000000
  0.000000 -0.135285 -0.095661      1.000000
  0.058580 -0.169106 -0.119576      1.000000
  0.117160 -0.202927 -0.143491      1.000000
  0.175740 -0.236748 -0.167406      1.000000
 -0.117160 -0.067642 -0.047830      1.000000
 -0.058580 -0.101463 -0.071745      1.000000
  0.000000 -0.067642 -0.119576      1.000000
  0.058580 -0.101463 -0.143491      1.000000
  0.117160 -0.135285 -0.167406      1.000000
  0.175740 -0.169106 -0.191321      1.000000
 -0.117160 -0.000000 -0.071745      1.000000
 -0.058580 -0.033821 -0.095661      1.000000
  0.000000  0.000000 -0.071745      1.000000
  0.058580 -0.033821 -0.095661      1.000000
  0.117160 -0.067642 -0.119576      1.000000
  0.175740 -0.101463 -0.143491      1.000000
 -0.117160  0.067642 -0.023915      1.000000
 -0.058580  0.033821 -0.047830      1.000000
  0.000000  0.067642 -0.095661      1.000000
  0.058580  0.033821 -0.119576      1.000000
  0.117160  0.000000 -0.143491      1.000000
  0.175740 -0.033821 -0.167406      1.000000
 -0.117160  0.135285 -0.047830      1.000000
 -0.058580  0.101463 -0.071745      1.000000
  0.000000  0.135285 -0.119576      1.000000
  0.058580  0.101463 -0.143491      1.000000
  0.117160  0.067642 -0.167406      1.000000
  0.175740  0.033821 -0.191321      1.000000
 -0.117160  0.202927 -0.071745      1.000000
 -0.058580  0.169106 -0.095661      1.000000
  0.000000  0.202927 -0.143491      1.000000
  0.058580  0.169106 -0.167406      1.000000
  0.117160  0.135285 -0.191321      1.000000
  0.175740  0.101463 -0.215236      1.000000
 -0.117160  0.270569 -0.095661      1.000000
 -0.058580  0.236748 -0.119576      1.000000
  0.000000 -0.135285 -0.023915      1.000000
  0.058580 -0.169106 -0.047830      1.000000
  0.117160 -0.202927 -0.071745      1.000000
  0.175740 -0.236748 -0.095661      1.000000
 -0.117160 -0.067642  0.023915      1.000000
 -0.058580 -0.101463  0.000000      1.000000
  0.000000 -0.067642 -0.047830      1.000000
  0.058580 -0.101463 -0.071745      1.000000
  0.117160 -0.135285 -0.095661      1.000000
  0.175740 -0.169106 -0.119576      1.000000
 -0.117160 -0.000000 -0.000000      1.000000
 -0.058580 -0.033821 -0.023915      1.000000
 


--------------------------------------------------------------------------------------------------------




 Dimension of arrays:
   k-points           NKPTS =    216   k-points in BZ     NKDIM =    216   number of bands    NBANDS=    128
   number of dos      NEDOS =    301   number of ions     NIONS =      1
   non local maximal  LDIM  =      6   non local SUM 2l+1 LMDIM =     16
   total plane-waves  NPLWV =   4096
   max r-space proj   IRMAX =      1   max aug-charges    IRDMAX=  14265
   dimension x,y,z NGX =    16 NGY =   16 NGZ =   16
   dimension x,y,z NGXF=    32 NGYF=   32 NGZF=   32
   support grid    NGXF=    64 NGYF=   64 NGZF=   64
   ions per type =               1
   NGX,Y,Z   is equivalent  to a cutoff of   9.35,  9.35,  9.35 a.u.
   NGXF,Y,Z  is equivalent  to a cutoff of  18.70, 18.70, 18.70 a.u.

 SYSTEM =  Og_FCC                                  
 POSCAR =  He_FCC                                  

 Startparameter for this run:
   NWRITE =      2    write-flag & timer
   PREC   = accura    normal or accurate (medium, high low for compatibility)
   ISTART =      1    job   : 0-new  1-cont  2-samecut
   ICHARG =      0    charge: 1-file 2-atom 10-const
   ISPIN  =      1    spin polarized calculation?
   LNONCOLLINEAR =      T non collinear calculations
   LSORBIT =      T    spin-orbit coupling
   INIWAV =      1    electr: 0-lowe 1-rand  2-diag
   LASPH  =      F    aspherical Exc in radial PAW
   METAGGA=      F    non-selfconsistent MetaGGA calc.

 Electronic Relaxation 1
   ENCUT  =  300.0 eV  22.05 Ry    4.70 a.u.   4.02  4.02  4.02*2*pi/ulx,y,z
   ENINI  =  300.0     initial cutoff
   ENAUG  = 1514.2 eV  augmentation charge cutoff
   NELM   =     50;   NELMIN=  2; NELMDL= -5     # of ELM steps 
   EDIFF  = 0.1E-07   stopping-criterion for ELM
   LREAL  =      F    real-space projection
   NLSPLINE    = F    spline interpolate recip. space projectors
   LCOMPAT=      F    compatible to vasp.4.4
   GGA_COMPAT  = F    GGA compatible to vasp.4.4-vasp.4.6
   LMAXPAW     = -100 max onsite density
   LMAXMIX     =    2 max onsite mixed and CHGCAR
   VOSKOWN=      0    Vosko Wilk Nusair interpolation
   ROPT   =    0.00000
 Ionic relaxation
   EDIFFG = 0.1E-04   stopping-criterion for IOM
   NSW    =      1    number of steps for IOM
   NBLOCK =      1;   KBLOCK =      1    inner block; outer block 
   IBRION =     -1    ionic relax: 0-MD 1-quasi-New 2-CG
   NFREE  =      5    steps in history (QN), initial steepest desc. (CG)
   ISIF   =      3    stress and relaxation
   IWAVPR =     10    prediction:  0-non 1-charg 2-wave 3-comb
   ISYM   =      0    0-nonsym 1-usesym 2-fastsym
   LCORR  =      T    Harris-Foulkes like correction to forces

   POTIM  = 0.1000    time-step for ionic-motion
   TEIN   =    0.0    initial temperature
   TEBEG  =    0.0;   TEEND  =   0.0 temperature during run
   SMASS  =  -3.00    Nose mass-parameter (am)
   estimated Nose-frequenzy (Omega)   =  0.10E-29 period in steps =****** mass=  -0.185E-27a.u.
   SCALEE = 1.0000    scale energy and forces
   NPACO  =    256;   APACO  = 16.0  distance and # of slots for P.C.
   PSTRESS=    0.0 pullay stress

  Mass of Ions in am
   POMASS =   4.00
  Ionic Valenz
   ZVAL   =   2.00
  Atomic Wigner-Seitz radii
   RWIGS  =  -1.00
  virtual crystal weights 
   VCA    =   1.00
   NELECT =       2.0000    total number of electrons
   NUPDOWN=      -1.0000    fix difference up-down

 DOS related values:
   EMIN   =  10.00;   EMAX   =-10.00  energy-range for DOS
   EFERMI =   0.00
   ISMEAR =     0;   SIGMA  =   0.00  broadening in eV -4-tet -1-fermi 0-gaus

 Electronic relaxation 2 (details)
   IALGO  =     90    algorithm
   LDIAG  =      T    sub-space diagonalisation (order eigenvalues)
   LSUBROT=      F    optimize rotation matrix (better conditioning)
   TURBO    =      0    0=normal 1=particle mesh
   IRESTART =      0    0=no restart 2=restart with 2 vectors
   NREBOOT  =      0    no. of reboots
   NMIN     =      0    reboot dimension
   EREF     =   0.00    reference energy to select bands
   IMIX   =      4    mixing-type and parameters
     AMIX     =   0.40;   BMIX     =  1.00
     AMIX_MAG =   1.60;   BMIX_MAG =  1.00
     AMIN     =   0.10
     WC   =   100.;   INIMIX=   1;  MIXPRE=   1;  MAXMIX=  50

 Intra band minimization:
   WEIMIN = 0.0000     energy-eigenvalue tresh-hold
   EBREAK =  0.20E-10  absolut break condition
   DEPER  =   0.30     relativ break condition  

   TIME   =   0.40     timestep for ELM

  volume/ion in A,a.u.               =      16.28       109.90
  Fermi-wavevector in a.u.,A,eV,Ry     =   0.813748  1.537761  9.009588  0.662186
  Thomas-Fermi vector in A             =   1.923530
 
 Write flags
   LWAVE        =      T    write WAVECAR
   LDOWNSAMPLE  =      F    k-point downsampling of WAVECAR
   LCHARG       =      F    write CHGCAR
   LVTOT        =      F    write LOCPOT, total local potential
   LVHAR        =      F    write LOCPOT, Hartree potential only
   LELF         =      F    write electronic localiz. function (ELF)
   LORBIT       =      0    0 simple, 1 ext, 2 COOP (PROOUT), +10 PAW based schemes


 Dipole corrections
   LMONO  =      F    monopole corrections only (constant potential shift)
   LDIPOL =      F    correct potential (dipole corrections)
   IDIPOL =      0    1-x, 2-y, 3-z, 4-all directions 
   EPSILON=  1.0000000 bulk dielectric constant

 Exchange correlation treatment:
   GGA     =    --    GGA type
   LEXCH   =     8    internal setting for exchange type
   VOSKOWN=      0    Vosko Wilk Nusair interpolation
   LHFCALC =     F    Hartree Fock is set to
   LHFONE  =     F    Hartree Fock one center treatment
   AEXX    =    0.0000 exact exchange contribution

 Linear response parameters
   LEPSILON=     F    determine dielectric tensor
   LRPA    =     F    only Hartree local field effects (RPA)
   LNABLA  =     F    use nabla operator in PAW spheres
   LVEL    =     F    velocity operator in full k-point grid
   LINTERFAST=   F  fast interpolation
   KINTER  =     0    interpolate to denser k-point grid
   CSHIFT  =0.1000    complex shift for real part using Kramers Kronig
   OMEGAMAX=  -1.0    maximum frequency
   DEG_THRESHOLD= 0.2000000E-02 threshold for treating states as degnerate
   RTIME   =   -0.100 relaxation time in fs
  (WPLASMAI=    0.000 imaginary part of plasma frequency in eV, 0.658/RTIME)
   DFIELD  = 0.0000000 0.0000000 0.0000000 field for delta impulse in time
 
 Orbital magnetization related:
   ORBITALMAG=     F  switch on orbital magnetization
   LCHIMAG   =     F  perturbation theory with respect to B field
   DQ        =  0.001000  dq finite difference perturbation B field
   LLRAUG    =     F  two centre corrections for induced B field



--------------------------------------------------------------------------------------------------------


 Static calculation
 charge density and potential will be updated during run
 non collinear spin polarized calculation
 Exact diagonalization
 preconditioned conjugated gradient (Jacobi prec)
    charged. constant during bandupdate  
    band-by band algorithm
 perform sub-space diagonalisation
    after iterative eigenvector-optimisation
 modified Broyden-mixing scheme, WC =      100.0
 initial mixing is a Kerker type mixing with AMIX =  0.4000 and BMIX =      1.0000
 Hartree-type preconditioning will be used
 using additional bands          127
 reciprocal scheme for non local part
 calculate Harris-corrections to forces 
   (improved forces if not selfconsistent)
 use gradient corrections 
 use of overlap-Matrix (Vanderbilt PP)
 Gauss-broadening in eV      SIGMA  =   0.00


--------------------------------------------------------------------------------------------------------


  energy-cutoff  :      300.00
  volume of cell :       16.28
      direct lattice vectors                 reciprocal lattice vectors
     2.845115027  0.000000000  0.000000000     0.351479638 -0.202926864 -0.143490961
     1.422557513  2.463941890  0.000000000     0.000000000  0.405853727 -0.143490961
     1.422557513  0.821313963  2.323026692     0.000000000  0.000000000  0.430472884

  length of vectors
     2.845115027  2.845115027  2.845115027     0.430472884  0.430472884  0.430472884


 
 old parameters found on file WAVECAR:
  energy-cutoff  :      300.00
  volume of cell :       16.28
      direct lattice vectors                 reciprocal lattice vectors
     2.845115027  0.000000000  0.000000000     0.351479638 -0.202926864 -0.143490961
     1.422557513  2.463941890  0.000000000     0.000000000  0.405853727 -0.143490961
     1.422557513  0.821313963  2.323026692     0.000000000  0.000000000  0.430472884

  length of vectors

 
 k-points in units of 2pi/SCALE and weight: k-points                                
   0.00000000  0.00000000  0.00000000       0.005
   0.05857994 -0.03382114 -0.02391516       0.005
   0.11715988 -0.06764229 -0.04783032       0.005
   0.17573982 -0.10146343 -0.07174548       0.005
  -0.11715988  0.06764229  0.04783032       0.005
  -0.05857994  0.03382114  0.02391516       0.005
   0.00000000  0.06764229 -0.02391516       0.005
   0.05857994  0.03382114 -0.04783032       0.005
   0.11715988  0.00000000 -0.07174548       0.005
   0.17573982 -0.03382114 -0.09566064       0.005
  -0.11715988  0.13528458  0.02391516       0.005
  -0.05857994  0.10146343 -0.00000000       0.005
   0.00000000  0.13528458 -0.04783032       0.005
   0.05857994  0.10146343 -0.07174548       0.005
   0.11715988  0.06764229 -0.09566064       0.005
   0.17573982  0.03382114 -0.11957580       0.005
  -0.11715988  0.20292686 -0.00000000       0.005
  -0.05857994  0.16910572 -0.02391516       0.005
   0.00000000  0.20292686 -0.07174548       0.005
   0.05857994  0.16910572 -0.09566064       0.005
   0.11715988  0.13528458 -0.11957580       0.005
   0.17573982  0.10146343 -0.14349096       0.005
  -0.11715988  0.27056915 -0.02391516       0.005
  -0.05857994  0.23674801 -0.04783032       0.005
   0.00000000 -0.13528458  0.04783032       0.005
   0.05857994 -0.16910572  0.02391516       0.005
   0.11715988 -0.20292686  0.00000000       0.005
   0.17573982 -0.23674801 -0.02391516       0.005
  -0.11715988 -0.06764229  0.09566064       0.005
  -0.05857994 -0.10146343  0.07174548       0.005
   0.00000000 -0.06764229  0.02391516       0.005
   0.05857994 -0.10146343  0.00000000       0.005
   0.11715988 -0.13528458 -0.02391516       0.005
   0.17573982 -0.16910572 -0.04783032       0.005
  -0.11715988 -0.00000000  0.07174548       0.005
  -0.05857994 -0.03382114  0.04783032       0.005
   0.00000000  0.00000000  0.07174548       0.005
   0.05857994 -0.03382114  0.04783032       0.005
   0.11715988 -0.06764229  0.02391516       0.005
   0.17573982 -0.10146343  0.00000000       0.005
  -0.11715988  0.06764229  0.11957580       0.005
  -0.05857994  0.03382114  0.09566064       0.005
   0.00000000  0.06764229  0.04783032       0.005
   0.05857994  0.03382114  0.02391516       0.005
   0.11715988  0.00000000  0.00000000       0.005
   0.17573982 -0.03382114 -0.02391516       0.005
  -0.11715988  0.13528458  0.09566064       0.005
  -0.05857994  0.10146343  0.07174548       0.005
   0.00000000  0.13528458  0.02391516       0.005
   0.05857994  0.10146343 -0.00000000       0.005
   0.11715988  0.06764229 -0.02391516       0.005
   0.17573982  0.03382114 -0.04783032       0.005
  -0.11715988  0.20292686  0.07174548       0.005
  -0.05857994  0.16910572  0.04783032       0.005
   0.00000000  0.20292686 -0.00000000       0.005
   0.05857994  0.16910572 -0.02391516       0.005
   0.11715988  0.13528458 -0.04783032       0.005
   0.17573982  0.10146343 -0.07174548       0.005
  -0.11715988  0.27056915  0.04783032       0.005
  -0.05857994  0.23674801  0.02391516       0.005
   0.00000000 -0.13528458  0.11957580       0.005
   0.05857994 -0.16910572  0.09566064       0.005
   0.11715988 -0.20292686  0.07174548       0.005
   0.17573982 -0.23674801  0.04783032       0.005
  -0.11715988 -0.06764229  0.16740612       0.005
  -0.05857994 -0.10146343  0.14349096       0.005
   0.00000000 -0.06764229  0.09566064       0.005
   0.05857994 -0.10146343  0.07174548       0.005
   0.11715988 -0.13528458  0.04783032       0.005
   0.17573982 -0.16910572  0.02391516       0.005
  -0.11715988 -0.00000000  0.14349096       0.005
  -0.05857994 -0.03382114  0.11957580       0.005
   0.00000000  0.00000000  0.14349096       0.005
   0.05857994 -0.03382114  0.11957580       0.005
   0.11715988 -0.06764229  0.09566064       0.005
   0.17573982 -0.10146343  0.07174548       0.005
  -0.11715988  0.06764229  0.19132128       0.005
  -0.05857994  0.03382114  0.16740612       0.005
   0.00000000  0.06764229  0.11957580       0.005
   0.05857994  0.03382114  0.09566064       0.005
   0.11715988  0.00000000  0.07174548       0.005
   0.17573982 -0.03382114  0.04783032       0.005
  -0.11715988  0.13528458  0.16740612       0.005
  -0.05857994  0.10146343  0.14349096       0.005
   0.00000000  0.13528458  0.09566064       0.005
   0.05857994  0.10146343  0.07174548       0.005
   0.11715988  0.06764229  0.04783032       0.005
   0.17573982  0.03382114  0.02391516       0.005
  -0.11715988  0.20292686  0.14349096       0.005
  -0.05857994  0.16910572  0.11957580       0.005
   0.00000000  0.20292686  0.07174548       0.005
   0.05857994  0.16910572  0.04783032       0.005
   0.11715988  0.13528458  0.02391516       0.005
   0.17573982  0.10146343 -0.00000000       0.005
  -0.11715988  0.27056915  0.11957580       0.005
  -0.05857994  0.23674801  0.09566064       0.005
   0.00000000 -0.13528458  0.19132128       0.005
   0.05857994 -0.16910572  0.16740612       0.005
   0.11715988 -0.20292686  0.14349096       0.005
   0.17573982 -0.23674801  0.11957580       0.005
  -0.11715988 -0.06764229  0.23915160       0.005
  -0.05857994 -0.10146343  0.21523644       0.005
   0.00000000 -0.06764229  0.16740612       0.005
   0.05857994 -0.10146343  0.14349096       0.005
   0.11715988 -0.13528458  0.11957580       0.005
   0.17573982 -0.16910572  0.09566064       0.005
  -0.11715988 -0.00000000  0.21523644       0.005
  -0.05857994 -0.03382114  0.19132128       0.005
   0.00000000  0.00000000  0.21523644       0.005
   0.05857994 -0.03382114  0.19132128       0.005
   0.11715988 -0.06764229  0.16740612       0.005
   0.17573982 -0.10146343  0.14349096       0.005
  -0.11715988  0.06764229  0.26306676       0.005
  -0.05857994  0.03382114  0.23915160       0.005
   0.00000000  0.06764229  0.19132128       0.005
   0.05857994  0.03382114  0.16740612       0.005
   0.11715988  0.00000000  0.14349096       0.005
   0.17573982 -0.03382114  0.11957580       0.005
  -0.11715988  0.13528458  0.23915160       0.005
  -0.05857994  0.10146343  0.21523644       0.005
   0.00000000  0.13528458  0.16740612       0.005
   0.05857994  0.10146343  0.14349096       0.005
   0.11715988  0.06764229  0.11957580       0.005
   0.17573982  0.03382114  0.09566064       0.005
  -0.11715988  0.20292686  0.21523644       0.005
  -0.05857994  0.16910572  0.19132128       0.005
   0.00000000  0.20292686  0.14349096       0.005
   0.05857994  0.16910572  0.11957580       0.005
   0.11715988  0.13528458  0.09566064       0.005
   0.17573982  0.10146343  0.07174548       0.005
  -0.11715988  0.27056915  0.19132128       0.005
  -0.05857994  0.23674801  0.16740612       0.005
   0.00000000 -0.13528458  0.26306676       0.005
   0.05857994 -0.16910572  0.23915160       0.005
   0.11715988 -0.20292686  0.21523644       0.005
   0.17573982 -0.23674801  0.19132128       0.005
  -0.11715988 -0.06764229  0.31089708       0.005
  -0.05857994 -0.10146343  0.28698192       0.005
   0.00000000 -0.06764229  0.23915160       0.005
   0.05857994 -0.10146343  0.21523644       0.005
   0.11715988 -0.13528458  0.19132128       0.005
   0.17573982 -0.16910572  0.16740612       0.005
  -0.11715988 -0.00000000  0.28698192       0.005
  -0.05857994 -0.03382114  0.26306676       0.005
   0.00000000  0.00000000 -0.14349096       0.005
   0.05857994 -0.03382114 -0.16740612       0.005
   0.11715988 -0.06764229 -0.19132128       0.005
   0.17573982 -0.10146343 -0.21523644       0.005
  -0.11715988  0.06764229 -0.09566064       0.005
  -0.05857994  0.03382114 -0.11957580       0.005
   0.00000000  0.06764229 -0.16740612       0.005
   0.05857994  0.03382114 -0.19132128       0.005
   0.11715988  0.00000000 -0.21523644       0.005
   0.17573982 -0.03382114 -0.23915160       0.005
  -0.11715988  0.13528458 -0.11957580       0.005
  -0.05857994  0.10146343 -0.14349096       0.005
   0.00000000  0.13528458 -0.19132128       0.005
   0.05857994  0.10146343 -0.21523644       0.005
   0.11715988  0.06764229 -0.23915160       0.005
   0.17573982  0.03382114 -0.26306676       0.005
  -0.11715988  0.20292686 -0.14349096       0.005
  -0.05857994  0.16910572 -0.16740612       0.005
   0.00000000  0.20292686 -0.21523644       0.005
   0.05857994  0.16910572 -0.23915160       0.005
   0.11715988  0.13528458 -0.26306676       0.005
   0.17573982  0.10146343 -0.28698192       0.005
  -0.11715988  0.27056915 -0.16740612       0.005
  -0.05857994  0.23674801 -0.19132128       0.005
   0.00000000 -0.13528458 -0.09566064       0.005
   0.05857994 -0.16910572 -0.11957580       0.005
   0.11715988 -0.20292686 -0.14349096       0.005
   0.17573982 -0.23674801 -0.16740612       0.005
  -0.11715988 -0.06764229 -0.04783032       0.005
  -0.05857994 -0.10146343 -0.07174548       0.005
   0.00000000 -0.06764229 -0.11957580       0.005
   0.05857994 -0.10146343 -0.14349096       0.005
   0.11715988 -0.13528458 -0.16740612       0.005
   0.17573982 -0.16910572 -0.19132128       0.005
  -0.11715988 -0.00000000 -0.07174548       0.005
  -0.05857994 -0.03382114 -0.09566064       0.005
   0.00000000  0.00000000 -0.07174548       0.005
   0.05857994 -0.03382114 -0.09566064       0.005
   0.11715988 -0.06764229 -0.11957580       0.005
   0.17573982 -0.10146343 -0.14349096       0.005
  -0.11715988  0.06764229 -0.02391516       0.005
  -0.05857994  0.03382114 -0.04783032       0.005
   0.00000000  0.06764229 -0.09566064       0.005
   0.05857994  0.03382114 -0.11957580       0.005
   0.11715988  0.00000000 -0.14349096       0.005
   0.17573982 -0.03382114 -0.16740612       0.005
  -0.11715988  0.13528458 -0.04783032       0.005
  -0.05857994  0.10146343 -0.07174548       0.005
   0.00000000  0.13528458 -0.11957580       0.005
   0.05857994  0.10146343 -0.14349096       0.005
   0.11715988  0.06764229 -0.16740612       0.005
   0.17573982  0.03382114 -0.19132128       0.005
  -0.11715988  0.20292686 -0.07174548       0.005
  -0.05857994  0.16910572 -0.09566064       0.005
   0.00000000  0.20292686 -0.14349096       0.005
   0.05857994  0.16910572 -0.16740612       0.005
   0.11715988  0.13528458 -0.19132128       0.005
   0.17573982  0.10146343 -0.21523644       0.005
  -0.11715988  0.27056915 -0.09566064       0.005
  -0.05857994  0.23674801 -0.11957580       0.005
   0.00000000 -0.13528458 -0.02391516       0.005
   0.05857994 -0.16910572 -0.04783032       0.005
   0.11715988 -0.20292686 -0.07174548       0.005
   0.17573982 -0.23674801 -0.09566064       0.005
  -0.11715988 -0.06764229  0.02391516       0.005
  -0.05857994 -0.10146343  0.00000000       0.005
   0.00000000 -0.06764229 -0.04783032       0.005
   0.05857994 -0.10146343 -0.07174548       0.005
   0.11715988 -0.13528458 -0.09566064       0.005
   0.17573982 -0.16910572 -0.11957580       0.005
  -0.11715988 -0.00000000 -0.00000000       0.005
  -0.05857994 -0.03382114 -0.02391516       0.005
 
 k-points in reciprocal lattice and weights: k-points                                
   0.00000000  0.00000000  0.00000000       0.005
   0.16666667 -0.00000000  0.00000000       0.005
   0.33333333 -0.00000000  0.00000000       0.005
   0.50000000 -0.00000000  0.00000000       0.005
  -0.33333333  0.00000000 -0.00000000       0.005
  -0.16666667  0.00000000 -0.00000000       0.005
   0.00000000  0.16666667 -0.00000000       0.005
   0.16666667  0.16666667  0.00000000       0.005
   0.33333333  0.16666667  0.00000000       0.005
   0.50000000  0.16666667  0.00000000       0.005
  -0.33333333  0.16666667 -0.00000000       0.005
  -0.16666667  0.16666667 -0.00000000       0.005
   0.00000000  0.33333333  0.00000000       0.005
   0.16666667  0.33333333  0.00000000       0.005
   0.33333333  0.33333333  0.00000000       0.005
   0.50000000  0.33333333  0.00000000       0.005
  -0.33333333  0.33333333 -0.00000000       0.005
  -0.16666667  0.33333333  0.00000000       0.005
   0.00000000  0.50000000  0.00000000       0.005
   0.16666667  0.50000000  0.00000000       0.005
   0.33333333  0.50000000  0.00000000       0.005
   0.50000000  0.50000000  0.00000000       0.005
  -0.33333333  0.50000000 -0.00000000       0.005
  -0.16666667  0.50000000 -0.00000000       0.005
   0.00000000 -0.33333333  0.00000000       0.005
   0.16666667 -0.33333333 -0.00000000       0.005
   0.33333333 -0.33333333  0.00000000       0.005
   0.50000000 -0.33333333 -0.00000000       0.005
  -0.33333333 -0.33333333 -0.00000000       0.005
  -0.16666667 -0.33333333  0.00000000       0.005
   0.00000000 -0.16666667  0.00000000       0.005
   0.16666667 -0.16666667  0.00000000       0.005
   0.33333333 -0.16666667  0.00000000       0.005
   0.50000000 -0.16666667  0.00000000       0.005
  -0.33333333 -0.16666667 -0.00000000       0.005
  -0.16666667 -0.16666667 -0.00000000       0.005
   0.00000000  0.00000000  0.16666667       0.005
   0.16666667 -0.00000000  0.16666667       0.005
   0.33333333 -0.00000000  0.16666667       0.005
   0.50000000 -0.00000000  0.16666667       0.005
  -0.33333333  0.00000000  0.16666667       0.005
  -0.16666667  0.00000000  0.16666667       0.005
   0.00000000  0.16666667  0.16666667       0.005
   0.16666667  0.16666667  0.16666667       0.005
   0.33333333  0.16666667  0.16666667       0.005
   0.50000000  0.16666667  0.16666667       0.005
  -0.33333333  0.16666667  0.16666667       0.005
  -0.16666667  0.16666667  0.16666667       0.005
   0.00000000  0.33333333  0.16666667       0.005
   0.16666667  0.33333333  0.16666667       0.005
   0.33333333  0.33333333  0.16666667       0.005
   0.50000000  0.33333333  0.16666667       0.005
  -0.33333333  0.33333333  0.16666667       0.005
  -0.16666667  0.33333333  0.16666667       0.005
   0.00000000  0.50000000  0.16666667       0.005
   0.16666667  0.50000000  0.16666667       0.005
   0.33333333  0.50000000  0.16666667       0.005
   0.50000000  0.50000000  0.16666667       0.005
  -0.33333333  0.50000000  0.16666667       0.005
  -0.16666667  0.50000000  0.16666667       0.005
   0.00000000 -0.33333333  0.16666667       0.005
   0.16666667 -0.33333333  0.16666667       0.005
   0.33333333 -0.33333333  0.16666667       0.005
   0.50000000 -0.33333333  0.16666667       0.005
  -0.33333333 -0.33333333  0.16666667       0.005
  -0.16666667 -0.33333333  0.16666667       0.005
   0.00000000 -0.16666667  0.16666667       0.005
   0.16666667 -0.16666667  0.16666667       0.005
   0.33333333 -0.16666667  0.16666667       0.005
   0.50000000 -0.16666667  0.16666667       0.005
  -0.33333333 -0.16666667  0.16666667       0.005
  -0.16666667 -0.16666667  0.16666667       0.005
   0.00000000  0.00000000  0.33333333       0.005
   0.16666667 -0.00000000  0.33333333       0.005
   0.33333333 -0.00000000  0.33333333       0.005
   0.50000000 -0.00000000  0.33333333       0.005
  -0.33333333  0.00000000  0.33333333       0.005
  -0.16666667  0.00000000  0.33333333       0.005
   0.00000000  0.16666667  0.33333333       0.005
   0.16666667  0.16666667  0.33333333       0.005
   0.33333333  0.16666667  0.33333333       0.005
   0.50000000  0.16666667  0.33333333       0.005
  -0.33333333  0.16666667  0.33333333       0.005
  -0.16666667  0.16666667  0.33333333       0.005
   0.00000000  0.33333333  0.33333333       0.005
   0.16666667  0.33333333  0.33333333       0.005
   0.33333333  0.33333333  0.33333333       0.005
   0.50000000  0.33333333  0.33333333       0.005
  -0.33333333  0.33333333  0.33333333       0.005
  -0.16666667  0.33333333  0.33333333       0.005
   0.00000000  0.50000000  0.33333333       0.005
   0.16666667  0.50000000  0.33333333       0.005
   0.33333333  0.50000000  0.33333333       0.005
   0.50000000  0.50000000  0.33333333       0.005
  -0.33333333  0.50000000  0.33333333       0.005
  -0.16666667  0.50000000  0.33333333       0.005
   0.00000000 -0.33333333  0.33333333       0.005
   0.16666667 -0.33333333  0.33333333       0.005
   0.33333333 -0.33333333  0.33333333       0.005
   0.50000000 -0.33333333  0.33333333       0.005
  -0.33333333 -0.33333333  0.33333333       0.005
  -0.16666667 -0.33333333  0.33333333       0.005
   0.00000000 -0.16666667  0.33333333       0.005
   0.16666667 -0.16666667  0.33333333       0.005
   0.33333333 -0.16666667  0.33333333       0.005
   0.50000000 -0.16666667  0.33333333       0.005
  -0.33333333 -0.16666667  0.33333333       0.005
  -0.16666667 -0.16666667  0.33333333       0.005
   0.00000000  0.00000000  0.50000000       0.005
   0.16666667 -0.00000000  0.50000000       0.005
   0.33333333 -0.00000000  0.50000000       0.005
   0.50000000 -0.00000000  0.50000000       0.005
  -0.33333333  0.00000000  0.50000000       0.005
  -0.16666667  0.00000000  0.50000000       0.005
   0.00000000  0.16666667  0.50000000       0.005
   0.16666667  0.16666667  0.50000000       0.005
   0.33333333  0.16666667  0.50000000       0.005
   0.50000000  0.16666667  0.50000000       0.005
  -0.33333333  0.16666667  0.50000000       0.005
  -0.16666667  0.16666667  0.50000000       0.005
   0.00000000  0.33333333  0.50000000       0.005
   0.16666667  0.33333333  0.50000000       0.005
   0.33333333  0.33333333  0.50000000       0.005
   0.50000000  0.33333333  0.50000000       0.005
  -0.33333333  0.33333333  0.50000000       0.005
  -0.16666667  0.33333333  0.50000000       0.005
   0.00000000  0.50000000  0.50000000       0.005
   0.16666667  0.50000000  0.50000000       0.005
   0.33333333  0.50000000  0.50000000       0.005
   0.50000000  0.50000000  0.50000000       0.005
  -0.33333333  0.50000000  0.50000000       0.005
  -0.16666667  0.50000000  0.50000000       0.005
   0.00000000 -0.33333333  0.50000000       0.005
   0.16666667 -0.33333333  0.50000000       0.005
   0.33333333 -0.33333333  0.50000000       0.005
   0.50000000 -0.33333333  0.50000000       0.005
  -0.33333333 -0.33333333  0.50000000       0.005
  -0.16666667 -0.33333333  0.50000000       0.005
   0.00000000 -0.16666667  0.50000000       0.005
   0.16666667 -0.16666667  0.50000000       0.005
   0.33333333 -0.16666667  0.50000000       0.005
   0.50000000 -0.16666667  0.50000000       0.005
  -0.33333333 -0.16666667  0.50000000       0.005
  -0.16666667 -0.16666667  0.50000000       0.005
   0.00000000  0.00000000 -0.33333333       0.005
   0.16666667 -0.00000000 -0.33333333       0.005
   0.33333333 -0.00000000 -0.33333333       0.005
   0.50000000 -0.00000000 -0.33333333       0.005
  -0.33333333  0.00000000 -0.33333333       0.005
  -0.16666667  0.00000000 -0.33333333       0.005
   0.00000000  0.16666667 -0.33333333       0.005
   0.16666667  0.16666667 -0.33333333       0.005
   0.33333333  0.16666667 -0.33333333       0.005
   0.50000000  0.16666667 -0.33333333       0.005
  -0.33333333  0.16666667 -0.33333333       0.005
  -0.16666667  0.16666667 -0.33333333       0.005
   0.00000000  0.33333333 -0.33333333       0.005
   0.16666667  0.33333333 -0.33333333       0.005
   0.33333333  0.33333333 -0.33333333       0.005
   0.50000000  0.33333333 -0.33333333       0.005
  -0.33333333  0.33333333 -0.33333333       0.005
  -0.16666667  0.33333333 -0.33333333       0.005
   0.00000000  0.50000000 -0.33333333       0.005
   0.16666667  0.50000000 -0.33333333       0.005
   0.33333333  0.50000000 -0.33333333       0.005
   0.50000000  0.50000000 -0.33333333       0.005
  -0.33333333  0.50000000 -0.33333333       0.005
  -0.16666667  0.50000000 -0.33333333       0.005
   0.00000000 -0.33333333 -0.33333333       0.005
   0.16666667 -0.33333333 -0.33333333       0.005
   0.33333333 -0.33333333 -0.33333333       0.005
   0.50000000 -0.33333333 -0.33333333       0.005
  -0.33333333 -0.33333333 -0.33333333       0.005
  -0.16666667 -0.33333333 -0.33333333       0.005
   0.00000000 -0.16666667 -0.33333333       0.005
   0.16666667 -0.16666667 -0.33333333       0.005
   0.33333333 -0.16666667 -0.33333333       0.005
   0.50000000 -0.16666667 -0.33333333       0.005
  -0.33333333 -0.16666667 -0.33333333       0.005
  -0.16666667 -0.16666667 -0.33333333       0.005
   0.00000000  0.00000000 -0.16666667       0.005
   0.16666667 -0.00000000 -0.16666667       0.005
   0.33333333 -0.00000000 -0.16666667       0.005
   0.50000000 -0.00000000 -0.16666667       0.005
  -0.33333333  0.00000000 -0.16666667       0.005
  -0.16666667  0.00000000 -0.16666667       0.005
   0.00000000  0.16666667 -0.16666667       0.005
   0.16666667  0.16666667 -0.16666667       0.005
   0.33333333  0.16666667 -0.16666667       0.005
   0.50000000  0.16666667 -0.16666667       0.005
  -0.33333333  0.16666667 -0.16666667       0.005
  -0.16666667  0.16666667 -0.16666667       0.005
   0.00000000  0.33333333 -0.16666667       0.005
   0.16666667  0.33333333 -0.16666667       0.005
   0.33333333  0.33333333 -0.16666667       0.005
   0.50000000  0.33333333 -0.16666667       0.005
  -0.33333333  0.33333333 -0.16666667       0.005
  -0.16666667  0.33333333 -0.16666667       0.005
   0.00000000  0.50000000 -0.16666667       0.005
   0.16666667  0.50000000 -0.16666667       0.005
   0.33333333  0.50000000 -0.16666667       0.005
   0.50000000  0.50000000 -0.16666667       0.005
  -0.33333333  0.50000000 -0.16666667       0.005
  -0.16666667  0.50000000 -0.16666667       0.005
   0.00000000 -0.33333333 -0.16666667       0.005
   0.16666667 -0.33333333 -0.16666667       0.005
   0.33333333 -0.33333333 -0.16666667       0.005
   0.50000000 -0.33333333 -0.16666667       0.005
  -0.33333333 -0.33333333 -0.16666667       0.005
  -0.16666667 -0.33333333 -0.16666667       0.005
   0.00000000 -0.16666667 -0.16666667       0.005
   0.16666667 -0.16666667 -0.16666667       0.005
   0.33333333 -0.16666667 -0.16666667       0.005
   0.50000000 -0.16666667 -0.16666667       0.005
  -0.33333333 -0.16666667 -0.16666667       0.005
  -0.16666667 -0.16666667 -0.16666667       0.005
 
 position of ions in fractional coordinates (direct lattice) 
   0.00000000  0.00000000  0.00000000
 
 position of ions in cartesian coordinates  (Angst):
   0.00000000  0.00000000  0.00000000
 
 Euler angles ALPHA=     0.0000000  BETA=     0.0000000

 transformation matrix from SAXIS to cartesian coordinates
 ---------------------------------------------------------
     1.0000000 m_x     0.0000000 m_y     0.0000000 m_z
     0.0000000 m_x     1.0000000 m_y     0.0000000 m_z
     0.0000000 m_x     0.0000000 m_y     1.0000000 m_z

 transformation matrix from cartesian coordinates to SAXIS
 ---------------------------------------------------------
     1.0000000 m_x     0.0000000 m_y     0.0000000 m_z
     0.0000000 m_x     1.0000000 m_y     0.0000000 m_z
     0.0000000 m_x     0.0000000 m_y     1.0000000 m_z




--------------------------------------------------------------------------------------------------------


 k-point  1 :   0.0000 0.0000 0.0000  plane waves:     362
 k-point  2 :   0.1667-0.0000 0.0000  plane waves:     368
 k-point  3 :   0.3333-0.0000 0.0000  plane waves:     372
 k-point  4 :   0.5000-0.0000 0.0000  plane waves:     360
 k-point  5 :  -0.3333 0.0000-0.0000  plane waves:     372
 k-point  6 :  -0.1667 0.0000-0.0000  plane waves:     368
 k-point  7 :   0.0000 0.1667-0.0000  plane waves:     368
 k-point  8 :   0.1667 0.1667 0.0000  plane waves:     372
 k-point  9 :   0.3333 0.1667 0.0000  plane waves:     380
 k-point 10 :   0.5000 0.1667 0.0000  plane waves:     380
 k-point 11 :  -0.3333 0.1667-0.0000  plane waves:     380
 k-point 12 :  -0.1667 0.1667-0.0000  plane waves:     384
 k-point 13 :   0.0000 0.3333 0.0000  plane waves:     372
 k-point 14 :   0.1667 0.3333 0.0000  plane waves:     380
 k-point 15 :   0.3333 0.3333 0.0000  plane waves:     388
 k-point 16 :   0.5000 0.3333 0.0000  plane waves:     392
 k-point 17 :  -0.3333 0.3333-0.0000  plane waves:     372
 k-point 18 :  -0.1667 0.3333 0.0000  plane waves:     380
 k-point 19 :   0.0000 0.5000 0.0000  plane waves:     360
 k-point 20 :   0.1667 0.5000 0.0000  plane waves:     380
 k-point 21 :   0.3333 0.5000 0.0000  plane waves:     392
 k-point 22 :   0.5000 0.5000 0.0000  plane waves:     380
 k-point 23 :  -0.3333 0.5000-0.0000  plane waves:     392
 k-point 24 :  -0.1667 0.5000-0.0000  plane waves:     380
 k-point 25 :   0.0000-0.3333 0.0000  plane waves:     372
 k-point 26 :   0.1667-0.3333-0.0000  plane waves:     380
 k-point 27 :   0.3333-0.3333 0.0000  plane waves:     372
 k-point 28 :   0.5000-0.3333-0.0000  plane waves:     392
 k-point 29 :  -0.3333-0.3333-0.0000  plane waves:     388
 k-point 30 :  -0.1667-0.3333 0.0000  plane waves:     380
 k-point 31 :   0.0000-0.1667 0.0000  plane waves:     368
 k-point 32 :   0.1667-0.1667 0.0000  plane waves:     384
 k-point 33 :   0.3333-0.1667 0.0000  plane waves:     380
 k-point 34 :   0.5000-0.1667 0.0000  plane waves:     380
 k-point 35 :  -0.3333-0.1667-0.0000  plane waves:     380
 k-point 36 :  -0.1667-0.1667-0.0000  plane waves:     372
 k-point 37 :   0.0000 0.0000 0.1667  plane waves:     368
 k-point 38 :   0.1667-0.0000 0.1667  plane waves:     372
 k-point 39 :   0.3333-0.0000 0.1667  plane waves:     380
 k-point 40 :   0.5000-0.0000 0.1667  plane waves:     380
 k-point 41 :  -0.3333 0.0000 0.1667  plane waves:     380
 k-point 42 :  -0.1667 0.0000 0.1667  plane waves:     384
 k-point 43 :   0.0000 0.1667 0.1667  plane waves:     372
 k-point 44 :   0.1667 0.1667 0.1667  plane waves:     368
 k-point 45 :   0.3333 0.1667 0.1667  plane waves:     384
 k-point 46 :   0.5000 0.1667 0.1667  plane waves:     380
 k-point 47 :  -0.3333 0.1667 0.1667  plane waves:     380
 k-point 48 :  -0.1667 0.1667 0.1667  plane waves:     380
 k-point 49 :   0.0000 0.3333 0.1667  plane waves:     380
 k-point 50 :   0.1667 0.3333 0.1667  plane waves:     384
 k-point 51 :   0.3333 0.3333 0.1667  plane waves:     380
 k-point 52 :   0.5000 0.3333 0.1667  plane waves:     390
 k-point 53 :  -0.3333 0.3333 0.1667  plane waves:     388
 k-point 54 :  -0.1667 0.3333 0.1667  plane waves:     390
 k-point 55 :   0.0000 0.5000 0.1667  plane waves:     380
 k-point 56 :   0.1667 0.5000 0.1667  plane waves:     380
 k-point 57 :   0.3333 0.5000 0.1667  plane waves:     390
 k-point 58 :   0.5000 0.5000 0.1667  plane waves:     392
 k-point 59 :  -0.3333 0.5000 0.1667  plane waves:     404
 k-point 60 :  -0.1667 0.5000 0.1667  plane waves:     388
 k-point 61 :   0.0000-0.3333 0.1667  plane waves:     380
 k-point 62 :   0.1667-0.3333 0.1667  plane waves:     380
 k-point 63 :   0.3333-0.3333 0.1667  plane waves:     388
 k-point 64 :   0.5000-0.3333 0.1667  plane waves:     404
 k-point 65 :  -0.3333-0.3333 0.1667  plane waves:     392
 k-point 66 :  -0.1667-0.3333 0.1667  plane waves:     390
 k-point 67 :   0.0000-0.1667 0.1667  plane waves:     384
 k-point 68 :   0.1667-0.1667 0.1667  plane waves:     380
 k-point 69 :   0.3333-0.1667 0.1667  plane waves:     390
 k-point 70 :   0.5000-0.1667 0.1667  plane waves:     388
 k-point 71 :  -0.3333-0.1667 0.1667  plane waves:     390
 k-point 72 :  -0.1667-0.1667 0.1667  plane waves:     380
 k-point 73 :   0.0000 0.0000 0.3333  plane waves:     372
 k-point 74 :   0.1667-0.0000 0.3333  plane waves:     380
 k-point 75 :   0.3333-0.0000 0.3333  plane waves:     388
 k-point 76 :   0.5000-0.0000 0.3333  plane waves:     392
 k-point 77 :  -0.3333 0.0000 0.3333  plane waves:     372
 k-point 78 :  -0.1667 0.0000 0.3333  plane waves:     380
 k-point 79 :   0.0000 0.1667 0.3333  plane waves:     380
 k-point 80 :   0.1667 0.1667 0.3333  plane waves:     384
 k-point 81 :   0.3333 0.1667 0.3333  plane waves:     380
 k-point 82 :   0.5000 0.1667 0.3333  plane waves:     390
 k-point 83 :  -0.3333 0.1667 0.3333  plane waves:     388
 k-point 84 :  -0.1667 0.1667 0.3333  plane waves:     390
 k-point 85 :   0.0000 0.3333 0.3333  plane waves:     388
 k-point 86 :   0.1667 0.3333 0.3333  plane waves:     380
 k-point 87 :   0.3333 0.3333 0.3333  plane waves:     372
 k-point 88 :   0.5000 0.3333 0.3333  plane waves:     380
 k-point 89 :  -0.3333 0.3333 0.3333  plane waves:     372
 k-point 90 :  -0.1667 0.3333 0.3333  plane waves:     392
 k-point 91 :   0.0000 0.5000 0.3333  plane waves:     392
 k-point 92 :   0.1667 0.5000 0.3333  plane waves:     390
 k-point 93 :   0.3333 0.5000 0.3333  plane waves:     380
 k-point 94 :   0.5000 0.5000 0.3333  plane waves:     380
 k-point 95 :  -0.3333 0.5000 0.3333  plane waves:     388
 k-point 96 :  -0.1667 0.5000 0.3333  plane waves:     404
 k-point 97 :   0.0000-0.3333 0.3333  plane waves:     372
 k-point 98 :   0.1667-0.3333 0.3333  plane waves:     388
 k-point 99 :   0.3333-0.3333 0.3333  plane waves:     372
 k-point ** :   0.5000-0.3333 0.3333  plane waves:     388
 k-point ** :  -0.3333-0.3333 0.3333  plane waves:     372
 k-point ** :  -0.1667-0.3333 0.3333  plane waves:     388
 k-point ** :   0.0000-0.1667 0.3333  plane waves:     380
 k-point ** :   0.1667-0.1667 0.3333  plane waves:     390
 k-point ** :   0.3333-0.1667 0.3333  plane waves:     392
 k-point ** :   0.5000-0.1667 0.3333  plane waves:     404
 k-point ** :  -0.3333-0.1667 0.3333  plane waves:     388
 k-point ** :  -0.1667-0.1667 0.3333  plane waves:     380
 k-point ** :   0.0000 0.0000 0.5000  plane waves:     360
 k-point ** :   0.1667-0.0000 0.5000  plane waves:     380
 k-point ** :   0.3333-0.0000 0.5000  plane waves:     392
 k-point ** :   0.5000-0.0000 0.5000  plane waves:     380
 k-point ** :  -0.3333 0.0000 0.5000  plane waves:     392
 k-point ** :  -0.1667 0.0000 0.5000  plane waves:     380
 k-point ** :   0.0000 0.1667 0.5000  plane waves:     380
 k-point ** :   0.1667 0.1667 0.5000  plane waves:     380
 k-point ** :   0.3333 0.1667 0.5000  plane waves:     390
 k-point ** :   0.5000 0.1667 0.5000  plane waves:     392
 k-point ** :  -0.3333 0.1667 0.5000  plane waves:     404
 k-point ** :  -0.1667 0.1667 0.5000  plane waves:     388
 k-point ** :   0.0000 0.3333 0.5000  plane waves:     392
 k-point ** :   0.1667 0.3333 0.5000  plane waves:     390
 k-point ** :   0.3333 0.3333 0.5000  plane waves:     380
 k-point ** :   0.5000 0.3333 0.5000  plane waves:     380
 k-point ** :  -0.3333 0.3333 0.5000  plane waves:     388
 k-point ** :  -0.1667 0.3333 0.5000  plane waves:     404
 k-point ** :   0.0000 0.5000 0.5000  plane waves:     380
 k-point ** :   0.1667 0.5000 0.5000  plane waves:     392
 k-point ** :   0.3333 0.5000 0.5000  plane waves:     380
 k-point ** :   0.5000 0.5000 0.5000  plane waves:     360
 k-point ** :  -0.3333 0.5000 0.5000  plane waves:     380
 k-point ** :  -0.1667 0.5000 0.5000  plane waves:     392
 k-point ** :   0.0000-0.3333 0.5000  plane waves:     392
 k-point ** :   0.1667-0.3333 0.5000  plane waves:     404
 k-point ** :   0.3333-0.3333 0.5000  plane waves:     388
 k-point ** :   0.5000-0.3333 0.5000  plane waves:     380
 k-point ** :  -0.3333-0.3333 0.5000  plane waves:     380
 k-point ** :  -0.1667-0.3333 0.5000  plane waves:     390
 k-point ** :   0.0000-0.1667 0.5000  plane waves:     380
 k-point ** :   0.1667-0.1667 0.5000  plane waves:     388
 k-point ** :   0.3333-0.1667 0.5000  plane waves:     404
 k-point ** :   0.5000-0.1667 0.5000  plane waves:     392
 k-point ** :  -0.3333-0.1667 0.5000  plane waves:     390
 k-point ** :  -0.1667-0.1667 0.5000  plane waves:     380
 k-point ** :   0.0000 0.0000-0.3333  plane waves:     372
 k-point ** :   0.1667-0.0000-0.3333  plane waves:     380
 k-point ** :   0.3333-0.0000-0.3333  plane waves:     372
 k-point ** :   0.5000-0.0000-0.3333  plane waves:     392
 k-point ** :  -0.3333 0.0000-0.3333  plane waves:     388
 k-point ** :  -0.1667 0.0000-0.3333  plane waves:     380
 k-point ** :   0.0000 0.1667-0.3333  plane waves:     380
 k-point ** :   0.1667 0.1667-0.3333  plane waves:     380
 k-point ** :   0.3333 0.1667-0.3333  plane waves:     388
 k-point ** :   0.5000 0.1667-0.3333  plane waves:     404
 k-point ** :  -0.3333 0.1667-0.3333  plane waves:     392
 k-point ** :  -0.1667 0.1667-0.3333  plane waves:     390
 k-point ** :   0.0000 0.3333-0.3333  plane waves:     372
 k-point ** :   0.1667 0.3333-0.3333  plane waves:     388
 k-point ** :   0.3333 0.3333-0.3333  plane waves:     372
 k-point ** :   0.5000 0.3333-0.3333  plane waves:     388
 k-point ** :  -0.3333 0.3333-0.3333  plane waves:     372
 k-point ** :  -0.1667 0.3333-0.3333  plane waves:     388
 k-point ** :   0.0000 0.5000-0.3333  plane waves:     392
 k-point ** :   0.1667 0.5000-0.3333  plane waves:     404
 k-point ** :   0.3333 0.5000-0.3333  plane waves:     388
 k-point ** :   0.5000 0.5000-0.3333  plane waves:     380
 k-point ** :  -0.3333 0.5000-0.3333  plane waves:     380
 k-point ** :  -0.1667 0.5000-0.3333  plane waves:     390
 k-point ** :   0.0000-0.3333-0.3333  plane waves:     388
 k-point ** :   0.1667-0.3333-0.3333  plane waves:     392
 k-point ** :   0.3333-0.3333-0.3333  plane waves:     372
 k-point ** :   0.5000-0.3333-0.3333  plane waves:     380
 k-point ** :  -0.3333-0.3333-0.3333  plane waves:     372
 k-point ** :  -0.1667-0.3333-0.3333  plane waves:     380
 k-point ** :   0.0000-0.1667-0.3333  plane waves:     380
 k-point ** :   0.1667-0.1667-0.3333  plane waves:     390
 k-point ** :   0.3333-0.1667-0.3333  plane waves:     388
 k-point ** :   0.5000-0.1667-0.3333  plane waves:     390
 k-point ** :  -0.3333-0.1667-0.3333  plane waves:     380
 k-point ** :  -0.1667-0.1667-0.3333  plane waves:     384
 k-point ** :   0.0000 0.0000-0.1667  plane waves:     368
 k-point ** :   0.1667-0.0000-0.1667  plane waves:     384
 k-point ** :   0.3333-0.0000-0.1667  plane waves:     380
 k-point ** :   0.5000-0.0000-0.1667  plane waves:     380
 k-point ** :  -0.3333 0.0000-0.1667  plane waves:     380
 k-point ** :  -0.1667 0.0000-0.1667  plane waves:     372
 k-point ** :   0.0000 0.1667-0.1667  plane waves:     384
 k-point ** :   0.1667 0.1667-0.1667  plane waves:     380
 k-point ** :   0.3333 0.1667-0.1667  plane waves:     390
 k-point ** :   0.5000 0.1667-0.1667  plane waves:     388
 k-point ** :  -0.3333 0.1667-0.1667  plane waves:     390
 k-point ** :  -0.1667 0.1667-0.1667  plane waves:     380
 k-point ** :   0.0000 0.3333-0.1667  plane waves:     380
 k-point ** :   0.1667 0.3333-0.1667  plane waves:     390
 k-point ** :   0.3333 0.3333-0.1667  plane waves:     392
 k-point ** :   0.5000 0.3333-0.1667  plane waves:     404
 k-point ** :  -0.3333 0.3333-0.1667  plane waves:     388
 k-point ** :  -0.1667 0.3333-0.1667  plane waves:     380
 k-point ** :   0.0000 0.5000-0.1667  plane waves:     380
 k-point ** :   0.1667 0.5000-0.1667  plane waves:     388
 k-point ** :   0.3333 0.5000-0.1667  plane waves:     404
 k-point ** :   0.5000 0.5000-0.1667  plane waves:     392
 k-point ** :  -0.3333 0.5000-0.1667  plane waves:     390
 k-point ** :  -0.1667 0.5000-0.1667  plane waves:     380
 k-point ** :   0.0000-0.3333-0.1667  plane waves:     380
 k-point ** :   0.1667-0.3333-0.1667  plane waves:     390
 k-point ** :   0.3333-0.3333-0.1667  plane waves:     388
 k-point ** :   0.5000-0.3333-0.1667  plane waves:     390
 k-point ** :  -0.3333-0.3333-0.1667  plane waves:     380
 k-point ** :  -0.1667-0.3333-0.1667  plane waves:     384
 k-point ** :   0.0000-0.1667-0.1667  plane waves:     372
 k-point ** :   0.1667-0.1667-0.1667  plane waves:     380
 k-point ** :   0.3333-0.1667-0.1667  plane waves:     380
 k-point ** :   0.5000-0.1667-0.1667  plane waves:     380
 k-point ** :  -0.3333-0.1667-0.1667  plane waves:     384
 k-point ** :  -0.1667-0.1667-0.1667  plane waves:     368

 maximum and minimum number of plane-waves per node :       116       80

 maximum number of plane-waves:       404
 maximum index in each direction: 
   IXMAX=    4   IYMAX=    4   IZMAX=    4
   IXMIN=   -4   IYMIN=   -4   IZMIN=   -4


 parallel 3D FFT for wavefunctions:
    minimum data exchange during FFTs selected (reduces bandwidth)
 parallel 3D FFT for charge:
    minimum data exchange during FFTs selected (reduces bandwidth)


 total amount of memory used by VASP MPI-rank0    64165. kBytes
=======================================================================

   base      :      30000. kBytes
   nonl-proj :       1438. kBytes
   fftplans  :       1222. kBytes
   grid      :       1375. kBytes
   one-center:         49. kBytes
   wavefun   :      30081. kBytes
 
     INWAV:  cpu time    1.9090: real time    1.9093
 Broyden mixing: mesh for mixing (old mesh)
   NGX =  9   NGY =  9   NGZ =  9
  (NGX  = 32   NGY  = 32   NGZ  = 32)
  gives a total of    729 points

 charge density for first step will be calculated from the start-wavefunctions


--------------------------------------------------------------------------------------------------------


 Maximum index for augmentation-charges         1603 (set IRDMAX)


--------------------------------------------------------------------------------------------------------


 initial charge from wavefunction
 First call to EWALD:  gamma=   0.699
 Maximum number of real-space cells 3x 3x 3
 Maximum number of reciprocal cells 3x 3x 3

    FEWALD:  cpu time    0.0018: real time    0.0018


--------------------------------------- Iteration      1(   1)  ---------------------------------------


    POTLOK:  cpu time    0.0224: real time    0.0225
    SETDIJ:  cpu time    0.0390: real time    0.0391

 total amount of memory used by VASP MPI-rank0   159108. kBytes
=======================================================================

   base      :      30000. kBytes
   nonl-proj :       1438. kBytes
   fftplans  :       1222. kBytes
   grid      :       1375. kBytes
   one-center:         49. kBytes
   wavefun   :     125024. kBytes
 
    EDDIAG:  cpu time   13.8012: real time   13.8033
       DOS:  cpu time    0.0161: real time    0.0161
    --------------------------------------------
      LOOP:  cpu time   13.8788: real time   13.8810

 eigenvalue-minimisations  :     0
 total energy-change (2. order) :-0.3758271E+00  ( 0.0000000E+00)
 number of electron       2.0000001 magnetization      -0.0000000     -0.0000000      0.0000000
 augmentation part        0.3018521 magnetization      -0.0000000     -0.0000000      0.0000000

 Free energy of the ion-electron system (eV)
  ---------------------------------------------------
  alpha Z        PSCENC =         0.62263337
  Ewald energy   TEWEN  =       -32.81689722
  -Hartree energ DENC   =       -23.07332919
  -exchange      EXHF   =         0.00000000
  -V(xc)+E(xc)   XCENC  =         9.10134150
  PAW double counting   =        47.65958144      -48.90455391
  entropy T*S    EENTRO =         0.00000000
  eigenvalues    EBANDS =       -31.37583694
  atomic energy  EATOM  =        78.41123386
  Solvation  Ediel_sol  =         0.00000000
  ---------------------------------------------------
  free energy    TOTEN  =        -0.37582708 eV

  energy without entropy =       -0.37582708  energy(sigma->0) =       -0.37582708


--------------------------------------------------------------------------------------------------------




--------------------------------------- Iteration      1(   2)  ---------------------------------------



 total amount of memory used by VASP MPI-rank0   159108. kBytes
=======================================================================

   base      :      30000. kBytes
   nonl-proj :       1438. kBytes
   fftplans  :       1222. kBytes
   grid      :       1375. kBytes
   one-center:         49. kBytes
   wavefun   :     125024. kBytes
 
    EDDIAG:  cpu time   13.6331: real time   13.6369
       DOS:  cpu time    0.0142: real time    0.0142
    --------------------------------------------
      LOOP:  cpu time   13.6473: real time   13.6511

 eigenvalue-minimisations  :     0
 total energy-change (2. order) :-0.7105427E-12  ( 0.0000000E+00)
 number of electron       2.0000001 magnetization      -0.0000000     -0.0000000      0.0000000
 augmentation part        0.3018521 magnetization      -0.0000000     -0.0000000      0.0000000

 Free energy of the ion-electron system (eV)
  ---------------------------------------------------
  alpha Z        PSCENC =         0.62263337
  Ewald energy   TEWEN  =       -32.81689722
  -Hartree energ DENC   =       -23.07332919
  -exchange      EXHF   =         0.00000000
  -V(xc)+E(xc)   XCENC  =         9.10134150
  PAW double counting   =        47.65958144      -48.90455391
  entropy T*S    EENTRO =         0.00000000
  eigenvalues    EBANDS =       -31.37583694
  atomic energy  EATOM  =        78.41123386
  Solvation  Ediel_sol  =         0.00000000
  ---------------------------------------------------
  free energy    TOTEN  =        -0.37582708 eV

  energy without entropy =       -0.37582708  energy(sigma->0) =       -0.37582708


--------------------------------------------------------------------------------------------------------




--------------------------------------- Iteration      1(   3)  ---------------------------------------



 total amount of memory used by VASP MPI-rank0   159108. kBytes
=======================================================================

   base      :      30000. kBytes
   nonl-proj :       1438. kBytes
   fftplans  :       1222. kBytes
   grid      :       1375. kBytes
   one-center:         49. kBytes
   wavefun   :     125024. kBytes
 
    EDDIAG:  cpu time   13.5004: real time   13.5022
       DOS:  cpu time    0.0093: real time    0.0093
    --------------------------------------------
      LOOP:  cpu time   13.5097: real time   13.5115

 eigenvalue-minimisations  :     0
 total energy-change (2. order) :-0.3410605E-12  ( 0.0000000E+00)
 number of electron       2.0000001 magnetization      -0.0000000     -0.0000000      0.0000000
 augmentation part        0.3018521 magnetization      -0.0000000     -0.0000000      0.0000000

 Free energy of the ion-electron system (eV)
  ---------------------------------------------------
  alpha Z        PSCENC =         0.62263337
  Ewald energy   TEWEN  =       -32.81689722
  -Hartree energ DENC   =       -23.07332919
  -exchange      EXHF   =         0.00000000
  -V(xc)+E(xc)   XCENC  =         9.10134150
  PAW double counting   =        47.65958144      -48.90455391
  entropy T*S    EENTRO =         0.00000000
  eigenvalues    EBANDS =       -31.37583694
  atomic energy  EATOM  =        78.41123386
  Solvation  Ediel_sol  =         0.00000000
  ---------------------------------------------------
  free energy    TOTEN  =        -0.37582708 eV

  energy without entropy =       -0.37582708  energy(sigma->0) =       -0.37582708


--------------------------------------------------------------------------------------------------------




--------------------------------------- Iteration      1(   4)  ---------------------------------------



 total amount of memory used by VASP MPI-rank0   159108. kBytes
=======================================================================

   base      :      30000. kBytes
   nonl-proj :       1438. kBytes
   fftplans  :       1222. kBytes
   grid      :       1375. kBytes
   one-center:         49. kBytes
   wavefun   :     125024. kBytes
 
    EDDIAG:  cpu time   13.7825: real time   13.7840
       DOS:  cpu time    0.0127: real time    0.0127
    --------------------------------------------
      LOOP:  cpu time   13.7952: real time   13.7968

 eigenvalue-minimisations  :     0
 total energy-change (2. order) : 0.1136868E-11  ( 0.0000000E+00)
 number of electron       2.0000001 magnetization      -0.0000000     -0.0000000      0.0000000
 augmentation part        0.3018521 magnetization      -0.0000000     -0.0000000      0.0000000

 Free energy of the ion-electron system (eV)
  ---------------------------------------------------
  alpha Z        PSCENC =         0.62263337
  Ewald energy   TEWEN  =       -32.81689722
  -Hartree energ DENC   =       -23.07332919
  -exchange      EXHF   =         0.00000000
  -V(xc)+E(xc)   XCENC  =         9.10134150
  PAW double counting   =        47.65958144      -48.90455391
  entropy T*S    EENTRO =         0.00000000
  eigenvalues    EBANDS =       -31.37583694
  atomic energy  EATOM  =        78.41123386
  Solvation  Ediel_sol  =         0.00000000
  ---------------------------------------------------
  free energy    TOTEN  =        -0.37582708 eV

  energy without entropy =       -0.37582708  energy(sigma->0) =       -0.37582708


--------------------------------------------------------------------------------------------------------




--------------------------------------- Iteration      1(   5)  ---------------------------------------



 total amount of memory used by VASP MPI-rank0   159108. kBytes
=======================================================================

   base      :      30000. kBytes
   nonl-proj :       1438. kBytes
   fftplans  :       1222. kBytes
   grid      :       1375. kBytes
   one-center:         49. kBytes
[...]
    0.000000    0.000000    0.000000    0.000000    0.000000    0.000000    0.000000
    2.096482    0.000000    0.000000    0.000000    0.000000    0.000000    0.000000
    4.192965    0.000000    0.000000    0.000000    0.000000    0.000000    0.000000
    6.289447    0.000000    0.000000    0.000000    0.000000    0.000000    0.000000
    8.385929    0.000000    0.000000    0.000000    0.000000    0.000000    0.000000
   10.482412    0.000000    0.000000    0.000000    0.000000    0.000000    0.000000
   12.578894    0.000000    0.000000    0.000000    0.000000    0.000000    0.000000
   14.675377    0.000000    0.000000    0.000000    0.000000    0.000000    0.000000
   16.771859    0.000000    0.000000    0.000000    0.000000    0.000000    0.000000
   18.868341    0.000000    0.000000    0.000000    0.000000    0.000000    0.000000
   20.964824    0.204472    0.204465    0.204463    0.000006    0.000002    0.000004
   23.061306    0.000000    0.000000    0.000000    0.000000    0.000000    0.000000
   25.157788    0.000000    0.000000    0.000000    0.000000    0.000000    0.000000
   27.254271    0.000000    0.000000    0.000000    0.000000    0.000000    0.000000
   29.350753    0.513429    0.513512    0.513533   -0.000072   -0.000029   -0.000051
   31.447235    0.000000    0.000000    0.000000    0.000000    0.000000    0.000000
   33.543718    0.124587    0.124583    0.124582    0.000003    0.000001    0.000002
   35.640200    0.463599    0.463603    0.463604   -0.000003   -0.000001   -0.000002
   37.736683    0.000000    0.000000    0.000000    0.000000    0.000000    0.000000
   39.833165    0.145929    0.145635    0.145561    0.000255    0.000104    0.000180
   41.929647    0.040201    0.040163    0.040153    0.000033    0.000013    0.000023
   44.026130    0.063617    0.063626    0.063628   -0.000008   -0.000003   -0.000005
   46.122612    0.000000    0.000000    0.000000    0.000000    0.000000    0.000000
   48.219094    0.082019    0.082042    0.082048   -0.000020   -0.000008   -0.000014
   50.315577    0.085188    0.085182    0.085180    0.000006    0.000002    0.000004
   52.412059    0.075239    0.075234    0.075232    0.000005    0.000002    0.000004
   54.508542    0.016261    0.016259    0.016259    0.000001    0.000001    0.000001
   56.605024    0.027709    0.027753    0.027764   -0.000038   -0.000016   -0.000027
   58.701506    0.073863    0.073910    0.073922   -0.000040   -0.000017   -0.000029
   60.797989    0.055485    0.055494    0.055496   -0.000008   -0.000003   -0.000005
   62.894471    0.000000    0.000000    0.000000    0.000000    0.000000    0.000000
   64.990953    0.053354    0.053338    0.053334    0.000014    0.000006    0.000010
   67.087436    0.000000    0.000000    0.000000    0.000000    0.000000    0.000000
   69.183918    0.010404    0.010404    0.010404    0.000000    0.000000    0.000000
   71.280400    0.000000    0.000000    0.000000   -0.000000   -0.000000   -0.000000
   73.376883    0.000000    0.000000    0.000000    0.000000    0.000000    0.000000
   75.473365    0.001463    0.001463    0.001464   -0.000000   -0.000000   -0.000000
   77.569848    0.036129    0.036128    0.036128    0.000001    0.000000    0.000000
   79.666330    0.000000    0.000000    0.000000    0.000000    0.000000    0.000000
   81.762812    0.017350    0.017356    0.017358   -0.000005   -0.000002   -0.000004
   83.859295    0.003009    0.003011    0.003011   -0.000001   -0.000000   -0.000001
   85.955777    0.004889    0.004889    0.004889   -0.000000   -0.000000   -0.000000
   88.052259    0.018819    0.018821    0.018821   -0.000002   -0.000001   -0.000001
   90.148742    0.024539    0.024540    0.024540   -0.000001   -0.000000   -0.000001
   92.245224    0.000608    0.000609    0.000609   -0.000001   -0.000000   -0.000001
   94.341706    0.000000    0.000000    0.000000    0.000000    0.000000    0.000000
   96.438189    0.003017    0.003018    0.003018   -0.000001   -0.000000   -0.000001
   98.534671    0.004188    0.004190    0.004191   -0.000002   -0.000001   -0.000001
  100.631154    0.008168    0.008166    0.008165    0.000002    0.000001    0.000001
  102.727636    0.000000    0.000000    0.000000    0.000000    0.000000    0.000000
  104.824118    0.000000    0.000000    0.000000   -0.000000    0.000000   -0.000000
  106.920601    0.004822    0.004819    0.004818    0.000002    0.000001    0.000002
  109.017083    0.000000    0.000000    0.000000    0.000000    0.000000    0.000000
  111.113565    0.000000    0.000000    0.000000    0.000000    0.000000    0.000000
  113.210048    0.000000    0.000000    0.000000    0.000000    0.000000    0.000000
  115.306530    0.007818    0.007822    0.007823   -0.000003   -0.000001   -0.000002
  117.403013    0.005314    0.005314    0.005314    0.000000    0.000000    0.000000
  119.499495    0.000000    0.000000    0.000000    0.000000    0.000000    0.000000
  121.595977    0.003050    0.003051    0.003051   -0.000001   -0.000000   -0.000001
  123.692460    0.000000    0.000000    0.000000    0.000000    0.000000    0.000000
  125.788942    0.002464    0.002463    0.002463    0.000000    0.000000    0.000000
  127.885424    0.000887    0.000887    0.000887    0.000000    0.000000    0.000000
  129.981907    0.000155    0.000155    0.000155    0.000000    0.000000    0.000000
  132.078389    0.002135    0.002131    0.002130    0.000003    0.000001    0.000002
  134.174871    0.002829    0.002829    0.002829   -0.000000   -0.000000   -0.000000
  136.271354    0.000043    0.000043    0.000043    0.000000    0.000000    0.000000
  138.367836    0.000786    0.000786    0.000786    0.000000    0.000000    0.000000
  140.464319    0.000334    0.000333    0.000333    0.000001    0.000000    0.000001
  142.560801    0.000322    0.000456    0.000490   -0.000116   -0.000048   -0.000082
  144.657283    0.001422    0.001435    0.001438   -0.000011   -0.000005   -0.000008
  146.753766    0.000051    0.000051    0.000051    0.000000    0.000000    0.000000
  148.850248    0.002650    0.002649    0.002649    0.000000    0.000000    0.000000
  150.946730    0.000001    0.000001    0.000001   -0.000000   -0.000000   -0.000000
  153.043213    0.000264    0.000264    0.000264    0.000000    0.000000    0.000000
  155.139695    0.000257    0.000257    0.000257   -0.000000   -0.000000   -0.000000
  157.236177    0.000000    0.000000    0.000000    0.000000    0.000000    0.000000
  159.332660    0.000000    0.000000    0.000000    0.000000    0.000000    0.000000
  161.429142    0.000000    0.000000    0.000000    0.000000    0.000000    0.000000
  163.525625    0.000173    0.000173    0.000173    0.000000    0.000000    0.000000
  165.622107    0.000788    0.000788    0.000788    0.000000    0.000000    0.000000
  167.718589    0.000000    0.000000    0.000000    0.000000    0.000000    0.000000
  169.815072    0.000000    0.000000    0.000000    0.000000    0.000000    0.000000
  171.911554    0.000000    0.000000    0.000000    0.000000    0.000000    0.000000
  174.008036    0.000000    0.000000    0.000000    0.000000    0.000000    0.000000
  176.104519    0.000000    0.000000    0.000000    0.000000    0.000000    0.000000
  178.201001    0.000000    0.000000    0.000000    0.000000    0.000000    0.000000
  180.297484    0.000000    0.000000    0.000000    0.000000    0.000000    0.000000
  182.393966    0.000000    0.000000    0.000000    0.000000    0.000000    0.000000
  184.490448    0.000000    0.000000    0.000000    0.000000    0.000000    0.000000
  186.586931    0.000000    0.000000    0.000000    0.000000    0.000000    0.000000
  188.683413    0.000000    0.000000    0.000000    0.000000    0.000000    0.000000
  190.779895    0.000000    0.000000    0.000000    0.000000    0.000000    0.000000
  192.876378    0.000000    0.000000    0.000000    0.000000    0.000000    0.000000
  194.972860    0.000000    0.000000    0.000000    0.000000    0.000000    0.000000
  197.069342    0.000000    0.000000    0.000000    0.000000    0.000000    0.000000
  199.165825    0.000000    0.000000    0.000000    0.000000    0.000000    0.000000
  201.262307    0.000000    0.000000    0.000000    0.000000    0.000000    0.000000
  203.358790    0.000000    0.000000    0.000000    0.000000    0.000000    0.000000
  205.455272    0.000000    0.000000    0.000000    0.000000    0.000000    0.000000
  207.551754    0.000000    0.000000    0.000000    0.000000    0.000000    0.000000

  frequency dependent      REAL DIELECTRIC FUNCTION (independent particle, no local field effects) current-current (2nd set in vasprun.xml)
     E(ev)        X           Y           Z          XY          YZ          ZX
  --------------------------------------------------------------------------------------------------------------
    0.000000    1.165251    1.165251    1.165251    0.000000    0.000000    0.000000
    2.096482    1.166456    1.166456    1.166456    0.000000    0.000000    0.000000
    4.192965    1.170101    1.170100    1.170101    0.000001    0.000000    0.000000
    6.289447    1.176627    1.176626    1.176626    0.000001    0.000000    0.000000
    8.385929    1.186865    1.186864    1.186864    0.000001    0.000000    0.000001
   10.482412    1.202410    1.202409    1.202409    0.000001    0.000000    0.000001
   12.578894    1.226485    1.226484    1.226484    0.000001    0.000001    0.000001
   14.675377    1.266587    1.266585    1.266585    0.000002    0.000001    0.000001
   16.771859    1.345482    1.345478    1.345477    0.000004    0.000001    0.000003
   18.868341    1.595537    1.595526    1.595524    0.000009    0.000004    0.000006
   20.964824    0.664276    0.664285    0.664287   -0.000008   -0.000003   -0.000006
   23.061306    0.850225    0.850272    0.850284   -0.000041   -0.000017   -0.000029
   25.157788    1.008704    1.008772    1.008789   -0.000059   -0.000024   -0.000042
   27.254271    0.811842    0.811852    0.811855   -0.000008   -0.000003   -0.000006
   29.350753    1.136721    1.136726    1.136727   -0.000004   -0.000002   -0.000003
   31.447235    0.925791    0.925778    0.925775    0.000011    0.000004    0.000008
   33.543718    0.834300    0.834297    0.834296    0.000002    0.000001    0.000002
   35.640200    0.786932    0.786919    0.786916    0.000011    0.000005    0.000008
   37.736683    0.905454    0.905445    0.905442    0.000008    0.000003    0.000006
   39.833165    0.790279    0.790191    0.790169    0.000076    0.000031    0.000054
   41.929647    0.895472    0.895478    0.895479   -0.000005   -0.000002   -0.000004
   44.026130    0.930977    0.930975    0.930974    0.000002    0.000001    0.000001
   46.122612    0.891208    0.891205    0.891204    0.000003    0.000001    0.000002
   48.219094    0.918073    0.918068    0.918067    0.000004    0.000002    0.000003
   50.315577    0.918508    0.918507    0.918507    0.000001    0.000000    0.000000
   52.412059    0.930213    0.930205    0.930203    0.000007    0.000003    0.000005
   54.508542    0.947365    0.947364    0.947363    0.000001    0.000000    0.000001
   56.605024    0.924357    0.924360    0.924361   -0.000003   -0.000001   -0.000002
   58.701506    0.915853    0.915857    0.915858   -0.000003   -0.000001   -0.000002
   60.797989    0.962223    0.962224    0.962225   -0.000001   -0.000000   -0.000001
   62.894471    0.946643    0.946646    0.946647   -0.000003   -0.000001   -0.000002
   64.990953    0.949956    0.949955    0.949955    0.000000    0.000000    0.000000
   67.087436    0.975096    0.975096    0.975096   -0.000000   -0.000000   -0.000000
   69.183918    0.970600    0.970602    0.970602   -0.000001   -0.000000   -0.000001
   71.280400    0.947315    0.947318    0.947319   -0.000003   -0.000001   -0.000002
   73.376883    0.965703    0.965703    0.965703    0.000000    0.000000    0.000000
   75.473365    0.964978    0.964977    0.964977    0.000001    0.000000    0.000000
   77.569848    0.970560    0.970562    0.970562   -0.000001   -0.000001   -0.000001
   79.666330    0.982861    0.982859    0.982858    0.000002    0.000001    0.000001
   81.762812    0.969567    0.969570    0.969571   -0.000003   -0.000001   -0.000002
   83.859295    0.968748    0.968751    0.968752   -0.000003   -0.000001   -0.000002
   85.955777    0.975390    0.975391    0.975391   -0.000001   -0.000000   -0.000000
   88.052259    0.974627    0.974630    0.974631   -0.000002   -0.000001   -0.000002
   90.148742    0.981755    0.981778    0.981784   -0.000020   -0.000008   -0.000014
   92.245224    0.981494    0.981501    0.981503   -0.000007   -0.000003   -0.000005
   94.341706    0.979154    0.979155    0.979156   -0.000001   -0.000000   -0.000001
   96.438189    0.979825    0.979825    0.979826   -0.000000   -0.000000   -0.000000
   98.534671    0.982068    0.982069    0.982070   -0.000001   -0.000000   -0.000001
  100.631154    0.984750    0.984750    0.984750    0.000000    0.000000    0.000000
  102.727636    0.981798    0.981798    0.981798    0.000001    0.000000    0.000000
  104.824118    0.982153    0.982152    0.982152    0.000001    0.000000    0.000001
  106.920601    0.982590    0.982590    0.982590    0.000000    0.000000    0.000000
  109.017083    0.986512    0.986512    0.986511    0.000001    0.000000    0.000000
  111.113565    0.985528    0.985528    0.985528   -0.000000   -0.000000   -0.000000
  113.210048    0.987503    0.987503    0.987503    0.000000    0.000000    0.000000
  115.306530    0.986944    0.986944    0.986944    0.000000    0.000000    0.000000
  117.403013    0.988433    0.988433    0.988432    0.000001    0.000000    0.000001
  119.499495    0.990414    0.990414    0.990414   -0.000000   -0.000000   -0.000000
  121.595977    0.984143    0.984146    0.984146   -0.000002   -0.000001   -0.000001
  123.692460    0.987425    0.987425    0.987425    0.000000    0.000000    0.000000
  125.788942    0.987278    0.987278    0.987278    0.000000    0.000000    0.000000
  127.885424    0.990484    0.990484    0.990484   -0.000000   -0.000000   -0.000000
  129.981907    0.991271    0.991271    0.991271    0.000000    0.000000    0.000000
  132.078389    0.988066    0.988065    0.988064    0.000001    0.000000    0.000001
  134.174871    0.991000    0.990999    0.990999    0.000001    0.000000    0.000001
  136.271354    0.989261    0.989262    0.989262   -0.000000   -0.000000   -0.000000
  138.367836    0.989214    0.989214    0.989214   -0.000000   -0.000000   -0.000000
  140.464319    0.991959    0.991959    0.991959    0.000000    0.000000    0.000000
  142.560801    0.990195    0.990230    0.990239   -0.000030   -0.000012   -0.000021
  144.657283    0.991537    0.991533    0.991532    0.000003    0.000001    0.000002
  146.753766    0.991032    0.991031    0.991031    0.000000    0.000000    0.000000
  148.850248    0.991248    0.991248    0.991248   -0.000000   -0.000000   -0.000000
  150.946730    0.991759    0.991758    0.991758    0.000000    0.000000    0.000000
  153.043213    0.992086    0.992086    0.992086   -0.000000   -0.000000   -0.000000
  155.139695    0.991257    0.991257    0.991257    0.000000    0.000000    0.000000
  157.236177    0.992250    0.992249    0.992249    0.000001    0.000000    0.000000
  159.332660    0.991983    0.991981    0.991980    0.000002    0.000001    0.000001
  161.429142    0.992454    0.992457    0.992457   -0.000002   -0.000001   -0.000002
  163.525625    0.992826    0.992827    0.992827   -0.000001   -0.000000   -0.000001
  165.622107    0.993051    0.993052    0.993052   -0.000001   -0.000000   -0.000001
  167.718589    0.993324    0.993325    0.993325   -0.000001   -0.000000   -0.000001
  169.815072    0.993505    0.993506    0.993506   -0.000001   -0.000000   -0.000001
  171.911554    0.993752    0.993754    0.993754   -0.000001   -0.000001   -0.000001
  174.008036    0.993957    0.993965    0.993967   -0.000007   -0.000003   -0.000005
  176.104519    0.994130    0.994128    0.994127    0.000002    0.000001    0.000001
  178.201001    0.994301    0.994300    0.994300    0.000001    0.000000    0.000000
  180.297484    0.994461    0.994461    0.994461    0.000000    0.000000    0.000000
  182.393966    0.994613    0.994613    0.994613    0.000000    0.000000    0.000000
  184.490448    0.994757    0.994757    0.994757    0.000000    0.000000    0.000000
  186.586931    0.994894    0.994894    0.994894    0.000000    0.000000    0.000000
  188.683413    0.995025    0.995024    0.995024    0.000000    0.000000    0.000000
  190.779895    0.995150    0.995149    0.995149    0.000000    0.000000    0.000000
  192.876378    0.995269    0.995269    0.995269    0.000000    0.000000    0.000000
  194.972860    0.995384    0.995384    0.995384    0.000000    0.000000    0.000000
  197.069342    0.995494    0.995494    0.995494    0.000000    0.000000    0.000000
  199.165825    0.995600    0.995600    0.995600    0.000000    0.000000    0.000000
  201.262307    0.995702    0.995702    0.995702    0.000000    0.000000    0.000000
  203.358790    0.995800    0.995800    0.995800    0.000000    0.000000    0.000000
  205.455272    0.995894    0.995894    0.995894    0.000000    0.000000    0.000000
  207.551754    0.995985    0.995985    0.995985    0.000000    0.000000    0.000000
 
 The outermost node in the dielectric function lies at epsilon=  -1.0


--------------------------------------------------------------------------------------------------------


    OPTICS:  cpu time    0.2204: real time    0.2227
    4ORBIT:  cpu time    0.0000: real time    0.0000

 Spin-Orbit-Coupling matrix elements

 Ion:    1  E_soc:     -0.0000000
 l=   1
     0.0000000    -0.0000000    -0.0000000
    -0.0000000     0.0000000    -0.0000000
    -0.0000000    -0.0000000     0.0000000
 l=   2
     0.0000000    -0.0000000     0.0000000    -0.0000000    -0.0000000
    -0.0000000     0.0000000    -0.0000000    -0.0000000    -0.0000000
     0.0000000    -0.0000000     0.0000000    -0.0000000     0.0000000
    -0.0000000    -0.0000000    -0.0000000     0.0000000    -0.0000000
    -0.0000000    -0.0000000     0.0000000    -0.0000000     0.0000000
 l=   3
     0.0000000     0.0000000     0.0000000     0.0000000     0.0000000     0.0000000     0.0000000
     0.0000000     0.0000000     0.0000000     0.0000000     0.0000000     0.0000000     0.0000000
     0.0000000     0.0000000     0.0000000     0.0000000     0.0000000     0.0000000     0.0000000
     0.0000000     0.0000000     0.0000000     0.0000000     0.0000000     0.0000000     0.0000000
     0.0000000     0.0000000     0.0000000     0.0000000     0.0000000     0.0000000     0.0000000
     0.0000000     0.0000000     0.0000000     0.0000000     0.0000000     0.0000000     0.0000000
     0.0000000     0.0000000     0.0000000     0.0000000     0.0000000     0.0000000     0.0000000

 total amount of memory used by VASP MPI-rank0    64165. kBytes
=======================================================================

   base      :      30000. kBytes
   nonl-proj :       1438. kBytes
   fftplans  :       1222. kBytes
   grid      :       1375. kBytes
   one-center:         49. kBytes
   wavefun   :      30081. kBytes
 
  
  
 General timing and accounting informations for this job:
 ========================================================
  
                  Total CPU time used (sec):      122.736
                            User time (sec):      121.984
                          System time (sec):        0.752
                         Elapsed time (sec):      123.110
  
                   Maximum memory used (kb):      206248.
                   Average memory used (kb):           0.
  
                          Minor page faults:        46820
                          Major page faults:            0
                 Voluntary context switches:          994
