<?xml version="1.0" encoding="ISO-8859-1"?>
<modeling>
 <generator>
  <i name="program" type="string">vasp </i>
  <i name="version" type="string">5.4.4.18Apr17-6-g9f103f2a35  </i>
  <i name="subversion" type="string">(build Jul 09 2018 16:43:14) complex            parallel </i>
  <i name="platform" type="string">LinuxIFC </i>
  <i name="date" type="string">2018 11 29 </i>
  <i name="time" type="string">21:58:27 </i>
 </generator>
 <incar>
  <i type="string" name="SYSTEM">   Og_FCC</i>
  <i type="string" name="PREC">accurate</i>
  <i type="string" name="ALGO">   EXACT</i>
  <i type="logical" name="ADDGRID"> T  </i>
  <i type="logical" name="LSORBIT"> T  </i>
  <i type="int" name="ISPIN">     1</i>
  <i type="int" name="MAXMIX">    50</i>
  <i type="int" name="NELM">    50</i>
  <i type="int" name="NELMDL">    -5</i>
  <i type="int" name="NELMIN">     2</i>
  <i type="int" name="IBRION">    -1</i>
  <i type="int" name="NFREE">     5</i>
  <i name="EDIFF">      0.00000001</i>
  <i name="EDIFFG">      0.00001000</i>
  <i type="int" name="NSW">     1</i>
  <i type="int" name="ISIF">     3</i>
  <i type="int" name="ISYM">     0</i>
  <i name="SYMPREC">      0.00000010</i>
  <i name="ENCUT">    300.00000000</i>
  <i type="int" name="NBANDS">   128</i>
  <i name="POTIM">      0.10000000</i>
  <i type="logical" name="LREAL"> F  </i>
  <i type="int" name="ISMEAR">     0</i>
  <i name="SIGMA">      0.00100000</i>
  <i type="int" name="NWRITE">     2</i>
  <i type="logical" name="LWAVE"> T  </i>
  <i type="logical" name="LCHARG"> F  </i>
  <i type="logical" name="LVTOT"> F  </i>
  <i type="logical" name="LOPTICS"> T  </i>
  <i type="logical" name="GGA_COMPAT"> F  </i>
  <v type="int" name="KPOINT_BSE">    -1     0     0     0</v>
  <i type="int" name="NELM">    50</i>
  <i type="string" name="METAGGA"> SCAN</i>
 </incar>
 <structure name="primitive_cell" >
  <crystal>
   <varray name="basis" >
    <v>       2.84511503       0.00000000       0.00000000 </v>
    <v>       1.42255751       2.46394189       0.00000000 </v>
    <v>       1.42255751       0.82131396       2.32302669 </v>
   </varray>
   <i name="volume">     16.28487729 </i>
   <varray name="rec_basis" >
    <v>       0.35147964      -0.20292686      -0.14349096 </v>
    <v>       0.00000000       0.40585373      -0.14349096 </v>
    <v>       0.00000000       0.00000000       0.43047288 </v>
   </varray>
  </crystal>
  <varray name="positions" >
   <v>       0.00000000       0.00000000       0.00000000 </v>
  </varray>
 </structure>
 <varray name="primitive_index" >
  <v type="int" >        1 </v>
 </varray>
 <kpoints>
  <generation param="Gamma">
   <v type="int" name="divisions">       6        6        6 </v>
   <v name="usershift">      0.00000000       0.00000000       0.00000000 </v>
   <v name="genvec1">      0.16666667       0.00000000       0.00000000 </v>
   <v name="genvec2">      0.00000000       0.16666667       0.00000000 </v>
   <v name="genvec3">      0.00000000       0.00000000       0.16666667 </v>
   <v name="shift">      0.00000000       0.00000000       0.00000000 </v>
  </generation>
  <varray name="kpointlist" >
   <v>       0.00000000       0.00000000       0.00000000 </v>
   <v>       0.16666667      -0.00000000       0.00000000 </v>
   <v>       0.33333333      -0.00000000       0.00000000 </v>
   <v>       0.50000000      -0.00000000       0.00000000 </v>
   <v>      -0.33333333       0.00000000      -0.00000000 </v>
   <v>      -0.16666667       0.00000000      -0.00000000 </v>
   <v>       0.00000000       0.16666667      -0.00000000 </v>
   <v>       0.16666667       0.16666667       0.00000000 </v>
   <v>       0.33333333       0.16666667       0.00000000 </v>
   <v>       0.50000000       0.16666667       0.00000000 </v>
   <v>      -0.33333333       0.16666667      -0.00000000 </v>
   <v>      -0.16666667       0.16666667      -0.00000000 </v>
   <v>       0.00000000       0.33333333       0.00000000 </v>
   <v>       0.16666667       0.33333333       0.00000000 </v>
   <v>       0.33333333       0.33333333       0.00000000 </v>
   <v>       0.50000000       0.33333333       0.00000000 </v>
   <v>      -0.33333333       0.33333333      -0.00000000 </v>
   <v>      -0.16666667       0.33333333       0.00000000 </v>
   <v>       0.00000000       0.50000000       0.00000000 </v>
   <v>       0.16666667       0.50000000       0.00000000 </v>
   <v>       0.33333333       0.50000000       0.00000000 </v>
   <v>       0.50000000       0.50000000       0.00000000 </v>
   <v>      -0.33333333       0.50000000      -0.00000000 </v>
   <v>      -0.16666667       0.50000000      -0.00000000 </v>
   <v>       0.00000000      -0.33333333       0.00000000 </v>
   <v>       0.16666667      -0.33333333      -0.00000000 </v>
   <v>       0.33333333      -0.33333333       0.00000000 </v>
   <v>       0.50000000      -0.33333333      -0.00000000 </v>
   <v>      -0.33333333      -0.33333333      -0.00000000 </v>
   <v>      -0.16666667      -0.33333333       0.00000000 </v>
   <v>       0.00000000      -0.16666667       0.00000000 </v>
   <v>       0.16666667      -0.16666667       0.00000000 </v>
   <v>       0.33333333      -0.16666667       0.00000000 </v>
   <v>       0.50000000      -0.16666667       0.00000000 </v>
   <v>      -0.33333333      -0.16666667      -0.00000000 </v>
   <v>      -0.16666667      -0.16666667      -0.00000000 </v>
   <v>       0.00000000       0.00000000       0.16666667 </v>
   <v>       0.16666667      -0.00000000       0.16666667 </v>
   <v>       0.33333333      -0.00000000       0.16666667 </v>
   <v>       0.50000000      -0.00000000       0.16666667 </v>
   <v>      -0.33333333       0.00000000       0.16666667 </v>
   <v>      -0.16666667       0.00000000       0.16666667 </v>
   <v>       0.00000000       0.16666667       0.16666667 </v>
   <v>       0.16666667       0.16666667       0.16666667 </v>
   <v>       0.33333333       0.16666667       0.16666667 </v>
   <v>       0.50000000       0.16666667       0.16666667 </v>
   <v>      -0.33333333       0.16666667       0.16666667 </v>
   <v>      -0.16666667       0.16666667       0.16666667 </v>
   <v>       0.00000000       0.33333333       0.16666667 </v>
   <v>       0.16666667       0.33333333       0.16666667 </v>
   <v>       0.33333333       0.33333333       0.16666667 </v>
   <v>       0.50000000       0.33333333       0.16666667 </v>
   <v>      -0.33333333       0.33333333       0.16666667 </v>
   <v>      -0.16666667       0.33333333       0.16666667 </v>
   <v>       0.00000000       0.50000000       0.16666667 </v>
   <v>       0.16666667       0.50000000       0.16666667 </v>
   <v>       0.33333333       0.50000000       0.16666667 </v>
   <v>       0.50000000       0.50000000       0.16666667 </v>
   <v>      -0.33333333       0.50000000       0.16666667 </v>
   <v>      -0.16666667       0.50000000       0.16666667 </v>
   <v>       0.00000000      -0.33333333       0.16666667 </v>
   <v>       0.16666667      -0.33333333       0.16666667 </v>
   <v>       0.33333333      -0.33333333       0.16666667 </v>
   <v>       0.50000000      -0.33333333       0.16666667 </v>
   <v>      -0.33333333      -0.33333333       0.16666667 </v>
   <v>      -0.16666667      -0.33333333       0.16666667 </v>
   <v>       0.00000000      -0.16666667       0.16666667 </v>
   <v>       0.16666667      -0.16666667       0.16666667 </v>
   <v>       0.33333333      -0.16666667       0.16666667 </v>
   <v>       0.50000000      -0.16666667       0.16666667 </v>
   <v>      -0.33333333      -0.16666667       0.16666667 </v>
   <v>      -0.16666667      -0.16666667       0.16666667 </v>
   <v>       0.00000000       0.00000000       0.33333333 </v>
   <v>       0.16666667      -0.00000000       0.33333333 </v>
   <v>       0.33333333      -0.00000000       0.33333333 </v>
   <v>       0.50000000      -0.00000000       0.33333333 </v>
   <v>      -0.33333333       0.00000000       0.33333333 </v>
   <v>      -0.16666667       0.00000000       0.33333333 </v>
   <v>       0.00000000       0.16666667       0.33333333 </v>
   <v>       0.16666667       0.16666667       0.33333333 </v>
   <v>       0.33333333       0.16666667       0.33333333 </v>
   <v>       0.50000000       0.16666667       0.33333333 </v>
   <v>      -0.33333333       0.16666667       0.33333333 </v>
   <v>      -0.16666667       0.16666667       0.33333333 </v>
   <v>       0.00000000       0.33333333       0.33333333 </v>
   <v>       0.16666667       0.33333333       0.33333333 </v>
   <v>       0.33333333       0.33333333       0.33333333 </v>
   <v>       0.50000000       0.33333333       0.33333333 </v>
   <v>      -0.33333333       0.33333333       0.33333333 </v>
   <v>      -0.16666667       0.33333333       0.33333333 </v>
   <v>       0.00000000       0.50000000       0.33333333 </v>
   <v>       0.16666667       0.50000000       0.33333333 </v>
   <v>       0.33333333       0.50000000       0.33333333 </v>
   <v>       0.50000000       0.50000000       0.33333333 </v>
   <v>      -0.33333333       0.50000000       0.33333333 </v>
   <v>      -0.16666667       0.50000000       0.33333333 </v>
   <v>       0.00000000      -0.33333333       0.33333333 </v>
   <v>       0.16666667      -0.33333333       0.33333333 </v>
   <v>       0.33333333      -0.33333333       0.33333333 </v>
   <v>       0.50000000      -0.33333333       0.33333333 </v>
   <v>      -0.33333333      -0.33333333       0.33333333 </v>
   <v>      -0.16666667      -0.33333333       0.33333333 </v>
   <v>       0.00000000      -0.16666667       0.33333333 </v>
   <v>       0.16666667      -0.16666667       0.33333333 </v>
   <v>       0.33333333      -0.16666667       0.33333333 </v>
   <v>       0.50000000      -0.16666667       0.33333333 </v>
   <v>      -0.33333333      -0.16666667       0.33333333 </v>
   <v>      -0.16666667      -0.16666667       0.33333333 </v>
   <v>       0.00000000       0.00000000       0.50000000 </v>
   <v>       0.16666667      -0.00000000       0.50000000 </v>
   <v>       0.33333333      -0.00000000       0.50000000 </v>
   <v>       0.50000000      -0.00000000       0.50000000 </v>
   <v>      -0.33333333       0.00000000       0.50000000 </v>
   <v>      -0.16666667       0.00000000       0.50000000 </v>
   <v>       0.00000000       0.16666667       0.50000000 </v>
   <v>       0.16666667       0.16666667       0.50000000 </v>
   <v>       0.33333333       0.16666667       0.50000000 </v>
   <v>       0.50000000       0.16666667       0.50000000 </v>
   <v>      -0.33333333       0.16666667       0.50000000 </v>
   <v>      -0.16666667       0.16666667       0.50000000 </v>
   <v>       0.00000000       0.33333333       0.50000000 </v>
   <v>       0.16666667       0.33333333       0.50000000 </v>
   <v>       0.33333333       0.33333333       0.50000000 </v>
   <v>       0.50000000       0.33333333       0.50000000 </v>
   <v>      -0.33333333       0.33333333       0.50000000 </v>
   <v>      -0.16666667       0.33333333       0.50000000 </v>
   <v>       0.00000000       0.50000000       0.50000000 </v>
   <v>       0.16666667       0.50000000       0.50000000 </v>
   <v>       0.33333333       0.50000000       0.50000000 </v>
   <v>       0.50000000       0.50000000       0.50000000 </v>
   <v>      -0.33333333       0.50000000       0.50000000 </v>
   <v>      -0.16666667       0.50000000       0.50000000 </v>
   <v>       0.00000000      -0.33333333       0.50000000 </v>
   <v>       0.16666667      -0.33333333       0.50000000 </v>
   <v>       0.33333333      -0.33333333       0.50000000 </v>
   <v>       0.50000000      -0.33333333       0.50000000 </v>
   <v>      -0.33333333      -0.33333333       0.50000000 </v>
   <v>      -0.16666667      -0.33333333       0.50000000 </v>
   <v>       0.00000000      -0.16666667       0.50000000 </v>
   <v>       0.16666667      -0.16666667       0.50000000 </v>
   <v>       0.33333333      -0.16666667       0.50000000 </v>
   <v>       0.50000000      -0.16666667       0.50000000 </v>
   <v>      -0.33333333      -0.16666667       0.50000000 </v>
   <v>      -0.16666667      -0.16666667       0.50000000 </v>
   <v>       0.00000000       0.00000000      -0.33333333 </v>
   <v>       0.16666667      -0.00000000      -0.33333333 </v>
   <v>       0.33333333      -0.00000000      -0.33333333 </v>
   <v>       0.50000000      -0.00000000      -0.33333333 </v>
   <v>      -0.33333333       0.00000000      -0.33333333 </v>
   <v>      -0.16666667       0.00000000      -0.33333333 </v>
   <v>       0.00000000       0.16666667      -0.33333333 </v>
   <v>       0.16666667       0.16666667      -0.33333333 </v>
   <v>       0.33333333       0.16666667      -0.33333333 </v>
   <v>       0.50000000       0.16666667      -0.33333333 </v>
   <v>      -0.33333333       0.16666667      -0.33333333 </v>
   <v>      -0.16666667       0.16666667      -0.33333333 </v>
   <v>       0.00000000       0.33333333      -0.33333333 </v>
   <v>       0.16666667       0.33333333      -0.33333333 </v>
   <v>       0.33333333       0.33333333      -0.33333333 </v>
   <v>       0.50000000       0.33333333      -0.33333333 </v>
   <v>      -0.33333333       0.33333333      -0.33333333 </v>
   <v>      -0.16666667       0.33333333      -0.33333333 </v>
   <v>       0.00000000       0.50000000      -0.33333333 </v>
   <v>       0.16666667       0.50000000      -0.33333333 </v>
   <v>       0.33333333       0.50000000      -0.33333333 </v>
   <v>       0.50000000       0.50000000      -0.33333333 </v>
   <v>      -0.33333333       0.50000000      -0.33333333 </v>
   <v>      -0.16666667       0.50000000      -0.33333333 </v>
   <v>       0.00000000      -0.33333333      -0.33333333 </v>
   <v>       0.16666667      -0.33333333      -0.33333333 </v>
   <v>       0.33333333      -0.33333333      -0.33333333 </v>
   <v>       0.50000000      -0.33333333      -0.33333333 </v>
   <v>      -0.33333333      -0.33333333      -0.33333333 </v>
   <v>      -0.16666667      -0.33333333      -0.33333333 </v>
   <v>       0.00000000      -0.16666667      -0.33333333 </v>
   <v>       0.16666667      -0.16666667      -0.33333333 </v>
   <v>       0.33333333      -0.16666667      -0.33333333 </v>
   <v>       0.50000000      -0.16666667      -0.33333333 </v>
   <v>      -0.33333333      -0.16666667      -0.33333333 </v>
   <v>      -0.16666667      -0.16666667      -0.33333333 </v>
   <v>       0.00000000       0.00000000      -0.16666667 </v>
   <v>       0.16666667      -0.00000000      -0.16666667 </v>
   <v>       0.33333333      -0.00000000      -0.16666667 </v>
   <v>       0.50000000      -0.00000000      -0.16666667 </v>
   <v>      -0.33333333       0.00000000      -0.16666667 </v>
   <v>      -0.16666667       0.00000000      -0.16666667 </v>
   <v>       0.00000000       0.16666667      -0.16666667 </v>
   <v>       0.16666667       0.16666667      -0.16666667 </v>
   <v>       0.33333333       0.16666667      -0.16666667 </v>
   <v>       0.50000000       0.16666667      -0.16666667 </v>
   <v>      -0.33333333       0.16666667      -0.16666667 </v>
   <v>      -0.16666667       0.16666667      -0.16666667 </v>
   <v>       0.00000000       0.33333333      -0.16666667 </v>
   <v>       0.16666667       0.33333333      -0.16666667 </v>
   <v>       0.33333333       0.33333333      -0.16666667 </v>
   <v>       0.50000000       0.33333333      -0.16666667 </v>
   <v>      -0.33333333       0.33333333      -0.16666667 </v>
   <v>      -0.16666667       0.33333333      -0.16666667 </v>
   <v>       0.00000000       0.50000000      -0.16666667 </v>
   <v>       0.16666667       0.50000000      -0.16666667 </v>
   <v>       0.33333333       0.50000000      -0.16666667 </v>
   <v>       0.50000000       0.50000000      -0.16666667 </v>
   <v>      -0.33333333       0.50000000      -0.16666667 </v>
   <v>      -0.16666667       0.50000000      -0.16666667 </v>
   <v>       0.00000000      -0.33333333      -0.16666667 </v>
   <v>       0.16666667      -0.33333333      -0.16666667 </v>
   <v>       0.33333333      -0.33333333      -0.16666667 </v>
   <v>       0.50000000      -0.33333333      -0.16666667 </v>
   <v>      -0.33333333      -0.33333333      -0.16666667 </v>
   <v>      -0.16666667      -0.33333333      -0.16666667 </v>
   <v>       0.00000000      -0.16666667      -0.16666667 </v>
   <v>       0.16666667      -0.16666667      -0.16666667 </v>
   <v>       0.33333333      -0.16666667      -0.16666667 </v>
   <v>       0.50000000      -0.16666667      -0.16666667 </v>
   <v>      -0.33333333      -0.16666667      -0.16666667 </v>
   <v>      -0.16666667      -0.16666667      -0.16666667 </v>
  </varray>
  <varray name="weights" >
   <v>       0.00462963 </v>
   <v>       0.00462963 </v>
   <v>       0.00462963 </v>
   <v>       0.00462963 </v>
   <v>       0.00462963 </v>
   <v>       0.00462963 </v>
   <v>       0.00462963 </v>
   <v>       0.00462963 </v>
   <v>       0.00462963 </v>
   <v>       0.00462963 </v>
   <v>       0.00462963 </v>
   <v>       0.00462963 </v>
   <v>       0.00462963 </v>
   <v>       0.00462963 </v>
   <v>       0.00462963 </v>
   <v>       0.00462963 </v>
   <v>       0.00462963 </v>
   <v>       0.00462963 </v>
   <v>       0.00462963 </v>
   <v>       0.00462963 </v>
   <v>       0.00462963 </v>
   <v>       0.00462963 </v>
   <v>       0.00462963 </v>
   <v>       0.00462963 </v>
   <v>       0.00462963 </v>
   <v>       0.00462963 </v>
   <v>       0.00462963 </v>
   <v>       0.00462963 </v>
   <v>       0.00462963 </v>
   <v>       0.00462963 </v>
   <v>       0.00462963 </v>
   <v>       0.00462963 </v>
   <v>       0.00462963 </v>
   <v>       0.00462963 </v>
   <v>       0.00462963 </v>
   <v>       0.00462963 </v>
   <v>       0.00462963 </v>
   <v>       0.00462963 </v>
   <v>       0.00462963 </v>
   <v>       0.00462963 </v>
   <v>       0.00462963 </v>
   <v>       0.00462963 </v>
   <v>       0.00462963 </v>
   <v>       0.00462963 </v>
   <v>       0.00462963 </v>
   <v>       0.00462963 </v>
   <v>       0.00462963 </v>
   <v>       0.00462963 </v>
   <v>       0.00462963 </v>
   <v>       0.00462963 </v>
   <v>       0.00462963 </v>
   <v>       0.00462963 </v>
   <v>       0.00462963 </v>
   <v>       0.00462963 </v>
   <v>       0.00462963 </v>
   <v>       0.00462963 </v>
   <v>       0.00462963 </v>
   <v>       0.00462963 </v>
   <v>       0.00462963 </v>
   <v>       0.00462963 </v>
   <v>       0.00462963 </v>
   <v>       0.00462963 </v>
   <v>       0.00462963 </v>
   <v>       0.00462963 </v>
   <v>       0.00462963 </v>
   <v>       0.00462963 </v>
   <v>       0.00462963 </v>
   <v>       0.00462963 </v>
   <v>       0.00462963 </v>
   <v>       0.00462963 </v>
   <v>       0.00462963 </v>
   <v>       0.00462963 </v>
   <v>       0.00462963 </v>
   <v>       0.00462963 </v>
   <v>       0.00462963 </v>
   <v>       0.00462963 </v>
   <v>       0.00462963 </v>
   <v>       0.00462963 </v>
   <v>       0.00462963 </v>
   <v>       0.00462963 </v>
   <v>       0.00462963 </v>
   <v>       0.00462963 </v>
   <v>       0.00462963 </v>
   <v>       0.00462963 </v>
   <v>       0.00462963 </v>
   <v>       0.00462963 </v>
   <v>       0.00462963 </v>
   <v>       0.00462963 </v>
   <v>       0.00462963 </v>
   <v>       0.00462963 </v>
   <v>       0.00462963 </v>
   <v>       0.00462963 </v>
   <v>       0.00462963 </v>
   <v>       0.00462963 </v>
   <v>       0.00462963 </v>
   <v>       0.00462963 </v>
   <v>       0.00462963 </v>
   <v>       0.00462963 </v>
   <v>       0.00462963 </v>
   <v>       0.00462963 </v>
   <v>       0.00462963 </v>
   <v>       0.00462963 </v>
   <v>       0.00462963 </v>
   <v>       0.00462963 </v>
   <v>       0.00462963 </v>
   <v>       0.00462963 </v>
   <v>       0.00462963 </v>
   <v>       0.00462963 </v>
   <v>       0.00462963 </v>
   <v>       0.00462963 </v>
   <v>       0.00462963 </v>
   <v>       0.00462963 </v>
   <v>       0.00462963 </v>
   <v>       0.00462963 </v>
   <v>       0.00462963 </v>
   <v>       0.00462963 </v>
   <v>       0.00462963 </v>
   <v>       0.00462963 </v>
   <v>       0.00462963 </v>
   <v>       0.00462963 </v>
   <v>       0.00462963 </v>
   <v>       0.00462963 </v>
   <v>       0.00462963 </v>
   <v>       0.00462963 </v>
   <v>       0.00462963 </v>
   <v>       0.00462963 </v>
   <v>       0.00462963 </v>
   <v>       0.00462963 </v>
   <v>       0.00462963 </v>
   <v>       0.00462963 </v>
   <v>       0.00462963 </v>
   <v>       0.00462963 </v>
   <v>       0.00462963 </v>
   <v>       0.00462963 </v>
   <v>       0.00462963 </v>
   <v>       0.00462963 </v>
   <v>       0.00462963 </v>
   <v>       0.00462963 </v>
   <v>       0.00462963 </v>
   <v>       0.00462963 </v>
   <v>       0.00462963 </v>
   <v>       0.00462963 </v>
   <v>       0.00462963 </v>
   <v>       0.00462963 </v>
   <v>       0.00462963 </v>
   <v>       0.00462963 </v>
   <v>       0.00462963 </v>
   <v>       0.00462963 </v>
   <v>       0.00462963 </v>
   <v>       0.00462963 </v>
   <v>       0.00462963 </v>
   <v>       0.00462963 </v>
   <v>       0.00462963 </v>
   <v>       0.00462963 </v>
   <v>       0.00462963 </v>
   <v>       0.00462963 </v>
   <v>       0.00462963 </v>
   <v>       0.00462963 </v>
   <v>       0.00462963 </v>
   <v>       0.00462963 </v>
   <v>       0.00462963 </v>
   <v>       0.00462963 </v>
   <v>       0.00462963 </v>
   <v>       0.00462963 </v>
   <v>       0.00462963 </v>
   <v>       0.00462963 </v>
   <v>       0.00462963 </v>
   <v>       0.00462963 </v>
   <v>       0.00462963 </v>
   <v>       0.00462963 </v>
   <v>       0.00462963 </v>
   <v>       0.00462963 </v>
   <v>       0.00462963 </v>
   <v>       0.00462963 </v>
   <v>       0.00462963 </v>
   <v>       0.00462963 </v>
   <v>       0.00462963 </v>
   <v>       0.00462963 </v>
   <v>       0.00462963 </v>
   <v>       0.00462963 </v>
   <v>       0.00462963 </v>
   <v>       0.00462963 </v>
   <v>       0.00462963 </v>
   <v>       0.00462963 </v>
   <v>       0.00462963 </v>
   <v>       0.00462963 </v>
   <v>       0.00462963 </v>
   <v>       0.00462963 </v>
   <v>       0.00462963 </v>
   <v>       0.00462963 </v>
   <v>       0.00462963 </v>
   <v>       0.00462963 </v>
   <v>       0.00462963 </v>
   <v>       0.00462963 </v>
   <v>       0.00462963 </v>
   <v>       0.00462963 </v>
   <v>       0.00462963 </v>
   <v>       0.00462963 </v>
   <v>       0.00462963 </v>
   <v>       0.00462963 </v>
   <v>       0.00462963 </v>
   <v>       0.00462963 </v>
   <v>       0.00462963 </v>
   <v>       0.00462963 </v>
   <v>       0.00462963 </v>
   <v>       0.00462963 </v>
   <v>       0.00462963 </v>
   <v>       0.00462963 </v>
   <v>       0.00462963 </v>
   <v>       0.00462963 </v>
   <v>       0.00462963 </v>
   <v>       0.00462963 </v>
   <v>       0.00462963 </v>
   <v>       0.00462963 </v>
   <v>       0.00462963 </v>
   <v>       0.00462963 </v>
  </varray>
 </kpoints>
 <parameters>
  <separator name="general" >
   <i type="string" name="SYSTEM">Og_FCC</i>
   <i type="logical" name="LCOMPAT"> F  </i>
  </separator>
  <separator name="electronic" >
   <i type="string" name="PREC">accura</i>
   <i name="ENMAX">    300.00000000</i>
   <i name="ENAUG">   1514.19200000</i>
   <i name="EDIFF">      0.00000001</i>
   <i type="int" name="IALGO">    90</i>
   <i type="int" name="IWAVPR">    10</i>
   <i type="int" name="NBANDS">   128</i>
   <i name="NELECT">      2.00000000</i>
   <i type="int" name="TURBO">     0</i>
   <i type="int" name="IRESTART">     0</i>
   <i type="int" name="NREBOOT">     0</i>
   <i type="int" name="NMIN">     0</i>
   <i name="EREF">      0.00000000</i>
   <separator name="electronic smearing" >
    <i type="int" name="ISMEAR">     0</i>
    <i name="SIGMA">      0.00100000</i>
    <i name="KSPACING">      0.50000000</i>
    <i type="logical" name="KGAMMA"> T  </i>
   </separator>
   <separator name="electronic projectors" >
    <i type="logical" name="LREAL"> F  </i>
    <v name="ROPT">      0.00000000</v>
    <i type="int" name="LMAXPAW">  -100</i>
    <i type="int" name="LMAXMIX">     2</i>
    <i type="logical" name="NLSPLINE"> F  </i>
   </separator>
   <separator name="electronic startup" >
    <i type="int" name="ISTART">     1</i>
    <i type="int" name="ICHARG">     0</i>
    <i type="int" name="INIWAV">     1</i>
   </separator>
   <separator name="electronic spin" >
    <i type="int" name="ISPIN">     1</i>
    <i type="logical" name="LNONCOLLINEAR"> T  </i>
    <v name="MAGMOM">      1.00000000      1.00000000      1.00000000</v>
    <i name="NUPDOWN">     -1.00000000</i>
    <i type="logical" name="LSORBIT"> T  </i>
    <v name="SAXIS">      0.00000000      0.00000000      1.00000000</v>
    <i type="logical" name="LSPIRAL"> F  </i>
    <v name="QSPIRAL">      0.00000000      0.00000000      0.00000000</v>
    <i type="logical" name="LZEROZ"> F  </i>
   </separator>
   <separator name="electronic exchange-correlation" >
    <i type="logical" name="LASPH"> F  </i>
    <i type="logical" name="LMETAGGA"> F  </i>
   </separator>
   <separator name="electronic convergence" >
    <i type="int" name="NELM">    50</i>
    <i type="int" name="NELMDL">    -5</i>
    <i type="int" name="NELMIN">     2</i>
    <i name="ENINI">    300.00000000</i>
    <separator name="electronic convergence detail" >
     <i type="logical" name="LDIAG"> T  </i>
     <i type="logical" name="LSUBROT"> F  </i>
     <i name="WEIMIN">      0.00000000</i>
     <i name="EBREAK">      0.00000000</i>
     <i name="DEPER">      0.30000000</i>
     <i type="int" name="NRMM">     4</i>
     <i name="TIME">      0.40000000</i>
    </separator>
   </separator>
   <separator name="electronic mixer" >
    <i name="AMIX">      0.40000000</i>
    <i name="BMIX">      1.00000000</i>
    <i name="AMIN">      0.10000000</i>
    <i name="AMIX_MAG">      1.60000000</i>
    <i name="BMIX_MAG">      1.00000000</i>
    <separator name="electronic mixer details" >
     <i type="int" name="IMIX">     4</i>
     <i type="logical" name="MIXFIRST"> F  </i>
     <i type="int" name="MAXMIX">    50</i>
     <i name="WC">    100.00000000</i>
     <i type="int" name="INIMIX">     1</i>
     <i type="int" name="MIXPRE">     1</i>
     <i type="int" name="MREMOVE">     5</i>
    </separator>
   </separator>
   <separator name="electronic dipolcorrection" >
    <i type="logical" name="LDIPOL"> F  </i>
    <i type="logical" name="LMONO"> F  </i>
    <i type="int" name="IDIPOL">     0</i>
    <i name="EPSILON">      1.00000000</i>
    <v name="DIPOL">   -100.00000000   -100.00000000   -100.00000000</v>
    <i name="EFIELD">      0.00000000</i>
   </separator>
  </separator>
  <separator name="grids" >
   <i type="int" name="NGX">    16</i>
   <i type="int" name="NGY">    16</i>
   <i type="int" name="NGZ">    16</i>
   <i type="int" name="NGXF">    32</i>
   <i type="int" name="NGYF">    32</i>
   <i type="int" name="NGZF">    32</i>
   <i type="logical" name="ADDGRID"> T  </i>
  </separator>
  <separator name="ionic" >
   <i type="int" name="NSW">     1</i>
   <i type="int" name="IBRION">    -1</i>
   <i type="int" name="MDALGO">     0</i>
   <i type="int" name="ISIF">     3</i>
   <i name="PSTRESS">      0.00000000</i>
   <i name="EDIFFG">      0.00001000</i>
   <i type="int" name="NFREE">     5</i>
   <i name="POTIM">      0.10000000</i>
   <i name="SMASS">     -3.00000000</i>
   <i name="SCALEE">      1.00000000</i>
  </separator>
  <separator name="ionic md" >
   <i name="TEBEG">      0.00010000</i>
   <i name="TEEND">      0.00010000</i>
   <i type="int" name="NBLOCK">     1</i>
   <i type="int" name="KBLOCK">     1</i>
   <i type="int" name="NPACO">   256</i>
   <i name="APACO">     16.00000000</i>
  </separator>
  <separator name="symmetry" >
   <i type="int" name="ISYM">     0</i>
   <i name="SYMPREC">      0.00000010</i>
  </separator>
  <separator name="dos" >
   <i type="int" name="LORBIT">     0</i>
   <v name="RWIGS">     -1.00000000</v>
   <i type="int" name="NEDOS">   301</i>
   <i name="EMIN">     10.00000000</i>
   <i name="EMAX">    -10.00000000</i>
   <i name="EFERMI">      0.00000000</i>
  </separator>
  <separator name="writing" >
   <i type="int" name="NWRITE">     2</i>
   <i type="logical" name="LWAVE"> T  </i>
   <i type="logical" name="LDOWNSAMPLE"> F  </i>
   <i type="logical" name="LCHARG"> F  </i>
   <i type="logical" name="LPARD"> F  </i>
   <i type="logical" name="LVTOT"> F  </i>
   <i type="logical" name="LVHAR"> F  </i>
   <i type="logical" name="LELF"> F  </i>
   <i type="logical" name="LOPTICS"> T  </i>
   <v name="STM">      0.00000000      0.00000000      0.00000000      0.00000000      0.00000000      0.00000000      0.00000000</v>
  </separator>
  <separator name="performance" >
   <i type="int" name="NPAR">     2</i>
   <i type="int" name="NSIM">     4</i>
   <i type="int" name="NBLK">    -1</i>
   <i type="logical" name="LPLANE"> T  </i>
   <i type="logical" name="LSCALAPACK"> T  </i>
   <i type="logical" name="LSCAAWARE"> T  </i>
   <i type="logical" name="LSCALU"> F  </i>
   <i type="logical" name="LASYNC"> F  </i>
   <i type="logical" name="LORBITALREAL"> F  </i>
  </separator>
  <separator name="miscellaneous" >
   <i type="int" name="IDIOT">     3</i>
   <i type="int" name="ISPECIAL">     0</i>
   <i type="logical" name="LMUSIC"> F  </i>
   <v name="POMASS">      4.00000000</v>
   <v name="DARWINR">      0.00000000</v>
   <v name="DARWINV">      1.00000000</v>
   <i type="logical" name="LCORR"> T  </i>
  </separator>
  <i type="logical" name="GGA_COMPAT"> F  </i>
  <i type="logical" name="LBERRY"> F  </i>
  <i type="int" name="ICORELEVEL">     0</i>
  <i type="logical" name="LDAU"> F  </i>
  <i type="int" name="I_CONSTRAINED_M">     0</i>
  <separator name="electronic exchange-correlation" >
   <i type="string" name="GGA">--</i>
   <i type="int" name="VOSKOWN">     0</i>
   <i type="logical" name="LHFCALC"> F  </i>
   <i type="string" name="PRECFOCK"></i>
   <i type="logical" name="LSYMGRAD"> F  </i>
   <i type="logical" name="LHFONE"> F  </i>
   <i type="logical" name="LRHFCALC"> F  </i>
   <i type="logical" name="LTHOMAS"> F  </i>
   <i type="logical" name="LMODELHF"> F  </i>
   <i name="ENCUT4O">     -1.00000000</i>
   <i type="int" name="EXXOEP">     0</i>
   <i type="int" name="FOURORBIT">     0</i>
   <i name="AEXX">      0.00000000</i>
   <i name="HFALPHA">      0.00000000</i>
   <i name="MCALPHA">      0.00000000</i>
   <i name="ALDAX">      1.00000000</i>
   <i name="AGGAX">      1.00000000</i>
   <i name="ALDAC">      1.00000000</i>
   <i name="AGGAC">      1.00000000</i>
   <i type="int" name="NKREDX">     1</i>
   <i type="int" name="NKREDY">     1</i>
   <i type="int" name="NKREDZ">     1</i>
   <i type="logical" name="SHIFTRED"> F  </i>
   <i type="logical" name="ODDONLY"> F  </i>
   <i type="logical" name="EVENONLY"> F  </i>
   <i type="int" name="LMAXFOCK">     0</i>
   <i type="int" name="NMAXFOCKAE">     0</i>
   <i type="logical" name="LFOCKAEDFT"> F  </i>
   <i name="HFSCREEN">      0.00000000</i>
   <i name="HFSCREENC">      0.00000000</i>
   <i type="int" name="NBANDSGWLOW">     0</i>
  </separator>
  <separator name="vdW DFT" >
   <i type="logical" name="LUSE_VDW"> F  </i>
   <i name="Zab_VDW">     -0.84910000</i>
   <i name="PARAM1">      0.12340000</i>
   <i name="PARAM2">      1.00000000</i>
   <i name="PARAM3">      0.00000000</i>
  </separator>
  <separator name="model GW" >
   <i type="int" name="MODEL_GW">     0</i>
   <i name="MODEL_EPS0">      9.77092638</i>
   <i name="MODEL_ALPHA">      1.00000000</i>
  </separator>
  <separator name="linear response parameters" >
   <i type="logical" name="LEPSILON"> F  </i>
   <i type="logical" name="LRPA"> F  </i>
   <i type="logical" name="LNABLA"> F  </i>
   <i type="logical" name="LVEL"> F  </i>
   <i type="int" name="KINTER">     0</i>
   <i name="CSHIFT">      0.10000000</i>
   <i name="OMEGAMAX">     -1.00000000</i>
   <i name="DEG_THRESHOLD">      0.00200000</i>
   <i name="RTIME">     -0.10000000</i>
   <i name="WPLASMAI">      0.00000000</i>
   <v name="DFIELD">      0.00000000      0.00000000      0.00000000</v>
   <v name="WPLASMA">      0.00000000      0.00000000      0.00000000      0.00000000      0.00000000      0.00000000      0.00000000      0.00000000      0.00000000</v>
  </separator>
  <separator name="orbital magnetization" >
   <i type="logical" name="NUCIND"> F  </i>
   <v name="MAGPOS">      0.00000000      0.00000000      0.00000000</v>
   <i type="logical" name="LNICSALL"> T  </i>
   <i type="logical" name="ORBITALMAG"> F  </i>
   <i type="logical" name="LMAGBLOCH"> F  </i>
   <i type="logical" name="LCHIMAG"> F  </i>
   <i type="logical" name="LGAUGE"> T  </i>
   <i type="int" name="MAGATOM">     0</i>
   <v name="MAGDIPOL">      0.00000000      0.00000000      0.00000000</v>
   <v name="AVECCONST">      0.00000000      0.00000000      0.00000000</v>
  </separator>
  <separator name="response functions" >
   <i type="logical" name="LADDER"> F  </i>
   <i type="logical" name="LRPAFORCE"> F  </i>
   <i type="logical" name="LFXC"> F  </i>
   <i type="logical" name="LHARTREE"> T  </i>
   <i type="int" name="IBSE">     0</i>
   <v type="int" name="KPOINT">    -1     0     0     0</v>
   <i type="logical" name="LTCTE"> F  </i>
   <i type="logical" name="LTETE"> F  </i>
   <i type="logical" name="LTRIPLET"> F  </i>
   <i type="logical" name="LFXCEPS"> F  </i>
   <i type="logical" name="LFXHEG"> F  </i>
   <i type="int" name="NATURALO">     2</i>
   <i type="logical" name="L2ORDER"> F  </i>
   <i type="logical" name="LMP2LT"> F  </i>
   <i type="logical" name="LUSEW"> F  </i>
   <i name="ENCUTGW">     -2.00000000</i>
   <i name="ENCUTGWSOFT">     -2.00000000</i>
   <i name="ENCUTLF">     -1.00000000</i>
   <i type="int" name="LMAXMP2">    -1</i>
   <i name="SCISSOR">      0.00000000</i>
   <i type="int" name="NOMEGA">     0</i>
   <i type="int" name="NOMEGAR">     0</i>
   <i type="int" name="NBANDSGW">    -1</i>
   <i type="int" name="NBANDSO">    -1</i>
   <i type="int" name="NBANDSV">    -1</i>
   <i type="int" name="NELM">    50</i>
   <i type="int" name="NELMHF">     1</i>
   <i type="int" name="DIM">     3</i>
   <i type="int" name="ANTIRES">     0</i>
   <i name="OMEGAMAX">    -30.00000000</i>
   <i name="OMEGAMIN">    -30.00000000</i>
   <i name="OMEGATL">   -200.00000000</i>
   <i type="int" name="OMEGAGRID">   140</i>
   <i name="CSHIFT">     -0.10000000</i>
   <i type="logical" name="SELFENERGY"> F  </i>
   <i type="logical" name="LSPECTRAL"> F  </i>
   <i type="logical" name="LSPECTRALGW"> F  </i>
   <i type="logical" name="LSINGLES"> F  </i>
   <i type="logical" name="LFERMIGW"> F  </i>
   <i type="logical" name="ODDONLYGW"> F  </i>
   <i type="logical" name="EVENONLYGW"> F  </i>
   <i type="int" name="NKREDLFX">     1</i>
   <i type="int" name="NKREDLFY">     1</i>
   <i type="int" name="NKREDLFZ">     1</i>
   <i type="int" name="MAXMEM">  2800</i>
   <i type="int" name="TELESCOPE">     0</i>
   <i type="int" name="TAUPAR">     1</i>
   <i type="int" name="OMEGAPAR">    -1</i>
   <i name="LAMBDA">      1.00000000</i>
  </separator>
  <separator name="External order field" >
   <i name="OFIELD_KAPPA">      0.00000000</i>
   <v name="OFIELD_K">      0.00000000      0.00000000      0.00000000</v>
   <i name="OFIELD_Q6_NEAR">      0.00000000</i>
   <i name="OFIELD_Q6_FAR">      0.00000000</i>
   <i name="OFIELD_A">      0.00000000</i>
  </separator>
 </parameters>
 <atominfo>
  <atoms>       1 </atoms>
  <types>       1 </types>
  <array name="atoms" >
   <dimension dim="1">ion</dimension>
   <field type="string">element</field>
   <field type="int">atomtype</field>
   <set>
    <rc><c>He</c><c>   1</c></rc>
   </set>
  </array>
  <array name="atomtypes" >
   <dimension dim="1">type</dimension>
   <field type="int">atomspertype</field>
   <field type="string">element</field>
   <field>mass</field>
   <field>valence</field>
   <field type="string">pseudopotential</field>
   <set>
    <rc><c>   1</c><c>He</c><c>      4.00000000</c><c>      2.00000000</c><c>  PAW_PBE He_GW 13May2007               </c></rc>
   </set>
  </array>
 </atominfo>
 <structure name="initialpos" >
  <crystal>
   <varray name="basis" >
    <v>       2.84511503       0.00000000       0.00000000 </v>
    <v>       1.42255751       2.46394189       0.00000000 </v>
    <v>       1.42255751       0.82131396       2.32302669 </v>
   </varray>
   <i name="volume">     16.28487729 </i>
   <varray name="rec_basis" >
    <v>       0.35147964      -0.20292686      -0.14349096 </v>
    <v>       0.00000000       0.40585373      -0.14349096 </v>
    <v>       0.00000000       0.00000000       0.43047288 </v>
   </varray>
  </crystal>
  <varray name="positions" >
   <v>       0.00000000       0.00000000       0.00000000 </v>
  </varray>
  <varray name="velocities" >
   <v>       0.00000000       0.00000000       0.00000000 </v>
  </varray>
 </structure>
 <calculation>
  <scstep>
   <time name="diag">   13.80   13.80</time>
   <time name="total">   13.88   13.88</time>
   <energy>
    <i name="alphaZ">      0.62263337 </i>
    <i name="ewald">    -32.81689722 </i>
    <i name="hartreedc">    -23.07332919 </i>
    <i name="XCdc">      9.10134150 </i>
    <i name="pawpsdc">     47.65958144 </i>
    <i name="pawaedc">    -48.90455391 </i>
    <i name="eentropy">      0.00000000 </i>
    <i name="bandstr">    -31.37583694 </i>
    <i name="atom">     78.41123386 </i>
    <i name="e_fr_energy">     -0.37582708 </i>
    <i name="e_wo_entrp">     -0.37582708 </i>
    <i name="e_0_energy">     -0.37582708 </i>
   </energy>
  </scstep>
  <scstep>
   <time name="diag">   13.63   13.64</time>
   <time name="total">   13.65   13.65</time>
   <energy>
    <i name="e_fr_energy">     -0.37582708 </i>
    <i name="e_wo_entrp">     -0.37582708 </i>
    <i name="e_0_energy">     -0.37582708 </i>
   </energy>
  </scstep>
  <scstep>
   <time name="diag">   13.50   13.50</time>
   <time name="total">   13.51   13.51</time>
   <energy>
    <i name="e_fr_energy">     -0.37582708 </i>
    <i name="e_wo_entrp">     -0.37582708 </i>
    <i name="e_0_energy">     -0.37582708 </i>
   </energy>
  </scstep>
  <scstep>
   <time name="diag">   13.78   13.78</time>
   <time name="total">   13.80   13.80</time>
   <energy>
    <i name="e_fr_energy">     -0.37582708 </i>
    <i name="e_wo_entrp">     -0.37582708 </i>
    <i name="e_0_energy">     -0.37582708 </i>
   </energy>
  </scstep>
  <scstep>
   <time name="diag">   13.57   13.57</time>
   <time name="total">   15.28   15.28</time>
   <energy>
    <i name="e_fr_energy">     -0.37582708 </i>
    <i name="e_wo_entrp">     -0.37582708 </i>
    <i name="e_0_energy">     -0.37582708 </i>
   </energy>
  </scstep>
  <scstep>
   <time name="diag">   13.45   13.45</time>
   <time name="total">   13.52   13.52</time>
   <energy>
    <i name="alphaZ">      0.62263337 </i>
    <i name="ewald">    -32.81689722 </i>
    <i name="hartreedc">    -23.07333191 </i>
    <i name="XCdc">      9.10134209 </i>
    <i name="pawpsdc">     47.65959016 </i>
    <i name="pawaedc">    -48.90456287 </i>
    <i name="eentropy">      0.00000000 </i>
    <i name="bandstr">    -31.37583455 </i>
    <i name="atom">     78.41123386 </i>
    <i name="e_fr_energy">     -0.37582708 </i>
    <i name="e_wo_entrp">     -0.37582708 </i>
    <i name="e_0_energy">     -0.37582708 </i>
   </energy>
  </scstep>
  <structure>
   <crystal>
    <varray name="basis" >
     <v>       2.84511503       0.00000000       0.00000000 </v>
     <v>       1.42255751       2.46394189       0.00000000 </v>
     <v>       1.42255751       0.82131396       2.32302669 </v>
    </varray>
    <i name="volume">     16.28487729 </i>
    <varray name="rec_basis" >
     <v>       0.35147964      -0.20292686      -0.14349096 </v>
     <v>       0.00000000       0.40585373      -0.14349096 </v>
     <v>       0.00000000       0.00000000       0.43047288 </v>
    </varray>
   </crystal>
   <varray name="positions" >
    <v>       0.00000000       0.00000000       0.00000000 </v>
   </varray>
  </structure>
  <varray name="forces" >
   <v>       0.00000000      -0.00000000       0.00000000 </v>
  </varray>
  <varray name="stress" >
   <v>    -327.03484804       0.00673470       0.00476232 </v>
   <v>       0.00673468    -327.04262468       0.00274942 </v>
   <v>       0.00476239       0.00274935    -327.04456884 </v>
  </varray>
  <energy>
   <i name="e_fr_energy">     -0.37582708 </i>
   <i name="e_wo_entrp">     -0.37582708 </i>
   <i name="e_0_energy">      0.00000000 </i>
  </energy>
  <time name="totalsc">  117.21  117.27</time>
  <eigenvalues>
   <array>
    <dimension dim="1">band</dimension>
    <dimension dim="2">kpoint</dimension>
    <dimension dim="3">spin</dimension>
    <field>eigene</field>
    <field>occ</field>
    <set>
     <set comment="spin 1">
      <set comment="kpoint 1">
       <r>  -16.5373    1.0000 </r>
       <r>  -16.5373    1.0000 </r>
       <r>    4.7909    0.0000 </r>
       <r>    4.7909    0.0000 </r>
       <r>   21.7152    0.0000 </r>
       <r>   21.7152    0.0000 </r>
       <r>   21.7156    0.0000 </r>
       <r>   21.7156    0.0000 </r>
       <r>   21.7159    0.0000 </r>
       <r>   21.7159    0.0000 </r>
       <r>   26.1897    0.0000 </r>
       <r>   26.1897    0.0000 </r>
       <r>   26.1898    0.0000 </r>
       <r>   26.1898    0.0000 </r>
       <r>   26.1898    0.0000 </r>
       <r>   26.1898    0.0000 </r>
       <r>   26.7215    0.0000 </r>
       <r>   26.7215    0.0000 </r>
       <r>   32.3158    0.0000 </r>
       <r>   32.3158    0.0000 </r>
       <r>   34.3114    0.0000 </r>
       <r>   34.3114    0.0000 </r>
       <r>   34.3115    0.0000 </r>
       <r>   34.3115    0.0000 </r>
       <r>   34.3125    0.0000 </r>
       <r>   34.3125    0.0000 </r>
       <r>   35.1552    0.0000 </r>
       <r>   35.1552    0.0000 </r>
       <r>   35.1552    0.0000 </r>
       <r>   35.1552    0.0000 </r>
       <r>   58.1031    0.0000 </r>
       <r>   58.1031    0.0000 </r>
       <r>   69.5191    0.0000 </r>
       <r>   69.5191    0.0000 </r>
       <r>   69.5202    0.0000 </r>
       <r>   69.5202    0.0000 </r>
       <r>   69.5202    0.0000 </r>
       <r>   69.5202    0.0000 </r>
       <r>   72.3952    0.0000 </r>
       <r>   72.3953    0.0000 </r>
       <r>   72.3956    0.0000 </r>
       <r>   72.3956    0.0000 </r>
       <r>   72.3957    0.0000 </r>
       <r>   72.3957    0.0000 </r>
       <r>   74.0352    0.0000 </r>
       <r>   74.0352    0.0000 </r>
       <r>   74.0374    0.0000 </r>
       <r>   74.0374    0.0000 </r>
       <r>   74.0374    0.0000 </r>
       <r>   74.0374    0.0000 </r>
       <r>   74.1004    0.0000 </r>
       <r>   74.1004    0.0000 </r>
       <r>   74.1004    0.0000 </r>
       <r>   74.1004    0.0000 </r>
       <r>   88.1904    0.0000 </r>
       <r>   88.1904    0.0000 </r>
       <r>   95.1177    0.0000 </r>
       <r>   95.1177    0.0000 </r>
       <r>   95.1194    0.0000 </r>
       <r>   95.1194    0.0000 </r>
       <r>   95.1195    0.0000 </r>
       <r>   95.1195    0.0000 </r>
       <r>  100.7144    0.0000 </r>
       <r>  100.7144    0.0000 </r>
       <r>  101.4896    0.0000 </r>
       <r>  101.4896    0.0000 </r>
       <r>  101.4899    0.0000 </r>
       <r>  101.4899    0.0000 </r>
       <r>  101.4899    0.0000 </r>
       <r>  101.4899    0.0000 </r>
       <r>  101.6948    0.0000 </r>
       <r>  101.6948    0.0000 </r>
       <r>  101.6951    0.0000 </r>
       <r>  101.6951    0.0000 </r>
       <r>  101.6951    0.0000 </r>
       <r>  101.6952    0.0000 </r>
       <r>  101.7563    0.0000 </r>
       <r>  101.7563    0.0000 </r>
       <r>  101.7563    0.0000 </r>
       <r>  101.7563    0.0000 </r>
       <r>  102.4923    0.0000 </r>
       <r>  102.4923    0.0000 </r>
       <r>  102.4954    0.0000 </r>
       <r>  102.4954    0.0000 </r>
       <r>  102.4954    0.0000 </r>
       <r>  102.4954    0.0000 </r>
       <r>  102.8295    0.0000 </r>
       <r>  102.8295    0.0000 </r>
       <r>  102.8296    0.0000 </r>
       <r>  102.8296    0.0000 </r>
       <r>  102.8296    0.0000 </r>
       <r>  102.8296    0.0000 </r>
       <r>  103.5146    0.0000 </r>
       <r>  103.5146    0.0000 </r>
       <r>  103.5146    0.0000 </r>
       <r>  103.5146    0.0000 </r>
       <r>  104.1494    0.0000 </r>
       <r>  104.1494    0.0000 </r>
       <r>  104.1499    0.0000 </r>
       <r>  104.1499    0.0000 </r>
       <r>  104.1499    0.0000 </r>
       <r>  104.1499    0.0000 </r>
       <r>  110.0068    0.0000 </r>
       <r>  110.0068    0.0000 </r>
       <r>  110.4325    0.0000 </r>
       <r>  110.4325    0.0000 </r>
       <r>  111.0409    0.0000 </r>
       <r>  111.0409    0.0000 </r>
       <r>  111.0411    0.0000 </r>
       <r>  111.0411    0.0000 </r>
       <r>  111.0428    0.0000 </r>
       <r>  111.0429    0.0000 </r>
       <r>  112.4068    0.0000 </r>
       <r>  112.4068    0.0000 </r>
       <r>  112.4070    0.0000 </r>
       <r>  112.4070    0.0000 </r>
       <r>  112.4071    0.0000 </r>
       <r>  112.4071    0.0000 </r>
       <r>  145.8613    0.0000 </r>
       <r>  145.8613    0.0000 </r>
       <r>  148.4635    0.0000 </r>
       <r>  148.4635    0.0000 </r>
       <r>  148.4640    0.0000 </r>
       <r>  148.4640    0.0000 </r>
       <r>  148.4644    0.0000 </r>
       <r>  148.4644    0.0000 </r>
       <r>  152.1379    0.0000 </r>
       <r>  152.1379    0.0000 </r>
      </set>
      <set comment="kpoint 2">
       <r>  -16.3296    1.0000 </r>
       <r>  -16.3296    1.0000 </r>
       <r>    4.6020    0.0000 </r>
       <r>    4.6020    0.0000 </r>
       <r>   17.5314    0.0000 </r>
       <r>   17.5314    0.0000 </r>
       <r>   20.7193    0.0000 </r>
       <r>   20.7193    0.0000 </r>
       <r>   20.7196    0.0000 </r>
       <r>   20.7196    0.0000 </r>
       <r>   25.7033    0.0000 </r>
       <r>   25.7033    0.0000 </r>
       <r>   27.7195    0.0000 </r>
       <r>   27.7195    0.0000 </r>
       <r>   27.7203    0.0000 </r>
       <r>   27.7203    0.0000 </r>
       <r>   28.4987    0.0000 </r>
       <r>   28.4987    0.0000 </r>
       <r>   30.3339    0.0000 </r>
       <r>   30.3339    0.0000 </r>
       <r>   30.3341    0.0000 </r>
       <r>   30.3341    0.0000 </r>
       <r>   34.3449    0.0000 </r>
       <r>   34.3449    0.0000 </r>
       <r>   40.3469    0.0000 </r>
       <r>   40.3469    0.0000 </r>
       <r>   41.8006    0.0000 </r>
       <r>   41.8006    0.0000 </r>
       <r>   41.8010    0.0000 </r>
       <r>   41.8010    0.0000 </r>
       <r>   53.3719    0.0000 </r>
       <r>   53.3719    0.0000 </r>
       <r>   60.7730    0.0000 </r>
       <r>   60.7730    0.0000 </r>
       <r>   60.7732    0.0000 </r>
       <r>   60.7732    0.0000 </r>
       <r>   66.2824    0.0000 </r>
       <r>   66.2824    0.0000 </r>
       <r>   71.4197    0.0000 </r>
       <r>   71.4197    0.0000 </r>
       <r>   71.4205    0.0000 </r>
       <r>   71.4205    0.0000 </r>
       <r>   74.0479    0.0000 </r>
       <r>   74.0479    0.0000 </r>
       <r>   74.0491    0.0000 </r>
       <r>   74.0491    0.0000 </r>
       <r>   74.8417    0.0000 </r>
       <r>   74.8417    0.0000 </r>
       <r>   80.1802    0.0000 </r>
       <r>   80.1802    0.0000 </r>
       <r>   82.6148    0.0000 </r>
       <r>   82.6148    0.0000 </r>
       <r>   86.1648    0.0000 </r>
       <r>   86.1648    0.0000 </r>
       <r>   86.1659    0.0000 </r>
       <r>   86.1659    0.0000 </r>
       <r>   87.1135    0.0000 </r>
       <r>   87.1135    0.0000 </r>
       <r>   87.1141    0.0000 </r>
       <r>   87.1141    0.0000 </r>
       <r>   89.6341    0.0000 </r>
       <r>   89.6341    0.0000 </r>
       <r>   91.4121    0.0000 </r>
       <r>   91.4121    0.0000 </r>
       <r>   91.4125    0.0000 </r>
       <r>   91.4125    0.0000 </r>
       <r>   93.1126    0.0000 </r>
       <r>   93.1127    0.0000 </r>
       <r>   93.3769    0.0000 </r>
       <r>   93.3769    0.0000 </r>
       <r>   93.3777    0.0000 </r>
       <r>   93.3777    0.0000 </r>
       <r>   94.3674    0.0000 </r>
       <r>   94.3674    0.0000 </r>
       <r>   97.6813    0.0000 </r>
       <r>   97.6813    0.0000 </r>
       <r>   99.0447    0.0000 </r>
       <r>   99.0447    0.0000 </r>
       <r>   99.0459    0.0000 </r>
       <r>   99.0459    0.0000 </r>
       <r>  101.7759    0.0000 </r>
       <r>  101.7760    0.0000 </r>
       <r>  104.9177    0.0000 </r>
       <r>  104.9177    0.0000 </r>
       <r>  104.9184    0.0000 </r>
       <r>  104.9185    0.0000 </r>
       <r>  105.7106    0.0000 </r>
       <r>  105.7106    0.0000 </r>
       <r>  106.5435    0.0000 </r>
       <r>  106.5435    0.0000 </r>
       <r>  106.5437    0.0000 </r>
       <r>  106.5437    0.0000 </r>
       <r>  108.4525    0.0000 </r>
       <r>  108.4525    0.0000 </r>
       <r>  111.6439    0.0000 </r>
       <r>  111.6439    0.0000 </r>
       <r>  111.6440    0.0000 </r>
       <r>  111.6440    0.0000 </r>
       <r>  112.8066    0.0000 </r>
       <r>  112.8066    0.0000 </r>
       <r>  112.8072    0.0000 </r>
       <r>  112.8072    0.0000 </r>
       <r>  113.8898    0.0000 </r>
       <r>  113.8898    0.0000 </r>
       <r>  115.9984    0.0000 </r>
       <r>  115.9984    0.0000 </r>
       <r>  118.5097    0.0000 </r>
       <r>  118.5097    0.0000 </r>
       <r>  118.8408    0.0000 </r>
       <r>  118.8408    0.0000 </r>
       <r>  118.8420    0.0000 </r>
       <r>  118.8420    0.0000 </r>
       <r>  119.6259    0.0000 </r>
       <r>  119.6259    0.0000 </r>
       <r>  119.6262    0.0000 </r>
       <r>  119.6263    0.0000 </r>
       <r>  131.1836    0.0000 </r>
       <r>  131.1836    0.0000 </r>
       <r>  135.0738    0.0000 </r>
       <r>  135.0738    0.0000 </r>
       <r>  138.1861    0.0000 </r>
       <r>  138.1861    0.0000 </r>
       <r>  138.1864    0.0000 </r>
       <r>  138.1864    0.0000 </r>
       <r>  152.8255    0.0000 </r>
       <r>  152.8255    0.0000 </r>
       <r>  157.9947    0.0000 </r>
       <r>  157.9947    0.0000 </r>
      </set>
      <set comment="kpoint 3">
       <r>  -15.8849    1.0000 </r>
       <r>  -15.8849    1.0000 </r>
       <r>    4.2579    0.0000 </r>
       <r>    4.2579    0.0000 </r>
       <r>   13.1048    0.0000 </r>
       <r>   13.1048    0.0000 </r>
       <r>   19.8265    0.0000 </r>
       <r>   19.8265    0.0000 </r>
       <r>   19.8268    0.0000 </r>
       <r>   19.8268    0.0000 </r>
       <r>   25.0035    0.0000 </r>
       <r>   25.0035    0.0000 </r>
       <r>   25.2618    0.0000 </r>
       <r>   25.2618    0.0000 </r>
       <r>   25.2629    0.0000 </r>
       <r>   25.2629    0.0000 </r>
       <r>   30.0239    0.0000 </r>
       <r>   30.0239    0.0000 </r>
       <r>   34.5420    0.0000 </r>
       <r>   34.5420    0.0000 </r>
       <r>   34.5423    0.0000 </r>
       <r>   34.5423    0.0000 </r>
       <r>   42.8750    0.0000 </r>
       <r>   42.8750    0.0000 </r>
       <r>   45.7456    0.0000 </r>
       <r>   45.7456    0.0000 </r>
       <r>   50.1396    0.0000 </r>
       <r>   50.1396    0.0000 </r>
       <r>   50.1402    0.0000 </r>
       <r>   50.1402    0.0000 </r>
       <r>   50.1404    0.0000 </r>
       <r>   50.1404    0.0000 </r>
       <r>   50.8251    0.0000 </r>
       <r>   50.8251    0.0000 </r>
       <r>   50.8257    0.0000 </r>
       <r>   50.8257    0.0000 </r>
       <r>   64.2186    0.0000 </r>
       <r>   64.2186    0.0000 </r>
       <r>   71.6661    0.0000 </r>
       <r>   71.6661    0.0000 </r>
       <r>   72.1689    0.0000 </r>
       <r>   72.1689    0.0000 </r>
       <r>   72.1695    0.0000 </r>
       <r>   72.1695    0.0000 </r>
       <r>   74.3757    0.0000 </r>
       <r>   74.3757    0.0000 </r>
       <r>   74.3763    0.0000 </r>
       <r>   74.3763    0.0000 </r>
       <r>   76.4608    0.0000 </r>
       <r>   76.4608    0.0000 </r>
       <r>   76.5067    0.0000 </r>
       <r>   76.5067    0.0000 </r>
       <r>   76.5085    0.0000 </r>
       <r>   76.5085    0.0000 </r>
       <r>   77.2573    0.0000 </r>
       <r>   77.2573    0.0000 </r>
       <r>   82.5381    0.0000 </r>
       <r>   82.5381    0.0000 </r>
       <r>   84.4500    0.0000 </r>
       <r>   84.4500    0.0000 </r>
       <r>   84.4504    0.0000 </r>
       <r>   84.4504    0.0000 </r>
       <r>   86.1789    0.0000 </r>
       <r>   86.1789    0.0000 </r>
       <r>   86.1796    0.0000 </r>
       <r>   86.1797    0.0000 </r>
       <r>   87.1030    0.0000 </r>
       <r>   87.1030    0.0000 </r>
       <r>   94.4390    0.0000 </r>
       <r>   94.4390    0.0000 </r>
       <r>   97.9288    0.0000 </r>
       <r>   97.9288    0.0000 </r>
       <r>   97.9300    0.0000 </r>
       <r>   97.9301    0.0000 </r>
       <r>   99.1090    0.0000 </r>
       <r>   99.1090    0.0000 </r>
       <r>  100.5282    0.0000 </r>
       <r>  100.5282    0.0000 </r>
       <r>  101.9229    0.0000 </r>
       <r>  101.9229    0.0000 </r>
       <r>  101.9235    0.0000 </r>
       <r>  101.9235    0.0000 </r>
       <r>  102.3249    0.0000 </r>
       <r>  102.3249    0.0000 </r>
       <r>  102.3251    0.0000 </r>
       <r>  102.3252    0.0000 </r>
       <r>  109.5858    0.0000 </r>
       <r>  109.5858    0.0000 </r>
       <r>  111.3531    0.0000 </r>
       <r>  111.3531    0.0000 </r>
       <r>  111.3535    0.0000 </r>
       <r>  111.3535    0.0000 </r>
       <r>  118.9494    0.0000 </r>
       <r>  118.9494    0.0000 </r>
       <r>  122.9808    0.0000 </r>
       <r>  122.9809    0.0000 </r>
       <r>  122.9816    0.0000 </r>
       <r>  122.9816    0.0000 </r>
       <r>  124.0108    0.0000 </r>
       <r>  124.0108    0.0000 </r>
       <r>  124.5862    0.0000 </r>
       <r>  124.5862    0.0000 </r>
       <r>  124.5865    0.0000 </r>
       <r>  124.5866    0.0000 </r>
       <r>  126.0232    0.0000 </r>
       <r>  126.0232    0.0000 </r>
       <r>  126.7688    0.0000 </r>
       <r>  126.7688    0.0000 </r>
       <r>  127.0658    0.0000 </r>
       <r>  127.0658    0.0000 </r>
       <r>  127.0686    0.0000 </r>
       <r>  127.0686    0.0000 </r>
       <r>  128.6710    0.0000 </r>
       <r>  128.6711    0.0000 </r>
       <r>  128.6723    0.0000 </r>
       <r>  128.6723    0.0000 </r>
       <r>  132.7829    0.0000 </r>
       <r>  132.7829    0.0000 </r>
       <r>  136.2540    0.0000 </r>
       <r>  136.2540    0.0000 </r>
       <r>  137.6254    0.0000 </r>
       <r>  137.6254    0.0000 </r>
       <r>  137.6266    0.0000 </r>
       <r>  137.6266    0.0000 </r>
       <r>  138.6322    0.0000 </r>
       <r>  138.6322    0.0000 </r>
       <r>  138.6333    0.0000 </r>
       <r>  138.6334    0.0000 </r>
      </set>
      <set comment="kpoint 4">
       <r>  -15.6364    1.0000 </r>
       <r>  -15.6364    1.0000 </r>
       <r>    4.0985    0.0000 </r>
       <r>    4.0985    0.0000 </r>
       <r>   11.5061    0.0000 </r>
       <r>   11.5061    0.0000 </r>
       <r>   19.6374    0.0000 </r>
       <r>   19.6374    0.0000 </r>
       <r>   19.6378    0.0000 </r>
       <r>   19.6378    0.0000 </r>
       <r>   23.9746    0.0000 </r>
       <r>   23.9746    0.0000 </r>
       <r>   23.9758    0.0000 </r>
       <r>   23.9758    0.0000 </r>
       <r>   24.0890    0.0000 </r>
       <r>   24.0890    0.0000 </r>
       <r>   34.2131    0.0000 </r>
       <r>   34.2131    0.0000 </r>
       <r>   38.4440    0.0000 </r>
       <r>   38.4440    0.0000 </r>
       <r>   41.2620    0.0000 </r>
       <r>   41.2620    0.0000 </r>
       <r>   41.2632    0.0000 </r>
       <r>   41.2632    0.0000 </r>
       <r>   41.9794    0.0000 </r>
       <r>   41.9794    0.0000 </r>
       <r>   41.9802    0.0000 </r>
       <r>   41.9802    0.0000 </r>
       <r>   53.1689    0.0000 </r>
       <r>   53.1689    0.0000 </r>
       <r>   56.7119    0.0000 </r>
       <r>   56.7119    0.0000 </r>
       <r>   60.8354    0.0000 </r>
       <r>   60.8354    0.0000 </r>
       <r>   60.8357    0.0000 </r>
       <r>   60.8357    0.0000 </r>
       <r>   60.9962    0.0000 </r>
       <r>   60.9962    0.0000 </r>
       <r>   60.9966    0.0000 </r>
       <r>   60.9966    0.0000 </r>
       <r>   62.0823    0.0000 </r>
       <r>   62.0824    0.0000 </r>
       <r>   62.0871    0.0000 </r>
       <r>   62.0871    0.0000 </r>
       <r>   70.7208    0.0000 </r>
       <r>   70.7208    0.0000 </r>
       <r>   75.9105    0.0000 </r>
       <r>   75.9105    0.0000 </r>
       <r>   75.9120    0.0000 </r>
       <r>   75.9120    0.0000 </r>
       <r>   79.6805    0.0000 </r>
       <r>   79.6805    0.0000 </r>
       <r>   79.8561    0.0000 </r>
       <r>   79.8561    0.0000 </r>
       <r>   79.8597    0.0000 </r>
       <r>   79.8597    0.0000 </r>
       <r>   80.6202    0.0000 </r>
       <r>   80.6202    0.0000 </r>
       <r>   80.7200    0.0000 </r>
       <r>   80.7200    0.0000 </r>
       <r>   80.7209    0.0000 </r>
       <r>   80.7209    0.0000 </r>
       <r>   81.1723    0.0000 </r>
       <r>   81.1723    0.0000 </r>
       <r>   81.1736    0.0000 </r>
       <r>   81.1736    0.0000 </r>
       <r>   82.1296    0.0000 </r>
       <r>   82.1296    0.0000 </r>
       <r>   95.9455    0.0000 </r>
       <r>   95.9455    0.0000 </r>
       <r>   97.9673    0.0000 </r>
       <r>   97.9673    0.0000 </r>
       <r>   97.9689    0.0000 </r>
       <r>   97.9689    0.0000 </r>
       <r>   98.9641    0.0000 </r>
       <r>   98.9641    0.0000 </r>
       <r>  100.3599    0.0000 </r>
       <r>  100.3599    0.0000 </r>
       <r>  100.3603    0.0000 </r>
       <r>  100.3603    0.0000 </r>
       <r>  112.4643    0.0000 </r>
       <r>  112.4643    0.0000 </r>
       <r>  112.5973    0.0000 </r>
       <r>  112.5973    0.0000 </r>
       <r>  116.8511    0.0000 </r>
       <r>  116.8511    0.0000 </r>
       <r>  116.8520    0.0000 </r>
       <r>  116.8520    0.0000 </r>
       <r>  117.6479    0.0000 </r>
       <r>  117.6479    0.0000 </r>
       <r>  118.9348    0.0000 </r>
       <r>  118.9348    0.0000 </r>
       <r>  118.9363    0.0000 </r>
       <r>  118.9364    0.0000 </r>
       <r>  119.4775    0.0000 </r>
       <r>  119.4775    0.0000 </r>
       <r>  119.5983    0.0000 </r>
       <r>  119.5983    0.0000 </r>
       <r>  119.5984    0.0000 </r>
       <r>  119.5984    0.0000 </r>
       <r>  120.1120    0.0000 </r>
       <r>  120.1120    0.0000 </r>
       <r>  120.1132    0.0000 </r>
       <r>  120.1132    0.0000 </r>
       <r>  131.3539    0.0000 </r>
       <r>  131.3539    0.0000 </r>
       <r>  132.5481    0.0000 </r>
       <r>  132.5481    0.0000 </r>
       <r>  134.1936    0.0000 </r>
       <r>  134.1936    0.0000 </r>
       <r>  134.1943    0.0000 </r>
       <r>  134.1943    0.0000 </r>
       <r>  137.0740    0.0000 </r>
       <r>  137.0740    0.0000 </r>
       <r>  137.0753    0.0000 </r>
       <r>  137.0753    0.0000 </r>
       <r>  137.3262    0.0000 </r>
       <r>  137.3262    0.0000 </r>
       <r>  137.5559    0.0000 </r>
       <r>  137.5559    0.0000 </r>
       <r>  138.5640    0.0000 </r>
       <r>  138.5640    0.0000 </r>
       <r>  138.5672    0.0000 </r>
       <r>  138.5672    0.0000 </r>
       <r>  139.1040    0.0000 </r>
       <r>  139.1040    0.0000 </r>
       <r>  139.1050    0.0000 </r>
       <r>  139.1050    0.0000 </r>
      </set>
      <set comment="kpoint 5">
       <r>  -15.8849    1.0000 </r>
       <r>  -15.8849    1.0000 </r>
       <r>    4.2579    0.0000 </r>
       <r>    4.2579    0.0000 </r>
       <r>   13.1048    0.0000 </r>
       <r>   13.1048    0.0000 </r>
       <r>   19.8265    0.0000 </r>
       <r>   19.8265    0.0000 </r>
       <r>   19.8268    0.0000 </r>
       <r>   19.8268    0.0000 </r>
       <r>   25.0035    0.0000 </r>
       <r>   25.0035    0.0000 </r>
       <r>   25.2618    0.0000 </r>
       <r>   25.2618    0.0000 </r>
       <r>   25.2629    0.0000 </r>
       <r>   25.2629    0.0000 </r>
       <r>   30.0239    0.0000 </r>
       <r>   30.0239    0.0000 </r>
       <r>   34.5420    0.0000 </r>
       <r>   34.5420    0.0000 </r>
       <r>   34.5423    0.0000 </r>
       <r>   34.5423    0.0000 </r>
       <r>   42.8750    0.0000 </r>
       <r>   42.8750    0.0000 </r>
       <r>   45.7456    0.0000 </r>
       <r>   45.7456    0.0000 </r>
       <r>   50.1396    0.0000 </r>
       <r>   50.1396    0.0000 </r>
       <r>   50.1402    0.0000 </r>
       <r>   50.1402    0.0000 </r>
       <r>   50.1404    0.0000 </r>
       <r>   50.1404    0.0000 </r>
       <r>   50.8251    0.0000 </r>
       <r>   50.8251    0.0000 </r>
       <r>   50.8257    0.0000 </r>
       <r>   50.8257    0.0000 </r>
       <r>   64.2186    0.0000 </r>
       <r>   64.2186    0.0000 </r>
       <r>   71.6661    0.0000 </r>
       <r>   71.6661    0.0000 </r>
       <r>   72.1689    0.0000 </r>
       <r>   72.1689    0.0000 </r>
       <r>   72.1695    0.0000 </r>
       <r>   72.1695    0.0000 </r>
       <r>   74.3757    0.0000 </r>
       <r>   74.3757    0.0000 </r>
       <r>   74.3763    0.0000 </r>
       <r>   74.3763    0.0000 </r>
       <r>   76.4608    0.0000 </r>
       <r>   76.4608    0.0000 </r>
       <r>   76.5067    0.0000 </r>
       <r>   76.5067    0.0000 </r>
       <r>   76.5085    0.0000 </r>
       <r>   76.5085    0.0000 </r>
       <r>   77.2573    0.0000 </r>
       <r>   77.2573    0.0000 </r>
       <r>   82.5381    0.0000 </r>
       <r>   82.5381    0.0000 </r>
       <r>   84.4500    0.0000 </r>
       <r>   84.4500    0.0000 </r>
       <r>   84.4504    0.0000 </r>
       <r>   84.4504    0.0000 </r>
       <r>   86.1789    0.0000 </r>
       <r>   86.1789    0.0000 </r>
       <r>   86.1796    0.0000 </r>
       <r>   86.1797    0.0000 </r>
       <r>   87.1030    0.0000 </r>
       <r>   87.1030    0.0000 </r>
       <r>   94.4390    0.0000 </r>
       <r>   94.4390    0.0000 </r>
       <r>   97.9288    0.0000 </r>
       <r>   97.9288    0.0000 </r>
       <r>   97.9300    0.0000 </r>
       <r>   97.9301    0.0000 </r>
       <r>   99.1090    0.0000 </r>
       <r>   99.1090    0.0000 </r>
       <r>  100.5282    0.0000 </r>
       <r>  100.5282    0.0000 </r>
       <r>  101.9229    0.0000 </r>
       <r>  101.9229    0.0000 </r>
       <r>  101.9235    0.0000 </r>
       <r>  101.9235    0.0000 </r>
       <r>  102.3249    0.0000 </r>
       <r>  102.3249    0.0000 </r>
       <r>  102.3251    0.0000 </r>
       <r>  102.3252    0.0000 </r>
       <r>  109.5858    0.0000 </r>
       <r>  109.5858    0.0000 </r>
       <r>  111.3531    0.0000 </r>
       <r>  111.3531    0.0000 </r>
       <r>  111.3535    0.0000 </r>
       <r>  111.3535    0.0000 </r>
       <r>  118.9494    0.0000 </r>
       <r>  118.9494    0.0000 </r>
       <r>  122.9808    0.0000 </r>
       <r>  122.9809    0.0000 </r>
       <r>  122.9816    0.0000 </r>
       <r>  122.9816    0.0000 </r>
       <r>  124.0108    0.0000 </r>
       <r>  124.0108    0.0000 </r>
       <r>  124.5862    0.0000 </r>
       <r>  124.5862    0.0000 </r>
       <r>  124.5865    0.0000 </r>
       <r>  124.5866    0.0000 </r>
       <r>  126.0232    0.0000 </r>
       <r>  126.0232    0.0000 </r>
       <r>  126.7688    0.0000 </r>
       <r>  126.7688    0.0000 </r>
       <r>  127.0658    0.0000 </r>
       <r>  127.0658    0.0000 </r>
       <r>  127.0686    0.0000 </r>
       <r>  127.0686    0.0000 </r>
       <r>  128.6710    0.0000 </r>
       <r>  128.6711    0.0000 </r>
       <r>  128.6723    0.0000 </r>
       <r>  128.6723    0.0000 </r>
       <r>  132.7829    0.0000 </r>
       <r>  132.7829    0.0000 </r>
       <r>  136.2540    0.0000 </r>
       <r>  136.2540    0.0000 </r>
       <r>  137.6254    0.0000 </r>
       <r>  137.6254    0.0000 </r>
       <r>  137.6266    0.0000 </r>
       <r>  137.6266    0.0000 </r>
       <r>  138.6322    0.0000 </r>
       <r>  138.6322    0.0000 </r>
       <r>  138.6333    0.0000 </r>
       <r>  138.6334    0.0000 </r>
      </set>
      <set comment="kpoint 6">
       <r>  -16.3296    1.0000 </r>
       <r>  -16.3296    1.0000 </r>
       <r>    4.6020    0.0000 </r>
       <r>    4.6020    0.0000 </r>
       <r>   17.5314    0.0000 </r>
       <r>   17.5314    0.0000 </r>
       <r>   20.7193    0.0000 </r>
       <r>   20.7193    0.0000 </r>
       <r>   20.7196    0.0000 </r>
       <r>   20.7196    0.0000 </r>
       <r>   25.7033    0.0000 </r>
       <r>   25.7033    0.0000 </r>
       <r>   27.7195    0.0000 </r>
       <r>   27.7195    0.0000 </r>
       <r>   27.7203    0.0000 </r>
       <r>   27.7203    0.0000 </r>
       <r>   28.4987    0.0000 </r>
       <r>   28.4987    0.0000 </r>
       <r>   30.3339    0.0000 </r>
       <r>   30.3339    0.0000 </r>
       <r>   30.3341    0.0000 </r>
       <r>   30.3341    0.0000 </r>
       <r>   34.3449    0.0000 </r>
       <r>   34.3449    0.0000 </r>
       <r>   40.3469    0.0000 </r>
       <r>   40.3469    0.0000 </r>
       <r>   41.8006    0.0000 </r>
       <r>   41.8006    0.0000 </r>
       <r>   41.8010    0.0000 </r>
       <r>   41.8010    0.0000 </r>
       <r>   53.3719    0.0000 </r>
       <r>   53.3719    0.0000 </r>
       <r>   60.7730    0.0000 </r>
       <r>   60.7730    0.0000 </r>
       <r>   60.7732    0.0000 </r>
       <r>   60.7732    0.0000 </r>
       <r>   66.2824    0.0000 </r>
       <r>   66.2824    0.0000 </r>
       <r>   71.4197    0.0000 </r>
       <r>   71.4197    0.0000 </r>
       <r>   71.4205    0.0000 </r>
       <r>   71.4205    0.0000 </r>
       <r>   74.0479    0.0000 </r>
       <r>   74.0479    0.0000 </r>
       <r>   74.0491    0.0000 </r>
       <r>   74.0491    0.0000 </r>
       <r>   74.8417    0.0000 </r>
       <r>   74.8417    0.0000 </r>
       <r>   80.1802    0.0000 </r>
       <r>   80.1802    0.0000 </r>
       <r>   82.6148    0.0000 </r>
       <r>   82.6148    0.0000 </r>
       <r>   86.1648    0.0000 </r>
       <r>   86.1648    0.0000 </r>
       <r>   86.1659    0.0000 </r>
       <r>   86.1659    0.0000 </r>
       <r>   87.1135    0.0000 </r>
       <r>   87.1135    0.0000 </r>
       <r>   87.1141    0.0000 </r>
       <r>   87.1141    0.0000 </r>
       <r>   89.6341    0.0000 </r>
       <r>   89.6341    0.0000 </r>
       <r>   91.4121    0.0000 </r>
       <r>   91.4121    0.0000 </r>
       <r>   91.4125    0.0000 </r>
       <r>   91.4125    0.0000 </r>
       <r>   93.1126    0.0000 </r>
       <r>   93.1127    0.0000 </r>
       <r>   93.3769    0.0000 </r>
       <r>   93.3769    0.0000 </r>
       <r>   93.3777    0.0000 </r>
       <r>   93.3777    0.0000 </r>
       <r>   94.3674    0.0000 </r>
       <r>   94.3674    0.0000 </r>
       <r>   97.6813    0.0000 </r>
       <r>   97.6813    0.0000 </r>
       <r>   99.0447    0.0000 </r>
       <r>   99.0447    0.0000 </r>
       <r>   99.0459    0.0000 </r>
       <r>   99.0459    0.0000 </r>
       <r>  101.7759    0.0000 </r>
       <r>  101.7760    0.0000 </r>
       <r>  104.9177    0.0000 </r>
       <r>  104.9177    0.0000 </r>
       <r>  104.9184    0.0000 </r>
       <r>  104.9185    0.0000 </r>
       <r>  105.7106    0.0000 </r>
       <r>  105.7106    0.0000 </r>
       <r>  106.5435    0.0000 </r>
       <r>  106.5435    0.0000 </r>
       <r>  106.5437    0.0000 </r>
       <r>  106.5437    0.0000 </r>
       <r>  108.4525    0.0000 </r>
       <r>  108.4525    0.0000 </r>
       <r>  111.6439    0.0000 </r>
       <r>  111.6439    0.0000 </r>
       <r>  111.6440    0.0000 </r>
       <r>  111.6440    0.0000 </r>
       <r>  112.8066    0.0000 </r>
       <r>  112.8066    0.0000 </r>
       <r>  112.8072    0.0000 </r>
       <r>  112.8072    0.0000 </r>
       <r>  113.8898    0.0000 </r>
       <r>  113.8898    0.0000 </r>
       <r>  115.9984    0.0000 </r>
       <r>  115.9984    0.0000 </r>
       <r>  118.5097    0.0000 </r>
       <r>  118.5097    0.0000 </r>
       <r>  118.8408    0.0000 </r>
       <r>  118.8408    0.0000 </r>
       <r>  118.8420    0.0000 </r>
       <r>  118.8420    0.0000 </r>
       <r>  119.6259    0.0000 </r>
       <r>  119.6259    0.0000 </r>
       <r>  119.6262    0.0000 </r>
       <r>  119.6263    0.0000 </r>
       <r>  131.1836    0.0000 </r>
       <r>  131.1836    0.0000 </r>
       <r>  135.0738    0.0000 </r>
       <r>  135.0738    0.0000 </r>
       <r>  138.1861    0.0000 </r>
       <r>  138.1861    0.0000 </r>
       <r>  138.1864    0.0000 </r>
       <r>  138.1864    0.0000 </r>
       <r>  152.8255    0.0000 </r>
       <r>  152.8255    0.0000 </r>
       <r>  157.9947    0.0000 </r>
       <r>  157.9947    0.0000 </r>
      </set>
      <set comment="kpoint 7">
       <r>  -16.3296    1.0000 </r>
       <r>  -16.3296    1.0000 </r>
       <r>    4.6020    0.0000 </r>
       <r>    4.6020    0.0000 </r>
       <r>   17.5314    0.0000 </r>
       <r>   17.5314    0.0000 </r>
       <r>   20.7193    0.0000 </r>
       <r>   20.7193    0.0000 </r>
       <r>   20.7196    0.0000 </r>
       <r>   20.7196    0.0000 </r>
       <r>   25.7033    0.0000 </r>
       <r>   25.7033    0.0000 </r>
       <r>   27.7195    0.0000 </r>
       <r>   27.7195    0.0000 </r>
       <r>   27.7203    0.0000 </r>
       <r>   27.7203    0.0000 </r>
       <r>   28.4987    0.0000 </r>
       <r>   28.4987    0.0000 </r>
       <r>   30.3339    0.0000 </r>
       <r>   30.3339    0.0000 </r>
       <r>   30.3341    0.0000 </r>
       <r>   30.3341    0.0000 </r>
       <r>   34.3449    0.0000 </r>
       <r>   34.3449    0.0000 </r>
       <r>   40.3469    0.0000 </r>
       <r>   40.3469    0.0000 </r>
       <r>   41.8006    0.0000 </r>
       <r>   41.8006    0.0000 </r>
       <r>   41.8010    0.0000 </r>
       <r>   41.8010    0.0000 </r>
       <r>   53.3719    0.0000 </r>
       <r>   53.3719    0.0000 </r>
       <r>   60.7730    0.0000 </r>
       <r>   60.7730    0.0000 </r>
       <r>   60.7732    0.0000 </r>
       <r>   60.7732    0.0000 </r>
       <r>   66.2824    0.0000 </r>
       <r>   66.2824    0.0000 </r>
       <r>   71.4197    0.0000 </r>
       <r>   71.4197    0.0000 </r>
       <r>   71.4205    0.0000 </r>
       <r>   71.4205    0.0000 </r>
       <r>   74.0479    0.0000 </r>
       <r>   74.0479    0.0000 </r>
       <r>   74.0491    0.0000 </r>
       <r>   74.0491    0.0000 </r>
       <r>   74.8417    0.0000 </r>
       <r>   74.8417    0.0000 </r>
       <r>   80.1802    0.0000 </r>
       <r>   80.1802    0.0000 </r>
       <r>   82.6148    0.0000 </r>
       <r>   82.6148    0.0000 </r>
       <r>   86.1648    0.0000 </r>
       <r>   86.1649    0.0000 </r>
       <r>   86.1659    0.0000 </r>
       <r>   86.1659    0.0000 </r>
       <r>   87.1135    0.0000 </r>
       <r>   87.1135    0.0000 </r>
       <r>   87.1141    0.0000 </r>
       <r>   87.1141    0.0000 </r>
       <r>   89.6341    0.0000 </r>
       <r>   89.6341    0.0000 </r>
       <r>   91.4121    0.0000 </r>
       <r>   91.4121    0.0000 </r>
       <r>   91.4125    0.0000 </r>
       <r>   91.4125    0.0000 </r>
       <r>   93.1126    0.0000 </r>
       <r>   93.1127    0.0000 </r>
       <r>   93.3769    0.0000 </r>
       <r>   93.3769    0.0000 </r>
       <r>   93.3777    0.0000 </r>
       <r>   93.3777    0.0000 </r>
       <r>   94.3674    0.0000 </r>
       <r>   94.3674    0.0000 </r>
       <r>   97.6813    0.0000 </r>
       <r>   97.6813    0.0000 </r>
       <r>   99.0447    0.0000 </r>
       <r>   99.0447    0.0000 </r>
       <r>   99.0459    0.0000 </r>
       <r>   99.0459    0.0000 </r>
       <r>  101.7759    0.0000 </r>
       <r>  101.7760    0.0000 </r>
       <r>  104.9177    0.0000 </r>
       <r>  104.9177    0.0000 </r>
       <r>  104.9184    0.0000 </r>
       <r>  104.9185    0.0000 </r>
       <r>  105.7106    0.0000 </r>
       <r>  105.7106    0.0000 </r>
       <r>  106.5435    0.0000 </r>
       <r>  106.5435    0.0000 </r>
       <r>  106.5437    0.0000 </r>
       <r>  106.5437    0.0000 </r>
       <r>  108.4525    0.0000 </r>
       <r>  108.4525    0.0000 </r>
       <r>  111.6439    0.0000 </r>
       <r>  111.6439    0.0000 </r>
       <r>  111.6440    0.0000 </r>
       <r>  111.6440    0.0000 </r>
       <r>  112.8066    0.0000 </r>
       <r>  112.8066    0.0000 </r>
       <r>  112.8072    0.0000 </r>
       <r>  112.8072    0.0000 </r>
       <r>  113.8898    0.0000 </r>
       <r>  113.8898    0.0000 </r>
       <r>  115.9984    0.0000 </r>
       <r>  115.9984    0.0000 </r>
       <r>  118.5097    0.0000 </r>
       <r>  118.5097    0.0000 </r>
       <r>  118.8408    0.0000 </r>
       <r>  118.8408    0.0000 </r>
       <r>  118.8420    0.0000 </r>
       <r>  118.8420    0.0000 </r>
       <r>  119.6259    0.0000 </r>
       <r>  119.6259    0.0000 </r>
       <r>  119.6262    0.0000 </r>
       <r>  119.6263    0.0000 </r>
       <r>  131.1836    0.0000 </r>
       <r>  131.1836    0.0000 </r>
       <r>  135.0738    0.0000 </r>
       <r>  135.0738    0.0000 </r>
       <r>  138.1861    0.0000 </r>
       <r>  138.1861    0.0000 </r>
       <r>  138.1864    0.0000 </r>
       <r>  138.1864    0.0000 </r>
       <r>  152.8255    0.0000 </r>
       <r>  152.8255    0.0000 </r>
       <r>  157.9947    0.0000 </r>
       <r>  157.9948    0.0000 </r>
      </set>
      <set comment="kpoint 8">
       <r>  -16.2652    1.0000 </r>
       <r>  -16.2652    1.0000 </r>
       <r>    4.6185    0.0000 </r>
       <r>    4.6185    0.0000 </r>
       <r>   18.3783    0.0000 </r>
       <r>   18.3783    0.0000 </r>
       <r>   18.3786    0.0000 </r>
       <r>   18.3786    0.0000 </r>
       <r>   21.1619    0.0000 </r>
       <r>   21.1619    0.0000 </r>
       <r>   22.6930    0.0000 </r>
       <r>   22.6930    0.0000 </r>
       <r>   23.9437    0.0000 </r>
       <r>   23.9437    0.0000 </r>
       <r>   31.0623    0.0000 </r>
       <r>   31.0623    0.0000 </r>
       <r>   31.0624    0.0000 </r>
       <r>   31.0624    0.0000 </r>
       <r>   33.8634    0.0000 </r>
       <r>   33.8634    0.0000 </r>
       <r>   35.0476    0.0000 </r>
       <r>   35.0476    0.0000 </r>
       <r>   35.9589    0.0000 </r>
       <r>   35.9589    0.0000 </r>
       <r>   35.9597    0.0000 </r>
       <r>   35.9597    0.0000 </r>
       <r>   36.2283    0.0000 </r>
       <r>   36.2283    0.0000 </r>
       <r>   47.5361    0.0000 </r>
       <r>   47.5361    0.0000 </r>
       <r>   52.9278    0.0000 </r>
       <r>   52.9278    0.0000 </r>
       <r>   60.0961    0.0000 </r>
       <r>   60.0961    0.0000 </r>
       <r>   60.0963    0.0000 </r>
       <r>   60.0963    0.0000 </r>
       <r>   62.2123    0.0000 </r>
       <r>   62.2123    0.0000 </r>
       <r>   68.9879    0.0000 </r>
       <r>   68.9879    0.0000 </r>
       <r>   72.7782    0.0000 </r>
       <r>   72.7782    0.0000 </r>
       <r>   72.7789    0.0000 </r>
       <r>   72.7789    0.0000 </r>
       <r>   73.4414    0.0000 </r>
       <r>   73.4414    0.0000 </r>
       <r>   77.7201    0.0000 </r>
       <r>   77.7201    0.0000 </r>
       <r>   82.3475    0.0000 </r>
       <r>   82.3475    0.0000 </r>
       <r>   83.6559    0.0000 </r>
       <r>   83.6559    0.0000 </r>
       <r>   83.6562    0.0000 </r>
       <r>   83.6562    0.0000 </r>
       <r>   84.6282    0.0000 </r>
       <r>   84.6282    0.0000 </r>
       <r>   86.2783    0.0000 </r>
       <r>   86.2783    0.0000 </r>
       <r>   86.2787    0.0000 </r>
       <r>   86.2787    0.0000 </r>
       <r>   88.0702    0.0000 </r>
       <r>   88.0702    0.0000 </r>
       <r>   91.0496    0.0000 </r>
       <r>   91.0496    0.0000 </r>
       <r>   92.9214    0.0000 </r>
       <r>   92.9214    0.0000 </r>
       <r>   92.9221    0.0000 </r>
       <r>   92.9221    0.0000 </r>
       <r>   96.3101    0.0000 </r>
       <r>   96.3101    0.0000 </r>
       <r>   96.7398    0.0000 </r>
       <r>   96.7398    0.0000 </r>
       <r>   97.1319    0.0000 </r>
       <r>   97.1319    0.0000 </r>
       <r>   97.1325    0.0000 </r>
       <r>   97.1325    0.0000 </r>
       <r>   98.4610    0.0000 </r>
       <r>   98.4611    0.0000 </r>
       <r>   99.4213    0.0000 </r>
       <r>   99.4213    0.0000 </r>
       <r>   99.7087    0.0000 </r>
       <r>   99.7087    0.0000 </r>
       <r>   99.8201    0.0000 </r>
       <r>   99.8201    0.0000 </r>
       <r>   99.8211    0.0000 </r>
       <r>   99.8211    0.0000 </r>
       <r>  104.2736    0.0000 </r>
       <r>  104.2736    0.0000 </r>
       <r>  107.7859    0.0000 </r>
       <r>  107.7859    0.0000 </r>
       <r>  107.7861    0.0000 </r>
       <r>  107.7861    0.0000 </r>
       <r>  109.0225    0.0000 </r>
       <r>  109.0225    0.0000 </r>
       <r>  109.6600    0.0000 </r>
       <r>  109.6600    0.0000 </r>
       <r>  110.0830    0.0000 </r>
       <r>  110.0830    0.0000 </r>
       <r>  110.0836    0.0000 </r>
       <r>  110.0836    0.0000 </r>
       <r>  111.3420    0.0000 </r>
       <r>  111.3421    0.0000 </r>
       <r>  117.9527    0.0000 </r>
       <r>  117.9527    0.0000 </r>
       <r>  122.7222    0.0000 </r>
       <r>  122.7222    0.0000 </r>
       <r>  122.7503    0.0000 </r>
       <r>  122.7503    0.0000 </r>
       <r>  122.7512    0.0000 </r>
       <r>  122.7512    0.0000 </r>
       <r>  124.4095    0.0000 </r>
       <r>  124.4095    0.0000 </r>
       <r>  125.0529    0.0000 </r>
       <r>  125.0529    0.0000 </r>
       <r>  125.2170    0.0000 </r>
       <r>  125.2170    0.0000 </r>
       <r>  125.5966    0.0000 </r>
       <r>  125.5966    0.0000 </r>
       <r>  125.5968    0.0000 </r>
       <r>  125.5968    0.0000 </r>
       <r>  147.3106    0.0000 </r>
       <r>  147.3106    0.0000 </r>
       <r>  149.3595    0.0000 </r>
       <r>  149.3595    0.0000 </r>
       <r>  149.3600    0.0000 </r>
       <r>  149.3601    0.0000 </r>
       <r>  153.0280    0.0000 </r>
       <r>  153.0280    0.0000 </r>
      </set>
      <set comment="kpoint 9">
       <r>  -15.9093    1.0000 </r>
       <r>  -15.9093    1.0000 </r>
       <r>    4.5779    0.0000 </r>
       <r>    4.5779    0.0000 </r>
       <r>   13.8672    0.0000 </r>
       <r>   13.8672    0.0000 </r>
       <r>   17.1413    0.0000 </r>
       <r>   17.1413    0.0000 </r>
       <r>   19.2746    0.0000 </r>
       <r>   19.2746    0.0000 </r>
       <r>   22.8072    0.0000 </r>
       <r>   22.8072    0.0000 </r>
       <r>   24.6511    0.0000 </r>
       <r>   24.6511    0.0000 </r>
       <r>   30.4720    0.0000 </r>
       <r>   30.4720    0.0000 </r>
       <r>   32.3045    0.0000 </r>
       <r>   32.3045    0.0000 </r>
       <r>   34.3883    0.0000 </r>
       <r>   34.3883    0.0000 </r>
       <r>   37.3990    0.0000 </r>
       <r>   37.3990    0.0000 </r>
       <r>   40.8278    0.0000 </r>
       <r>   40.8278    0.0000 </r>
       <r>   44.0327    0.0000 </r>
       <r>   44.0327    0.0000 </r>
       <r>   44.8030    0.0000 </r>
       <r>   44.8030    0.0000 </r>
       <r>   45.9351    0.0000 </r>
       <r>   45.9351    0.0000 </r>
       <r>   50.1508    0.0000 </r>
       <r>   50.1508    0.0000 </r>
       <r>   55.6078    0.0000 </r>
       <r>   55.6078    0.0000 </r>
       <r>   58.5402    0.0000 </r>
       <r>   58.5402    0.0000 </r>
       <r>   61.6270    0.0000 </r>
       <r>   61.6270    0.0000 </r>
       <r>   63.0853    0.0000 </r>
       <r>   63.0853    0.0000 </r>
       <r>   67.2636    0.0000 </r>
       <r>   67.2636    0.0000 </r>
       <r>   72.1700    0.0000 </r>
       <r>   72.1700    0.0000 </r>
       <r>   74.2560    0.0000 </r>
       <r>   74.2560    0.0000 </r>
       <r>   75.0882    0.0000 </r>
[...]
       <r>   111.0457     0.0000     0.0000 </r>
       <r>   111.6857     0.0000     0.0000 </r>
       <r>   112.3257     0.0000     0.0000 </r>
       <r>   112.9656     0.0000     0.0000 </r>
       <r>   113.6056     0.0000     0.0000 </r>
       <r>   114.2455     0.0000     0.0000 </r>
       <r>   114.8855     0.0000     0.0000 </r>
       <r>   115.5254     0.0000     0.0000 </r>
       <r>   116.1654     0.0000     0.0000 </r>
       <r>   116.8053     0.0000     0.0000 </r>
       <r>   117.4453     0.0000     0.0000 </r>
       <r>   118.0852     0.0000     0.0000 </r>
       <r>   118.7252     0.0000     0.0000 </r>
       <r>   119.3651     0.0000     0.0000 </r>
       <r>   120.0051     0.0000     0.0000 </r>
       <r>   120.6450     0.0000     0.0000 </r>
       <r>   121.2850     0.0000     0.0000 </r>
       <r>   121.9249     0.0000     0.0000 </r>
       <r>   122.5649     0.0000     0.0000 </r>
       <r>   123.2048     0.0000     0.0000 </r>
       <r>   123.8448     0.0000     0.0000 </r>
       <r>   124.4847     0.0000     0.0000 </r>
       <r>   125.1247     0.0000     0.0000 </r>
       <r>   125.7646     0.0000     0.0000 </r>
       <r>   126.4046     0.0000     0.0000 </r>
       <r>   127.0445     0.0000     0.0000 </r>
       <r>   127.6845     0.0000     0.0000 </r>
       <r>   128.3244     0.0000     0.0000 </r>
       <r>   128.9644     0.0000     0.0000 </r>
       <r>   129.6043     0.0000     0.0000 </r>
       <r>   130.2443     0.0000     0.0000 </r>
       <r>   130.8842     0.0000     0.0000 </r>
       <r>   131.5242     0.0000     0.0000 </r>
       <r>   132.1641     0.0000     0.0000 </r>
       <r>   132.8041     0.0000     0.0000 </r>
       <r>   133.4440     0.0000     0.0000 </r>
       <r>   134.0840     0.0000     0.0000 </r>
       <r>   134.7239     0.0000     0.0000 </r>
       <r>   135.3639     0.0000     0.0000 </r>
       <r>   136.0038     0.0000     0.0000 </r>
       <r>   136.6438     0.0000     0.0000 </r>
       <r>   137.2837     0.0000     0.0000 </r>
       <r>   137.9237     0.0000     0.0000 </r>
       <r>   138.5637     0.0000     0.0000 </r>
       <r>   139.2036     0.0000     0.0000 </r>
       <r>   139.8436     0.0000     0.0000 </r>
       <r>   140.4835     0.0000     0.0000 </r>
       <r>   141.1235     0.0000     0.0000 </r>
       <r>   141.7634     0.0000     0.0000 </r>
       <r>   142.4034     0.0000     0.0000 </r>
       <r>   143.0433     0.0000     0.0000 </r>
       <r>   143.6833     0.0000     0.0000 </r>
       <r>   144.3232     0.0000     0.0000 </r>
       <r>   144.9632     0.0000     0.0000 </r>
       <r>   145.6031     0.0000     0.0000 </r>
       <r>   146.2431     0.0000     0.0000 </r>
       <r>   146.8830     0.0000     0.0000 </r>
       <r>   147.5230     0.0000     0.0000 </r>
       <r>   148.1629     0.0000     0.0000 </r>
       <r>   148.8029     0.0000     0.0000 </r>
       <r>   149.4428     0.0000     0.0000 </r>
       <r>   150.0828     0.0000     0.0000 </r>
       <r>   150.7227     0.0000     0.0000 </r>
       <r>   151.3627     0.0000     0.0000 </r>
       <r>   152.0026     0.0000     0.0000 </r>
       <r>   152.6426     0.0000     0.0000 </r>
       <r>   153.2825     0.0000     0.0000 </r>
       <r>   153.9225     0.0000     0.0000 </r>
       <r>   154.5624     0.0000     0.0000 </r>
       <r>   155.2024     0.0000     0.0000 </r>
       <r>   155.8423     0.0000     0.0000 </r>
       <r>   156.4823     0.0000     0.0000 </r>
       <r>   157.1222     0.0000     0.0000 </r>
       <r>   157.7622     0.0000     0.0000 </r>
       <r>   158.4021     0.0000     0.0000 </r>
       <r>   159.0421     0.0000     0.0000 </r>
       <r>   159.6820     0.0000     0.0000 </r>
       <r>   160.3220     0.0000     0.0000 </r>
       <r>   160.9619     0.0000     0.0000 </r>
       <r>   161.6019     0.0000     0.0000 </r>
       <r>   162.2418     0.0000     0.0000 </r>
       <r>   162.8818     0.0000     0.0000 </r>
       <r>   163.5217     0.0000     0.0000 </r>
       <r>   164.1617     0.0000     0.0000 </r>
       <r>   164.8017     0.0000     0.0000 </r>
       <r>   165.4416     0.0000     0.0000 </r>
       <r>   166.0816     0.0000     0.0000 </r>
       <r>   166.7215     0.0000     0.0000 </r>
      </set>
      <set comment="spin 4">
       <r>   -25.2639     0.0000     0.0000 </r>
       <r>   -24.6239     0.0000     0.0000 </r>
       <r>   -23.9840     0.0000     0.0000 </r>
       <r>   -23.3440     0.0000     0.0000 </r>
       <r>   -22.7041     0.0000     0.0000 </r>
       <r>   -22.0641     0.0000     0.0000 </r>
       <r>   -21.4242     0.0000     0.0000 </r>
       <r>   -20.7842     0.0000     0.0000 </r>
       <r>   -20.1443     0.0000     0.0000 </r>
       <r>   -19.5043     0.0000     0.0000 </r>
       <r>   -18.8643     0.0000     0.0000 </r>
       <r>   -18.2244     0.0000     0.0000 </r>
       <r>   -17.5844     0.0000     0.0000 </r>
       <r>   -16.9445     0.0000     0.0000 </r>
       <r>   -16.3045     0.0000     0.0000 </r>
       <r>   -15.6646     0.0000     0.0000 </r>
       <r>   -15.0246     0.0000     0.0000 </r>
       <r>   -14.3847     0.0000     0.0000 </r>
       <r>   -13.7447     0.0000     0.0000 </r>
       <r>   -13.1048     0.0000     0.0000 </r>
       <r>   -12.4648     0.0000     0.0000 </r>
       <r>   -11.8249     0.0000     0.0000 </r>
       <r>   -11.1849     0.0000     0.0000 </r>
       <r>   -10.5450     0.0000     0.0000 </r>
       <r>    -9.9050     0.0000     0.0000 </r>
       <r>    -9.2651     0.0000     0.0000 </r>
       <r>    -8.6251     0.0000     0.0000 </r>
       <r>    -7.9852     0.0000     0.0000 </r>
       <r>    -7.3452     0.0000     0.0000 </r>
       <r>    -6.7053     0.0000     0.0000 </r>
       <r>    -6.0653     0.0000     0.0000 </r>
       <r>    -5.4254     0.0000     0.0000 </r>
       <r>    -4.7854     0.0000     0.0000 </r>
       <r>    -4.1455     0.0000     0.0000 </r>
       <r>    -3.5055     0.0000     0.0000 </r>
       <r>    -2.8656     0.0000     0.0000 </r>
       <r>    -2.2256     0.0000     0.0000 </r>
       <r>    -1.5857     0.0000     0.0000 </r>
       <r>    -0.9457     0.0000     0.0000 </r>
       <r>    -0.3058     0.0000     0.0000 </r>
       <r>     0.3342     0.0000     0.0000 </r>
       <r>     0.9741     0.0000     0.0000 </r>
       <r>     1.6141     0.0000     0.0000 </r>
       <r>     2.2540     0.0000     0.0000 </r>
       <r>     2.8940     0.0000     0.0000 </r>
       <r>     3.5339     0.0000     0.0000 </r>
       <r>     4.1739     0.0000     0.0000 </r>
       <r>     4.8138     0.0000     0.0000 </r>
       <r>     5.4538     0.0000     0.0000 </r>
       <r>     6.0937     0.0000     0.0000 </r>
       <r>     6.7337     0.0000     0.0000 </r>
       <r>     7.3737     0.0000     0.0000 </r>
       <r>     8.0136     0.0000     0.0000 </r>
       <r>     8.6536     0.0000     0.0000 </r>
       <r>     9.2935     0.0000     0.0000 </r>
       <r>     9.9335     0.0000     0.0000 </r>
       <r>    10.5734     0.0000     0.0000 </r>
       <r>    11.2134     0.0000     0.0000 </r>
       <r>    11.8533     0.0000     0.0000 </r>
       <r>    12.4933     0.0000     0.0000 </r>
       <r>    13.1332     0.0000     0.0000 </r>
       <r>    13.7732     0.0000     0.0000 </r>
       <r>    14.4131     0.0000     0.0000 </r>
       <r>    15.0531     0.0000     0.0000 </r>
       <r>    15.6930     0.0000     0.0000 </r>
       <r>    16.3330     0.0000     0.0000 </r>
       <r>    16.9729     0.0000     0.0000 </r>
       <r>    17.6129     0.0000     0.0000 </r>
       <r>    18.2528     0.0000     0.0000 </r>
       <r>    18.8928     0.0000     0.0000 </r>
       <r>    19.5327     0.0000     0.0000 </r>
       <r>    20.1727     0.0000     0.0000 </r>
       <r>    20.8126     0.0000     0.0000 </r>
       <r>    21.4526     0.0000     0.0000 </r>
       <r>    22.0925     0.0000     0.0000 </r>
       <r>    22.7325     0.0000     0.0000 </r>
       <r>    23.3724     0.0000     0.0000 </r>
       <r>    24.0124     0.0000     0.0000 </r>
       <r>    24.6523     0.0000     0.0000 </r>
       <r>    25.2923     0.0000     0.0000 </r>
       <r>    25.9322     0.0000     0.0000 </r>
       <r>    26.5722     0.0000     0.0000 </r>
       <r>    27.2121     0.0000     0.0000 </r>
       <r>    27.8521     0.0000     0.0000 </r>
       <r>    28.4920     0.0000     0.0000 </r>
       <r>    29.1320     0.0000     0.0000 </r>
       <r>    29.7719     0.0000     0.0000 </r>
       <r>    30.4119     0.0000     0.0000 </r>
       <r>    31.0518     0.0000     0.0000 </r>
       <r>    31.6918     0.0000     0.0000 </r>
       <r>    32.3317     0.0000     0.0000 </r>
       <r>    32.9717     0.0000     0.0000 </r>
       <r>    33.6117     0.0000     0.0000 </r>
       <r>    34.2516     0.0000     0.0000 </r>
       <r>    34.8916     0.0000     0.0000 </r>
       <r>    35.5315     0.0000     0.0000 </r>
       <r>    36.1715     0.0000     0.0000 </r>
       <r>    36.8114     0.0000     0.0000 </r>
       <r>    37.4514     0.0000     0.0000 </r>
       <r>    38.0913     0.0000     0.0000 </r>
       <r>    38.7313     0.0000     0.0000 </r>
       <r>    39.3712     0.0000     0.0000 </r>
       <r>    40.0112     0.0000     0.0000 </r>
       <r>    40.6511     0.0000     0.0000 </r>
       <r>    41.2911     0.0000     0.0000 </r>
       <r>    41.9310     0.0000     0.0000 </r>
       <r>    42.5710     0.0000     0.0000 </r>
       <r>    43.2109     0.0000     0.0000 </r>
       <r>    43.8509     0.0000     0.0000 </r>
       <r>    44.4908     0.0000     0.0000 </r>
       <r>    45.1308     0.0000     0.0000 </r>
       <r>    45.7707     0.0000     0.0000 </r>
       <r>    46.4107     0.0000     0.0000 </r>
       <r>    47.0506     0.0000     0.0000 </r>
       <r>    47.6906     0.0000     0.0000 </r>
       <r>    48.3305     0.0000     0.0000 </r>
       <r>    48.9705     0.0000     0.0000 </r>
       <r>    49.6104     0.0000     0.0000 </r>
       <r>    50.2504     0.0000     0.0000 </r>
       <r>    50.8903     0.0000     0.0000 </r>
       <r>    51.5303     0.0000     0.0000 </r>
       <r>    52.1702     0.0000     0.0000 </r>
       <r>    52.8102     0.0000     0.0000 </r>
       <r>    53.4501     0.0000     0.0000 </r>
       <r>    54.0901     0.0000     0.0000 </r>
       <r>    54.7300     0.0000     0.0000 </r>
       <r>    55.3700     0.0000     0.0000 </r>
       <r>    56.0099     0.0000     0.0000 </r>
       <r>    56.6499     0.0000     0.0000 </r>
       <r>    57.2898     0.0000     0.0000 </r>
       <r>    57.9298     0.0000     0.0000 </r>
       <r>    58.5697     0.0000     0.0000 </r>
       <r>    59.2097     0.0000     0.0000 </r>
       <r>    59.8497     0.0000     0.0000 </r>
       <r>    60.4896     0.0000     0.0000 </r>
       <r>    61.1296     0.0000     0.0000 </r>
       <r>    61.7695     0.0000     0.0000 </r>
       <r>    62.4095     0.0000     0.0000 </r>
       <r>    63.0494     0.0000     0.0000 </r>
       <r>    63.6894     0.0000     0.0000 </r>
       <r>    64.3293     0.0000     0.0000 </r>
       <r>    64.9693     0.0000     0.0000 </r>
       <r>    65.6092     0.0000     0.0000 </r>
       <r>    66.2492     0.0000     0.0000 </r>
       <r>    66.8891     0.0000     0.0000 </r>
       <r>    67.5291     0.0000     0.0000 </r>
       <r>    68.1690     0.0000     0.0000 </r>
       <r>    68.8090     0.0000     0.0000 </r>
       <r>    69.4489     0.0000     0.0000 </r>
       <r>    70.0889     0.0000     0.0000 </r>
       <r>    70.7288     0.0000     0.0000 </r>
       <r>    71.3688     0.0000     0.0000 </r>
       <r>    72.0087     0.0000     0.0000 </r>
       <r>    72.6487     0.0000     0.0000 </r>
       <r>    73.2886     0.0000     0.0000 </r>
       <r>    73.9286     0.0000     0.0000 </r>
       <r>    74.5685     0.0000     0.0000 </r>
       <r>    75.2085     0.0000     0.0000 </r>
       <r>    75.8484     0.0000     0.0000 </r>
       <r>    76.4884     0.0000     0.0000 </r>
       <r>    77.1283     0.0000     0.0000 </r>
       <r>    77.7683     0.0000     0.0000 </r>
       <r>    78.4082     0.0000     0.0000 </r>
       <r>    79.0482     0.0000     0.0000 </r>
       <r>    79.6881     0.0000     0.0000 </r>
       <r>    80.3281     0.0000     0.0000 </r>
       <r>    80.9680     0.0000     0.0000 </r>
       <r>    81.6080     0.0000     0.0000 </r>
       <r>    82.2479     0.0000     0.0000 </r>
       <r>    82.8879     0.0000     0.0000 </r>
       <r>    83.5278     0.0000     0.0000 </r>
       <r>    84.1678     0.0000     0.0000 </r>
       <r>    84.8077     0.0000     0.0000 </r>
       <r>    85.4477     0.0000     0.0000 </r>
       <r>    86.0877     0.0000     0.0000 </r>
       <r>    86.7276     0.0000     0.0000 </r>
       <r>    87.3676     0.0000     0.0000 </r>
       <r>    88.0075     0.0000     0.0000 </r>
       <r>    88.6475     0.0000     0.0000 </r>
       <r>    89.2874     0.0000     0.0000 </r>
       <r>    89.9274     0.0000     0.0000 </r>
       <r>    90.5673     0.0000     0.0000 </r>
       <r>    91.2073     0.0000     0.0000 </r>
       <r>    91.8472     0.0000     0.0000 </r>
       <r>    92.4872     0.0000     0.0000 </r>
       <r>    93.1271     0.0000     0.0000 </r>
       <r>    93.7671     0.0000     0.0000 </r>
       <r>    94.4070     0.0000     0.0000 </r>
       <r>    95.0470     0.0000     0.0000 </r>
       <r>    95.6869     0.0000     0.0000 </r>
       <r>    96.3269     0.0000     0.0000 </r>
       <r>    96.9668     0.0000     0.0000 </r>
       <r>    97.6068     0.0000     0.0000 </r>
       <r>    98.2467     0.0000     0.0000 </r>
       <r>    98.8867     0.0000     0.0000 </r>
       <r>    99.5266     0.0000     0.0000 </r>
       <r>   100.1666     0.0000     0.0000 </r>
       <r>   100.8065     0.0000     0.0000 </r>
       <r>   101.4465     0.0000     0.0000 </r>
       <r>   102.0864     0.0000     0.0000 </r>
       <r>   102.7264     0.0000     0.0000 </r>
       <r>   103.3663     0.0000     0.0000 </r>
       <r>   104.0063     0.0000     0.0000 </r>
       <r>   104.6462     0.0000     0.0000 </r>
       <r>   105.2862     0.0000     0.0000 </r>
       <r>   105.9261     0.0000     0.0000 </r>
       <r>   106.5661     0.0000     0.0000 </r>
       <r>   107.2060     0.0000     0.0000 </r>
       <r>   107.8460     0.0000     0.0000 </r>
       <r>   108.4859     0.0000     0.0000 </r>
       <r>   109.1259     0.0000     0.0000 </r>
       <r>   109.7658     0.0000     0.0000 </r>
       <r>   110.4058     0.0000     0.0000 </r>
       <r>   111.0457     0.0000     0.0000 </r>
       <r>   111.6857     0.0000     0.0000 </r>
       <r>   112.3257     0.0000     0.0000 </r>
       <r>   112.9656     0.0000     0.0000 </r>
       <r>   113.6056     0.0000     0.0000 </r>
       <r>   114.2455     0.0000     0.0000 </r>
       <r>   114.8855     0.0000     0.0000 </r>
       <r>   115.5254     0.0000     0.0000 </r>
       <r>   116.1654     0.0000     0.0000 </r>
       <r>   116.8053     0.0000     0.0000 </r>
       <r>   117.4453     0.0000     0.0000 </r>
       <r>   118.0852     0.0000     0.0000 </r>
       <r>   118.7252     0.0000     0.0000 </r>
       <r>   119.3651     0.0000     0.0000 </r>
       <r>   120.0051     0.0000     0.0000 </r>
       <r>   120.6450     0.0000     0.0000 </r>
       <r>   121.2850     0.0000     0.0000 </r>
       <r>   121.9249     0.0000     0.0000 </r>
       <r>   122.5649     0.0000     0.0000 </r>
       <r>   123.2048     0.0000     0.0000 </r>
       <r>   123.8448     0.0000     0.0000 </r>
       <r>   124.4847     0.0000     0.0000 </r>
       <r>   125.1247     0.0000     0.0000 </r>
       <r>   125.7646     0.0000     0.0000 </r>
       <r>   126.4046     0.0000     0.0000 </r>
       <r>   127.0445     0.0000     0.0000 </r>
       <r>   127.6845     0.0000     0.0000 </r>
       <r>   128.3244     0.0000     0.0000 </r>
       <r>   128.9644     0.0000     0.0000 </r>
       <r>   129.6043     0.0000     0.0000 </r>
       <r>   130.2443     0.0000     0.0000 </r>
       <r>   130.8842     0.0000     0.0000 </r>
       <r>   131.5242     0.0000     0.0000 </r>
       <r>   132.1641     0.0000     0.0000 </r>
       <r>   132.8041     0.0000     0.0000 </r>
       <r>   133.4440     0.0000     0.0000 </r>
       <r>   134.0840     0.0000     0.0000 </r>
       <r>   134.7239     0.0000     0.0000 </r>
       <r>   135.3639     0.0000     0.0000 </r>
       <r>   136.0038     0.0000     0.0000 </r>
       <r>   136.6438     0.0000     0.0000 </r>
       <r>   137.2837     0.0000     0.0000 </r>
       <r>   137.9237     0.0000     0.0000 </r>
       <r>   138.5637     0.0000     0.0000 </r>
       <r>   139.2036     0.0000     0.0000 </r>
       <r>   139.8436     0.0000     0.0000 </r>
       <r>   140.4835     0.0000     0.0000 </r>
       <r>   141.1235     0.0000     0.0000 </r>
       <r>   141.7634     0.0000     0.0000 </r>
       <r>   142.4034     0.0000     0.0000 </r>
       <r>   143.0433     0.0000     0.0000 </r>
       <r>   143.6833     0.0000     0.0000 </r>
       <r>   144.3232     0.0000     0.0000 </r>
       <r>   144.9632     0.0000     0.0000 </r>
       <r>   145.6031     0.0000     0.0000 </r>
       <r>   146.2431     0.0000     0.0000 </r>
       <r>   146.8830     0.0000     0.0000 </r>
       <r>   147.5230     0.0000     0.0000 </r>
       <r>   148.1629     0.0000     0.0000 </r>
       <r>   148.8029     0.0000     0.0000 </r>
       <r>   149.4428     0.0000     0.0000 </r>
       <r>   150.0828     0.0000     0.0000 </r>
       <r>   150.7227     0.0000     0.0000 </r>
       <r>   151.3627     0.0000     0.0000 </r>
       <r>   152.0026     0.0000     0.0000 </r>
       <r>   152.6426     0.0000     0.0000 </r>
       <r>   153.2825     0.0000     0.0000 </r>
       <r>   153.9225     0.0000     0.0000 </r>
       <r>   154.5624     0.0000     0.0000 </r>
       <r>   155.2024     0.0000     0.0000 </r>
       <r>   155.8423     0.0000     0.0000 </r>
       <r>   156.4823     0.0000     0.0000 </r>
       <r>   157.1222     0.0000     0.0000 </r>
       <r>   157.7622     0.0000     0.0000 </r>
       <r>   158.4021     0.0000     0.0000 </r>
       <r>   159.0421     0.0000     0.0000 </r>
       <r>   159.6820     0.0000     0.0000 </r>
       <r>   160.3220     0.0000     0.0000 </r>
       <r>   160.9619     0.0000     0.0000 </r>
       <r>   161.6019     0.0000     0.0000 </r>
       <r>   162.2418     0.0000     0.0000 </r>
       <r>   162.8818     0.0000     0.0000 </r>
       <r>   163.5217     0.0000     0.0000 </r>
       <r>   164.1617     0.0000     0.0000 </r>
       <r>   164.8017     0.0000     0.0000 </r>
       <r>   165.4416     0.0000     0.0000 </r>
       <r>   166.0816     0.0000     0.0000 </r>
       <r>   166.7215     0.0000     0.0000 </r>
      </set>
     </set>
    </array>
   </total>
  </dos>
 </calculation>
 <structure name="finalpos" >
  <crystal>
   <varray name="basis" >
    <v>       2.84511503       0.00000000       0.00000000 </v>
    <v>       1.42255751       2.46394189       0.00000000 </v>
    <v>       1.42255751       0.82131396       2.32302669 </v>
   </varray>
   <i name="volume">     16.28487729 </i>
   <varray name="rec_basis" >
    <v>       0.35147964      -0.20292686      -0.14349096 </v>
    <v>       0.00000000       0.40585373      -0.14349096 </v>
    <v>       0.00000000       0.00000000       0.43047288 </v>
   </varray>
  </crystal>
  <varray name="positions" >
   <v>       0.00000000       0.00000000       0.00000000 </v>
  </varray>
  <varray name="velocities" >
   <v>       0.00000000       0.00000000       0.00000000 </v>
  </varray>
 </structure>
</modeling>
