   1   1   0   0
  0.6156630E+02  0.4432200E-09  0.4432200E-09  0.4432200E-09  0.1000000E-15
  1.000000000000000E-004
  CAR 
 Og_FCC                                  
     11.88783847    -17.67487582  301     -3.95284927      1.00000000
    -17.675  0.0000E+00  0.0000E+00
    -17.576  0.0000E+00  0.0000E+00
    -17.478  0.0000E+00  0.0000E+00
    -17.379  0.0000E+00  0.0000E+00
    -17.281  0.0000E+00  0.0000E+00
    -17.182  0.0000E+00  0.0000E+00
    -17.084  0.0000E+00  0.0000E+00
    -16.985  0.0000E+00  0.0000E+00
    -16.887  0.0000E+00  0.0000E+00
    -16.788  0.0000E+00  0.0000E+00
    -16.689  0.0000E+00  0.0000E+00
    -16.591  0.0000E+00  0.0000E+00
    -16.492  0.0000E+00  0.0000E+00
    -16.394  0.0000E+00  0.0000E+00
    -16.295  0.0000E+00  0.9259E-02
    -16.197  0.8735E-07  0.2500E+00
    -16.098  0.9912E+00  0.1403E+01
    -16.000  0.0000E+00  0.2000E+01
    -15.901  0.0000E+00  0.2000E+01
    -15.803  0.0000E+00  0.2000E+01
    -15.704  0.0000E+00  0.2000E+01
    -15.605  0.0000E+00  0.2000E+01
    -15.507  0.0000E+00  0.2000E+01
    -15.408  0.0000E+00  0.2000E+01
    -15.310  0.0000E+00  0.2000E+01
    -15.211  0.0000E+00  0.2000E+01
    -15.113  0.0000E+00  0.2000E+01
    -15.014  0.0000E+00  0.2000E+01
    -14.916  0.0000E+00  0.2000E+01
    -14.817  0.0000E+00  0.2000E+01
    -14.719  0.0000E+00  0.2000E+01
    -14.620  0.0000E+00  0.2000E+01
    -14.522  0.0000E+00  0.2000E+01
    -14.423  0.0000E+00  0.2000E+01
    -14.324  0.0000E+00  0.2000E+01
    -14.226  0.0000E+00  0.2000E+01
    -14.127  0.0000E+00  0.2000E+01
    -14.029  0.0000E+00  0.2000E+01
    -13.930  0.0000E+00  0.2000E+01
    -13.832  0.0000E+00  0.2000E+01
    -13.733  0.0000E+00  0.2000E+01
    -13.635  0.0000E+00  0.2000E+01
    -13.536  0.0000E+00  0.2000E+01
    -13.438  0.0000E+00  0.2000E+01
    -13.339  0.0000E+00  0.2000E+01
    -13.240  0.0000E+00  0.2000E+01
    -13.142  0.0000E+00  0.2000E+01
    -13.043  0.0000E+00  0.2000E+01
    -12.945  0.0000E+00  0.2000E+01
    -12.846  0.0000E+00  0.2000E+01
    -12.748  0.0000E+00  0.2000E+01
    -12.649  0.0000E+00  0.2000E+01
    -12.551  0.0000E+00  0.2000E+01
    -12.452  0.0000E+00  0.2000E+01
    -12.354  0.0000E+00  0.2000E+01
    -12.255  0.0000E+00  0.2000E+01
    -12.157  0.0000E+00  0.2000E+01
    -12.058  0.0000E+00  0.2000E+01
    -11.959  0.0000E+00  0.2000E+01
    -11.861  0.0000E+00  0.2000E+01
    -11.762  0.0000E+00  0.2000E+01
    -11.664  0.0000E+00  0.2000E+01
    -11.565  0.0000E+00  0.2000E+01
    -11.467  0.0000E+00  0.2000E+01
    -11.368  0.0000E+00  0.2000E+01
    -11.270  0.0000E+00  0.2000E+01
    -11.171  0.0000E+00  0.2000E+01
    -11.073  0.0000E+00  0.2000E+01
    -10.974  0.0000E+00  0.2000E+01
    -10.875  0.0000E+00  0.2000E+01
    -10.777  0.0000E+00  0.2000E+01
    -10.678  0.0000E+00  0.2000E+01
    -10.580  0.0000E+00  0.2000E+01
    -10.481  0.0000E+00  0.2000E+01
    -10.383  0.0000E+00  0.2000E+01
    -10.284  0.0000E+00  0.2000E+01
    -10.186  0.0000E+00  0.2000E+01
    -10.087  0.0000E+00  0.2000E+01
     -9.989  0.0000E+00  0.2000E+01
     -9.890  0.0000E+00  0.2000E+01
     -9.791  0.0000E+00  0.2000E+01
     -9.693  0.0000E+00  0.2000E+01
     -9.594  0.0000E+00  0.2000E+01
     -9.496  0.0000E+00  0.2000E+01
     -9.397  0.0000E+00  0.2000E+01
     -9.299  0.0000E+00  0.2000E+01
     -9.200  0.0000E+00  0.2000E+01
     -9.102  0.0000E+00  0.2000E+01
     -9.003  0.0000E+00  0.2000E+01
     -8.905  0.0000E+00  0.2000E+01
     -8.806  0.0000E+00  0.2000E+01
     -8.708  0.0000E+00  0.2000E+01
     -8.609  0.0000E+00  0.2000E+01
     -8.510  0.0000E+00  0.2000E+01
     -8.412  0.0000E+00  0.2000E+01
     -8.313  0.0000E+00  0.2000E+01
     -8.215  0.0000E+00  0.2000E+01
     -8.116  0.0000E+00  0.2000E+01
     -8.018  0.0000E+00  0.2000E+01
     -7.919  0.0000E+00  0.2000E+01
     -7.821  0.0000E+00  0.2000E+01
     -7.722  0.0000E+00  0.2000E+01
     -7.624  0.0000E+00  0.2000E+01
     -7.525  0.0000E+00  0.2000E+01
     -7.426  0.0000E+00  0.2000E+01
     -7.328  0.0000E+00  0.2000E+01
     -7.229  0.0000E+00  0.2000E+01
     -7.131  0.0000E+00  0.2000E+01
     -7.032  0.0000E+00  0.2000E+01
     -6.934  0.0000E+00  0.2000E+01
     -6.835  0.0000E+00  0.2000E+01
     -6.737  0.0000E+00  0.2000E+01
     -6.638  0.0000E+00  0.2000E+01
     -6.540  0.0000E+00  0.2000E+01
     -6.441  0.0000E+00  0.2000E+01
     -6.343  0.0000E+00  0.2000E+01
     -6.244  0.0000E+00  0.2000E+01
     -6.145  0.0000E+00  0.2000E+01
     -6.047  0.0000E+00  0.2000E+01
     -5.948  0.0000E+00  0.2000E+01
     -5.850  0.0000E+00  0.2000E+01
     -5.751  0.0000E+00  0.2000E+01
     -5.653  0.0000E+00  0.2000E+01
     -5.554  0.0000E+00  0.2000E+01
     -5.456  0.0000E+00  0.2037E+01
     -5.357  0.2255E+01  0.2287E+01
     -5.259  0.4392E+01  0.2720E+01
     -5.160  0.0000E+00  0.3139E+01
     -5.061  0.0000E+00  0.3417E+01
     -4.963  0.0000E+00  0.3861E+01
     -4.864  0.0000E+00  0.3861E+01
     -4.766  0.0000E+00  0.4306E+01
     -4.667  0.8914E-09  0.4306E+01
     -4.569  0.0000E+00  0.4861E+01
     -4.470  0.0000E+00  0.5139E+01
     -4.372  0.0000E+00  0.6046E+01
     -4.273  0.5570E-03  0.6935E+01
     -4.175  0.0000E+00  0.7454E+01
     -4.076  0.0000E+00  0.7824E+01
     -3.977  0.0000E+00  0.8000E+01
     -3.879  0.0000E+00  0.8000E+01
     -3.780  0.0000E+00  0.8000E+01
     -3.682  0.0000E+00  0.8000E+01
     -3.583  0.0000E+00  0.8000E+01
     -3.485  0.0000E+00  0.8000E+01
     -3.386  0.0000E+00  0.8000E+01
     -3.288  0.0000E+00  0.8000E+01
     -3.189  0.0000E+00  0.8000E+01
     -3.091  0.0000E+00  0.8000E+01
     -2.992  0.0000E+00  0.8000E+01
     -2.894  0.0000E+00  0.8000E+01
     -2.795  0.0000E+00  0.8000E+01
     -2.696  0.0000E+00  0.8000E+01
     -2.598  0.0000E+00  0.8000E+01
     -2.499  0.0000E+00  0.8000E+01
     -2.401  0.0000E+00  0.8000E+01
     -2.302  0.0000E+00  0.8000E+01
     -2.204  0.0000E+00  0.8000E+01
     -2.105  0.0000E+00  0.8000E+01
     -2.007  0.0000E+00  0.8000E+01
     -1.908  0.0000E+00  0.8000E+01
     -1.810  0.0000E+00  0.8000E+01
     -1.711  0.0000E+00  0.8000E+01
     -1.612  0.0000E+00  0.8000E+01
     -1.514  0.0000E+00  0.8000E+01
     -1.415  0.0000E+00  0.8000E+01
     -1.317  0.0000E+00  0.8000E+01
     -1.218  0.0000E+00  0.8000E+01
     -1.120  0.0000E+00  0.8000E+01
     -1.021  0.0000E+00  0.8000E+01
     -0.923  0.0000E+00  0.8000E+01
     -0.824  0.0000E+00  0.8000E+01
     -0.726  0.0000E+00  0.8000E+01
     -0.627  0.0000E+00  0.8000E+01
     -0.529  0.0000E+00  0.8000E+01
     -0.430  0.0000E+00  0.8000E+01
     -0.331  0.0000E+00  0.8000E+01
     -0.233  0.0000E+00  0.8000E+01
     -0.134  0.0000E+00  0.8000E+01
     -0.036  0.0000E+00  0.8000E+01
      0.063  0.0000E+00  0.8000E+01
      0.161  0.0000E+00  0.8000E+01
      0.260  0.0000E+00  0.8000E+01
      0.358  0.0000E+00  0.8000E+01
      0.457  0.0000E+00  0.8000E+01
      0.555  0.0000E+00  0.8000E+01
      0.654  0.0000E+00  0.8000E+01
      0.753  0.0000E+00  0.8000E+01
      0.851  0.0000E+00  0.8000E+01
      0.950  0.0000E+00  0.8000E+01
      1.048  0.0000E+00  0.8000E+01
      1.147  0.0000E+00  0.8000E+01
      1.245  0.0000E+00  0.8000E+01
      1.344  0.0000E+00  0.8000E+01
      1.442  0.0000E+00  0.8000E+01
      1.541  0.0000E+00  0.8000E+01
      1.639  0.0000E+00  0.8000E+01
      1.738  0.0000E+00  0.8000E+01
      1.837  0.0000E+00  0.8000E+01
      1.935  0.0000E+00  0.8000E+01
      2.034  0.0000E+00  0.8000E+01
      2.132  0.0000E+00  0.8000E+01
      2.231  0.0000E+00  0.8009E+01
      2.329  0.0000E+00  0.8009E+01
      2.428  0.0000E+00  0.8009E+01
      2.526  0.0000E+00  0.8009E+01
      2.625  0.0000E+00  0.8009E+01
      2.723  0.0000E+00  0.8009E+01
      2.822  0.0000E+00  0.8009E+01
      2.920  0.0000E+00  0.8083E+01
      3.019  0.0000E+00  0.8083E+01
      3.118  0.0000E+00  0.8139E+01
      3.216  0.0000E+00  0.8139E+01
      3.315  0.0000E+00  0.8139E+01
      3.413  0.0000E+00  0.8139E+01
      3.512  0.0000E+00  0.8167E+01
      3.610  0.0000E+00  0.8167E+01
      3.709  0.5265E+00  0.8293E+01
      3.807  0.0000E+00  0.8389E+01
      3.906  0.0000E+00  0.8667E+01
      4.004  0.0000E+00  0.8889E+01
      4.103  0.0000E+00  0.8889E+01
      4.202  0.0000E+00  0.9000E+01
      4.300  0.0000E+00  0.9250E+01
      4.399  0.0000E+00  0.9472E+01
      4.497  0.0000E+00  0.9583E+01
      4.596  0.0000E+00  0.9806E+01
      4.694  0.0000E+00  0.9861E+01
      4.793  0.0000E+00  0.1031E+02
      4.891  0.0000E+00  0.1031E+02
      4.990  0.0000E+00  0.1031E+02
      5.088  0.0000E+00  0.1042E+02
      5.187  0.0000E+00  0.1064E+02
      5.285  0.0000E+00  0.1086E+02
      5.384  0.2252E+01  0.1108E+02
      5.483  0.0000E+00  0.1142E+02
      5.581  0.0000E+00  0.1142E+02
      5.680  0.3443E-15  0.1186E+02
      5.778  0.0000E+00  0.1203E+02
      5.877  0.0000E+00  0.1203E+02
      5.975  0.0000E+00  0.1203E+02
      6.074  0.0000E+00  0.1203E+02
      6.172  0.0000E+00  0.1232E+02
      6.271  0.5474E-06  0.1262E+02
      6.369  0.0000E+00  0.1284E+02
      6.468  0.0000E+00  0.1314E+02
      6.567  0.0000E+00  0.1314E+02
      6.665  0.0000E+00  0.1351E+02
      6.764  0.0000E+00  0.1354E+02
      6.862  0.3758E+00  0.1374E+02
      6.961  0.2052E+01  0.1431E+02
      7.059  0.0000E+00  0.1456E+02
      7.158  0.5638E+00  0.1461E+02
      7.256  0.0000E+00  0.1467E+02
      7.355  0.0000E+00  0.1467E+02
      7.453  0.2255E+01  0.1522E+02
      7.552  0.0000E+00  0.1522E+02
      7.651  0.0000E+00  0.1522E+02
      7.749  0.0000E+00  0.1533E+02
      7.848  0.0000E+00  0.1544E+02
      7.946  0.0000E+00  0.1567E+02
      8.045  0.0000E+00  0.1567E+02
      8.143  0.0000E+00  0.1567E+02
      8.242  0.0000E+00  0.1569E+02
      8.340  0.0000E+00  0.1569E+02
      8.439  0.0000E+00  0.1569E+02
      8.537  0.0000E+00  0.1592E+02
      8.636  0.0000E+00  0.1592E+02
      8.734  0.0000E+00  0.1597E+02
      8.833  0.0000E+00  0.1597E+02
      8.932  0.0000E+00  0.1597E+02
      9.030  0.0000E+00  0.1597E+02
      9.129  0.0000E+00  0.1597E+02
      9.227  0.0000E+00  0.1597E+02
      9.326  0.0000E+00  0.1597E+02
      9.424  0.0000E+00  0.1597E+02
      9.523  0.0000E+00  0.1597E+02
      9.621  0.0000E+00  0.1597E+02
      9.720  0.0000E+00  0.1597E+02
      9.818  0.0000E+00  0.1597E+02
      9.917  0.0000E+00  0.1597E+02
     10.016  0.0000E+00  0.1597E+02
     10.114  0.0000E+00  0.1597E+02
     10.213  0.0000E+00  0.1597E+02
     10.311  0.0000E+00  0.1597E+02
     10.410  0.0000E+00  0.1597E+02
     10.508  0.0000E+00  0.1597E+02
     10.607  0.0000E+00  0.1600E+02
     10.705  0.0000E+00  0.1600E+02
     10.804  0.0000E+00  0.1600E+02
     10.902  0.0000E+00  0.1600E+02
     11.001  0.0000E+00  0.1600E+02
     11.099  0.0000E+00  0.1600E+02
     11.198  0.0000E+00  0.1600E+02
     11.297  0.0000E+00  0.1600E+02
     11.395  0.0000E+00  0.1600E+02
     11.494  0.0000E+00  0.1600E+02
     11.592  0.0000E+00  0.1600E+02
     11.691  0.0000E+00  0.1600E+02
     11.789  0.0000E+00  0.1600E+02
     11.888  0.0000E+00  0.1600E+02
