    1    1    1    1
  0.6156630E+02  0.4432200E-09  0.4432200E-09  0.4432200E-09  0.1000000E-15
  1.000000000000000E-004
  CAR 
 Og_FCC                                  
      8    112      8
 
  0.0000000E+00  0.0000000E+00  0.0000000E+00  0.4629630E-02
    1      -16.331116   1.000000
    2       -4.022878   1.000000
    3       -4.022878   1.000000
    4       -4.022878   1.000000
    5        2.193946   0.000000
    6        6.682548   0.000000
    7        6.682548   0.000000
    8        6.682548   0.000000
 
  0.1666667E+00  0.1535160E-17  0.6938894E-17  0.9259259E-02
    1      -16.285548   1.000000
    2       -4.463445   1.000000
    3       -4.069218   1.000000
    4       -4.069218   1.000000
    5        2.855169   0.000000
    6        6.083774   0.000000
    7        6.888324   0.000000
    8        6.888324   0.000000
 
  0.3333333E+00 -0.2468525E-16  0.2775558E-16  0.9259259E-02
    1      -16.192221   1.000000
    2       -5.188834   1.000000
    3       -4.158385   1.000000
    4       -4.158385   1.000000
    5        3.657824   0.000000
    6        6.200656   0.000000
    7        6.627796   0.000000
    8        6.627796   0.000000
 
  0.5000000E+00  0.4605481E-17  0.5551115E-16  0.4629630E-02
    1      -16.143209   1.000000
    2       -5.502807   1.000000
    3       -4.201275   1.000000
    4       -4.201275   1.000000
    5        3.714829   0.000000
    6        6.385128   0.000000
    7        6.385128   0.000000
    8        6.857700   0.000000
 
 -0.1925930E-33  0.1666667E+00  0.0000000E+00  0.9259259E-02
    1      -16.285548   1.000000
    2       -4.463445   1.000000
    3       -4.069218   1.000000
    4       -4.069218   1.000000
    5        2.855169   0.000000
    6        6.083774   0.000000
    7        6.888324   0.000000
    8        6.888324   0.000000
 
  0.1666667E+00  0.1666667E+00  0.2775558E-16  0.9259259E-02
    1      -16.270324   1.000000
    2       -4.451444   1.000000
    3       -4.161343   1.000000
    4       -4.161343   1.000000
    5        3.082787   0.000000
    6        5.685329   0.000000
    7        7.153218   0.000000
    8        7.213861   0.000000
 
  0.3333333E+00  0.1666667E+00  0.5551115E-16  0.9259259E-02
    1      -16.192941   1.000000
    2       -4.985316   1.000000
    3       -4.285085   1.000000
    4       -4.270648   1.000000
    5        3.942009   0.000000
    6        5.381934   0.000000
    7        6.163960   0.000000
    8        7.361589   0.000000
 
  0.5000000E+00  0.1666667E+00  0.2775558E-16  0.9259259E-02
    1      -16.128512   1.000000
    2       -5.363578   1.000000
    3       -4.453109   1.000000
    4       -4.290958   1.000000
    5        4.248974   0.000000
    6        5.437017   0.000000
    7        6.580176   0.000000
    8        6.959772   0.000000
 
 -0.3333333E+00  0.1666667E+00 -0.2081668E-16  0.9259259E-02
    1      -16.144483   1.000000
    2       -5.265429   1.000000
    3       -4.507490   1.000000
    4       -4.204317   1.000000
    5        4.352783   0.000000
    6        5.614064   0.000000
    7        6.274481   0.000000
    8        6.891062   0.000000
 
 -0.1666667E+00  0.1666667E+00  0.6132823E-18  0.9259259E-02
    1      -16.224058   1.000000
    2       -4.825764   1.000000
    3       -4.329776   1.000000
    4       -4.092031   1.000000
    5        3.708879   0.000000
    6        5.688898   0.000000
    7        6.431812   0.000000
    8        7.372428   0.000000
 
 -0.3851860E-33  0.3333333E+00  0.0000000E+00  0.9259259E-02
    1      -16.192221   1.000000
    2       -5.188834   1.000000
    3       -4.158385   1.000000
    4       -4.158385   1.000000
    5        3.657824   0.000000
    6        6.200656   0.000000
    7        6.627796   0.000000
    8        6.627796   0.000000
 
  0.1666667E+00  0.3333333E+00  0.2775558E-16  0.9259259E-02
    1      -16.192941   1.000000
    2       -4.985316   1.000000
    3       -4.285085   1.000000
    4       -4.270648   1.000000
    5        3.942009   0.000000
    6        5.381934   0.000000
    7        6.163960   0.000000
    8        7.361589   0.000000
 
  0.3333333E+00  0.3333333E+00  0.2775558E-16  0.9259259E-02
    1      -16.146117   1.000000
    2       -5.110372   1.000000
    3       -4.419077   1.000000
    4       -4.419077   1.000000
    5        3.820401   0.000000
    6        4.637619   0.000000
    7        6.784500   0.000000
    8        8.671319   0.000000
 
  0.5000000E+00  0.3333333E+00  0.1110223E-15  0.9259259E-02
    1      -16.097931   1.000000
    2       -5.259682   1.000000
    3       -4.662935   1.000000
    4       -4.459853   1.000000
    5        3.896231   0.000000
    6        4.762320   0.000000
    7        6.984235   0.000000
    8        8.522608   0.000000
 
 -0.3333333E+00  0.3333333E+00 -0.3713229E-16  0.9259259E-02
    1      -16.096922   1.000000
    2       -5.052786   1.000000
    3       -5.022686   1.000000
    4       -4.356976   1.000000
    5        4.432788   0.000000
    6        5.416808   0.000000
    7        6.446884   0.000000
    8        7.770548   0.000000
 
 -0.1666667E+00  0.3333333E+00  0.2081668E-16  0.9259259E-02
    1      -16.144483   1.000000
    2       -5.265429   1.000000
    3       -4.507490   1.000000
    4       -4.204317   1.000000
    5        4.352783   0.000000
    6        5.614064   0.000000
    7        6.274481   0.000000
    8        6.891062   0.000000
 
  0.7703720E-33  0.5000000E+00  0.0000000E+00  0.4629630E-02
    1      -16.143209   1.000000
    2       -5.502807   1.000000
    3       -4.201275   1.000000
    4       -4.201275   1.000000
    5        3.714829   0.000000
    6        6.385128   0.000000
    7        6.385128   0.000000
    8        6.857700   0.000000
 
  0.1666667E+00  0.5000000E+00  0.8326673E-16  0.9259259E-02
    1      -16.128512   1.000000
    2       -5.363578   1.000000
    3       -4.453109   1.000000
    4       -4.290958   1.000000
    5        4.248974   0.000000
    6        5.437017   0.000000
    7        6.580176   0.000000
    8        6.959772   0.000000
 
  0.3333333E+00  0.5000000E+00  0.1110223E-15  0.9259259E-02
    1      -16.097931   1.000000
    2       -5.259682   1.000000
    3       -4.662935   1.000000
    4       -4.459853   1.000000
    5        3.896231   0.000000
    6        4.762320   0.000000
    7        6.984235   0.000000
    8        8.522608   0.000000
 
  0.5000000E+00  0.5000000E+00  0.5551115E-16  0.4629630E-02
    1      -16.082563   1.000000
    2       -5.380331   1.000000
    3       -4.539702   1.000000
    4       -4.539702   1.000000
    5        3.441294   0.000000
    6        4.266826   0.000000
    7        8.168230   0.000000
    8       10.544038   0.000000
 
 -0.7703720E-33 -0.7703720E-33  0.1666667E+00  0.9259259E-02
    1      -16.285548   1.000000
    2       -4.463445   1.000000
    3       -4.069218   1.000000
    4       -4.069218   1.000000
    5        2.855169   0.000000
    6        6.083774   0.000000
    7        6.888324   0.000000
    8        6.888324   0.000000
 
  0.1666667E+00  0.1080747E-16  0.1666667E+00  0.9259259E-02
    1      -16.270324   1.000000
    2       -4.451444   1.000000
    3       -4.161343   1.000000
    4       -4.161343   1.000000
    5        3.082787   0.000000
    6        5.685329   0.000000
    7        7.153163   0.000000
    8        7.213861   0.000000
 
  0.3333333E+00 -0.2929074E-16  0.1666667E+00  0.9259259E-02
    1      -16.192941   1.000000
    2       -4.985316   1.000000
    3       -4.285085   1.000000
    4       -4.270648   1.000000
    5        3.942009   0.000000
    6        5.381934   0.000000
    7        6.163960   0.000000
    8        7.361589   0.000000
 
  0.5000000E+00  0.4857226E-32  0.1666667E+00  0.9259259E-02
    1      -16.128512   1.000000
    2       -5.363578   1.000000
    3       -4.453109   1.000000
    4       -4.290958   1.000000
    5        4.248974   0.000000
    6        5.437017   0.000000
    7        6.580176   0.000000
    8        6.959772   0.000000
 
 -0.3333333E+00 -0.7675802E-17  0.1666667E+00  0.9259259E-02
    1      -16.144483   1.000000
    2       -5.265429   1.000000
    3       -4.507490   1.000000
    4       -4.204317   1.000000
    5        4.352783   0.000000
    6        5.614064   0.000000
    7        6.274481   0.000000
    8        6.891062   0.000000
 
 -0.1666667E+00  0.2161493E-16  0.1666667E+00  0.9259259E-02
    1      -16.224058   1.000000
    2       -4.825764   1.000000
    3       -4.329776   1.000000
    4       -4.092031   1.000000
    5        3.708879   0.000000
    6        5.688898   0.000000
    7        6.431812   0.000000
    8        7.372314   0.000000
 
 -0.7703720E-33  0.1666667E+00  0.1666667E+00  0.9259259E-02
    1      -16.270324   1.000000
    2       -4.451444   1.000000
    3       -4.161343   1.000000
    4       -4.161343   1.000000
    5        3.082787   0.000000
    6        5.685329   0.000000
    7        7.153151   0.000000
    8        7.213861   0.000000
 
  0.1666667E+00  0.1666667E+00  0.1666667E+00  0.9259259E-02
    1      -16.285548   1.000000
    2       -4.463445   1.000000
    3       -4.069218   1.000000
    4       -4.069218   1.000000
    5        2.855169   0.000000
    6        6.083774   0.000000
    7        6.888324   0.000000
    8        6.888324   0.000000
 
  0.3333333E+00  0.1666667E+00  0.1666667E+00  0.9259259E-02
    1      -16.224058   1.000000
    2       -4.825764   1.000000
    3       -4.329776   1.000000
    4       -4.092031   1.000000
    5        3.708879   0.000000
    6        5.688898   0.000000
    7        6.431812   0.000000
    8        7.371902   0.000000
 
  0.5000000E+00  0.1666667E+00  0.1666667E+00  0.9259259E-02
    1      -16.144483   1.000000
    2       -5.265429   1.000000
    3       -4.507490   1.000000
    4       -4.204317   1.000000
    5        4.352783   0.000000
    6        5.614064   0.000000
    7        6.274481   0.000000
    8        6.891062   0.000000
 
 -0.3333333E+00  0.1666667E+00  0.1666667E+00  0.9259259E-02
    1      -16.128512   1.000000
    2       -5.363578   1.000000
    3       -4.453109   1.000000
    4       -4.290957   1.000000
    5        4.248974   0.000000
    6        5.437017   0.000000
    7        6.580176   0.000000
    8        6.959772   0.000000
 
 -0.1666667E+00  0.1666667E+00  0.1666667E+00  0.9259259E-02
    1      -16.192941   1.000000
    2       -4.985316   1.000000
    3       -4.285085   1.000000
    4       -4.270648   1.000000
    5        3.942009   0.000000
    6        5.381934   0.000000
    7        6.163960   0.000000
    8        7.361589   0.000000
 
 -0.5777790E-33  0.3333333E+00  0.1666667E+00  0.9259259E-02
    1      -16.192941   1.000000
    2       -4.985316   1.000000
    3       -4.285085   1.000000
    4       -4.270648   1.000000
    5        3.942009   0.000000
    6        5.381934   0.000000
    7        6.163960   0.000000
    8        7.361589   0.000000
 
  0.1666667E+00  0.3333333E+00  0.1666667E+00  0.9259259E-02
    1      -16.224058   1.000000
    2       -4.825764   1.000000
    3       -4.329776   1.000000
    4       -4.092031   1.000000
    5        3.708879   0.000000
    6        5.688898   0.000000
    7        6.431812   0.000000
    8        7.372279   0.000000
 
  0.3333333E+00  0.3333333E+00  0.1666667E+00  0.9259259E-02
    1      -16.192941   1.000000
    2       -4.985316   1.000000
    3       -4.285085   1.000000
    4       -4.270648   1.000000
    5        3.942009   0.000000
    6        5.381934   0.000000
    7        6.163960   0.000000
    8        7.361589   0.000000
 
  0.5000000E+00  0.3333333E+00  0.1666667E+00  0.9259259E-02
    1      -16.129458   1.000000
    2       -5.151959   1.000000
    3       -4.637351   1.000000
    4       -4.347531   1.000000
    5        4.562966   0.000000
    6        5.270928   0.000000
    7        5.657679   0.000000
    8        7.919927   0.000000
 
 -0.3333333E+00  0.3333333E+00  0.1666667E+00  0.9259259E-02
    1      -16.097148   1.000000
    2       -5.185398   1.000000
    3       -4.817430   1.000000
    4       -4.434229   1.000000
    5        4.764243   0.000000
    6        5.171896   0.000000
    7        6.190078   0.000000
    8        7.450747   0.000000
 
 -0.1666667E+00  0.3333333E+00  0.1666667E+00  0.9259259E-02
    1      -16.129458   1.000000
    2       -5.151959   1.000000
    3       -4.637351   1.000000
    4       -4.347531   1.000000
    5        4.562966   0.000000
    6        5.270928   0.000000
    7        5.657679   0.000000
    8        7.919927   0.000000
 
 -0.7827329E-33  0.5000000E+00  0.1666667E+00  0.9259259E-02
    1      -16.128512   1.000000
    2       -5.363578   1.000000
    3       -4.453109   1.000000
    4       -4.290958   1.000000
    5        4.248974   0.000000
    6        5.437017   0.000000
    7        6.580176   0.000000
    8        6.959772   0.000000
 
  0.1666667E+00  0.5000000E+00  0.1666667E+00  0.9259259E-02
    1      -16.144483   1.000000
    2       -5.265429   1.000000
    3       -4.507490   1.000000
    4       -4.204317   1.000000
    5        4.352783   0.000000
    6        5.614064   0.000000
    7        6.274481   0.000000
    8        6.891062   0.000000
 
  0.3333333E+00  0.5000000E+00  0.1666667E+00  0.9259259E-02
    1      -16.129458   1.000000
    2       -5.151959   1.000000
    3       -4.637351   1.000000
    4       -4.347531   1.000000
    5        4.562966   0.000000
    6        5.270928   0.000000
    7        5.657679   0.000000
    8        7.919927   0.000000
 
  0.5000000E+00  0.5000000E+00  0.1666667E+00  0.9259259E-02
    1      -16.097931   1.000000
    2       -5.259682   1.000000
    3       -4.662935   1.000000
    4       -4.459853   1.000000
    5        3.896230   0.000000
    6        4.762320   0.000000
    7        6.984235   0.000000
    8        8.522608   0.000000
 
 -0.3333333E+00  0.5000000E+00  0.1666667E+00  0.9259259E-02
    1      -16.081446   1.000000
    2       -5.195496   1.000000
    3       -4.778984   1.000000
    4       -4.582686   1.000000
    5        4.143232   0.000000
    6        5.037308   0.000000
    7        6.854036   0.000000
    8        7.703502   0.000000
 
 -0.1666667E+00  0.5000000E+00  0.1666667E+00  0.9259259E-02
    1      -16.097148   1.000000
    2       -5.185398   1.000000
    3       -4.817430   1.000000
    4       -4.434229   1.000000
    5        4.764243   0.000000
    6        5.171896   0.000000
    7        6.190078   0.000000
    8        7.450747   0.000000
 
 -0.1540744E-32 -0.3333333E+00  0.1666667E+00  0.9259259E-02
    1      -16.144483   1.000000
    2       -5.265429   1.000000
    3       -4.507490   1.000000
    4       -4.204317   1.000000
    5        4.352783   0.000000
    6        5.614064   0.000000
    7        6.274481   0.000000
    8        6.891062   0.000000
 
  0.1666667E+00 -0.3333333E+00  0.1666667E+00  0.9259259E-02
    1      -16.128512   1.000000
    2       -5.363578   1.000000
    3       -4.453109   1.000000
    4       -4.290957   1.000000
    5        4.248974   0.000000
    6        5.437017   0.000000
    7        6.580176   0.000000
    8        6.959772   0.000000
 
  0.3333333E+00 -0.3333333E+00  0.1666667E+00  0.9259259E-02
    1      -16.097148   1.000000
    2       -5.185398   1.000000
    3       -4.817430   1.000000
    4       -4.434229   1.000000
    5        4.764243   0.000000
    6        5.171896   0.000000
    7        6.190078   0.000000
    8        7.450747   0.000000
 
  0.5000000E+00 -0.3333333E+00  0.1666667E+00  0.9259259E-02
    1      -16.081446   1.000000
    2       -5.195496   1.000000
    3       -4.778984   1.000000
    4       -4.582686   1.000000
    5        4.143232   0.000000
    6        5.037308   0.000000
    7        6.854036   0.000000
    8        7.703502   0.000000
 
 -0.3333333E+00 -0.3333333E+00  0.1666667E+00  0.9259259E-02
    1      -16.097931   1.000000
    2       -5.259682   1.000000
    3       -4.662935   1.000000
    4       -4.459853   1.000000
    5        3.896230   0.000000
    6        4.762320   0.000000
    7        6.984235   0.000000
    8        8.522608   0.000000
 
 -0.1666667E+00 -0.3333333E+00  0.1666667E+00  0.9259259E-02
    1      -16.129458   1.000000
    2       -5.151959   1.000000
    3       -4.637351   1.000000
    4       -4.347531   1.000000
    5        4.562966   0.000000
    6        5.270928   0.000000
    7        5.657679   0.000000
    8        7.919927   0.000000
 
  0.7703720E-33 -0.1666667E+00  0.1666667E+00  0.9259259E-02
    1      -16.224058   1.000000
    2       -4.825764   1.000000
    3       -4.329776   1.000000
    4       -4.092031   1.000000
    5        3.708879   0.000000
    6        5.688898   0.000000
    7        6.431812   0.000000
    8        7.371895   0.000000
 
  0.1666667E+00 -0.1666667E+00  0.1666667E+00  0.9259259E-02
    1      -16.192941   1.000000
    2       -4.985316   1.000000
    3       -4.285085   1.000000
    4       -4.270648   1.000000
    5        3.942009   0.000000
    6        5.381934   0.000000
    7        6.163960   0.000000
    8        7.361589   0.000000
 
  0.3333333E+00 -0.1666667E+00  0.1666667E+00  0.9259259E-02
    1      -16.129458   1.000000
    2       -5.151959   1.000000
    3       -4.637351   1.000000
    4       -4.347531   1.000000
    5        4.562966   0.000000
    6        5.270928   0.000000
    7        5.657679   0.000000
    8        7.919927   0.000000
 
  0.5000000E+00 -0.1666667E+00  0.1666667E+00  0.9259259E-02
    1      -16.097148   1.000000
    2       -5.185398   1.000000
    3       -4.817430   1.000000
    4       -4.434229   1.000000
    5        4.764243   0.000000
    6        5.171896   0.000000
    7        6.190078   0.000000
    8        7.450747   0.000000
 
 -0.3333333E+00 -0.1666667E+00  0.1666667E+00  0.9259259E-02
    1      -16.129458   1.000000
    2       -5.151959   1.000000
    3       -4.637351   1.000000
    4       -4.347531   1.000000
    5        4.562966   0.000000
    6        5.270928   0.000000
    7        5.657679   0.000000
    8        7.919927   0.000000
 
 -0.1666667E+00 -0.1666667E+00  0.1666667E+00  0.9259259E-02
    1      -16.192941   1.000000
    2       -4.985316   1.000000
    3       -4.285085   1.000000
    4       -4.270648   1.000000
    5        3.942009   0.000000
    6        5.381934   0.000000
    7        6.163960   0.000000
    8        7.361589   0.000000
 
 -0.1540744E-32  0.3081488E-32  0.3333333E+00  0.9259259E-02
    1      -16.192221   1.000000
    2       -5.188834   1.000000
    3       -4.158385   1.000000
    4       -4.158385   1.000000
    5        3.657824   0.000000
    6        6.200656   0.000000
    7        6.627796   0.000000
    8        6.627796   0.000000
 
  0.1666667E+00 -0.7675802E-17  0.3333333E+00  0.9259259E-02
    1      -16.192941   1.000000
    2       -4.985316   1.000000
    3       -4.285085   1.000000
    4       -4.270648   1.000000
    5        3.942009   0.000000
    6        5.381934   0.000000
    7        6.163960   0.000000
    8        7.361589   0.000000
 
  0.3333333E+00  0.2161493E-16  0.3333333E+00  0.9259259E-02
    1      -16.146117   1.000000
    2       -5.110372   1.000000
    3       -4.419077   1.000000
    4       -4.419077   1.000000
    5        3.820401   0.000000
    6        4.637619   0.000000
    7        6.784500   0.000000
    8        8.671319   0.000000
 
  0.5000000E+00 -0.4605481E-17  0.3333333E+00  0.9259259E-02
    1      -16.097931   1.000000
    2       -5.259682   1.000000
    3       -4.662935   1.000000
    4       -4.459853   1.000000
    5        3.896231   0.000000
    6        4.762320   0.000000
    7        6.984235   0.000000
    8        8.522608   0.000000
 
 -0.3333333E+00  0.4322987E-16  0.3333333E+00  0.9259259E-02
    1      -16.096922   1.000000
    2       -5.052786   1.000000
    3       -5.022686   1.000000
    4       -4.356976   1.000000
    5        4.432788   0.000000
    6        5.416808   0.000000
    7        6.446884   0.000000
    8        7.770548   0.000000
 
 -0.1666667E+00  0.1700945E-16  0.3333333E+00  0.9259259E-02
    1      -16.144483   1.000000
    2       -5.265429   1.000000
    3       -4.507490   1.000000
    4       -4.204317   1.000000
    5        4.352783   0.000000
    6        5.614064   0.000000
    7        6.274481   0.000000
    8        6.891062   0.000000
 
 -0.1540744E-32  0.1666667E+00  0.3333333E+00  0.9259259E-02
    1      -16.192941   1.000000
    2       -4.985316   1.000000
    3       -4.285085   1.000000
    4       -4.270648   1.000000
    5        3.942009   0.000000
    6        5.381934   0.000000
    7        6.163960   0.000000
    8        7.361589   0.000000
 
  0.1666667E+00  0.1666667E+00  0.3333333E+00  0.9259259E-02
    1      -16.224058   1.000000
    2       -4.825764   1.000000
    3       -4.329776   1.000000
    4       -4.092031   1.000000
    5        3.708879   0.000000
    6        5.688898   0.000000
    7        6.431812   0.000000
    8        7.371844   0.000000
 
  0.3333333E+00  0.1666667E+00  0.3333333E+00  0.9259259E-02
    1      -16.192941   1.000000
    2       -4.985316   1.000000
    3       -4.285085   1.000000
    4       -4.270648   1.000000
    5        3.942009   0.000000
    6        5.381934   0.000000
    7        6.163960   0.000000
    8        7.361589   0.000000
 
  0.5000000E+00  0.1666667E+00  0.3333333E+00  0.9259259E-02
    1      -16.129458   1.000000
    2       -5.151959   1.000000
    3       -4.637351   1.000000
    4       -4.347531   1.000000
    5        4.562966   0.000000
    6        5.270928   0.000000
    7        5.657679   0.000000
    8        7.919927   0.000000
 
 -0.3333333E+00  0.1666667E+00  0.3333333E+00  0.9259259E-02
    1      -16.097148   1.000000
    2       -5.185398   1.000000
    3       -4.817430   1.000000
    4       -4.434229   1.000000
    5        4.764243   0.000000
    6        5.171896   0.000000
    7        6.190078   0.000000
    8        7.450747   0.000000
 
 -0.1666667E+00  0.1666667E+00  0.3333333E+00  0.9259259E-02
    1      -16.129458   1.000000
    2       -5.151959   1.000000
    3       -4.637351   1.000000
    4       -4.347531   1.000000
    5        4.562966   0.000000
    6        5.270928   0.000000
    7        5.657679   0.000000
    8        7.919927   0.000000
 
 -0.7703720E-33  0.3333333E+00  0.3333333E+00  0.9259259E-02
    1      -16.146117   1.000000
    2       -5.110372   1.000000
    3       -4.419077   1.000000
    4       -4.419077   1.000000
    5        3.820401   0.000000
    6        4.637619   0.000000
    7        6.784500   0.000000
    8        8.671319   0.000000
 
  0.1666667E+00  0.3333333E+00  0.3333333E+00  0.9259259E-02
    1      -16.192941   1.000000
    2       -4.985316   1.000000
    3       -4.285085   1.000000
    4       -4.270648   1.000000
    5        3.942009   0.000000
    6        5.381934   0.000000
    7        6.163960   0.000000
    8        7.361589   0.000000
 
  0.3333333E+00  0.3333333E+00  0.3333333E+00  0.9259259E-02
    1      -16.192221   1.000000
    2       -5.188834   1.000000
    3       -4.158385   1.000000
    4       -4.158385   1.000000
    5        3.657824   0.000000
    6        6.200656   0.000000
    7        6.627796   0.000000
    8        6.627796   0.000000
 
  0.5000000E+00  0.3333333E+00  0.3333333E+00  0.9259259E-02
    1      -16.144483   1.000000
    2       -5.265429   1.000000
    3       -4.507490   1.000000
    4       -4.204317   1.000000
    5        4.352783   0.000000
    6        5.614064   0.000000
    7        6.274481   0.000000
    8        6.891062   0.000000
 
 -0.3333333E+00  0.3333333E+00  0.3333333E+00  0.9259259E-02
    1      -16.096922   1.000000
    2       -5.052786   1.000000
    3       -5.022686   1.000000
    4       -4.356976   1.000000
    5        4.432788   0.000000
    6        5.416808   0.000000
    7        6.446884   0.000000
    8        7.770548   0.000000
 
 -0.1666667E+00  0.3333333E+00  0.3333333E+00  0.9259259E-02
    1      -16.097931   1.000000
    2       -5.259682   1.000000
    3       -4.662935   1.000000
    4       -4.459853   1.000000
    5        3.896230   0.000000
    6        4.762320   0.000000
    7        6.984235   0.000000
    8        8.522608   0.000000
 
  0.0000000E+00  0.5000000E+00  0.3333333E+00  0.9259259E-02
    1      -16.097931   1.000000
    2       -5.259682   1.000000
    3       -4.662935   1.000000
    4       -4.459853   1.000000
    5        3.896231   0.000000
    6        4.762320   0.000000
    7        6.984235   0.000000
    8        8.522608   0.000000
 
  0.1666667E+00  0.5000000E+00  0.3333333E+00  0.9259259E-02
    1      -16.129458   1.000000
    2       -5.151959   1.000000
    3       -4.637351   1.000000
    4       -4.347531   1.000000
    5        4.562966   0.000000
    6        5.270928   0.000000
    7        5.657679   0.000000
    8        7.919927   0.000000
 
  0.3333333E+00  0.5000000E+00  0.3333333E+00  0.9259259E-02
    1      -16.144483   1.000000
    2       -5.265429   1.000000
    3       -4.507490   1.000000
    4       -4.204317   1.000000
    5        4.352783   0.000000
    6        5.614064   0.000000
    7        6.274481   0.000000
    8        6.891062   0.000000
 
  0.5000000E+00  0.5000000E+00  0.3333333E+00  0.9259259E-02
    1      -16.128512   1.000000
    2       -5.363578   1.000000
    3       -4.453109   1.000000
    4       -4.290957   1.000000
    5        4.248974   0.000000
    6        5.437017   0.000000
    7        6.580176   0.000000
    8        6.959772   0.000000
 
 -0.3333333E+00  0.5000000E+00  0.3333333E+00  0.9259259E-02
    1      -16.097148   1.000000
    2       -5.185398   1.000000
    3       -4.817430   1.000000
    4       -4.434229   1.000000
    5        4.764243   0.000000
    6        5.171896   0.000000
    7        6.190078   0.000000
    8        7.450747   0.000000
 
 -0.1666667E+00  0.5000000E+00  0.3333333E+00  0.9259259E-02
    1      -16.081446   1.000000
    2       -5.195496   1.000000
    3       -4.778984   1.000000
    4       -4.582686   1.000000
    5        4.143232   0.000000
    6        5.037308   0.000000
    7        6.854036   0.000000
    8        7.703502   0.000000
 
 -0.1540744E-32 -0.3333333E+00  0.3333333E+00  0.9259259E-02
    1      -16.096922   1.000000
    2       -5.052786   1.000000
    3       -5.022686   1.000000
    4       -4.356976   1.000000
    5        4.432788   0.000000
    6        5.416808   0.000000
    7        6.446884   0.000000
    8        7.770548   0.000000
 
  0.1666667E+00 -0.3333333E+00  0.3333333E+00  0.9259259E-02
    1      -16.097148   1.000000
    2       -5.185398   1.000000
    3       -4.817430   1.000000
    4       -4.434229   1.000000
    5        4.764243   0.000000
    6        5.171896   0.000000
    7        6.190078   0.000000
    8        7.450747   0.000000
 
  0.3333333E+00 -0.3333333E+00  0.3333333E+00  0.9259259E-02
    1      -16.096922   1.000000
    2       -5.052786   1.000000
    3       -5.022686   1.000000
    4       -4.356976   1.000000
    5        4.432788   0.000000
    6        5.416808   0.000000
    7        6.446884   0.000000
    8        7.770548   0.000000
 
  0.5000000E+00 -0.3333333E+00  0.3333333E+00  0.9259259E-02
    1      -16.097148   1.000000
    2       -5.185398   1.000000
    3       -4.817430   1.000000
    4       -4.434229   1.000000
    5        4.764243   0.000000
    6        5.171896   0.000000
    7        6.190078   0.000000
    8        7.450747   0.000000
 
 -0.3333333E+00 -0.3333333E+00  0.3333333E+00  0.9259259E-02
    1      -16.096922   1.000000
    2       -5.052786   1.000000
    3       -5.022686   1.000000
    4       -4.356976   1.000000
    5        4.432788   0.000000
    6        5.416808   0.000000
    7        6.446884   0.000000
    8        7.770548   0.000000
 
 -0.1666667E+00 -0.3333333E+00  0.3333333E+00  0.9259259E-02
    1      -16.097148   1.000000
    2       -5.185398   1.000000
    3       -4.817430   1.000000
    4       -4.434229   1.000000
    5        4.764243   0.000000
    6        5.171896   0.000000
    7        6.190078   0.000000
    8        7.450747   0.000000
 
 -0.1540744E-32 -0.1666667E+00  0.3333333E+00  0.9259259E-02
    1      -16.144483   1.000000
    2       -5.265429   1.000000
    3       -4.507490   1.000000
    4       -4.204317   1.000000
    5        4.352783   0.000000
    6        5.614064   0.000000
    7        6.274481   0.000000
    8        6.891062   0.000000
 
  0.1666667E+00 -0.1666667E+00  0.3333333E+00  0.9259259E-02
    1      -16.129458   1.000000
    2       -5.151959   1.000000
    3       -4.637351   1.000000
    4       -4.347531   1.000000
    5        4.562966   0.000000
    6        5.270928   0.000000
    7        5.657679   0.000000
    8        7.919927   0.000000
 
  0.3333333E+00 -0.1666667E+00  0.3333333E+00  0.9259259E-02
    1      -16.097931   1.000000
    2       -5.259682   1.000000
    3       -4.662935   1.000000
    4       -4.459853   1.000000
    5        3.896230   0.000000
    6        4.762320   0.000000
    7        6.984235   0.000000
    8        8.522608   0.000000
 
  0.5000000E+00 -0.1666667E+00  0.3333333E+00  0.9259259E-02
    1      -16.081446   1.000000
    2       -5.195496   1.000000
    3       -4.778984   1.000000
    4       -4.582686   1.000000
    5        4.143232   0.000000
    6        5.037308   0.000000
    7        6.854036   0.000000
    8        7.703502   0.000000
 
 -0.3333333E+00 -0.1666667E+00  0.3333333E+00  0.9259259E-02
    1      -16.097148   1.000000
    2       -5.185398   1.000000
    3       -4.817430   1.000000
    4       -4.434229   1.000000
    5        4.764243   0.000000
    6        5.171896   0.000000
    7        6.190078   0.000000
    8        7.450747   0.000000
 