   1   1   0   0
  0.6083477E+02  0.4414576E-09  0.4414576E-09  0.4414576E-09  0.1000000E-15
  1.000000000000000E-004
  CAR 
 Og_FCC                                  
     99.54696519   -210.23387327  301     -0.09920451      1.00000000
   -210.234  0.0000E+00  0.0000E+00
   -209.201  0.0000E+00  0.0000E+00
   -208.169  0.0000E+00  0.0000E+00
   -207.136  0.0000E+00  0.0000E+00
   -206.103  0.0000E+00  0.0000E+00
   -205.071  0.0000E+00  0.0000E+00
   -204.038  0.0000E+00  0.0000E+00
   -203.006  0.0000E+00  0.0000E+00
   -201.973  0.0000E+00  0.0000E+00
   -200.940  0.0000E+00  0.0000E+00
   -199.908  0.0000E+00  0.0000E+00
   -198.875  0.0000E+00  0.0000E+00
   -197.843  0.0000E+00  0.0000E+00
   -196.810  0.0000E+00  0.0000E+00
   -195.777  0.0000E+00  0.2000E+01
   -194.745  0.0000E+00  0.2000E+01
   -193.712  0.0000E+00  0.2000E+01
   -192.680  0.0000E+00  0.2000E+01
   -191.647  0.0000E+00  0.2000E+01
   -190.614  0.0000E+00  0.2000E+01
   -189.582  0.0000E+00  0.2000E+01
   -188.549  0.0000E+00  0.2000E+01
   -187.517  0.0000E+00  0.2000E+01
   -186.484  0.0000E+00  0.2000E+01
   -185.451  0.0000E+00  0.2000E+01
   -184.419  0.0000E+00  0.2000E+01
   -183.386  0.0000E+00  0.2000E+01
   -182.354  0.0000E+00  0.2000E+01
   -181.321  0.0000E+00  0.2000E+01
   -180.288  0.0000E+00  0.2000E+01
   -179.256  0.0000E+00  0.2000E+01
   -178.223  0.0000E+00  0.2000E+01
   -177.191  0.0000E+00  0.2000E+01
   -176.158  0.0000E+00  0.2000E+01
   -175.125  0.0000E+00  0.2000E+01
   -174.093  0.0000E+00  0.2000E+01
   -173.060  0.0000E+00  0.2000E+01
   -172.028  0.0000E+00  0.2000E+01
   -170.995  0.0000E+00  0.2000E+01
   -169.962  0.0000E+00  0.2000E+01
   -168.930  0.0000E+00  0.2000E+01
   -167.897  0.0000E+00  0.2000E+01
   -166.865  0.0000E+00  0.2000E+01
   -165.832  0.0000E+00  0.2000E+01
   -164.799  0.0000E+00  0.2000E+01
   -163.767  0.0000E+00  0.2000E+01
   -162.734  0.0000E+00  0.2000E+01
   -161.702  0.0000E+00  0.2000E+01
   -160.669  0.0000E+00  0.2000E+01
   -159.636  0.0000E+00  0.2000E+01
   -158.604  0.0000E+00  0.2000E+01
   -157.571  0.0000E+00  0.2000E+01
   -156.539  0.0000E+00  0.2000E+01
   -155.506  0.0000E+00  0.2000E+01
   -154.473  0.0000E+00  0.2000E+01
   -153.441  0.0000E+00  0.2000E+01
   -152.408  0.0000E+00  0.2000E+01
   -151.376  0.0000E+00  0.2000E+01
   -150.343  0.0000E+00  0.2000E+01
   -149.310  0.0000E+00  0.2000E+01
   -148.278  0.0000E+00  0.2000E+01
   -147.245  0.0000E+00  0.2000E+01
   -146.212  0.0000E+00  0.2000E+01
   -145.180  0.0000E+00  0.2000E+01
   -144.147  0.0000E+00  0.2000E+01
   -143.115  0.0000E+00  0.2000E+01
   -142.082  0.0000E+00  0.2000E+01
   -141.049  0.0000E+00  0.4000E+01
   -140.017  0.0000E+00  0.4000E+01
   -138.984  0.0000E+00  0.4000E+01
   -137.952  0.0000E+00  0.4000E+01
   -136.919  0.0000E+00  0.4000E+01
   -135.886  0.0000E+00  0.4000E+01
   -134.854  0.0000E+00  0.4000E+01
   -133.821  0.0000E+00  0.4000E+01
   -132.789  0.0000E+00  0.4000E+01
   -131.756  0.0000E+00  0.4000E+01
   -130.723  0.0000E+00  0.4000E+01
   -129.691  0.0000E+00  0.4000E+01
   -128.658  0.0000E+00  0.4000E+01
   -127.626  0.0000E+00  0.4000E+01
   -126.593  0.0000E+00  0.4000E+01
   -125.560  0.0000E+00  0.4000E+01
   -124.528  0.0000E+00  0.4000E+01
   -123.495  0.0000E+00  0.4000E+01
   -122.463  0.0000E+00  0.4000E+01
   -121.430  0.0000E+00  0.4000E+01
   -120.397  0.0000E+00  0.4000E+01
   -119.365  0.0000E+00  0.4000E+01
   -118.332  0.0000E+00  0.4000E+01
   -117.300  0.0000E+00  0.4000E+01
   -116.267  0.0000E+00  0.4000E+01
   -115.234  0.0000E+00  0.4000E+01
   -114.202  0.0000E+00  0.4000E+01
   -113.169  0.0000E+00  0.8000E+01
   -112.137  0.0000E+00  0.8000E+01
   -111.104  0.0000E+00  0.8000E+01
   -110.071  0.0000E+00  0.8000E+01
   -109.039  0.0000E+00  0.8000E+01
   -108.006  0.0000E+00  0.8000E+01
   -106.974  0.0000E+00  0.8000E+01
   -105.941  0.0000E+00  0.8000E+01
   -104.908  0.0000E+00  0.8000E+01
   -103.876  0.0000E+00  0.8000E+01
   -102.843  0.0000E+00  0.8000E+01
   -101.811  0.0000E+00  0.8000E+01
   -100.778  0.0000E+00  0.8000E+01
    -99.745  0.0000E+00  0.8000E+01
    -98.713  0.0000E+00  0.8000E+01
    -97.680  0.0000E+00  0.8000E+01
    -96.648  0.0000E+00  0.8000E+01
    -95.615  0.0000E+00  0.8000E+01
    -94.582  0.0000E+00  0.8000E+01
    -93.550  0.0000E+00  0.8000E+01
    -92.517  0.0000E+00  0.8000E+01
    -91.485  0.0000E+00  0.8000E+01
    -90.452  0.0000E+00  0.8000E+01
    -89.419  0.0000E+00  0.8000E+01
    -88.387  0.0000E+00  0.8000E+01
    -87.354  0.0000E+00  0.8000E+01
    -86.322  0.0000E+00  0.8000E+01
    -85.289  0.0000E+00  0.8000E+01
    -84.256  0.0000E+00  0.8000E+01
    -83.224  0.0000E+00  0.8000E+01
    -82.191  0.0000E+00  0.8000E+01
    -81.159  0.0000E+00  0.8000E+01
    -80.126  0.0000E+00  0.8000E+01
    -79.093  0.0000E+00  0.8000E+01
    -78.061  0.0000E+00  0.8000E+01
    -77.028  0.0000E+00  0.8000E+01
    -75.996  0.0000E+00  0.8000E+01
    -74.963  0.0000E+00  0.8000E+01
    -73.930  0.0000E+00  0.8000E+01
    -72.898  0.0000E+00  0.8000E+01
    -71.865  0.0000E+00  0.8000E+01
    -70.832  0.0000E+00  0.8000E+01
    -69.800  0.0000E+00  0.8000E+01
    -68.767  0.0000E+00  0.8000E+01
    -67.735  0.0000E+00  0.8000E+01
    -66.702  0.0000E+00  0.8000E+01
    -65.669  0.0000E+00  0.8000E+01
    -64.637  0.0000E+00  0.8000E+01
    -63.604  0.0000E+00  0.8000E+01
    -62.572  0.0000E+00  0.8000E+01
    -61.539  0.0000E+00  0.8000E+01
    -60.506  0.0000E+00  0.8000E+01
    -59.474  0.0000E+00  0.8000E+01
    -58.441  0.0000E+00  0.8000E+01
    -57.409  0.0000E+00  0.8000E+01
    -56.376  0.0000E+00  0.8000E+01
    -55.343  0.0000E+00  0.8000E+01
    -54.311  0.0000E+00  0.8000E+01
    -53.278  0.0000E+00  0.8000E+01
    -52.246  0.0000E+00  0.8000E+01
    -51.213  0.0000E+00  0.8000E+01
    -50.180  0.0000E+00  0.8000E+01
    -49.148  0.0000E+00  0.8000E+01
    -48.115  0.0000E+00  0.8000E+01
    -47.083  0.0000E+00  0.8000E+01
    -46.050  0.0000E+00  0.8000E+01
    -45.017  0.0000E+00  0.8000E+01
    -43.985  0.0000E+00  0.8000E+01
    -42.952  0.0000E+00  0.1200E+02
    -41.920  0.0000E+00  0.1200E+02
    -40.887  0.0000E+00  0.1200E+02
    -39.854  0.0000E+00  0.1200E+02
    -38.822  0.0000E+00  0.1800E+02
    -37.789  0.0000E+00  0.1800E+02
    -36.757  0.0000E+00  0.1800E+02
    -35.724  0.0000E+00  0.1800E+02
    -34.691  0.0000E+00  0.1800E+02
    -33.659  0.0000E+00  0.1800E+02
    -32.626  0.0000E+00  0.1800E+02
    -31.594  0.0000E+00  0.1800E+02
    -30.561  0.0000E+00  0.1800E+02
    -29.528  0.0000E+00  0.1800E+02
    -28.496  0.0000E+00  0.1800E+02
    -27.463  0.0000E+00  0.1800E+02
    -26.431  0.0000E+00  0.1800E+02
    -25.398  0.0000E+00  0.1800E+02
    -24.365  0.0000E+00  0.1800E+02
    -23.333  0.0000E+00  0.1800E+02
    -22.300  0.0000E+00  0.1800E+02
    -21.268  0.0000E+00  0.1800E+02
    -20.235  0.0000E+00  0.1800E+02
    -19.202  0.0000E+00  0.1800E+02
    -18.170  0.0000E+00  0.1800E+02
    -17.137  0.0000E+00  0.1800E+02
    -16.105  0.0000E+00  0.2000E+02
    -15.072  0.0000E+00  0.2000E+02
    -14.039  0.0000E+00  0.2000E+02
    -13.007  0.0000E+00  0.2000E+02
    -11.974  0.0000E+00  0.2000E+02
    -10.942  0.0000E+00  0.2000E+02
     -9.909  0.0000E+00  0.2000E+02
     -8.876  0.0000E+00  0.2000E+02
     -7.844  0.0000E+00  0.2000E+02
     -6.811  0.0000E+00  0.2000E+02
     -5.779  0.0000E+00  0.2000E+02
     -4.746  0.0000E+00  0.2000E+02
     -3.713  0.8193E-02  0.2200E+02
     -2.681  0.0000E+00  0.2200E+02
     -1.648  0.5198E+00  0.2345E+02
     -0.616  0.2155E+00  0.2563E+02
      0.417  0.0000E+00  0.2600E+02
      1.450  0.0000E+00  0.2600E+02
      2.482  0.0000E+00  0.2600E+02
      3.515  0.8967E-02  0.2601E+02
      4.548  0.2776E-10  0.2608E+02
      5.580  0.2663E+00  0.2666E+02
      6.613  0.2342E+00  0.2810E+02
      7.645  0.4820E+00  0.3003E+02
      8.678  0.8125E-01  0.3111E+02
      9.711  0.1076E+00  0.3350E+02
     10.743  0.4418E+00  0.3466E+02
     11.776  0.1284E+00  0.3623E+02
     12.808  0.4059E+00  0.3809E+02
     13.841  0.5380E-01  0.3948E+02
     14.874  0.2423E+00  0.4256E+02
     15.906  0.1044E-11  0.4375E+02
     16.939  0.4662E+00  0.4692E+02
     17.971  0.6456E+00  0.5129E+02
     19.004  0.4171E+00  0.5294E+02
     20.037  0.7462E+00  0.5491E+02
     21.069  0.3228E+00  0.5695E+02
     22.102  0.1081E+00  0.5935E+02
     23.134  0.5636E+00  0.6300E+02
     24.167  0.3188E+00  0.6565E+02
     25.200  0.3987E-01  0.6671E+02
     26.232  0.2331E+00  0.6932E+02
     27.265  0.2556E+00  0.7157E+02
     28.297  0.1076E+00  0.7406E+02
     29.330  0.1185E+01  0.7836E+02
     30.363  0.3397E+00  0.8015E+02
     31.395  0.2098E+00  0.8185E+02
     32.428  0.6165E+00  0.8476E+02
     33.460  0.7212E+00  0.8828E+02
     34.493  0.2952E+00  0.9116E+02
     35.526  0.8415E-02  0.9337E+02
     36.558  0.5218E+00  0.9598E+02
     37.591  0.4297E+00  0.9856E+02
     38.623  0.3228E+00  0.1013E+03
     39.656  0.3229E+00  0.1043E+03
     40.689  0.2901E+00  0.1066E+03
     41.721  0.4343E+00  0.1100E+03
     42.754  0.8595E+00  0.1135E+03
     43.786  0.1805E+00  0.1166E+03
     44.819  0.6751E+00  0.1192E+03
     45.852  0.4857E+00  0.1225E+03
     46.884  0.6411E+00  0.1260E+03
     47.917  0.2996E+00  0.1287E+03
     48.949  0.2753E+00  0.1310E+03
     49.982  0.4906E+00  0.1345E+03
     51.015  0.6510E+00  0.1385E+03
     52.047  0.2870E+00  0.1414E+03
     53.080  0.8399E+00  0.1446E+03
     54.112  0.6449E+00  0.1478E+03
     55.145  0.1542E+00  0.1504E+03
     56.178  0.5633E+00  0.1539E+03
     57.210  0.6646E+00  0.1565E+03
     58.243  0.9618E+00  0.1611E+03
     59.275  0.4771E+00  0.1642E+03
     60.308  0.6743E+00  0.1674E+03
     61.341  0.1210E+01  0.1709E+03
     62.373  0.7703E+00  0.1759E+03
     63.406  0.3416E+00  0.1786E+03
     64.438  0.6473E-01  0.1817E+03
     65.471  0.3124E+00  0.1852E+03
     66.504  0.5008E+00  0.1890E+03
     67.536  0.7620E+00  0.1931E+03
     68.569  0.7566E+00  0.1960E+03
     69.601  0.4028E+00  0.1995E+03
     70.634  0.9068E+00  0.2035E+03
     71.667  0.2024E+00  0.2078E+03
     72.699  0.1627E+00  0.2108E+03
     73.732  0.6866E+00  0.2151E+03
     74.764  0.9121E+00  0.2189E+03
     75.797  0.2974E+00  0.2220E+03
     76.830  0.1419E+01  0.2270E+03
     77.862  0.2457E+00  0.2301E+03
     78.895  0.7430E+00  0.2344E+03
     79.928  0.2707E-01  0.2385E+03
     80.960  0.3114E+00  0.2419E+03
     81.993  0.5247E+00  0.2456E+03
     83.025  0.2218E+00  0.2490E+03
     84.058  0.4653E+00  0.2530E+03
     85.091  0.1550E+00  0.2552E+03
     86.123  0.0000E+00  0.2560E+03
     87.156  0.0000E+00  0.2560E+03
     88.188  0.0000E+00  0.2560E+03
     89.221  0.0000E+00  0.2560E+03
     90.254  0.0000E+00  0.2560E+03
     91.286  0.0000E+00  0.2560E+03
     92.319  0.0000E+00  0.2560E+03
     93.351  0.0000E+00  0.2560E+03
     94.384  0.0000E+00  0.2560E+03
     95.417  0.0000E+00  0.2560E+03
     96.449  0.0000E+00  0.2560E+03
     97.482  0.0000E+00  0.2560E+03
     98.514  0.0000E+00  0.2560E+03
     99.547  0.0000E+00  0.2560E+03
