    1    1    1    1
  0.6083477E+02  0.4414576E-09  0.4414576E-09  0.4414576E-09  0.1000000E-15
  1.000000000000000E-004
  CAR 
 Og_FCC                                  
     26    216    256
 
  0.0000000E+00  0.0000000E+00  0.0000000E+00  0.4629630E-02
    1     -196.141339   1.000000
    2     -196.141339   1.000000
    3     -141.775212   1.000000
    4     -141.775212   1.000000
    5     -113.615555   1.000000
    6     -113.615555   1.000000
    7     -113.615553   1.000000
    8     -113.615553   1.000000
    9      -43.540777   1.000000
   10      -43.540777   1.000000
   11      -43.540774   1.000000
   12      -43.540774   1.000000
   13      -39.130788   1.000000
   14      -39.130788   1.000000
   15      -39.129235   1.000000
   16      -39.129235   1.000000
   17      -39.129231   1.000000
   18      -39.129231   1.000000
   19      -16.592849   1.000000
   20      -16.592849   1.000000
   21       -3.732606   1.000000
   22       -3.732606   1.000000
   23       -0.271631   1.000000
   24       -0.271631   1.000000
   25       -0.271630   1.000000
   26       -0.271630   1.000000
   27        3.407969   0.000000
   28        3.407969   0.000000
   29        8.677097   0.000000
   30        8.677097   0.000000
   31        8.677098   0.000000
   32        8.677098   0.000000
   33        8.834767   0.000000
   34        8.834767   0.000000
   35       10.433388   0.000000
   36       10.433388   0.000000
   37       11.284315   0.000000
   38       11.284315   0.000000
   39       11.284316   0.000000
   40       11.284316   0.000000
   41       12.506240   0.000000
   42       12.506240   0.000000
   43       12.593015   0.000000
   44       12.593015   0.000000
   45       12.593017   0.000000
   46       12.593017   0.000000
   47       15.264287   0.000000
   48       15.264287   0.000000
   49       19.486701   0.000000
   50       19.486701   0.000000
   51       19.519782   0.000000
   52       19.519782   0.000000
   53       19.519783   0.000000
   54       19.519783   0.000000
   55       22.740303   0.000000
   56       22.740303   0.000000
   57       23.828783   0.000000
   58       23.828783   0.000000
   59       23.828784   0.000000
   60       23.828784   0.000000
   61       24.600475   0.000000
   62       24.600475   0.000000
   63       26.180536   0.000000
   64       26.180536   0.000000
   65       26.180537   0.000000
   66       26.180537   0.000000
   67       26.309621   0.000000
   68       26.309621   0.000000
   69       26.538466   0.000000
   70       26.538466   0.000000
   71       27.067888   0.000000
   72       27.067888   0.000000
   73       27.067889   0.000000
   74       27.067889   0.000000
   75       27.496010   0.000000
   76       27.496010   0.000000
   77       27.496011   0.000000
   78       27.496011   0.000000
   79       29.004771   0.000000
   80       29.004771   0.000000
   81       35.142079   0.000000
   82       35.142079   0.000000
   83       35.166605   0.000000
   84       35.166605   0.000000
   85       35.166606   0.000000
   86       35.166606   0.000000
   87       37.077917   0.000000
   88       37.077917   0.000000
   89       37.077918   0.000000
   90       37.077918   0.000000
   91       37.382193   0.000000
   92       37.382193   0.000000
   93       37.482001   0.000000
   94       37.482001   0.000000
   95       37.482001   0.000000
   96       37.482001   0.000000
   97       37.482001   0.000000
   98       37.482001   0.000000
   99       38.219099   0.000000
  100       38.219099   0.000000
  101       38.219101   0.000000
  102       38.219101   0.000000
  103       38.399510   0.000000
  104       38.399510   0.000000
  105       38.896132   0.000000
  106       38.896132   0.000000
  107       38.896137   0.000000
  108       38.896137   0.000000
  109       40.526048   0.000000
  110       40.526048   0.000000
  111       40.526050   0.000000
  112       40.526050   0.000000
  113       40.565374   0.000000
  114       40.565374   0.000000
  115       41.234258   0.000000
  116       41.234258   0.000000
  117       41.290080   0.000000
  118       41.290081   0.000000
  119       41.290081   0.000000
  120       41.290081   0.000000
  121       43.485272   0.000000
  122       43.485272   0.000000
  123       43.516501   0.000000
  124       43.516501   0.000000
  125       43.516504   0.000000
  126       43.516504   0.000000
  127       43.777353   0.000000
  128       43.777353   0.000000
  129       44.502295   0.000000
  130       44.502295   0.000000
  131       44.758790   0.000000
  132       44.758790   0.000000
  133       44.758792   0.000000
  134       44.758792   0.000000
  135       44.775727   0.000000
  136       44.775727   0.000000
  137       45.826618   0.000000
  138       45.826618   0.000000
  139       45.870532   0.000000
  140       45.870532   0.000000
  141       45.870534   0.000000
  142       45.870534   0.000000
  143       49.195369   0.000000
  144       49.195369   0.000000
  145       49.195375   0.000000
  146       49.195375   0.000000
  147       49.272273   0.000000
  148       49.272273   0.000000
  149       52.331604   0.000000
  150       52.331604   0.000000
  151       57.346816   0.000000
  152       57.346816   0.000000
  153       57.599267   0.000000
  154       57.599267   0.000000
  155       57.599268   0.000000
  156       57.599268   0.000000
  157       61.548872   0.000000
  158       61.548872   0.000000
  159       61.873220   0.000000
  160       61.873220   0.000000
  161       61.873224   0.000000
  162       61.873224   0.000000
  163       63.965825   0.000000
  164       63.965825   0.000000
  165       63.965827   0.000000
  166       63.965827   0.000000
  167       65.349849   0.000000
  168       65.349849   0.000000
  169       65.349852   0.000000
  170       65.349852   0.000000
  171       65.440648   0.000000
  172       65.440648   0.000000
  173       68.230543   0.000000
  174       68.230543   0.000000
  175       68.256926   0.000000
  176       68.256926   0.000000
  177       68.256926   0.000000
  178       68.256926   0.000000
  179       68.256927   0.000000
  180       68.256927   0.000000
  181       69.239420   0.000000
  182       69.239420   0.000000
  183       69.239421   0.000000
  184       69.239421   0.000000
  185       70.271101   0.000000
  186       70.271101   0.000000
  187       70.271103   0.000000
  188       70.271103   0.000000
  189       70.951788   0.000000
  190       70.951788   0.000000
  191       70.951791   0.000000
  192       70.951791   0.000000
  193       71.336087   0.000000
  194       71.336087   0.000000
  195       71.336087   0.000000
  196       71.336087   0.000000
  197       71.336088   0.000000
  198       71.336088   0.000000
  199       71.339602   0.000000
  200       71.339602   0.000000
  201       71.437867   0.000000
  202       71.437867   0.000000
  203       71.440843   0.000000
  204       71.440843   0.000000
  205       71.440844   0.000000
  206       71.440844   0.000000
  207       71.580948   0.000000
  208       71.580948   0.000000
  209       72.500412   0.000000
  210       72.500412   0.000000
  211       72.735855   0.000000
  212       72.735855   0.000000
  213       72.735864   0.000000
  214       72.735864   0.000000
  215       73.568635   0.000000
  216       73.568635   0.000000
  217       74.499309   0.000000
  218       74.499309   0.000000
  219       74.499310   0.000000
  220       74.499310   0.000000
  221       75.182127   0.000000
  222       75.182127   0.000000
  223       75.201158   0.000000
  224       75.201158   0.000000
  225       75.203032   0.000000
  226       75.203032   0.000000
  227       75.203033   0.000000
  228       75.203033   0.000000
  229       75.340768   0.000000
  230       75.340768   0.000000
  231       75.340770   0.000000
  232       75.340770   0.000000
  233       75.391024   0.000000
  234       75.391024   0.000000
  235       75.926568   0.000000
  236       75.926568   0.000000
  237       75.926578   0.000000
  238       75.926578   0.000000
  239       76.340183   0.000000
  240       76.340183   0.000000
  241       76.340185   0.000000
  242       76.340185   0.000000
  243       77.262833   0.000000
  244       77.262833   0.000000
  245       79.259520   0.000000
  246       79.259520   0.000000
  247       80.238034   0.000000
  248       80.238034   0.000000
  249       80.277776   0.000000
  250       80.277776   0.000000
  251       80.277790   0.000000
  252       80.277790   0.000000
  253       81.961722   0.000000
  254       81.961722   0.000000
  255       81.990268   0.000000
  256       81.990268   0.000000
 
  0.1666667E+00  0.1538294E-16  0.3469447E-16  0.4629630E-02
    1     -196.127954   1.000000
    2     -196.127954   1.000000
    3     -141.744874   1.000000
    4     -141.744874   1.000000
    5     -113.615011   1.000000
    6     -113.615011   1.000000
    7     -113.614456   1.000000
    8     -113.614456   1.000000
    9      -43.536701   1.000000
   10      -43.536701   1.000000
   11      -43.528756   1.000000
   12      -43.528756   1.000000
   13      -39.128321   1.000000
   14      -39.128321   1.000000
   15      -39.124808   1.000000
   16      -39.124808   1.000000
   17      -39.123255   1.000000
   18      -39.123255   1.000000
   19      -16.551912   1.000000
   20      -16.551912   1.000000
   21       -3.907821   1.000000
   22       -3.907821   1.000000
   23       -0.859115   1.000000
   24       -0.859115   1.000000
   25       -0.350188   1.000000
   26       -0.350188   1.000000
   27        4.307389   0.000000
   28        4.307389   0.000000
   29        7.999210   0.000000
   30        7.999210   0.000000
   31        8.876270   0.000000
   32        8.876270   0.000000
   33        9.027398   0.000000
   34        9.027398   0.000000
   35       10.466535   0.000000
   36       10.466535   0.000000
   37       10.545649   0.000000
   38       10.545649   0.000000
   39       11.266762   0.000000
   40       11.266762   0.000000
   41       12.504776   0.000000
   42       12.504776   0.000000
   43       14.190132   0.000000
   44       14.190132   0.000000
   45       14.236543   0.000000
   46       14.236543   0.000000
   47       17.004055   0.000000
   48       17.004055   0.000000
   49       18.574016   0.000000
   50       18.574016   0.000000
   51       18.651751   0.000000
   52       18.651751   0.000000
   53       19.572536   0.000000
   54       19.572536   0.000000
   55       20.663089   0.000000
   56       20.663089   0.000000
   57       22.654352   0.000000
   58       22.654352   0.000000
   59       23.206880   0.000000
   60       23.206880   0.000000
   61       24.232505   0.000000
   62       24.232505   0.000000
   63       25.261337   0.000000
   64       25.261337   0.000000
   65       25.380470   0.000000
   66       25.380470   0.000000
   67       25.506123   0.000000
   68       25.506123   0.000000
   69       26.870113   0.000000
   70       26.870113   0.000000
   71       27.114513   0.000000
   72       27.114513   0.000000
   73       27.958525   0.000000
   74       27.958525   0.000000
   75       28.493031   0.000000
   76       28.493031   0.000000
   77       29.197501   0.000000
   78       29.197501   0.000000
   79       32.124387   0.000000
   80       32.124387   0.000000
   81       33.743527   0.000000
   82       33.743527   0.000000
   83       33.807129   0.000000
   84       33.807129   0.000000
   85       34.076875   0.000000
   86       34.076875   0.000000
   87       34.083887   0.000000
   88       34.083887   0.000000
   89       34.887943   0.000000
   90       34.887943   0.000000
   91       35.122757   0.000000
   92       35.122757   0.000000
   93       37.105065   0.000000
   94       37.105065   0.000000
   95       37.276600   0.000000
   96       37.276600   0.000000
   97       37.522007   0.000000
   98       37.522007   0.000000
   99       37.719591   0.000000
  100       37.719591   0.000000
  101       37.778102   0.000000
  102       37.778102   0.000000
  103       38.690805   0.000000
  104       38.690805   0.000000
  105       38.746584   0.000000
  106       38.746584   0.000000
  107       39.029814   0.000000
  108       39.029814   0.000000
  109       39.186877   0.000000
  110       39.186877   0.000000
  111       40.899619   0.000000
  112       40.899619   0.000000
  113       40.994367   0.000000
  114       40.994367   0.000000
  115       41.585658   0.000000
  116       41.585658   0.000000
  117       42.313343   0.000000
  118       42.313343   0.000000
  119       42.608583   0.000000
  120       42.608583   0.000000
  121       42.613222   0.000000
  122       42.613222   0.000000
  123       44.755230   0.000000
  124       44.755230   0.000000
  125       44.814902   0.000000
  126       44.814902   0.000000
  127       45.733812   0.000000
  128       45.733812   0.000000
  129       46.505418   0.000000
  130       46.505418   0.000000
  131       46.714822   0.000000
  132       46.714822   0.000000
  133       46.783961   0.000000
  134       46.783961   0.000000
  135       46.816039   0.000000
  136       46.816039   0.000000
  137       47.997719   0.000000
  138       47.997719   0.000000
  139       48.053472   0.000000
  140       48.053472   0.000000
  141       48.613242   0.000000
  142       48.613242   0.000000
  143       49.511220   0.000000
  144       49.511220   0.000000
  145       49.541092   0.000000
  146       49.541092   0.000000
  147       50.979878   0.000000
  148       50.979878   0.000000
  149       53.149109   0.000000
  150       53.149109   0.000000
  151       55.651192   0.000000
  152       55.651192   0.000000
  153       55.713424   0.000000
  154       55.713424   0.000000
  155       56.699411   0.000000
  156       56.699411   0.000000
  157       60.627513   0.000000
  158       60.627513   0.000000
  159       60.910414   0.000000
  160       60.910414   0.000000
  161       62.116618   0.000000
  162       62.116618   0.000000
  163       62.134488   0.000000
  164       62.134488   0.000000
  165       62.221444   0.000000
  166       62.221444   0.000000
  167       63.091783   0.000000
  168       63.091783   0.000000
  169       64.445008   0.000000
  170       64.445008   0.000000
  171       65.248614   0.000000
  172       65.248614   0.000000
  173       65.277793   0.000000
  174       65.277793   0.000000
  175       65.708208   0.000000
  176       65.708208   0.000000
  177       66.158937   0.000000
  178       66.158937   0.000000
  179       66.175961   0.000000
  180       66.175961   0.000000
  181       67.349210   0.000000
  182       67.349210   0.000000
  183       67.493749   0.000000
  184       67.493749   0.000000
  185       67.866397   0.000000
  186       67.866397   0.000000
  187       68.281814   0.000000
  188       68.281814   0.000000
  189       68.365898   0.000000
  190       68.365898   0.000000
  191       69.248710   0.000000
  192       69.248710   0.000000
  193       69.627289   0.000000
  194       69.627289   0.000000
  195       69.927904   0.000000
  196       69.927904   0.000000
  197       70.267679   0.000000
  198       70.267679   0.000000
  199       70.357183   0.000000
  200       70.357183   0.000000
  201       71.396942   0.000000
  202       71.396942   0.000000
  203       71.679096   0.000000
  204       71.679096   0.000000
  205       71.715190   0.000000
  206       71.715190   0.000000
  207       71.949281   0.000000
  208       71.949281   0.000000
  209       73.332194   0.000000
  210       73.332194   0.000000
  211       73.626694   0.000000
  212       73.626694   0.000000
  213       73.735112   0.000000
  214       73.735112   0.000000
  215       74.108374   0.000000
  216       74.108374   0.000000
  217       74.304437   0.000000
  218       74.304437   0.000000
  219       74.468157   0.000000
  220       74.468157   0.000000
  221       75.535750   0.000000
  222       75.535750   0.000000
  223       76.555487   0.000000
  224       76.555487   0.000000
  225       76.761051   0.000000
  226       76.761051   0.000000
  227       76.799247   0.000000
  228       76.799247   0.000000
  229       76.848379   0.000000
  230       76.848379   0.000000
  231       77.954912   0.000000
  232       77.954912   0.000000
  233       78.005349   0.000000
  234       78.005349   0.000000
  235       78.287382   0.000000
  236       78.287382   0.000000
  237       79.174378   0.000000
  238       79.174378   0.000000
  239       79.320428   0.000000
  240       79.320428   0.000000
  241       79.348634   0.000000
  242       79.348634   0.000000
  243       79.467712   0.000000
  244       79.467712   0.000000
  245       80.390889   0.000000
  246       80.390889   0.000000
  247       81.055772   0.000000
  248       81.055772   0.000000
  249       81.755162   0.000000
  250       81.755162   0.000000
  251       81.805392   0.000000
  252       81.805392   0.000000
  253       82.789378   0.000000
  254       82.789378   0.000000
  255       82.796843   0.000000
  256       82.796843   0.000000
 
  0.3333333E+00  0.5852146E-16  0.6938894E-16  0.4629630E-02
    1     -196.152926   1.000000
    2     -196.152926   1.000000
    3     -141.809858   1.000000
    4     -141.809858   1.000000
    5     -113.615042   1.000000
    6     -113.615042   1.000000
    7     -113.614989   1.000000
    8     -113.614989   1.000000
    9      -43.548987   1.000000
   10      -43.548987   1.000000
   11      -43.546924   1.000000
   12      -43.546924   1.000000
   13      -39.132864   1.000000
   14      -39.132864   1.000000
   15      -39.132213   1.000000
   16      -39.132213   1.000000
   17      -39.131317   1.000000
   18      -39.131317   1.000000
   19      -16.468382   1.000000
   20      -16.468382   1.000000
   21       -4.290604   1.000000
   22       -4.290604   1.000000
   23       -1.568735   1.000000
   24       -1.568735   1.000000
   25       -0.500545   1.000000
   26       -0.500545   1.000000
   27        5.163469   0.000000
   28        5.163469   0.000000
   29        8.410766   0.000000
   30        8.410766   0.000000
   31        8.547656   0.000000
   32        8.547656   0.000000
   33        8.719138   0.000000
   34        8.719138   0.000000
   35       10.498261   0.000000
   36       10.498261   0.000000
   37       11.272870   0.000000
   38       11.272870   0.000000
   39       11.402960   0.000000
   40       11.402960   0.000000
   41       15.406819   0.000000
   42       15.406819   0.000000
   43       16.005397   0.000000
   44       16.005397   0.000000
   45       16.209888   0.000000
   46       16.209888   0.000000
   47       16.572191   0.000000
   48       16.572191   0.000000
   49       16.699820   0.000000
   50       16.699820   0.000000
   51       16.886934   0.000000
   52       16.886934   0.000000
   53       19.688171   0.000000
   54       19.688171   0.000000
   55       20.038806   0.000000
   56       20.038806   0.000000
   57       22.334010   0.000000
   58       22.334010   0.000000
   59       22.823324   0.000000
   60       22.823324   0.000000
   61       23.090873   0.000000
   62       23.090873   0.000000
   63       24.159052   0.000000
   64       24.159052   0.000000
   65       24.544268   0.000000
   66       24.544268   0.000000
   67       25.197794   0.000000
   68       25.197794   0.000000
   69       27.238707   0.000000
   70       27.238707   0.000000
   71       27.360903   0.000000
   72       27.360903   0.000000
   73       27.740798   0.000000
   74       27.740798   0.000000
   75       28.705283   0.000000
   76       28.705283   0.000000
   77       29.007241   0.000000
   78       29.007241   0.000000
   79       29.697627   0.000000
   80       29.697627   0.000000
   81       32.114732   0.000000
   82       32.114732   0.000000
   83       32.242752   0.000000
   84       32.242752   0.000000
   85       32.266688   0.000000
   86       32.266688   0.000000
   87       32.367700   0.000000
   88       32.367700   0.000000
   89       33.355482   0.000000
   90       33.355482   0.000000
   91       33.639306   0.000000
   92       33.639306   0.000000
   93       36.770566   0.000000
   94       36.770566   0.000000
   95       36.822336   0.000000
   96       36.822336   0.000000
   97       36.892254   0.000000
   98       36.892254   0.000000
   99       37.266769   0.000000
  100       37.266769   0.000000
  101       37.396061   0.000000
  102       37.396061   0.000000
  103       39.282588   0.000000
  104       39.282588   0.000000
  105       39.749933   0.000000
  106       39.749933   0.000000
  107       39.758171   0.000000
  108       39.758171   0.000000
  109       40.504001   0.000000
  110       40.504001   0.000000
  111       41.211572   0.000000
  112       41.211572   0.000000
  113       42.469392   0.000000
  114       42.469392   0.000000
  115       42.648885   0.000000
  116       42.648885   0.000000
  117       43.054183   0.000000
  118       43.054183   0.000000
  119       44.068198   0.000000
  120       44.068198   0.000000
  121       44.194847   0.000000
  122       44.194847   0.000000
  123       46.648147   0.000000
  124       46.648147   0.000000
  125       48.227839   0.000000
  126       48.227839   0.000000
  127       48.325457   0.000000
  128       48.325457   0.000000
  129       48.734832   0.000000
  130       48.734832   0.000000
  131       48.746344   0.000000
  132       48.746344   0.000000
  133       48.824647   0.000000
  134       48.824647   0.000000
  135       49.658873   0.000000
  136       49.658873   0.000000
  137       50.710545   0.000000
  138       50.710545   0.000000
  139       51.067510   0.000000
  140       51.067510   0.000000
  141       51.137983   0.000000
  142       51.137983   0.000000
  143       52.390903   0.000000
  144       52.390903   0.000000
  145       52.453712   0.000000
  146       52.453712   0.000000
  147       53.120372   0.000000
  148       53.120372   0.000000
  149       53.156715   0.000000
  150       53.156715   0.000000
  151       53.347151   0.000000
  152       53.347151   0.000000
  153       55.476823   0.000000
  154       55.476823   0.000000
  155       55.940517   0.000000
  156       55.940517   0.000000
  157       56.057384   0.000000
  158       56.057384   0.000000
  159       56.140124   0.000000
  160       56.140124   0.000000
  161       58.579882   0.000000
  162       58.579882   0.000000
  163       59.256804   0.000000
  164       59.256804   0.000000
  165       60.029086   0.000000
  166       60.029086   0.000000
  167       60.301382   0.000000
  168       60.301382   0.000000
  169       61.621930   0.000000
  170       61.621930   0.000000
  171       61.649227   0.000000
  172       61.649227   0.000000
  173       61.698539   0.000000
  174       61.698539   0.000000
  175       62.579010   0.000000
  176       62.579010   0.000000
  177       62.903798   0.000000
  178       62.903798   0.000000
  179       62.943474   0.000000
  180       62.943474   0.000000
  181       64.657119   0.000000
  182       64.657119   0.000000
  183       64.876320   0.000000
  184       64.876320   0.000000
  185       68.132349   0.000000
  186       68.132349   0.000000
  187       68.530196   0.000000
  188       68.530196   0.000000
  189       68.623351   0.000000
  190       68.623351   0.000000
  191       69.483680   0.000000
  192       69.483680   0.000000
  193       69.519761   0.000000
  194       69.519761   0.000000
  195       70.095924   0.000000
  196       70.095924   0.000000
  197       70.225949   0.000000
  198       70.225949   0.000000
  199       70.443363   0.000000
  200       70.443363   0.000000
  201       70.981561   0.000000
  202       70.981561   0.000000
  203       71.069435   0.000000
  204       71.069435   0.000000
  205       71.098350   0.000000
  206       71.098350   0.000000
  207       71.424144   0.000000
  208       71.424144   0.000000
  209       71.648596   0.000000
  210       71.648596   0.000000
  211       71.747532   0.000000
  212       71.747532   0.000000
  213       72.207738   0.000000
  214       72.207738   0.000000
  215       74.550020   0.000000
  216       74.550020   0.000000
  217       74.830975   0.000000
  218       74.830975   0.000000
  219       75.090325   0.000000
  220       75.090325   0.000000
  221       75.775905   0.000000
  222       75.775905   0.000000
  223       76.742879   0.000000
  224       76.742879   0.000000
  225       76.743575   0.000000
  226       76.743575   0.000000
  227       77.198913   0.000000
  228       77.198913   0.000000
  229       78.141564   0.000000
  230       78.141564   0.000000
  231       79.132831   0.000000
  232       79.132831   0.000000
  233       79.159762   0.000000
  234       79.159762   0.000000
  235       79.191774   0.000000
  236       79.191774   0.000000
  237       79.629276   0.000000
  238       79.629276   0.000000
  239       79.690178   0.000000
  240       79.690178   0.000000
  241       80.459420   0.000000
  242       80.459420   0.000000
  243       81.042670   0.000000
  244       81.042670   0.000000
  245       81.072064   0.000000
  246       81.072064   0.000000
  247       82.090699   0.000000
  248       82.090699   0.000000
  249       82.660297   0.000000
  250       82.660297   0.000000
  251       83.682122   0.000000
  252       83.682122   0.000000
  253       83.743443   0.000000
  254       83.743443   0.000000
  255       84.190421   0.000000
  256       84.190421   0.000000
 
  0.5000000E+00  0.3227103E-16  0.5551115E-16  0.4629630E-02
    1     -196.135065   1.000000
    2     -196.135065   1.000000
    3     -141.761270   1.000000
    4     -141.761270   1.000000
    5     -113.614681   1.000000
    6     -113.614681   1.000000
    7     -113.614371   1.000000
    8     -113.614371   1.000000
    9      -43.537288   1.000000
   10      -43.537288   1.000000
   11      -43.536253   1.000000
   12      -43.536253   1.000000
   13      -39.127756   1.000000
   14      -39.127756   1.000000
   15      -39.127253   1.000000
   16      -39.127253   1.000000
   17      -39.126348   1.000000
   18      -39.126348   1.000000
   19      -16.424862   1.000000
   20      -16.424862   1.000000
   21       -4.490484   1.000000
   22       -4.490484   1.000000
   23       -1.807346   1.000000
   24       -1.807346   1.000000
   25       -0.568339   1.000000
   26       -0.568339   1.000000
   27        5.206319   0.000000
   28        5.206319   0.000000
   29        8.291942   0.000000
   30        8.291942   0.000000
   31        8.449620   0.000000
   32        8.449620   0.000000
   33        9.108485   0.000000
   34        9.108485   0.000000
   35       10.855902   0.000000
   36       10.855902   0.000000
   37       13.413768   0.000000
   38       13.413768   0.000000
   39       13.429657   0.000000
   40       13.429657   0.000000
   41       13.553395   0.000000
   42       13.553395   0.000000
   43       13.614865   0.000000
   44       13.614865   0.000000
   45       14.433144   0.000000
   46       14.433144   0.000000
   47       17.722792   0.000000
   48       17.722792   0.000000
   49       18.136486   0.000000
   50       18.136486   0.000000
   51       18.140574   0.000000
   52       18.140574   0.000000
   53       19.785286   0.000000
   54       19.785286   0.000000
   55       21.200111   0.000000
   56       21.200111   0.000000
   57       22.282772   0.000000
   58       22.282772   0.000000
   59       22.569939   0.000000
   60       22.569939   0.000000
   61       22.618004   0.000000
   62       22.618004   0.000000
   63       23.083478   0.000000
   64       23.083478   0.000000
   65       23.979450   0.000000
   66       23.979450   0.000000
   67       25.614846   0.000000
   68       25.614846   0.000000
   69       26.301135   0.000000
   70       26.301135   0.000000
   71       27.394424   0.000000
   72       27.394424   0.000000
   73       27.678653   0.000000
   74       27.678653   0.000000
   75       27.993650   0.000000
   76       27.993650   0.000000
   77       28.357240   0.000000
   78       28.357240   0.000000
   79       28.810433   0.000000
   80       28.810433   0.000000
   81       29.850785   0.000000
   82       29.850785   0.000000
   83       31.679860   0.000000
   84       31.679860   0.000000
   85       31.690354   0.000000
   86       31.690354   0.000000
   87       31.732155   0.000000
   88       31.732155   0.000000
   89       33.167271   0.000000
   90       33.167271   0.000000
   91       33.484661   0.000000
   92       33.484661   0.000000
   93       36.578317   0.000000
   94       36.578317   0.000000
   95       36.639887   0.000000
   96       36.639887   0.000000
   97       37.110321   0.000000
   98       37.110321   0.000000
   99       37.219506   0.000000
  100       37.219506   0.000000
  101       37.274398   0.000000
  102       37.274398   0.000000
  103       39.782721   0.000000
  104       39.782722   0.000000
  105       39.910822   0.000000
  106       39.910822   0.000000
  107       40.526699   0.000000
  108       40.526699   0.000000
  109       41.169173   0.000000
  110       41.169173   0.000000
  111       43.729616   0.000000
  112       43.729616   0.000000
  113       43.746180   0.000000
  114       43.746180   0.000000
  115       44.512753   0.000000
  116       44.512753   0.000000
  117       44.586636   0.000000
  118       44.586636   0.000000
  119       45.977085   0.000000
  120       45.977085   0.000000
  121       46.340710   0.000000
  122       46.340710   0.000000
  123       46.439674   0.000000
  124       46.439674   0.000000
  125       47.739835   0.000000
  126       47.739835   0.000000
  127       47.862820   0.000000