       N       E                     dE             d eps       ncg     rms          rms(c)
DIA:   1    -0.460661166165E+01   -0.46066E+01    0.00000E+00     0   0.000E+00
DIA:   2    -0.460661166165E+01   -0.18190E-11    0.00000E+00     0   0.000E+00
DIA:   3    -0.460661166166E+01   -0.54570E-11    0.00000E+00     0   0.000E+00
DIA:   4    -0.460661166166E+01    0.18190E-11    0.00000E+00     0   0.000E+00
DIA:   5    -0.460661166165E+01    0.72760E-11    0.00000E+00     0   0.000E+00    0.125E-06
DIA:   6    -0.460661166172E+01   -0.75488E-10    0.00000E+00     0   0.000E+00
   1 F= -.48306020E+01 E0= -.48306020E+01  d E =-.548640E-36  mag=     0.0000     0.0000     0.0000
 imaginary and real dielectric function
