<?xml version="1.0" encoding="ISO-8859-1"?>
<modeling>
 <generator>
  <i name="program" type="string">vasp </i>
  <i name="version" type="string">5.4.4.18Apr17-6-g9f103f2a35  </i>
  <i name="subversion" type="string">(build Nov 03 2018 10:20:46) complex            parallel </i>
  <i name="platform" type="string">LinuxIFC </i>
  <i name="date" type="string">2019 01 01 </i>
  <i name="time" type="string">12:51:28 </i>
 </generator>
 <incar>
  <i type="string" name="SYSTEM">   Og_FCC</i>
  <i type="string" name="PREC">accurate</i>
  <i type="string" name="ALGO">   EXACT</i>
  <i type="logical" name="ADDGRID"> T  </i>
  <i type="logical" name="LSORBIT"> T  </i>
  <i type="int" name="ISPIN">     1</i>
  <i type="int" name="MAXMIX">    50</i>
  <i type="int" name="NELM">    50</i>
  <i type="int" name="NELMDL">    -5</i>
  <i type="int" name="NELMIN">     2</i>
  <i type="int" name="IBRION">    -1</i>
  <i type="int" name="NFREE">     5</i>
  <i name="EDIFF">      0.00000001</i>
  <i name="EDIFFG">      0.00001000</i>
  <i type="int" name="NSW">     1</i>
  <i type="int" name="ISIF">     3</i>
  <i type="int" name="ISYM">     0</i>
  <i name="SYMPREC">      0.00000010</i>
  <i name="ENCUT">    300.00000000</i>
  <i type="int" name="NBANDS">   256</i>
  <i name="POTIM">      0.10000000</i>
  <i type="logical" name="LREAL"> F  </i>
  <i type="int" name="ISMEAR">     0</i>
  <i name="SIGMA">      0.02000000</i>
  <i type="int" name="NWRITE">     2</i>
  <i type="logical" name="LWAVE"> T  </i>
  <i type="logical" name="LCHARG"> F  </i>
  <i type="logical" name="LVTOT"> F  </i>
  <i type="logical" name="LOPTICS"> T  </i>
  <i type="logical" name="GGA_COMPAT"> F  </i>
  <v type="int" name="KPOINT_BSE">    -1     0     0     0</v>
  <i type="int" name="NELM">    50</i>
  <i type="string" name="GGA"> PE</i>
 </incar>
 <structure name="primitive_cell" >
  <crystal>
   <varray name="basis" >
    <v>       4.41457561       0.00000000       0.00000000 </v>
    <v>       2.20728780       3.82313462      -0.00000000 </v>
    <v>       2.20728780       1.27437821       3.60448589 </v>
   </varray>
   <i name="volume">     60.83477135 </i>
   <varray name="rec_basis" >
    <v>       0.22652234      -0.13078273      -0.09247736 </v>
    <v>       0.00000000       0.26156547      -0.09247736 </v>
    <v>      -0.00000000       0.00000000       0.27743208 </v>
   </varray>
  </crystal>
  <varray name="positions" >
   <v>       0.00000000       0.00000000       0.00000000 </v>
  </varray>
 </structure>
 <varray name="primitive_index" >
  <v type="int" >        1 </v>
 </varray>
 <kpoints>
  <generation param="Gamma">
   <v type="int" name="divisions">       6        6        6 </v>
   <v name="usershift">      0.00000000       0.00000000       0.00000000 </v>
   <v name="genvec1">      0.16666667      -0.00000000       0.00000000 </v>
   <v name="genvec2">      0.00000000       0.16666667       0.00000000 </v>
   <v name="genvec3">     -0.00000000       0.00000000       0.16666667 </v>
   <v name="shift">      0.00000000       0.00000000       0.00000000 </v>
  </generation>
  <varray name="kpointlist" >
   <v>       0.00000000       0.00000000       0.00000000 </v>
   <v>       0.16666667       0.00000000       0.00000000 </v>
   <v>       0.33333333       0.00000000       0.00000000 </v>
   <v>       0.50000000       0.00000000       0.00000000 </v>
   <v>      -0.33333333      -0.00000000      -0.00000000 </v>
   <v>      -0.16666667      -0.00000000      -0.00000000 </v>
   <v>       0.00000000       0.16666667      -0.00000000 </v>
   <v>       0.16666667       0.16666667       0.00000000 </v>
   <v>       0.33333333       0.16666667       0.00000000 </v>
   <v>       0.50000000       0.16666667       0.00000000 </v>
   <v>      -0.33333333       0.16666667      -0.00000000 </v>
   <v>      -0.16666667       0.16666667      -0.00000000 </v>
   <v>       0.00000000       0.33333333       0.00000000 </v>
   <v>       0.16666667       0.33333333       0.00000000 </v>
   <v>       0.33333333       0.33333333       0.00000000 </v>
   <v>       0.50000000       0.33333333       0.00000000 </v>
   <v>      -0.33333333       0.33333333      -0.00000000 </v>
   <v>      -0.16666667       0.33333333      -0.00000000 </v>
   <v>       0.00000000       0.50000000       0.00000000 </v>
   <v>       0.16666667       0.50000000       0.00000000 </v>
   <v>       0.33333333       0.50000000       0.00000000 </v>
   <v>       0.50000000       0.50000000       0.00000000 </v>
   <v>      -0.33333333       0.50000000      -0.00000000 </v>
   <v>      -0.16666667       0.50000000      -0.00000000 </v>
   <v>       0.00000000      -0.33333333       0.00000000 </v>
   <v>       0.16666667      -0.33333333       0.00000000 </v>
   <v>       0.33333333      -0.33333333       0.00000000 </v>
   <v>       0.50000000      -0.33333333       0.00000000 </v>
   <v>      -0.33333333      -0.33333333      -0.00000000 </v>
   <v>      -0.16666667      -0.33333333      -0.00000000 </v>
   <v>       0.00000000      -0.16666667       0.00000000 </v>
   <v>       0.16666667      -0.16666667       0.00000000 </v>
   <v>       0.33333333      -0.16666667       0.00000000 </v>
   <v>       0.50000000      -0.16666667       0.00000000 </v>
   <v>      -0.33333333      -0.16666667      -0.00000000 </v>
   <v>      -0.16666667      -0.16666667      -0.00000000 </v>
   <v>       0.00000000      -0.00000000       0.16666667 </v>
   <v>       0.16666667       0.00000000       0.16666667 </v>
   <v>       0.33333333       0.00000000       0.16666667 </v>
   <v>       0.50000000       0.00000000       0.16666667 </v>
   <v>      -0.33333333      -0.00000000       0.16666667 </v>
   <v>      -0.16666667      -0.00000000       0.16666667 </v>
   <v>       0.00000000       0.16666667       0.16666667 </v>
   <v>       0.16666667       0.16666667       0.16666667 </v>
   <v>       0.33333333       0.16666667       0.16666667 </v>
   <v>       0.50000000       0.16666667       0.16666667 </v>
   <v>      -0.33333333       0.16666667       0.16666667 </v>
   <v>      -0.16666667       0.16666667       0.16666667 </v>
   <v>       0.00000000       0.33333333       0.16666667 </v>
   <v>       0.16666667       0.33333333       0.16666667 </v>
   <v>       0.33333333       0.33333333       0.16666667 </v>
   <v>       0.50000000       0.33333333       0.16666667 </v>
   <v>      -0.33333333       0.33333333       0.16666667 </v>
   <v>      -0.16666667       0.33333333       0.16666667 </v>
   <v>       0.00000000       0.50000000       0.16666667 </v>
   <v>       0.16666667       0.50000000       0.16666667 </v>
   <v>       0.33333333       0.50000000       0.16666667 </v>
   <v>       0.50000000       0.50000000       0.16666667 </v>
   <v>      -0.33333333       0.50000000       0.16666667 </v>
   <v>      -0.16666667       0.50000000       0.16666667 </v>
   <v>      -0.00000000      -0.33333333       0.16666667 </v>
   <v>       0.16666667      -0.33333333       0.16666667 </v>
   <v>       0.33333333      -0.33333333       0.16666667 </v>
   <v>       0.50000000      -0.33333333       0.16666667 </v>
   <v>      -0.33333333      -0.33333333       0.16666667 </v>
   <v>      -0.16666667      -0.33333333       0.16666667 </v>
   <v>      -0.00000000      -0.16666667       0.16666667 </v>
   <v>       0.16666667      -0.16666667       0.16666667 </v>
   <v>       0.33333333      -0.16666667       0.16666667 </v>
   <v>       0.50000000      -0.16666667       0.16666667 </v>
   <v>      -0.33333333      -0.16666667       0.16666667 </v>
   <v>      -0.16666667      -0.16666667       0.16666667 </v>
   <v>      -0.00000000      -0.00000000       0.33333333 </v>
   <v>       0.16666667       0.00000000       0.33333333 </v>
   <v>       0.33333333       0.00000000       0.33333333 </v>
   <v>       0.50000000       0.00000000       0.33333333 </v>
   <v>      -0.33333333      -0.00000000       0.33333333 </v>
   <v>      -0.16666667      -0.00000000       0.33333333 </v>
   <v>      -0.00000000       0.16666667       0.33333333 </v>
   <v>       0.16666667       0.16666667       0.33333333 </v>
   <v>       0.33333333       0.16666667       0.33333333 </v>
   <v>       0.50000000       0.16666667       0.33333333 </v>
   <v>      -0.33333333       0.16666667       0.33333333 </v>
   <v>      -0.16666667       0.16666667       0.33333333 </v>
   <v>      -0.00000000       0.33333333       0.33333333 </v>
   <v>       0.16666667       0.33333333       0.33333333 </v>
   <v>       0.33333333       0.33333333       0.33333333 </v>
   <v>       0.50000000       0.33333333       0.33333333 </v>
   <v>      -0.33333333       0.33333333       0.33333333 </v>
   <v>      -0.16666667       0.33333333       0.33333333 </v>
   <v>       0.00000000       0.50000000       0.33333333 </v>
   <v>       0.16666667       0.50000000       0.33333333 </v>
   <v>       0.33333333       0.50000000       0.33333333 </v>
   <v>       0.50000000       0.50000000       0.33333333 </v>
   <v>      -0.33333333       0.50000000       0.33333333 </v>
   <v>      -0.16666667       0.50000000       0.33333333 </v>
   <v>      -0.00000000      -0.33333333       0.33333333 </v>
   <v>       0.16666667      -0.33333333       0.33333333 </v>
   <v>       0.33333333      -0.33333333       0.33333333 </v>
   <v>       0.50000000      -0.33333333       0.33333333 </v>
   <v>      -0.33333333      -0.33333333       0.33333333 </v>
   <v>      -0.16666667      -0.33333333       0.33333333 </v>
   <v>      -0.00000000      -0.16666667       0.33333333 </v>
   <v>       0.16666667      -0.16666667       0.33333333 </v>
   <v>       0.33333333      -0.16666667       0.33333333 </v>
   <v>       0.50000000      -0.16666667       0.33333333 </v>
   <v>      -0.33333333      -0.16666667       0.33333333 </v>
   <v>      -0.16666667      -0.16666667       0.33333333 </v>
   <v>      -0.00000000      -0.00000000       0.50000000 </v>
   <v>       0.16666667       0.00000000       0.50000000 </v>
   <v>       0.33333333       0.00000000       0.50000000 </v>
   <v>       0.50000000       0.00000000       0.50000000 </v>
   <v>      -0.33333333      -0.00000000       0.50000000 </v>
   <v>      -0.16666667      -0.00000000       0.50000000 </v>
   <v>      -0.00000000       0.16666667       0.50000000 </v>
   <v>       0.16666667       0.16666667       0.50000000 </v>
   <v>       0.33333333       0.16666667       0.50000000 </v>
   <v>       0.50000000       0.16666667       0.50000000 </v>
   <v>      -0.33333333       0.16666667       0.50000000 </v>
   <v>      -0.16666667       0.16666667       0.50000000 </v>
   <v>      -0.00000000       0.33333333       0.50000000 </v>
   <v>       0.16666667       0.33333333       0.50000000 </v>
   <v>       0.33333333       0.33333333       0.50000000 </v>
   <v>       0.50000000       0.33333333       0.50000000 </v>
   <v>      -0.33333333       0.33333333       0.50000000 </v>
   <v>      -0.16666667       0.33333333       0.50000000 </v>
   <v>      -0.00000000       0.50000000       0.50000000 </v>
   <v>       0.16666667       0.50000000       0.50000000 </v>
   <v>       0.33333333       0.50000000       0.50000000 </v>
   <v>       0.50000000       0.50000000       0.50000000 </v>
   <v>      -0.33333333       0.50000000       0.50000000 </v>
   <v>      -0.16666667       0.50000000       0.50000000 </v>
   <v>       0.00000000      -0.33333333       0.50000000 </v>
   <v>       0.16666667      -0.33333333       0.50000000 </v>
   <v>       0.33333333      -0.33333333       0.50000000 </v>
   <v>       0.50000000      -0.33333333       0.50000000 </v>
   <v>      -0.33333333      -0.33333333       0.50000000 </v>
   <v>      -0.16666667      -0.33333333       0.50000000 </v>
   <v>       0.00000000      -0.16666667       0.50000000 </v>
   <v>       0.16666667      -0.16666667       0.50000000 </v>
   <v>       0.33333333      -0.16666667       0.50000000 </v>
   <v>       0.50000000      -0.16666667       0.50000000 </v>
   <v>      -0.33333333      -0.16666667       0.50000000 </v>
   <v>      -0.16666667      -0.16666667       0.50000000 </v>
   <v>       0.00000000       0.00000000      -0.33333333 </v>
   <v>       0.16666667       0.00000000      -0.33333333 </v>
   <v>       0.33333333       0.00000000      -0.33333333 </v>
   <v>       0.50000000       0.00000000      -0.33333333 </v>
   <v>      -0.33333333      -0.00000000      -0.33333333 </v>
   <v>      -0.16666667      -0.00000000      -0.33333333 </v>
   <v>       0.00000000       0.16666667      -0.33333333 </v>
   <v>       0.16666667       0.16666667      -0.33333333 </v>
   <v>       0.33333333       0.16666667      -0.33333333 </v>
   <v>       0.50000000       0.16666667      -0.33333333 </v>
   <v>      -0.33333333       0.16666667      -0.33333333 </v>
   <v>      -0.16666667       0.16666667      -0.33333333 </v>
   <v>       0.00000000       0.33333333      -0.33333333 </v>
   <v>       0.16666667       0.33333333      -0.33333333 </v>
   <v>       0.33333333       0.33333333      -0.33333333 </v>
   <v>       0.50000000       0.33333333      -0.33333333 </v>
   <v>      -0.33333333       0.33333333      -0.33333333 </v>
   <v>      -0.16666667       0.33333333      -0.33333333 </v>
   <v>       0.00000000       0.50000000      -0.33333333 </v>
   <v>       0.16666667       0.50000000      -0.33333333 </v>
   <v>       0.33333333       0.50000000      -0.33333333 </v>
   <v>       0.50000000       0.50000000      -0.33333333 </v>
   <v>      -0.33333333       0.50000000      -0.33333333 </v>
   <v>      -0.16666667       0.50000000      -0.33333333 </v>
   <v>       0.00000000      -0.33333333      -0.33333333 </v>
   <v>       0.16666667      -0.33333333      -0.33333333 </v>
   <v>       0.33333333      -0.33333333      -0.33333333 </v>
   <v>       0.50000000      -0.33333333      -0.33333333 </v>
   <v>      -0.33333333      -0.33333333      -0.33333333 </v>
   <v>      -0.16666667      -0.33333333      -0.33333333 </v>
   <v>       0.00000000      -0.16666667      -0.33333333 </v>
   <v>       0.16666667      -0.16666667      -0.33333333 </v>
   <v>       0.33333333      -0.16666667      -0.33333333 </v>
   <v>       0.50000000      -0.16666667      -0.33333333 </v>
   <v>      -0.33333333      -0.16666667      -0.33333333 </v>
   <v>      -0.16666667      -0.16666667      -0.33333333 </v>
   <v>       0.00000000       0.00000000      -0.16666667 </v>
   <v>       0.16666667       0.00000000      -0.16666667 </v>
   <v>       0.33333333       0.00000000      -0.16666667 </v>
   <v>       0.50000000       0.00000000      -0.16666667 </v>
   <v>      -0.33333333      -0.00000000      -0.16666667 </v>
   <v>      -0.16666667      -0.00000000      -0.16666667 </v>
   <v>       0.00000000       0.16666667      -0.16666667 </v>
   <v>       0.16666667       0.16666667      -0.16666667 </v>
   <v>       0.33333333       0.16666667      -0.16666667 </v>
   <v>       0.50000000       0.16666667      -0.16666667 </v>
   <v>      -0.33333333       0.16666667      -0.16666667 </v>
   <v>      -0.16666667       0.16666667      -0.16666667 </v>
   <v>       0.00000000       0.33333333      -0.16666667 </v>
   <v>       0.16666667       0.33333333      -0.16666667 </v>
   <v>       0.33333333       0.33333333      -0.16666667 </v>
   <v>       0.50000000       0.33333333      -0.16666667 </v>
   <v>      -0.33333333       0.33333333      -0.16666667 </v>
   <v>      -0.16666667       0.33333333      -0.16666667 </v>
   <v>      -0.00000000       0.50000000      -0.16666667 </v>
   <v>       0.16666667       0.50000000      -0.16666667 </v>
   <v>       0.33333333       0.50000000      -0.16666667 </v>
   <v>       0.50000000       0.50000000      -0.16666667 </v>
   <v>      -0.33333333       0.50000000      -0.16666667 </v>
   <v>      -0.16666667       0.50000000      -0.16666667 </v>
   <v>      -0.00000000      -0.33333333      -0.16666667 </v>
   <v>       0.16666667      -0.33333333      -0.16666667 </v>
   <v>       0.33333333      -0.33333333      -0.16666667 </v>
   <v>       0.50000000      -0.33333333      -0.16666667 </v>
   <v>      -0.33333333      -0.33333333      -0.16666667 </v>
   <v>      -0.16666667      -0.33333333      -0.16666667 </v>
   <v>      -0.00000000      -0.16666667      -0.16666667 </v>
   <v>       0.16666667      -0.16666667      -0.16666667 </v>
   <v>       0.33333333      -0.16666667      -0.16666667 </v>
   <v>       0.50000000      -0.16666667      -0.16666667 </v>
   <v>      -0.33333333      -0.16666667      -0.16666667 </v>
   <v>      -0.16666667      -0.16666667      -0.16666667 </v>
  </varray>
  <varray name="weights" >
   <v>       0.00462963 </v>
   <v>       0.00462963 </v>
   <v>       0.00462963 </v>
   <v>       0.00462963 </v>
   <v>       0.00462963 </v>
   <v>       0.00462963 </v>
   <v>       0.00462963 </v>
   <v>       0.00462963 </v>
   <v>       0.00462963 </v>
   <v>       0.00462963 </v>
   <v>       0.00462963 </v>
   <v>       0.00462963 </v>
   <v>       0.00462963 </v>
   <v>       0.00462963 </v>
   <v>       0.00462963 </v>
   <v>       0.00462963 </v>
   <v>       0.00462963 </v>
   <v>       0.00462963 </v>
   <v>       0.00462963 </v>
   <v>       0.00462963 </v>
   <v>       0.00462963 </v>
   <v>       0.00462963 </v>
   <v>       0.00462963 </v>
   <v>       0.00462963 </v>
   <v>       0.00462963 </v>
   <v>       0.00462963 </v>
   <v>       0.00462963 </v>
   <v>       0.00462963 </v>
   <v>       0.00462963 </v>
   <v>       0.00462963 </v>
   <v>       0.00462963 </v>
   <v>       0.00462963 </v>
   <v>       0.00462963 </v>
   <v>       0.00462963 </v>
   <v>       0.00462963 </v>
   <v>       0.00462963 </v>
   <v>       0.00462963 </v>
   <v>       0.00462963 </v>
   <v>       0.00462963 </v>
   <v>       0.00462963 </v>
   <v>       0.00462963 </v>
   <v>       0.00462963 </v>
   <v>       0.00462963 </v>
   <v>       0.00462963 </v>
   <v>       0.00462963 </v>
   <v>       0.00462963 </v>
   <v>       0.00462963 </v>
   <v>       0.00462963 </v>
   <v>       0.00462963 </v>
   <v>       0.00462963 </v>
   <v>       0.00462963 </v>
   <v>       0.00462963 </v>
   <v>       0.00462963 </v>
   <v>       0.00462963 </v>
   <v>       0.00462963 </v>
   <v>       0.00462963 </v>
   <v>       0.00462963 </v>
   <v>       0.00462963 </v>
   <v>       0.00462963 </v>
   <v>       0.00462963 </v>
   <v>       0.00462963 </v>
   <v>       0.00462963 </v>
   <v>       0.00462963 </v>
   <v>       0.00462963 </v>
   <v>       0.00462963 </v>
   <v>       0.00462963 </v>
   <v>       0.00462963 </v>
   <v>       0.00462963 </v>
   <v>       0.00462963 </v>
   <v>       0.00462963 </v>
   <v>       0.00462963 </v>
   <v>       0.00462963 </v>
   <v>       0.00462963 </v>
   <v>       0.00462963 </v>
   <v>       0.00462963 </v>
   <v>       0.00462963 </v>
   <v>       0.00462963 </v>
   <v>       0.00462963 </v>
   <v>       0.00462963 </v>
   <v>       0.00462963 </v>
   <v>       0.00462963 </v>
   <v>       0.00462963 </v>
   <v>       0.00462963 </v>
   <v>       0.00462963 </v>
   <v>       0.00462963 </v>
   <v>       0.00462963 </v>
   <v>       0.00462963 </v>
   <v>       0.00462963 </v>
   <v>       0.00462963 </v>
   <v>       0.00462963 </v>
   <v>       0.00462963 </v>
   <v>       0.00462963 </v>
   <v>       0.00462963 </v>
   <v>       0.00462963 </v>
   <v>       0.00462963 </v>
   <v>       0.00462963 </v>
   <v>       0.00462963 </v>
   <v>       0.00462963 </v>
   <v>       0.00462963 </v>
   <v>       0.00462963 </v>
   <v>       0.00462963 </v>
   <v>       0.00462963 </v>
   <v>       0.00462963 </v>
   <v>       0.00462963 </v>
   <v>       0.00462963 </v>
   <v>       0.00462963 </v>
   <v>       0.00462963 </v>
   <v>       0.00462963 </v>
   <v>       0.00462963 </v>
   <v>       0.00462963 </v>
   <v>       0.00462963 </v>
   <v>       0.00462963 </v>
   <v>       0.00462963 </v>
   <v>       0.00462963 </v>
   <v>       0.00462963 </v>
   <v>       0.00462963 </v>
   <v>       0.00462963 </v>
   <v>       0.00462963 </v>
   <v>       0.00462963 </v>
   <v>       0.00462963 </v>
   <v>       0.00462963 </v>
   <v>       0.00462963 </v>
   <v>       0.00462963 </v>
   <v>       0.00462963 </v>
   <v>       0.00462963 </v>
   <v>       0.00462963 </v>
   <v>       0.00462963 </v>
   <v>       0.00462963 </v>
   <v>       0.00462963 </v>
   <v>       0.00462963 </v>
   <v>       0.00462963 </v>
   <v>       0.00462963 </v>
   <v>       0.00462963 </v>
   <v>       0.00462963 </v>
   <v>       0.00462963 </v>
   <v>       0.00462963 </v>
   <v>       0.00462963 </v>
   <v>       0.00462963 </v>
   <v>       0.00462963 </v>
   <v>       0.00462963 </v>
   <v>       0.00462963 </v>
   <v>       0.00462963 </v>
   <v>       0.00462963 </v>
   <v>       0.00462963 </v>
   <v>       0.00462963 </v>
   <v>       0.00462963 </v>
   <v>       0.00462963 </v>
   <v>       0.00462963 </v>
   <v>       0.00462963 </v>
   <v>       0.00462963 </v>
   <v>       0.00462963 </v>
   <v>       0.00462963 </v>
   <v>       0.00462963 </v>
   <v>       0.00462963 </v>
   <v>       0.00462963 </v>
   <v>       0.00462963 </v>
   <v>       0.00462963 </v>
   <v>       0.00462963 </v>
   <v>       0.00462963 </v>
   <v>       0.00462963 </v>
   <v>       0.00462963 </v>
   <v>       0.00462963 </v>
   <v>       0.00462963 </v>
   <v>       0.00462963 </v>
   <v>       0.00462963 </v>
   <v>       0.00462963 </v>
   <v>       0.00462963 </v>
   <v>       0.00462963 </v>
   <v>       0.00462963 </v>
   <v>       0.00462963 </v>
   <v>       0.00462963 </v>
   <v>       0.00462963 </v>
   <v>       0.00462963 </v>
   <v>       0.00462963 </v>
   <v>       0.00462963 </v>
   <v>       0.00462963 </v>
   <v>       0.00462963 </v>
   <v>       0.00462963 </v>
   <v>       0.00462963 </v>
   <v>       0.00462963 </v>
   <v>       0.00462963 </v>
   <v>       0.00462963 </v>
   <v>       0.00462963 </v>
   <v>       0.00462963 </v>
   <v>       0.00462963 </v>
   <v>       0.00462963 </v>
   <v>       0.00462963 </v>
   <v>       0.00462963 </v>
   <v>       0.00462963 </v>
   <v>       0.00462963 </v>
   <v>       0.00462963 </v>
   <v>       0.00462963 </v>
   <v>       0.00462963 </v>
   <v>       0.00462963 </v>
   <v>       0.00462963 </v>
   <v>       0.00462963 </v>
   <v>       0.00462963 </v>
   <v>       0.00462963 </v>
   <v>       0.00462963 </v>
   <v>       0.00462963 </v>
   <v>       0.00462963 </v>
   <v>       0.00462963 </v>
   <v>       0.00462963 </v>
   <v>       0.00462963 </v>
   <v>       0.00462963 </v>
   <v>       0.00462963 </v>
   <v>       0.00462963 </v>
   <v>       0.00462963 </v>
   <v>       0.00462963 </v>
   <v>       0.00462963 </v>
   <v>       0.00462963 </v>
   <v>       0.00462963 </v>
   <v>       0.00462963 </v>
   <v>       0.00462963 </v>
   <v>       0.00462963 </v>
   <v>       0.00462963 </v>
  </varray>
 </kpoints>
 <parameters>
  <separator name="general" >
   <i type="string" name="SYSTEM">Og_FCC</i>
   <i type="logical" name="LCOMPAT"> F  </i>
  </separator>
  <separator name="electronic" >
   <i type="string" name="PREC">accura</i>
   <i name="ENMAX">    300.00000000</i>
   <i name="ENAUG">    813.32600000</i>
   <i name="EDIFF">      0.00000001</i>
   <i type="int" name="IALGO">    90</i>
   <i type="int" name="IWAVPR">    10</i>
   <i type="int" name="NBANDS">   256</i>
   <i name="NELECT">     26.00000000</i>
   <i type="int" name="TURBO">     0</i>
   <i type="int" name="IRESTART">     0</i>
   <i type="int" name="NREBOOT">     0</i>
   <i type="int" name="NMIN">     0</i>
   <i name="EREF">      0.00000000</i>
   <separator name="electronic smearing" >
    <i type="int" name="ISMEAR">     0</i>
    <i name="SIGMA">      0.02000000</i>
    <i name="KSPACING">      0.50000000</i>
    <i type="logical" name="KGAMMA"> T  </i>
   </separator>
   <separator name="electronic projectors" >
    <i type="logical" name="LREAL"> F  </i>
    <v name="ROPT">      0.00000000</v>
    <i type="int" name="LMAXPAW">  -100</i>
    <i type="int" name="LMAXMIX">     2</i>
    <i type="logical" name="NLSPLINE"> F  </i>
   </separator>
   <separator name="electronic startup" >
    <i type="int" name="ISTART">     1</i>
    <i type="int" name="ICHARG">     0</i>
    <i type="int" name="INIWAV">     1</i>
   </separator>
   <separator name="electronic spin" >
    <i type="int" name="ISPIN">     1</i>
    <i type="logical" name="LNONCOLLINEAR"> T  </i>
    <v name="MAGMOM">      1.00000000      1.00000000      1.00000000</v>
    <i name="NUPDOWN">     -1.00000000</i>
    <i type="logical" name="LSORBIT"> T  </i>
    <v name="SAXIS">      0.00000000      0.00000000      1.00000000</v>
    <i type="logical" name="LSPIRAL"> F  </i>
    <v name="QSPIRAL">      0.00000000      0.00000000      0.00000000</v>
    <i type="logical" name="LZEROZ"> F  </i>
   </separator>
   <separator name="electronic exchange-correlation" >
    <i type="logical" name="LASPH"> F  </i>
    <i type="logical" name="LMETAGGA"> F  </i>
   </separator>
   <separator name="electronic convergence" >
    <i type="int" name="NELM">    50</i>
    <i type="int" name="NELMDL">    -5</i>
    <i type="int" name="NELMIN">     2</i>
    <i name="ENINI">    300.00000000</i>
    <separator name="electronic convergence detail" >
     <i type="logical" name="LDIAG"> T  </i>
     <i type="logical" name="LSUBROT"> F  </i>
     <i name="WEIMIN">      0.00000000</i>
     <i name="EBREAK">      0.00000000</i>
     <i name="DEPER">      0.30000000</i>
     <i type="int" name="NRMM">     4</i>
     <i name="TIME">      0.40000000</i>
    </separator>
   </separator>
   <separator name="electronic mixer" >
    <i name="AMIX">      0.40000000</i>
    <i name="BMIX">      1.00000000</i>
    <i name="AMIN">      0.10000000</i>
    <i name="AMIX_MAG">      1.60000000</i>
    <i name="BMIX_MAG">      1.00000000</i>
    <separator name="electronic mixer details" >
     <i type="int" name="IMIX">     4</i>
     <i type="logical" name="MIXFIRST"> F  </i>
     <i type="int" name="MAXMIX">    50</i>
     <i name="WC">    100.00000000</i>
     <i type="int" name="INIMIX">     1</i>
     <i type="int" name="MIXPRE">     1</i>
     <i type="int" name="MREMOVE">     5</i>
    </separator>
   </separator>
   <separator name="electronic dipolcorrection" >
    <i type="logical" name="LDIPOL"> F  </i>
    <i type="logical" name="LMONO"> F  </i>
    <i type="int" name="IDIPOL">     0</i>
    <i name="EPSILON">      1.00000000</i>
    <v name="DIPOL">   -100.00000000   -100.00000000   -100.00000000</v>
    <i name="EFIELD">      0.00000000</i>
   </separator>
  </separator>
  <separator name="grids" >
   <i type="int" name="NGX">    28</i>
   <i type="int" name="NGY">    28</i>
   <i type="int" name="NGZ">    28</i>
   <i type="int" name="NGXF">    56</i>
   <i type="int" name="NGYF">    56</i>
   <i type="int" name="NGZF">    56</i>
   <i type="logical" name="ADDGRID"> T  </i>
  </separator>
  <separator name="ionic" >
   <i type="int" name="NSW">     1</i>
   <i type="int" name="IBRION">    -1</i>
   <i type="int" name="MDALGO">     0</i>
   <i type="int" name="ISIF">     3</i>
   <i name="PSTRESS">      0.00000000</i>
   <i name="EDIFFG">      0.00001000</i>
   <i type="int" name="NFREE">     5</i>
   <i name="POTIM">      0.10000000</i>
   <i name="SMASS">     -3.00000000</i>
   <i name="SCALEE">      1.00000000</i>
  </separator>
  <separator name="ionic md" >
   <i name="TEBEG">      0.00010000</i>
   <i name="TEEND">      0.00010000</i>
   <i type="int" name="NBLOCK">     1</i>
   <i type="int" name="KBLOCK">     1</i>
   <i type="int" name="NPACO">   256</i>
   <i name="APACO">     16.00000000</i>
  </separator>
  <separator name="symmetry" >
   <i type="int" name="ISYM">     0</i>
   <i name="SYMPREC">      0.00000010</i>
  </separator>
  <separator name="dos" >
   <i type="int" name="LORBIT">     0</i>
   <v name="RWIGS">     -1.00000000</v>
   <i type="int" name="NEDOS">   301</i>
   <i name="EMIN">     10.00000000</i>
   <i name="EMAX">    -10.00000000</i>
   <i name="EFERMI">      0.00000000</i>
  </separator>
  <separator name="writing" >
   <i type="int" name="NWRITE">     2</i>
   <i type="logical" name="LWAVE"> T  </i>
   <i type="logical" name="LDOWNSAMPLE"> F  </i>
   <i type="logical" name="LCHARG"> F  </i>
   <i type="logical" name="LPARD"> F  </i>
   <i type="logical" name="LVTOT"> F  </i>
   <i type="logical" name="LVHAR"> F  </i>
   <i type="logical" name="LELF"> F  </i>
   <i type="logical" name="LOPTICS"> T  </i>
   <v name="STM">      0.00000000      0.00000000      0.00000000      0.00000000      0.00000000      0.00000000      0.00000000</v>
  </separator>
  <separator name="performance" >
   <i type="int" name="NPAR">     4</i>
   <i type="int" name="NSIM">     4</i>
   <i type="int" name="NBLK">    -1</i>
   <i type="logical" name="LPLANE"> T  </i>
   <i type="logical" name="LSCALAPACK"> T  </i>
   <i type="logical" name="LSCAAWARE"> T  </i>
   <i type="logical" name="LSCALU"> F  </i>
   <i type="logical" name="LASYNC"> F  </i>
   <i type="logical" name="LORBITALREAL"> F  </i>
  </separator>
  <separator name="miscellaneous" >
   <i type="int" name="IDIOT">     3</i>
   <i type="int" name="ISPECIAL">     0</i>
   <i type="logical" name="LMUSIC"> F  </i>
   <v name="POMASS">     22.01700000</v>
   <v name="DARWINR">      0.00000000</v>
   <v name="DARWINV">      1.00000000</v>
   <i type="logical" name="LCORR"> T  </i>
  </separator>
  <i type="logical" name="GGA_COMPAT"> F  </i>
  <i type="logical" name="LBERRY"> F  </i>
  <i type="int" name="ICORELEVEL">     0</i>
  <i type="logical" name="LDAU"> F  </i>
  <i type="int" name="I_CONSTRAINED_M">     0</i>
  <separator name="electronic exchange-correlation" >
   <i type="string" name="GGA">PE</i>
   <i type="int" name="VOSKOWN">     0</i>
   <i type="logical" name="LHFCALC"> F  </i>
   <i type="string" name="PRECFOCK"></i>
   <i type="logical" name="LSYMGRAD"> F  </i>
   <i type="logical" name="LHFONE"> F  </i>
   <i type="logical" name="LRHFCALC"> F  </i>
   <i type="logical" name="LTHOMAS"> F  </i>
   <i type="logical" name="LMODELHF"> F  </i>
   <i name="ENCUT4O">     -1.00000000</i>
   <i type="int" name="EXXOEP">     0</i>
   <i type="int" name="FOURORBIT">     0</i>
   <i name="AEXX">      0.00000000</i>
   <i name="HFALPHA">      0.00000000</i>
   <i name="MCALPHA">      0.00000000</i>
   <i name="ALDAX">      1.00000000</i>
   <i name="AGGAX">      1.00000000</i>
   <i name="ALDAC">      1.00000000</i>
   <i name="AGGAC">      1.00000000</i>
   <i type="int" name="NKREDX">     1</i>
   <i type="int" name="NKREDY">     1</i>
   <i type="int" name="NKREDZ">     1</i>
   <i type="logical" name="SHIFTRED"> F  </i>
   <i type="logical" name="ODDONLY"> F  </i>
   <i type="logical" name="EVENONLY"> F  </i>
   <i type="int" name="LMAXFOCK">     0</i>
   <i type="int" name="NMAXFOCKAE">     0</i>
   <i type="logical" name="LFOCKAEDFT"> F  </i>
   <i name="HFSCREEN">      0.00000000</i>
   <i name="HFSCREENC">      0.00000000</i>
   <i type="int" name="NBANDSGWLOW">     0</i>
  </separator>
  <separator name="vdW DFT" >
   <i type="logical" name="LUSE_VDW"> F  </i>
   <i name="Zab_VDW">     -0.84910000</i>
   <i name="PARAM1">      0.12340000</i>
   <i name="PARAM2">      1.00000000</i>
   <i name="PARAM3">      0.00000000</i>
  </separator>
  <separator name="model GW" >
   <i type="int" name="MODEL_GW">     0</i>
   <i name="MODEL_EPS0">     36.50086281</i>
   <i name="MODEL_ALPHA">      1.00000000</i>
  </separator>
  <separator name="linear response parameters" >
   <i type="logical" name="LEPSILON"> F  </i>
   <i type="logical" name="LRPA"> F  </i>
   <i type="logical" name="LNABLA"> F  </i>
   <i type="logical" name="LVEL"> F  </i>
   <i type="int" name="KINTER">     0</i>
   <i name="CSHIFT">      0.10000000</i>
   <i name="OMEGAMAX">     -1.00000000</i>
   <i name="DEG_THRESHOLD">      0.00200000</i>
   <i name="RTIME">     -0.10000000</i>
   <i name="WPLASMAI">      0.00000000</i>
   <v name="DFIELD">      0.00000000      0.00000000      0.00000000</v>
   <v name="WPLASMA">      0.00000000      0.00000000      0.00000000      0.00000000      0.00000000      0.00000000      0.00000000      0.00000000      0.00000000</v>
  </separator>
  <separator name="orbital magnetization" >
   <i type="logical" name="NUCIND"> F  </i>
   <v name="MAGPOS">      0.00000000      0.00000000      0.00000000</v>
   <i type="logical" name="LNICSALL"> T  </i>
   <i type="logical" name="ORBITALMAG"> F  </i>
   <i type="logical" name="LMAGBLOCH"> F  </i>
   <i type="logical" name="LCHIMAG"> F  </i>
   <i type="logical" name="LGAUGE"> T  </i>
   <i type="int" name="MAGATOM">     0</i>
   <v name="MAGDIPOL">      0.00000000      0.00000000      0.00000000</v>
   <v name="AVECCONST">      0.00000000      0.00000000      0.00000000</v>
  </separator>
  <separator name="response functions" >
   <i type="logical" name="LADDER"> F  </i>
   <i type="logical" name="LRPAFORCE"> F  </i>
   <i type="logical" name="LFXC"> F  </i>
   <i type="logical" name="LHARTREE"> T  </i>
   <i type="int" name="IBSE">     0</i>
   <v type="int" name="KPOINT">    -1     0     0     0</v>
   <i type="logical" name="LTCTE"> F  </i>
   <i type="logical" name="LTETE"> F  </i>
   <i type="logical" name="LTRIPLET"> F  </i>
   <i type="logical" name="LFXCEPS"> F  </i>
   <i type="logical" name="LFXHEG"> F  </i>
   <i type="int" name="NATURALO">     2</i>
   <i type="logical" name="L2ORDER"> F  </i>
   <i type="logical" name="LMP2LT"> F  </i>
   <i type="logical" name="LUSEW"> F  </i>
   <i name="ENCUTGW">     -2.00000000</i>
   <i name="ENCUTGWSOFT">     -2.00000000</i>
   <i name="ENCUTLF">     -1.00000000</i>
   <i type="int" name="LMAXMP2">    -1</i>
   <i name="SCISSOR">      0.00000000</i>
   <i type="int" name="NOMEGA">     0</i>
   <i type="int" name="NOMEGAR">     0</i>
   <i type="int" name="NBANDSGW">    -1</i>
   <i type="int" name="NBANDSO">    -1</i>
   <i type="int" name="NBANDSV">    -1</i>
   <i type="int" name="NELM">    50</i>
   <i type="int" name="NELMHF">     1</i>
   <i type="int" name="DIM">     3</i>
   <i type="int" name="ANTIRES">     0</i>
   <i name="OMEGAMAX">    -30.00000000</i>
   <i name="OMEGAMIN">    -30.00000000</i>
   <i name="OMEGATL">   -200.00000000</i>
   <i type="int" name="OMEGAGRID">   140</i>
   <i name="CSHIFT">     -0.10000000</i>
   <i type="logical" name="SELFENERGY"> F  </i>
   <i type="logical" name="LSPECTRAL"> F  </i>
   <i type="logical" name="LSPECTRALGW"> F  </i>
   <i type="logical" name="LSINGLES"> F  </i>
   <i type="logical" name="LFERMIGW"> F  </i>
   <i type="logical" name="ODDONLYGW"> F  </i>
   <i type="logical" name="EVENONLYGW"> F  </i>
   <i type="int" name="NKREDLFX">     1</i>
   <i type="int" name="NKREDLFY">     1</i>
   <i type="int" name="NKREDLFZ">     1</i>
   <i type="int" name="MAXMEM">  2800</i>
   <i type="int" name="TELESCOPE">     0</i>
   <i type="int" name="TAUPAR">     1</i>
   <i type="int" name="OMEGAPAR">    -1</i>
   <i name="LAMBDA">      1.00000000</i>
  </separator>
  <separator name="External order field" >
   <i name="OFIELD_KAPPA">      0.00000000</i>
   <v name="OFIELD_K">      0.00000000      0.00000000      0.00000000</v>
   <i name="OFIELD_Q6_NEAR">      0.00000000</i>
   <i name="OFIELD_Q6_FAR">      0.00000000</i>
   <i name="OFIELD_A">      0.00000000</i>
  </separator>
 </parameters>
 <atominfo>
  <atoms>       1 </atoms>
  <types>       1 </types>
  <array name="atoms" >
   <dimension dim="1">ion</dimension>
   <field type="string">element</field>
   <field type="int">atomtype</field>
   <set>
    <rc><c>Rn</c><c>   1</c></rc>
   </set>
  </array>
  <array name="atomtypes" >
   <dimension dim="1">type</dimension>
   <field type="int">atomspertype</field>
   <field type="string">element</field>
   <field>mass</field>
   <field>valence</field>
   <field type="string">pseudopotential</field>
   <set>
    <rc><c>   1</c><c>Rn</c><c>     22.01700000</c><c>     26.00000000</c><c>  PAW_PBE Rn_sv_GW 14Apr2014            </c></rc>
   </set>
  </array>
 </atominfo>
 <structure name="initialpos" >
  <crystal>
   <varray name="basis" >
    <v>       4.41457561       0.00000000       0.00000000 </v>
    <v>       2.20728780       3.82313462      -0.00000000 </v>
    <v>       2.20728780       1.27437821       3.60448589 </v>
   </varray>
   <i name="volume">     60.83477135 </i>
   <varray name="rec_basis" >
    <v>       0.22652234      -0.13078273      -0.09247736 </v>
    <v>       0.00000000       0.26156547      -0.09247736 </v>
    <v>      -0.00000000       0.00000000       0.27743208 </v>
   </varray>
  </crystal>
  <varray name="positions" >
   <v>       0.00000000       0.00000000       0.00000000 </v>
  </varray>
  <varray name="velocities" >
   <v>       0.00000000       0.00000000       0.00000000 </v>
  </varray>
 </structure>
 <calculation>
  <scstep>
   <time name="diag">  113.02  113.00</time>
   <time name="total">  113.13  113.11</time>
   <energy>
    <i name="alphaZ">    108.35380776 </i>
    <i name="ewald">  -3574.33366516 </i>
    <i name="hartreedc">  -3051.62702435 </i>
    <i name="XCdc">    166.01799971 </i>
    <i name="pawpsdc">   6198.47343682 </i>
    <i name="pawaedc">  -6191.94086796 </i>
    <i name="eentropy">     -0.00000000 </i>
    <i name="bandstr">  -1586.05415250 </i>
    <i name="atom">   7926.50385403 </i>
    <i name="e_fr_energy">     -4.60661166 </i>
    <i name="e_wo_entrp">     -4.60661166 </i>
    <i name="e_0_energy">     -4.60661166 </i>
   </energy>
  </scstep>
  <scstep>
   <time name="diag">  113.29  113.42</time>
   <time name="total">  113.30  113.43</time>
   <energy>
    <i name="e_fr_energy">     -4.60661166 </i>
    <i name="e_wo_entrp">     -4.60661166 </i>
    <i name="e_0_energy">     -4.60661166 </i>
   </energy>
  </scstep>
  <scstep>
   <time name="diag">  113.18  113.16</time>
   <time name="total">  113.19  113.17</time>
   <energy>
    <i name="e_fr_energy">     -4.60661166 </i>
    <i name="e_wo_entrp">     -4.60661166 </i>
    <i name="e_0_energy">     -4.60661166 </i>
   </energy>
  </scstep>
  <scstep>
   <time name="diag">  113.23  113.38</time>
   <time name="total">  113.25  113.40</time>
   <energy>
    <i name="e_fr_energy">     -4.60661166 </i>
    <i name="e_wo_entrp">     -4.60661166 </i>
    <i name="e_0_energy">     -4.60661166 </i>
   </energy>
  </scstep>
  <scstep>
   <time name="diag">  115.21  115.79</time>
   <time name="total">  115.44  116.02</time>
   <energy>
    <i name="e_fr_energy">     -4.60661166 </i>
    <i name="e_wo_entrp">     -4.60661166 </i>
    <i name="e_0_energy">     -4.60661166 </i>
   </energy>
  </scstep>
  <scstep>
   <time name="diag">  113.17  113.15</time>
   <time name="total">  113.27  113.25</time>
   <energy>
    <i name="alphaZ">    108.35380776 </i>
    <i name="ewald">  -3574.33366516 </i>
    <i name="hartreedc">  -3051.62702894 </i>
    <i name="XCdc">    166.01799984 </i>
    <i name="pawpsdc">   6198.47344531 </i>
    <i name="pawaedc">  -6191.94087587 </i>
    <i name="eentropy">     -0.00000000 </i>
    <i name="bandstr">  -1586.05414863 </i>
    <i name="atom">   7926.50385403 </i>
    <i name="e_fr_energy">     -4.60661166 </i>
    <i name="e_wo_entrp">     -4.60661166 </i>
    <i name="e_0_energy">     -4.60661166 </i>
   </energy>
  </scstep>
  <structure>
   <crystal>
    <varray name="basis" >
     <v>       4.41457561       0.00000000       0.00000000 </v>
     <v>       2.20728780       3.82313462      -0.00000000 </v>
     <v>       2.20728780       1.27437821       3.60448589 </v>
    </varray>
    <i name="volume">     60.83477135 </i>
    <varray name="rec_basis" >
     <v>       0.22652234      -0.13078273      -0.09247736 </v>
     <v>       0.00000000       0.26156547      -0.09247736 </v>
     <v>      -0.00000000       0.00000000       0.27743208 </v>
    </varray>
   </crystal>
   <varray name="positions" >
    <v>       0.00000000       0.00000000       0.00000000 </v>
   </varray>
  </structure>
  <varray name="forces" >
   <v>       0.00000003      -0.00000001       0.00000000 </v>
  </varray>
  <varray name="stress" >
   <v>    -183.08307939       0.00103711       0.00076713 </v>
   <v>       0.00103718    -183.08430045       0.00037615 </v>
   <v>       0.00076833       0.00037595    -183.08481469 </v>
  </varray>
  <energy>
   <i name="e_fr_energy">     -4.83060198 </i>
   <i name="e_wo_entrp">     -4.83060198 </i>
   <i name="e_0_energy">     -0.00000000 </i>
  </energy>
  <time name="totalsc">  689.18  690.73</time>
  <eigenvalues>
   <array>
    <dimension dim="1">band</dimension>
    <dimension dim="2">kpoint</dimension>
    <dimension dim="3">spin</dimension>
    <field>eigene</field>
    <field>occ</field>
    <set>
     <set comment="spin 1">
      <set comment="kpoint 1">
       <r> -196.1413    1.0000 </r>
       <r> -196.1413    1.0000 </r>
       <r> -141.7752    1.0000 </r>
       <r> -141.7752    1.0000 </r>
       <r> -113.6156    1.0000 </r>
       <r> -113.6156    1.0000 </r>
       <r> -113.6156    1.0000 </r>
       <r> -113.6156    1.0000 </r>
       <r>  -43.5408    1.0000 </r>
       <r>  -43.5408    1.0000 </r>
       <r>  -43.5408    1.0000 </r>
       <r>  -43.5408    1.0000 </r>
       <r>  -39.1308    1.0000 </r>
       <r>  -39.1308    1.0000 </r>
       <r>  -39.1292    1.0000 </r>
       <r>  -39.1292    1.0000 </r>
       <r>  -39.1292    1.0000 </r>
       <r>  -39.1292    1.0000 </r>
       <r>  -16.5928    1.0000 </r>
       <r>  -16.5928    1.0000 </r>
       <r>   -3.7326    1.0000 </r>
       <r>   -3.7326    1.0000 </r>
       <r>   -0.2716    1.0000 </r>
       <r>   -0.2716    1.0000 </r>
       <r>   -0.2716    1.0000 </r>
       <r>   -0.2716    1.0000 </r>
       <r>    3.4080    0.0000 </r>
       <r>    3.4080    0.0000 </r>
       <r>    8.6771    0.0000 </r>
       <r>    8.6771    0.0000 </r>
       <r>    8.6771    0.0000 </r>
       <r>    8.6771    0.0000 </r>
       <r>    8.8348    0.0000 </r>
       <r>    8.8348    0.0000 </r>
       <r>   10.4334    0.0000 </r>
       <r>   10.4334    0.0000 </r>
       <r>   11.2843    0.0000 </r>
       <r>   11.2843    0.0000 </r>
       <r>   11.2843    0.0000 </r>
       <r>   11.2843    0.0000 </r>
       <r>   12.5062    0.0000 </r>
       <r>   12.5062    0.0000 </r>
       <r>   12.5930    0.0000 </r>
       <r>   12.5930    0.0000 </r>
       <r>   12.5930    0.0000 </r>
       <r>   12.5930    0.0000 </r>
       <r>   15.2643    0.0000 </r>
       <r>   15.2643    0.0000 </r>
       <r>   19.4867    0.0000 </r>
       <r>   19.4867    0.0000 </r>
       <r>   19.5198    0.0000 </r>
       <r>   19.5198    0.0000 </r>
       <r>   19.5198    0.0000 </r>
       <r>   19.5198    0.0000 </r>
       <r>   22.7403    0.0000 </r>
       <r>   22.7403    0.0000 </r>
       <r>   23.8288    0.0000 </r>
       <r>   23.8288    0.0000 </r>
       <r>   23.8288    0.0000 </r>
       <r>   23.8288    0.0000 </r>
       <r>   24.6005    0.0000 </r>
       <r>   24.6005    0.0000 </r>
       <r>   26.1805    0.0000 </r>
       <r>   26.1805    0.0000 </r>
       <r>   26.1805    0.0000 </r>
       <r>   26.1805    0.0000 </r>
       <r>   26.3096    0.0000 </r>
       <r>   26.3096    0.0000 </r>
       <r>   26.5385    0.0000 </r>
       <r>   26.5385    0.0000 </r>
       <r>   27.0679    0.0000 </r>
       <r>   27.0679    0.0000 </r>
       <r>   27.0679    0.0000 </r>
       <r>   27.0679    0.0000 </r>
       <r>   27.4960    0.0000 </r>
       <r>   27.4960    0.0000 </r>
       <r>   27.4960    0.0000 </r>
       <r>   27.4960    0.0000 </r>
       <r>   29.0048    0.0000 </r>
       <r>   29.0048    0.0000 </r>
       <r>   35.1421    0.0000 </r>
       <r>   35.1421    0.0000 </r>
       <r>   35.1666    0.0000 </r>
       <r>   35.1666    0.0000 </r>
       <r>   35.1666    0.0000 </r>
       <r>   35.1666    0.0000 </r>
       <r>   37.0779    0.0000 </r>
       <r>   37.0779    0.0000 </r>
       <r>   37.0779    0.0000 </r>
       <r>   37.0779    0.0000 </r>
       <r>   37.3822    0.0000 </r>
       <r>   37.3822    0.0000 </r>
       <r>   37.4820    0.0000 </r>
       <r>   37.4820    0.0000 </r>
       <r>   37.4820    0.0000 </r>
       <r>   37.4820    0.0000 </r>
       <r>   37.4820    0.0000 </r>
       <r>   37.4820    0.0000 </r>
       <r>   38.2191    0.0000 </r>
       <r>   38.2191    0.0000 </r>
       <r>   38.2191    0.0000 </r>
       <r>   38.2191    0.0000 </r>
       <r>   38.3995    0.0000 </r>
       <r>   38.3995    0.0000 </r>
       <r>   38.8961    0.0000 </r>
       <r>   38.8961    0.0000 </r>
       <r>   38.8961    0.0000 </r>
       <r>   38.8961    0.0000 </r>
       <r>   40.5260    0.0000 </r>
       <r>   40.5260    0.0000 </r>
       <r>   40.5261    0.0000 </r>
       <r>   40.5261    0.0000 </r>
       <r>   40.5654    0.0000 </r>
       <r>   40.5654    0.0000 </r>
       <r>   41.2343    0.0000 </r>
       <r>   41.2343    0.0000 </r>
       <r>   41.2901    0.0000 </r>
       <r>   41.2901    0.0000 </r>
       <r>   41.2901    0.0000 </r>
       <r>   41.2901    0.0000 </r>
       <r>   43.4853    0.0000 </r>
       <r>   43.4853    0.0000 </r>
       <r>   43.5165    0.0000 </r>
       <r>   43.5165    0.0000 </r>
       <r>   43.5165    0.0000 </r>
       <r>   43.5165    0.0000 </r>
       <r>   43.7774    0.0000 </r>
       <r>   43.7774    0.0000 </r>
       <r>   44.5023    0.0000 </r>
       <r>   44.5023    0.0000 </r>
       <r>   44.7588    0.0000 </r>
       <r>   44.7588    0.0000 </r>
       <r>   44.7588    0.0000 </r>
       <r>   44.7588    0.0000 </r>
       <r>   44.7757    0.0000 </r>
       <r>   44.7757    0.0000 </r>
       <r>   45.8266    0.0000 </r>
       <r>   45.8266    0.0000 </r>
       <r>   45.8705    0.0000 </r>
       <r>   45.8705    0.0000 </r>
       <r>   45.8705    0.0000 </r>
       <r>   45.8705    0.0000 </r>
       <r>   49.1954    0.0000 </r>
       <r>   49.1954    0.0000 </r>
       <r>   49.1954    0.0000 </r>
       <r>   49.1954    0.0000 </r>
       <r>   49.2723    0.0000 </r>
       <r>   49.2723    0.0000 </r>
       <r>   52.3316    0.0000 </r>
       <r>   52.3316    0.0000 </r>
       <r>   57.3468    0.0000 </r>
       <r>   57.3468    0.0000 </r>
       <r>   57.5993    0.0000 </r>
       <r>   57.5993    0.0000 </r>
       <r>   57.5993    0.0000 </r>
       <r>   57.5993    0.0000 </r>
       <r>   61.5489    0.0000 </r>
       <r>   61.5489    0.0000 </r>
       <r>   61.8732    0.0000 </r>
       <r>   61.8732    0.0000 </r>
       <r>   61.8732    0.0000 </r>
       <r>   61.8732    0.0000 </r>
       <r>   63.9658    0.0000 </r>
       <r>   63.9658    0.0000 </r>
       <r>   63.9658    0.0000 </r>
       <r>   63.9658    0.0000 </r>
       <r>   65.3498    0.0000 </r>
       <r>   65.3498    0.0000 </r>
       <r>   65.3499    0.0000 </r>
       <r>   65.3499    0.0000 </r>
       <r>   65.4406    0.0000 </r>
       <r>   65.4406    0.0000 </r>
       <r>   68.2305    0.0000 </r>
       <r>   68.2305    0.0000 </r>
       <r>   68.2569    0.0000 </r>
       <r>   68.2569    0.0000 </r>
       <r>   68.2569    0.0000 </r>
       <r>   68.2569    0.0000 </r>
       <r>   68.2569    0.0000 </r>
       <r>   68.2569    0.0000 </r>
       <r>   69.2394    0.0000 </r>
       <r>   69.2394    0.0000 </r>
       <r>   69.2394    0.0000 </r>
       <r>   69.2394    0.0000 </r>
       <r>   70.2711    0.0000 </r>
       <r>   70.2711    0.0000 </r>
       <r>   70.2711    0.0000 </r>
       <r>   70.2711    0.0000 </r>
       <r>   70.9518    0.0000 </r>
       <r>   70.9518    0.0000 </r>
       <r>   70.9518    0.0000 </r>
       <r>   70.9518    0.0000 </r>
       <r>   71.3361    0.0000 </r>
       <r>   71.3361    0.0000 </r>
       <r>   71.3361    0.0000 </r>
       <r>   71.3361    0.0000 </r>
       <r>   71.3361    0.0000 </r>
       <r>   71.3361    0.0000 </r>
       <r>   71.3396    0.0000 </r>
       <r>   71.3396    0.0000 </r>
       <r>   71.4379    0.0000 </r>
       <r>   71.4379    0.0000 </r>
       <r>   71.4408    0.0000 </r>
       <r>   71.4408    0.0000 </r>
       <r>   71.4408    0.0000 </r>
       <r>   71.4408    0.0000 </r>
       <r>   71.5809    0.0000 </r>
       <r>   71.5809    0.0000 </r>
       <r>   72.5004    0.0000 </r>
       <r>   72.5004    0.0000 </r>
       <r>   72.7359    0.0000 </r>
       <r>   72.7359    0.0000 </r>
       <r>   72.7359    0.0000 </r>
       <r>   72.7359    0.0000 </r>
       <r>   73.5686    0.0000 </r>
       <r>   73.5686    0.0000 </r>
       <r>   74.4993    0.0000 </r>
       <r>   74.4993    0.0000 </r>
       <r>   74.4993    0.0000 </r>
       <r>   74.4993    0.0000 </r>
       <r>   75.1821    0.0000 </r>
       <r>   75.1821    0.0000 </r>
       <r>   75.2012    0.0000 </r>
       <r>   75.2012    0.0000 </r>
       <r>   75.2030    0.0000 </r>
       <r>   75.2030    0.0000 </r>
       <r>   75.2030    0.0000 </r>
       <r>   75.2030    0.0000 </r>
       <r>   75.3408    0.0000 </r>
       <r>   75.3408    0.0000 </r>
       <r>   75.3408    0.0000 </r>
       <r>   75.3408    0.0000 </r>
       <r>   75.3910    0.0000 </r>
       <r>   75.3910    0.0000 </r>
       <r>   75.9266    0.0000 </r>
       <r>   75.9266    0.0000 </r>
       <r>   75.9266    0.0000 </r>
       <r>   75.9266    0.0000 </r>
       <r>   76.3402    0.0000 </r>
       <r>   76.3402    0.0000 </r>
       <r>   76.3402    0.0000 </r>
       <r>   76.3402    0.0000 </r>
       <r>   77.2628    0.0000 </r>
       <r>   77.2628    0.0000 </r>
       <r>   79.2595    0.0000 </r>
       <r>   79.2595    0.0000 </r>
       <r>   80.2380    0.0000 </r>
       <r>   80.2380    0.0000 </r>
       <r>   80.2778    0.0000 </r>
       <r>   80.2778    0.0000 </r>
       <r>   80.2778    0.0000 </r>
       <r>   80.2778    0.0000 </r>
       <r>   81.9617    0.0000 </r>
       <r>   81.9617    0.0000 </r>
       <r>   81.9903    0.0000 </r>
       <r>   81.9903    0.0000 </r>
      </set>
      <set comment="kpoint 2">
       <r> -196.1280    1.0000 </r>
       <r> -196.1280    1.0000 </r>
       <r> -141.7449    1.0000 </r>
       <r> -141.7449    1.0000 </r>
       <r> -113.6150    1.0000 </r>
       <r> -113.6150    1.0000 </r>
       <r> -113.6145    1.0000 </r>
       <r> -113.6145    1.0000 </r>
       <r>  -43.5367    1.0000 </r>
       <r>  -43.5367    1.0000 </r>
       <r>  -43.5288    1.0000 </r>
       <r>  -43.5288    1.0000 </r>
       <r>  -39.1283    1.0000 </r>
       <r>  -39.1283    1.0000 </r>
       <r>  -39.1248    1.0000 </r>
       <r>  -39.1248    1.0000 </r>
       <r>  -39.1233    1.0000 </r>
       <r>  -39.1233    1.0000 </r>
       <r>  -16.5519    1.0000 </r>
       <r>  -16.5519    1.0000 </r>
       <r>   -3.9078    1.0000 </r>
       <r>   -3.9078    1.0000 </r>
       <r>   -0.8591    1.0000 </r>
       <r>   -0.8591    1.0000 </r>
       <r>   -0.3502    1.0000 </r>
       <r>   -0.3502    1.0000 </r>
       <r>    4.3074    0.0000 </r>
       <r>    4.3074    0.0000 </r>
       <r>    7.9992    0.0000 </r>
       <r>    7.9992    0.0000 </r>
       <r>    8.8763    0.0000 </r>
       <r>    8.8763    0.0000 </r>
       <r>    9.0274    0.0000 </r>
       <r>    9.0274    0.0000 </r>
       <r>   10.4665    0.0000 </r>
       <r>   10.4665    0.0000 </r>
       <r>   10.5456    0.0000 </r>
       <r>   10.5456    0.0000 </r>
       <r>   11.2668    0.0000 </r>
       <r>   11.2668    0.0000 </r>
       <r>   12.5048    0.0000 </r>
       <r>   12.5048    0.0000 </r>
       <r>   14.1901    0.0000 </r>
       <r>   14.1901    0.0000 </r>
       <r>   14.2365    0.0000 </r>
       <r>   14.2365    0.0000 </r>
       <r>   17.0041    0.0000 </r>
       <r>   17.0041    0.0000 </r>
       <r>   18.5740    0.0000 </r>
       <r>   18.5740    0.0000 </r>
       <r>   18.6518    0.0000 </r>
       <r>   18.6518    0.0000 </r>
       <r>   19.5725    0.0000 </r>
       <r>   19.5725    0.0000 </r>
       <r>   20.6631    0.0000 </r>
       <r>   20.6631    0.0000 </r>
       <r>   22.6544    0.0000 </r>
       <r>   22.6544    0.0000 </r>
       <r>   23.2069    0.0000 </r>
       <r>   23.2069    0.0000 </r>
       <r>   24.2325    0.0000 </r>
       <r>   24.2325    0.0000 </r>
       <r>   25.2613    0.0000 </r>
       <r>   25.2613    0.0000 </r>
       <r>   25.3805    0.0000 </r>
       <r>   25.3805    0.0000 </r>
       <r>   25.5061    0.0000 </r>
       <r>   25.5061    0.0000 </r>
       <r>   26.8701    0.0000 </r>
       <r>   26.8701    0.0000 </r>
       <r>   27.1145    0.0000 </r>
       <r>   27.1145    0.0000 </r>
       <r>   27.9585    0.0000 </r>
       <r>   27.9585    0.0000 </r>
       <r>   28.4930    0.0000 </r>
       <r>   28.4930    0.0000 </r>
       <r>   29.1975    0.0000 </r>
       <r>   29.1975    0.0000 </r>
       <r>   32.1244    0.0000 </r>
       <r>   32.1244    0.0000 </r>
       <r>   33.7435    0.0000 </r>
       <r>   33.7435    0.0000 </r>
       <r>   33.8071    0.0000 </r>
       <r>   33.8071    0.0000 </r>
       <r>   34.0769    0.0000 </r>
       <r>   34.0769    0.0000 </r>
       <r>   34.0839    0.0000 </r>
       <r>   34.0839    0.0000 </r>
       <r>   34.8879    0.0000 </r>
       <r>   34.8879    0.0000 </r>
       <r>   35.1228    0.0000 </r>
       <r>   35.1228    0.0000 </r>
       <r>   37.1051    0.0000 </r>
       <r>   37.1051    0.0000 </r>
       <r>   37.2766    0.0000 </r>
       <r>   37.2766    0.0000 </r>
       <r>   37.5220    0.0000 </r>
       <r>   37.5220    0.0000 </r>
       <r>   37.7196    0.0000 </r>
       <r>   37.7196    0.0000 </r>
       <r>   37.7781    0.0000 </r>
       <r>   37.7781    0.0000 </r>
       <r>   38.6908    0.0000 </r>
       <r>   38.6908    0.0000 </r>
       <r>   38.7466    0.0000 </r>
       <r>   38.7466    0.0000 </r>
       <r>   39.0298    0.0000 </r>
       <r>   39.0298    0.0000 </r>
       <r>   39.1869    0.0000 </r>
       <r>   39.1869    0.0000 </r>
       <r>   40.8996    0.0000 </r>
       <r>   40.8996    0.0000 </r>
       <r>   40.9944    0.0000 </r>
       <r>   40.9944    0.0000 </r>
       <r>   41.5857    0.0000 </r>
       <r>   41.5857    0.0000 </r>
       <r>   42.3133    0.0000 </r>
       <r>   42.3133    0.0000 </r>
       <r>   42.6086    0.0000 </r>
       <r>   42.6086    0.0000 </r>
       <r>   42.6132    0.0000 </r>
       <r>   42.6132    0.0000 </r>
       <r>   44.7552    0.0000 </r>
       <r>   44.7552    0.0000 </r>
       <r>   44.8149    0.0000 </r>
       <r>   44.8149    0.0000 </r>
       <r>   45.7338    0.0000 </r>
       <r>   45.7338    0.0000 </r>
       <r>   46.5054    0.0000 </r>
       <r>   46.5054    0.0000 </r>
       <r>   46.7148    0.0000 </r>
       <r>   46.7148    0.0000 </r>
       <r>   46.7840    0.0000 </r>
       <r>   46.7840    0.0000 </r>
       <r>   46.8160    0.0000 </r>
       <r>   46.8160    0.0000 </r>
       <r>   47.9977    0.0000 </r>
       <r>   47.9977    0.0000 </r>
       <r>   48.0535    0.0000 </r>
       <r>   48.0535    0.0000 </r>
       <r>   48.6132    0.0000 </r>
       <r>   48.6132    0.0000 </r>
       <r>   49.5112    0.0000 </r>
       <r>   49.5112    0.0000 </r>
       <r>   49.5411    0.0000 </r>
       <r>   49.5411    0.0000 </r>
       <r>   50.9799    0.0000 </r>
       <r>   50.9799    0.0000 </r>
       <r>   53.1491    0.0000 </r>
       <r>   53.1491    0.0000 </r>
       <r>   55.6512    0.0000 </r>
       <r>   55.6512    0.0000 </r>
       <r>   55.7134    0.0000 </r>
       <r>   55.7134    0.0000 </r>
       <r>   56.6994    0.0000 </r>
       <r>   56.6994    0.0000 </r>
       <r>   60.6275    0.0000 </r>
       <r>   60.6275    0.0000 </r>
       <r>   60.9104    0.0000 </r>
       <r>   60.9104    0.0000 </r>
       <r>   62.1166    0.0000 </r>
       <r>   62.1166    0.0000 </r>
       <r>   62.1345    0.0000 </r>
       <r>   62.1345    0.0000 </r>
       <r>   62.2214    0.0000 </r>
       <r>   62.2214    0.0000 </r>
       <r>   63.0918    0.0000 </r>
       <r>   63.0918    0.0000 </r>
       <r>   64.4450    0.0000 </r>
       <r>   64.4450    0.0000 </r>
       <r>   65.2486    0.0000 </r>
       <r>   65.2486    0.0000 </r>
       <r>   65.2778    0.0000 </r>
       <r>   65.2778    0.0000 </r>
       <r>   65.7082    0.0000 </r>
       <r>   65.7082    0.0000 </r>
       <r>   66.1589    0.0000 </r>
       <r>   66.1589    0.0000 </r>
       <r>   66.1760    0.0000 </r>
       <r>   66.1760    0.0000 </r>
       <r>   67.3492    0.0000 </r>
       <r>   67.3492    0.0000 </r>
       <r>   67.4937    0.0000 </r>
       <r>   67.4937    0.0000 </r>
       <r>   67.8664    0.0000 </r>
       <r>   67.8664    0.0000 </r>
       <r>   68.2818    0.0000 </r>
       <r>   68.2818    0.0000 </r>
       <r>   68.3659    0.0000 </r>
       <r>   68.3659    0.0000 </r>
       <r>   69.2487    0.0000 </r>
       <r>   69.2487    0.0000 </r>
       <r>   69.6273    0.0000 </r>
       <r>   69.6273    0.0000 </r>
       <r>   69.9279    0.0000 </r>
       <r>   69.9279    0.0000 </r>
       <r>   70.2677    0.0000 </r>
       <r>   70.2677    0.0000 </r>
       <r>   70.3572    0.0000 </r>
       <r>   70.3572    0.0000 </r>
       <r>   71.3969    0.0000 </r>
       <r>   71.3969    0.0000 </r>
       <r>   71.6791    0.0000 </r>
       <r>   71.6791    0.0000 </r>
       <r>   71.7152    0.0000 </r>
       <r>   71.7152    0.0000 </r>
       <r>   71.9493    0.0000 </r>
       <r>   71.9493    0.0000 </r>
       <r>   73.3322    0.0000 </r>
       <r>   73.3322    0.0000 </r>
       <r>   73.6267    0.0000 </r>
       <r>   73.6267    0.0000 </r>
       <r>   73.7351    0.0000 </r>
       <r>   73.7351    0.0000 </r>
       <r>   74.1084    0.0000 </r>
       <r>   74.1084    0.0000 </r>
       <r>   74.3044    0.0000 </r>
       <r>   74.3044    0.0000 </r>
       <r>   74.4682    0.0000 </r>
       <r>   74.4682    0.0000 </r>
       <r>   75.5358    0.0000 </r>
       <r>   75.5358    0.0000 </r>
       <r>   76.5555    0.0000 </r>
       <r>   76.5555    0.0000 </r>
       <r>   76.7611    0.0000 </r>
       <r>   76.7611    0.0000 </r>
       <r>   76.7992    0.0000 </r>
       <r>   76.7992    0.0000 </r>
       <r>   76.8484    0.0000 </r>
       <r>   76.8484    0.0000 </r>
       <r>   77.9549    0.0000 </r>
       <r>   77.9549    0.0000 </r>
       <r>   78.0053    0.0000 </r>
       <r>   78.0053    0.0000 </r>
       <r>   78.2874    0.0000 </r>
       <r>   78.2874    0.0000 </r>
       <r>   79.1744    0.0000 </r>
       <r>   79.1744    0.0000 </r>
       <r>   79.3204    0.0000 </r>
       <r>   79.3204    0.0000 </r>
       <r>   79.3486    0.0000 </r>
       <r>   79.3486    0.0000 </r>
       <r>   79.4677    0.0000 </r>
       <r>   79.4677    0.0000 </r>
       <r>   80.3909    0.0000 </r>
       <r>   80.3909    0.0000 </r>
       <r>   81.0558    0.0000 </r>
       <r>   81.0558    0.0000 </r>
       <r>   81.7552    0.0000 </r>
       <r>   81.7552    0.0000 </r>
       <r>   81.8054    0.0000 </r>
       <r>   81.8054    0.0000 </r>
       <r>   82.7894    0.0000 </r>
       <r>   82.7894    0.0000 </r>
       <r>   82.7968    0.0000 </r>
       <r>   82.7968    0.0000 </r>
      </set>
      <set comment="kpoint 3">
       <r> -196.1529    1.0000 </r>
       <r> -196.1529    1.0000 </r>
       <r> -141.8099    1.0000 </r>
       <r> -141.8099    1.0000 </r>
       <r> -113.6150    1.0000 </r>
       <r> -113.6150    1.0000 </r>
       <r> -113.6150    1.0000 </r>
       <r> -113.6150    1.0000 </r>
       <r>  -43.5490    1.0000 </r>
       <r>  -43.5490    1.0000 </r>
       <r>  -43.5469    1.0000 </r>
       <r>  -43.5469    1.0000 </r>
       <r>  -39.1329    1.0000 </r>
       <r>  -39.1329    1.0000 </r>
       <r>  -39.1322    1.0000 </r>
       <r>  -39.1322    1.0000 </r>
       <r>  -39.1313    1.0000 </r>
       <r>  -39.1313    1.0000 </r>
       <r>  -16.4684    1.0000 </r>
       <r>  -16.4684    1.0000 </r>
       <r>   -4.2906    1.0000 </r>
       <r>   -4.2906    1.0000 </r>
       <r>   -1.5687    1.0000 </r>
       <r>   -1.5687    1.0000 </r>
       <r>   -0.5005    1.0000 </r>
       <r>   -0.5005    1.0000 </r>
       <r>    5.1635    0.0000 </r>
       <r>    5.1635    0.0000 </r>
       <r>    8.4108    0.0000 </r>
       <r>    8.4108    0.0000 </r>
       <r>    8.5477    0.0000 </r>
       <r>    8.5477    0.0000 </r>
       <r>    8.7191    0.0000 </r>
       <r>    8.7191    0.0000 </r>
       <r>   10.4983    0.0000 </r>
       <r>   10.4983    0.0000 </r>
       <r>   11.2729    0.0000 </r>
       <r>   11.2729    0.0000 </r>
       <r>   11.4030    0.0000 </r>
       <r>   11.4030    0.0000 </r>
       <r>   15.4068    0.0000 </r>
       <r>   15.4068    0.0000 </r>
       <r>   16.0054    0.0000 </r>
       <r>   16.0054    0.0000 </r>
       <r>   16.2099    0.0000 </r>
       <r>   16.2099    0.0000 </r>
       <r>   16.5722    0.0000 </r>
       <r>   16.5722    0.0000 </r>
       <r>   16.6998    0.0000 </r>
       <r>   16.6998    0.0000 </r>
       <r>   16.8869    0.0000 </r>
       <r>   16.8869    0.0000 </r>
       <r>   19.6882    0.0000 </r>
       <r>   19.6882    0.0000 </r>
       <r>   20.0388    0.0000 </r>
       <r>   20.0388    0.0000 </r>
       <r>   22.3340    0.0000 </r>
       <r>   22.3340    0.0000 </r>
       <r>   22.8233    0.0000 </r>
       <r>   22.8233    0.0000 </r>
       <r>   23.0909    0.0000 </r>
       <r>   23.0909    0.0000 </r>
       <r>   24.1591    0.0000 </r>
       <r>   24.1591    0.0000 </r>
       <r>   24.5443    0.0000 </r>
       <r>   24.5443    0.0000 </r>
       <r>   25.1978    0.0000 </r>
       <r>   25.1978    0.0000 </r>
       <r>   27.2387    0.0000 </r>
       <r>   27.2387    0.0000 </r>
       <r>   27.3609    0.0000 </r>
       <r>   27.3609    0.0000 </r>
       <r>   27.7408    0.0000 </r>
       <r>   27.7408    0.0000 </r>
       <r>   28.7053    0.0000 </r>
       <r>   28.7053    0.0000 </r>
       <r>   29.0072    0.0000 </r>
       <r>   29.0072    0.0000 </r>
       <r>   29.6976    0.0000 </r>
       <r>   29.6976    0.0000 </r>
       <r>   32.1147    0.0000 </r>
       <r>   32.1147    0.0000 </r>
       <r>   32.2428    0.0000 </r>
       <r>   32.2428    0.0000 </r>
       <r>   32.2667    0.0000 </r>
       <r>   32.2667    0.0000 </r>
       <r>   32.3677    0.0000 </r>
       <r>   32.3677    0.0000 </r>
       <r>   33.3555    0.0000 </r>
       <r>   33.3555    0.0000 </r>
       <r>   33.6393    0.0000 </r>
       <r>   33.6393    0.0000 </r>
       <r>   36.7706    0.0000 </r>
       <r>   36.7706    0.0000 </r>
       <r>   36.8223    0.0000 </r>
       <r>   36.8223    0.0000 </r>
       <r>   36.8923    0.0000 </r>
       <r>   36.8923    0.0000 </r>
       <r>   37.2668    0.0000 </r>
       <r>   37.2668    0.0000 </r>
       <r>   37.3961    0.0000 </r>
       <r>   37.3961    0.0000 </r>
       <r>   39.2826    0.0000 </r>
       <r>   39.2826    0.0000 </r>
       <r>   39.7499    0.0000 </r>
       <r>   39.7499    0.0000 </r>
       <r>   39.7582    0.0000 </r>
       <r>   39.7582    0.0000 </r>
       <r>   40.5040    0.0000 </r>
       <r>   40.5040    0.0000 </r>
       <r>   41.2116    0.0000 </r>
       <r>   41.2116    0.0000 </r>
       <r>   42.4694    0.0000 </r>
       <r>   42.4694    0.0000 </r>
       <r>   42.6489    0.0000 </r>
       <r>   42.6489    0.0000 </r>
       <r>   43.0542    0.0000 </r>
       <r>   43.0542    0.0000 </r>
       <r>   44.0682    0.0000 </r>
       <r>   44.0682    0.0000 </r>
       <r>   44.1948    0.0000 </r>
       <r>   44.1948    0.0000 </r>
       <r>   46.6481    0.0000 </r>
       <r>   46.6481    0.0000 </r>
       <r>   48.2278    0.0000 </r>
       <r>   48.2278    0.0000 </r>
       <r>   48.3255    0.0000 </r>
       <r>   48.3255    0.0000 </r>
       <r>   48.7348    0.0000 </r>
       <r>   48.7348    0.0000 </r>
       <r>   48.7463    0.0000 </r>
       <r>   48.7463    0.0000 </r>
       <r>   48.8246    0.0000 </r>
       <r>   48.8246    0.0000 </r>
       <r>   49.6589    0.0000 </r>
       <r>   49.6589    0.0000 </r>
       <r>   50.7105    0.0000 </r>
       <r>   50.7105    0.0000 </r>
       <r>   51.0675    0.0000 </r>
       <r>   51.0675    0.0000 </r>
       <r>   51.1380    0.0000 </r>
       <r>   51.1380    0.0000 </r>
       <r>   52.3909    0.0000 </r>
       <r>   52.3909    0.0000 </r>
       <r>   52.4537    0.0000 </r>
       <r>   52.4537    0.0000 </r>
       <r>   53.1204    0.0000 </r>
       <r>   53.1204    0.0000 </r>
       <r>   53.1567    0.0000 </r>
       <r>   53.1567    0.0000 </r>
       <r>   53.3472    0.0000 </r>
       <r>   53.3472    0.0000 </r>
       <r>   55.4768    0.0000 </r>
       <r>   55.4768    0.0000 </r>
       <r>   55.9405    0.0000 </r>
       <r>   55.9405    0.0000 </r>
       <r>   56.0574    0.0000 </r>
       <r>   56.0574    0.0000 </r>
       <r>   56.1401    0.0000 </r>
       <r>   56.1401    0.0000 </r>
       <r>   58.5799    0.0000 </r>
       <r>   58.5799    0.0000 </r>
       <r>   59.2568    0.0000 </r>
       <r>   59.2568    0.0000 </r>
       <r>   60.0291    0.0000 </r>
       <r>   60.0291    0.0000 </r>
       <r>   60.3014    0.0000 </r>
       <r>   60.3014    0.0000 </r>
       <r>   61.6219    0.0000 </r>
       <r>   61.6219    0.0000 </r>
       <r>   61.6492    0.0000 </r>
       <r>   61.6492    0.0000 </r>
       <r>   61.6985    0.0000 </r>
       <r>   61.6985    0.0000 </r>
       <r>   62.5790    0.0000 </r>
       <r>   62.5790    0.0000 </r>
       <r>   62.9038    0.0000 </r>
       <r>   62.9038    0.0000 </r>
       <r>   62.9435    0.0000 </r>
       <r>   62.9435    0.0000 </r>
       <r>   64.6571    0.0000 </r>
       <r>   64.6571    0.0000 </r>
       <r>   64.8763    0.0000 </r>
       <r>   64.8763    0.0000 </r>
       <r>   68.1323    0.0000 </r>
       <r>   68.1323    0.0000 </r>
       <r>   68.5302    0.0000 </r>
       <r>   68.5302    0.0000 </r>
       <r>   68.6234    0.0000 </r>
       <r>   68.6234    0.0000 </r>
       <r>   69.4837    0.0000 </r>
       <r>   69.4837    0.0000 </r>
       <r>   69.5198    0.0000 </r>
       <r>   69.5198    0.0000 </r>
       <r>   70.0959    0.0000 </r>
       <r>   70.0959    0.0000 </r>
       <r>   70.2259    0.0000 </r>
       <r>   70.2259    0.0000 </r>
       <r>   70.4434    0.0000 </r>
       <r>   70.4434    0.0000 </r>
       <r>   70.9816    0.0000 </r>
       <r>   70.9816    0.0000 </r>
       <r>   71.0694    0.0000 </r>
       <r>   71.0694    0.0000 </r>
       <r>   71.0984    0.0000 </r>
       <r>   71.0984    0.0000 </r>
       <r>   71.4241    0.0000 </r>
       <r>   71.4241    0.0000 </r>
       <r>   71.6486    0.0000 </r>
       <r>   71.6486    0.0000 </r>
       <r>   71.7475    0.0000 </r>
       <r>   71.7475    0.0000 </r>
       <r>   72.2077    0.0000 </r>
       <r>   72.2077    0.0000 </r>
       <r>   74.5500    0.0000 </r>
       <r>   74.5500    0.0000 </r>
       <r>   74.8310    0.0000 </r>
       <r>   74.8310    0.0000 </r>
       <r>   75.0903    0.0000 </r>
       <r>   75.0903    0.0000 </r>
       <r>   75.7759    0.0000 </r>
       <r>   75.7759    0.0000 </r>
       <r>   76.7429    0.0000 </r>
       <r>   76.7429    0.0000 </r>
       <r>   76.7436    0.0000 </r>
       <r>   76.7436    0.0000 </r>
       <r>   77.1989    0.0000 </r>
       <r>   77.1989    0.0000 </r>
       <r>   78.1416    0.0000 </r>
       <r>   78.1416    0.0000 </r>
       <r>   79.1328    0.0000 </r>
       <r>   79.1328    0.0000 </r>
       <r>   79.1598    0.0000 </r>
       <r>   79.1598    0.0000 </r>
       <r>   79.1918    0.0000 </r>
       <r>   79.1918    0.0000 </r>
       <r>   79.6293    0.0000 </r>
       <r>   79.6293    0.0000 </r>
       <r>   79.6902    0.0000 </r>
       <r>   79.6902    0.0000 </r>
       <r>   80.4594    0.0000 </r>
       <r>   80.4594    0.0000 </r>
       <r>   81.0427    0.0000 </r>
       <r>   81.0427    0.0000 </r>
       <r>   81.0721    0.0000 </r>
       <r>   81.0721    0.0000 </r>
       <r>   82.0907    0.0000 </r>
       <r>   82.0907    0.0000 </r>
       <r>   82.6603    0.0000 </r>
       <r>   82.6603    0.0000 </r>
       <r>   83.6821    0.0000 </r>
       <r>   83.6821    0.0000 </r>
       <r>   83.7434    0.0000 </r>
       <r>   83.7434    0.0000 </r>
       <r>   84.1904    0.0000 </r>
       <r>   84.1904    0.0000 </r>
      </set>
      <set comment="kpoint 4">
       <r> -196.1351    1.0000 </r>
       <r> -196.1351    1.0000 </r>
       <r> -141.7613    1.0000 </r>
       <r> -141.7613    1.0000 </r>
       <r> -113.6147    1.0000 </r>
       <r> -113.6147    1.0000 </r>
       <r> -113.6144    1.0000 </r>
       <r> -113.6144    1.0000 </r>
       <r>  -43.5373    1.0000 </r>
       <r>  -43.5373    1.0000 </r>
       <r>  -43.5363    1.0000 </r>
       <r>  -43.5363    1.0000 </r>
       <r>  -39.1278    1.0000 </r>
       <r>  -39.1278    1.0000 </r>
       <r>  -39.1273    1.0000 </r>
       <r>  -39.1273    1.0000 </r>
       <r>  -39.1263    1.0000 </r>
       <r>  -39.1263    1.0000 </r>
       <r>  -16.4249    1.0000 </r>
       <r>  -16.4249    1.0000 </r>
       <r>   -4.4905    1.0000 </r>
       <r>   -4.4905    1.0000 </r>
       <r>   -1.8073    1.0000 </r>
       <r>   -1.8073    1.0000 </r>
       <r>   -0.5683    1.0000 </r>
       <r>   -0.5683    1.0000 </r>
       <r>    5.2063    0.0000 </r>
       <r>    5.2063    0.0000 </r>
       <r>    8.2919    0.0000 </r>
       <r>    8.2919    0.0000 </r>
       <r>    8.4496    0.0000 </r>
       <r>    8.4496    0.0000 </r>
       <r>    9.1085    0.0000 </r>
       <r>    9.1085    0.0000 </r>
       <r>   10.8559    0.0000 </r>
       <r>   10.8559    0.0000 </r>
       <r>   13.4138    0.0000 </r>
       <r>   13.4138    0.0000 </r>
       <r>   13.4297    0.0000 </r>
       <r>   13.4297    0.0000 </r>
       <r>   13.5534    0.0000 </r>
       <r>   13.5534    0.0000 </r>
       <r>   13.6149    0.0000 </r>
       <r>   13.6149    0.0000 </r>
       <r>   14.4331    0.0000 </r>
       <r>   14.4331    0.0000 </r>
       <r>   17.7228    0.0000 </r>
       <r>   17.7228    0.0000 </r>
       <r>   18.1365    0.0000 </r>
       <r>   18.1365    0.0000 </r>
       <r>   18.1406    0.0000 </r>
       <r>   18.1406    0.0000 </r>
       <r>   19.7853    0.0000 </r>
       <r>   19.7853    0.0000 </r>
       <r>   21.2001    0.0000 </r>
       <r>   21.2001    0.0000 </r>
       <r>   22.2828    0.0000 </r>
       <r>   22.2828    0.0000 </r>
       <r>   22.5699    0.0000 </r>
       <r>   22.5699    0.0000 </r>
       <r>   22.6180    0.0000 </r>
       <r>   22.6180    0.0000 </r>
       <r>   23.0835    0.0000 </r>
       <r>   23.0835    0.0000 </r>
       <r>   23.9794    0.0000 </r>
       <r>   23.9794    0.0000 </r>
       <r>   25.6148    0.0000 </r>
       <r>   25.6148    0.0000 </r>
       <r>   26.3011    0.0000 </r>
       <r>   26.3011    0.0000 </r>
       <r>   27.3944    0.0000 </r>
       <r>   27.3944    0.0000 </r>
       <r>   27.6787    0.0000 </r>
       <r>   27.6787    0.0000 </r>
       <r>   27.9937    0.0000 </r>
       <r>   27.9937    0.0000 </r>
       <r>   28.3572    0.0000 </r>
       <r>   28.3572    0.0000 </r>
       <r>   28.8104    0.0000 </r>
       <r>   28.8104    0.0000 </r>
       <r>   29.8508    0.0000 </r>
       <r>   29.8508    0.0000 </r>
       <r>   31.6799    0.0000 </r>
       <r>   31.6799    0.0000 </r>
       <r>   31.6904    0.0000 </r>
       <r>   31.6904    0.0000 </r>
       <r>   31.7322    0.0000 </r>
       <r>   31.7322    0.0000 </r>
       <r>   33.1673    0.0000 </r>
       <r>   33.1673    0.0000 </r>
       <r>   33.4847    0.0000 </r>
       <r>   33.4847    0.0000 </r>
       <r>   36.5783    0.0000 </r>
       <r>   36.5783    0.0000 </r>
       <r>   36.6399    0.0000 </r>
       <r>   36.6399    0.0000 </r>
       <r>   37.1103    0.0000 </r>
       <r>   37.1103    0.0000 </r>
       <r>   37.2195    0.0000 </r>
       <r>   37.2195    0.0000 </r>
       <r>   37.2744    0.0000 </r>
       <r>   37.2744    0.0000 </r>
       <r>   39.7827    0.0000 </r>
       <r>   39.7827    0.0000 </r>
       <r>   39.9108    0.0000 </r>
       <r>   39.9108    0.0000 </r>
       <r>   40.5267    0.0000 </r>
       <r>   40.5267    0.0000 </r>
       <r>   41.1692    0.0000 </r>
       <r>   41.1692    0.0000 </r>
       <r>   43.7296    0.0000 </r>
       <r>   43.7296    0.0000 </r>
       <r>   43.7462    0.0000 </r>
       <r>   43.7462    0.0000 </r>
       <r>   44.5128    0.0000 </r>
       <r>   44.5128    0.0000 </r>
       <r>   44.5866    0.0000 </r>
       <r>   44.5866    0.0000 </r>
       <r>   45.9771    0.0000 </r>
       <r>   45.9771    0.0000 </r>
       <r>   46.3407    0.0000 </r>
       <r>   46.3407    0.0000 </r>
       <r>   46.4397    0.0000 </r>
       <r>   46.4397    0.0000 </r>
       <r>   47.7398    0.0000 </r>
       <r>   47.7398    0.0000 </r>
       <r>   47.8628    0.0000 </r>
       <r>   47.8628    0.0000 </r>
       <r>   48.0170    0.0000 </r>
       <r>   48.0170    0.0000 </r>
       <r>   49.8157    0.0000 </r>
       <r>   49.8157    0.0000 </r>
       <r>   49.8674    0.0000 </r>
       <r>   49.8674    0.0000 </r>
       <r>   51.0291    0.0000 </r>
       <r>   51.0291    0.0000 </r>
       <r>   51.1530    0.0000 </r>
       <r>   51.1530    0.0000 </r>
       <r>   51.6845    0.0000 </r>
       <r>   51.6845    0.0000 </r>
       <r>   51.7124    0.0000 </r>
       <r>   51.7124    0.0000 </r>
       <r>   52.9853    0.0000 </r>
       <r>   52.9853    0.0000 </r>
       <r>   53.1675    0.0000 </r>
       <r>   53.1675    0.0000 </r>
       <r>   53.3236    0.0000 </r>
       <r>   53.3236    0.0000 </r>
       <r>   54.5236    0.0000 </r>
       <r>   54.5236    0.0000 </r>
       <r>   54.9335    0.0000 </r>
       <r>   54.9335    0.0000 </r>
       <r>   55.2035    0.0000 </r>
       <r>   55.2035    0.0000 </r>
       <r>   55.6320    0.0000 </r>
       <r>   55.6320    0.0000 </r>
       <r>   55.8239    0.0000 </r>
       <r>   55.8239    0.0000 </r>
       <r>   55.8393    0.0000 </r>
       <r>   55.8393    0.0000 </r>
       <r>   56.3162    0.0000 </r>
       <r>   56.3162    0.0000 </r>
       <r>   57.5069    0.0000 </r>
       <r>   57.5069    0.0000 </r>
       <r>   57.7168    0.0000 </r>
       <r>   57.7168    0.0000 </r>
       <r>   58.3188    0.0000 </r>
       <r>   58.3188    0.0000 </r>
       <r>   60.5229    0.0000 </r>
       <r>   60.5229    0.0000 </r>
       <r>   60.5388    0.0000 </r>
       <r>   60.5388    0.0000 </r>
       <r>   61.3106    0.0000 </r>
       <r>   61.3106    0.0000 </r>
       <r>   61.3114    0.0000 </r>
       <r>   61.3114    0.0000 </r>
       <r>   62.9267    0.0000 </r>
       <r>   62.9267    0.0000 </r>
       <r>   63.4660    0.0000 </r>
       <r>   63.4660    0.0000 </r>
       <r>   63.9940    0.0000 </r>
       <r>   63.9940    0.0000 </r>
       <r>   64.1848    0.0000 </r>
       <r>   64.1848    0.0000 </r>
       <r>   64.4080    0.0000 </r>
       <r>   64.4080    0.0000 </r>
       <r>   65.6790    0.0000 </r>
       <r>   65.6790    0.0000 </r>
       <r>   68.2330    0.0000 </r>
       <r>   68.2330    0.0000 </r>
       <r>   69.1341    0.0000 </r>
       <r>   69.1341    0.0000 </r>
       <r>   69.3047    0.0000 </r>
       <r>   69.3047    0.0000 </r>
       <r>   69.5395    0.0000 </r>
       <r>   69.5395    0.0000 </r>
       <r>   69.5640    0.0000 </r>
       <r>   69.5640    0.0000 </r>
       <r>   70.1136    0.0000 </r>
       <r>   70.1136    0.0000 </r>
       <r>   70.4829    0.0000 </r>
       <r>   70.4829    0.0000 </r>
       <r>   70.6496    0.0000 </r>
       <r>   70.6496    0.0000 </r>
       <r>   72.7201    0.0000 </r>
       <r>   72.7201    0.0000 </r>
       <r>   73.0120    0.0000 </r>
       <r>   73.0120    0.0000 </r>
       <r>   73.3739    0.0000 </r>
       <r>   73.3739    0.0000 </r>
       <r>   73.4316    0.0000 </r>
       <r>   73.4316    0.0000 </r>
       <r>   73.7294    0.0000 </r>
       <r>   73.7294    0.0000 </r>
       <r>   73.8048    0.0000 </r>
       <r>   73.8048    0.0000 </r>
       <r>   73.8387    0.0000 </r>
       <r>   73.8387    0.0000 </r>
       <r>   74.2684    0.0000 </r>
       <r>   74.2684    0.0000 </r>
       <r>   75.5787    0.0000 </r>
       <r>   75.5787    0.0000 </r>
       <r>   75.5972    0.0000 </r>
       <r>   75.5972    0.0000 </r>
       <r>   76.1972    0.0000 </r>
       <r>   76.1972    0.0000 </r>
       <r>   76.2191    0.0000 </r>
       <r>   76.2191    0.0000 </r>
       <r>   77.6496    0.0000 </r>
       <r>   77.6496    0.0000 </r>
       <r>   77.8091    0.0000 </r>
       <r>   77.8091    0.0000 </r>
       <r>   78.0913    0.0000 </r>
       <r>   78.0913    0.0000 </r>
       <r>   78.6177    0.0000 </r>
       <r>   78.6177    0.0000 </r>
       <r>   78.8172    0.0000 </r>
       <r>   78.8172    0.0000 </r>
       <r>   80.4319    0.0000 </r>
       <r>   80.4319    0.0000 </r>
       <r>   81.8149    0.0000 </r>
       <r>   81.8149    0.0000 </r>
       <r>   82.7355    0.0000 </r>
       <r>   82.7355    0.0000 </r>
       <r>   82.8425    0.0000 </r>
       <r>   82.8425    0.0000 </r>
       <r>   82.8532    0.0000 </r>
       <r>   82.8532    0.0000 </r>
       <r>   82.9983    0.0000 </r>
       <r>   82.9983    0.0000 </r>
       <r>   83.0251    0.0000 </r>
       <r>   83.0251    0.0000 </r>
       <r>   83.5200    0.0000 </r>
       <r>   83.5200    0.0000 </r>
       <r>   84.0310    0.0000 </r>
       <r>   84.0310    0.0000 </r>
      </set>
      <set comment="kpoint 5">
       <r> -196.1529    1.0000 </r>
       <r> -196.1529    1.0000 </r>
       <r> -141.8099    1.0000 </r>
       <r> -141.8099    1.0000 </r>
       <r> -113.6150    1.0000 </r>
       <r> -113.6150    1.0000 </r>
       <r> -113.6150    1.0000 </r>
       <r> -113.6150    1.0000 </r>
       <r>  -43.5490    1.0000 </r>
       <r>  -43.5490    1.0000 </r>
       <r>  -43.5469    1.0000 </r>
       <r>  -43.5469    1.0000 </r>
       <r>  -39.1329    1.0000 </r>
       <r>  -39.1329    1.0000 </r>
       <r>  -39.1322    1.0000 </r>
       <r>  -39.1322    1.0000 </r>
       <r>  -39.1313    1.0000 </r>
       <r>  -39.1313    1.0000 </r>
       <r>  -16.4684    1.0000 </r>
       <r>  -16.4684    1.0000 </r>
       <r>   -4.2906    1.0000 </r>
       <r>   -4.2906    1.0000 </r>
       <r>   -1.5687    1.0000 </r>
       <r>   -1.5687    1.0000 </r>
       <r>   -0.5005    1.0000 </r>
       <r>   -0.5005    1.0000 </r>
       <r>    5.1635    0.0000 </r>
       <r>    5.1635    0.0000 </r>
       <r>    8.4108    0.0000 </r>
       <r>    8.4108    0.0000 </r>
       <r>    8.5477    0.0000 </r>
       <r>    8.5477    0.0000 </r>
       <r>    8.7191    0.0000 </r>
       <r>    8.7191    0.0000 </r>
       <r>   10.4983    0.0000 </r>
       <r>   10.4983    0.0000 </r>
       <r>   11.2729    0.0000 </r>
       <r>   11.2729    0.0000 </r>
       <r>   11.4030    0.0000 </r>
       <r>   11.4030    0.0000 </r>
       <r>   15.4068    0.0000 </r>
       <r>   15.4068    0.0000 </r>
       <r>   16.0054    0.0000 </r>
       <r>   16.0054    0.0000 </r>
       <r>   16.2099    0.0000 </r>
       <r>   16.2099    0.0000 </r>
       <r>   16.5722    0.0000 </r>
       <r>   16.5722    0.0000 </r>
       <r>   16.6998    0.0000 </r>
       <r>   16.6998    0.0000 </r>
       <r>   16.8869    0.0000 </r>
       <r>   16.8869    0.0000 </r>
[...]
       <r>     9.7105     0.0000     0.0000 </r>
       <r>    10.7431     0.0000     0.0000 </r>
       <r>    11.7757     0.0000     0.0000 </r>
       <r>    12.8083     0.0000     0.0000 </r>
       <r>    13.8409     0.0000     0.0000 </r>
       <r>    14.8735     0.0000     0.0000 </r>
       <r>    15.9061     0.0000     0.0000 </r>
       <r>    16.9387     0.0000     0.0000 </r>
       <r>    17.9713     0.0000     0.0000 </r>
       <r>    19.0039     0.0000     0.0000 </r>
       <r>    20.0365     0.0000     0.0000 </r>
       <r>    21.0692     0.0000     0.0000 </r>
       <r>    22.1018     0.0000     0.0000 </r>
       <r>    23.1344     0.0000     0.0000 </r>
       <r>    24.1670     0.0000     0.0000 </r>
       <r>    25.1996     0.0000     0.0000 </r>
       <r>    26.2322     0.0000     0.0000 </r>
       <r>    27.2648     0.0000     0.0000 </r>
       <r>    28.2974     0.0000     0.0000 </r>
       <r>    29.3300     0.0000     0.0000 </r>
       <r>    30.3626     0.0000     0.0000 </r>
       <r>    31.3952     0.0000     0.0000 </r>
       <r>    32.4278     0.0000     0.0000 </r>
       <r>    33.4604     0.0000     0.0000 </r>
       <r>    34.4930     0.0000     0.0000 </r>
       <r>    35.5256     0.0000     0.0000 </r>
       <r>    36.5582     0.0000     0.0000 </r>
       <r>    37.5908     0.0000     0.0000 </r>
       <r>    38.6234     0.0000     0.0000 </r>
       <r>    39.6560     0.0000     0.0000 </r>
       <r>    40.6886     0.0000     0.0000 </r>
       <r>    41.7212     0.0000     0.0000 </r>
       <r>    42.7538     0.0000     0.0000 </r>
       <r>    43.7864     0.0000     0.0000 </r>
       <r>    44.8190     0.0000     0.0000 </r>
       <r>    45.8516     0.0000     0.0000 </r>
       <r>    46.8842     0.0000     0.0000 </r>
       <r>    47.9168     0.0000     0.0000 </r>
       <r>    48.9494     0.0000     0.0000 </r>
       <r>    49.9820     0.0000     0.0000 </r>
       <r>    51.0146     0.0000     0.0000 </r>
       <r>    52.0472     0.0000     0.0000 </r>
       <r>    53.0798     0.0000     0.0000 </r>
       <r>    54.1124     0.0000     0.0000 </r>
       <r>    55.1450     0.0000     0.0000 </r>
       <r>    56.1776     0.0000     0.0000 </r>
       <r>    57.2103     0.0000     0.0000 </r>
       <r>    58.2429     0.0000     0.0000 </r>
       <r>    59.2755     0.0000     0.0000 </r>
       <r>    60.3081     0.0000     0.0000 </r>
       <r>    61.3407     0.0000     0.0000 </r>
       <r>    62.3733     0.0000     0.0000 </r>
       <r>    63.4059     0.0000     0.0000 </r>
       <r>    64.4385     0.0000     0.0000 </r>
       <r>    65.4711     0.0000     0.0000 </r>
       <r>    66.5037     0.0000     0.0000 </r>
       <r>    67.5363     0.0000     0.0000 </r>
       <r>    68.5689     0.0000     0.0000 </r>
       <r>    69.6015     0.0000     0.0000 </r>
       <r>    70.6341     0.0000     0.0000 </r>
       <r>    71.6667     0.0000     0.0000 </r>
       <r>    72.6993     0.0000     0.0000 </r>
       <r>    73.7319     0.0000     0.0000 </r>
       <r>    74.7645     0.0000     0.0000 </r>
       <r>    75.7971     0.0000     0.0000 </r>
       <r>    76.8297     0.0000     0.0000 </r>
       <r>    77.8623     0.0000     0.0000 </r>
       <r>    78.8949     0.0000     0.0000 </r>
       <r>    79.9275     0.0000     0.0000 </r>
       <r>    80.9601     0.0000     0.0000 </r>
       <r>    81.9927     0.0000     0.0000 </r>
       <r>    83.0253     0.0000     0.0000 </r>
       <r>    84.0579     0.0000     0.0000 </r>
       <r>    85.0905     0.0000     0.0000 </r>
       <r>    86.1231     0.0000     0.0000 </r>
       <r>    87.1557     0.0000     0.0000 </r>
       <r>    88.1883     0.0000     0.0000 </r>
       <r>    89.2209     0.0000     0.0000 </r>
       <r>    90.2535     0.0000     0.0000 </r>
       <r>    91.2861     0.0000     0.0000 </r>
       <r>    92.3187     0.0000     0.0000 </r>
       <r>    93.3513     0.0000     0.0000 </r>
       <r>    94.3840     0.0000     0.0000 </r>
       <r>    95.4166     0.0000     0.0000 </r>
       <r>    96.4492     0.0000     0.0000 </r>
       <r>    97.4818     0.0000     0.0000 </r>
       <r>    98.5144     0.0000     0.0000 </r>
       <r>    99.5470     0.0000     0.0000 </r>
      </set>
      <set comment="spin 4">
       <r>  -210.2339     0.0000     0.0000 </r>
       <r>  -209.2013     0.0000     0.0000 </r>
       <r>  -208.1687     0.0000     0.0000 </r>
       <r>  -207.1361     0.0000     0.0000 </r>
       <r>  -206.1035     0.0000     0.0000 </r>
       <r>  -205.0709     0.0000     0.0000 </r>
       <r>  -204.0383     0.0000     0.0000 </r>
       <r>  -203.0057     0.0000     0.0000 </r>
       <r>  -201.9731     0.0000     0.0000 </r>
       <r>  -200.9404     0.0000     0.0000 </r>
       <r>  -199.9078     0.0000     0.0000 </r>
       <r>  -198.8752     0.0000     0.0000 </r>
       <r>  -197.8426     0.0000     0.0000 </r>
       <r>  -196.8100     0.0000     0.0000 </r>
       <r>  -195.7774     0.0000     0.0000 </r>
       <r>  -194.7448     0.0000     0.0000 </r>
       <r>  -193.7122     0.0000     0.0000 </r>
       <r>  -192.6796     0.0000     0.0000 </r>
       <r>  -191.6470     0.0000     0.0000 </r>
       <r>  -190.6144     0.0000     0.0000 </r>
       <r>  -189.5818     0.0000     0.0000 </r>
       <r>  -188.5492     0.0000     0.0000 </r>
       <r>  -187.5166     0.0000     0.0000 </r>
       <r>  -186.4840     0.0000     0.0000 </r>
       <r>  -185.4514     0.0000     0.0000 </r>
       <r>  -184.4188     0.0000     0.0000 </r>
       <r>  -183.3862     0.0000     0.0000 </r>
       <r>  -182.3536     0.0000     0.0000 </r>
       <r>  -181.3210     0.0000     0.0000 </r>
       <r>  -180.2884     0.0000     0.0000 </r>
       <r>  -179.2558     0.0000     0.0000 </r>
       <r>  -178.2232     0.0000     0.0000 </r>
       <r>  -177.1906     0.0000     0.0000 </r>
       <r>  -176.1580     0.0000     0.0000 </r>
       <r>  -175.1254     0.0000     0.0000 </r>
       <r>  -174.0928     0.0000     0.0000 </r>
       <r>  -173.0602     0.0000     0.0000 </r>
       <r>  -172.0276     0.0000     0.0000 </r>
       <r>  -170.9950     0.0000     0.0000 </r>
       <r>  -169.9624     0.0000     0.0000 </r>
       <r>  -168.9298     0.0000     0.0000 </r>
       <r>  -167.8972     0.0000     0.0000 </r>
       <r>  -166.8646     0.0000     0.0000 </r>
       <r>  -165.8320     0.0000     0.0000 </r>
       <r>  -164.7994     0.0000     0.0000 </r>
       <r>  -163.7667     0.0000     0.0000 </r>
       <r>  -162.7341     0.0000     0.0000 </r>
       <r>  -161.7015     0.0000     0.0000 </r>
       <r>  -160.6689     0.0000     0.0000 </r>
       <r>  -159.6363     0.0000     0.0000 </r>
       <r>  -158.6037     0.0000     0.0000 </r>
       <r>  -157.5711     0.0000     0.0000 </r>
       <r>  -156.5385     0.0000     0.0000 </r>
       <r>  -155.5059     0.0000     0.0000 </r>
       <r>  -154.4733     0.0000     0.0000 </r>
       <r>  -153.4407     0.0000     0.0000 </r>
       <r>  -152.4081     0.0000     0.0000 </r>
       <r>  -151.3755     0.0000     0.0000 </r>
       <r>  -150.3429     0.0000     0.0000 </r>
       <r>  -149.3103     0.0000     0.0000 </r>
       <r>  -148.2777     0.0000     0.0000 </r>
       <r>  -147.2451     0.0000     0.0000 </r>
       <r>  -146.2125     0.0000     0.0000 </r>
       <r>  -145.1799     0.0000     0.0000 </r>
       <r>  -144.1473     0.0000     0.0000 </r>
       <r>  -143.1147     0.0000     0.0000 </r>
       <r>  -142.0821     0.0000     0.0000 </r>
       <r>  -141.0495     0.0000     0.0000 </r>
       <r>  -140.0169     0.0000     0.0000 </r>
       <r>  -138.9843     0.0000     0.0000 </r>
       <r>  -137.9517     0.0000     0.0000 </r>
       <r>  -136.9191     0.0000     0.0000 </r>
       <r>  -135.8865     0.0000     0.0000 </r>
       <r>  -134.8539     0.0000     0.0000 </r>
       <r>  -133.8213     0.0000     0.0000 </r>
       <r>  -132.7887     0.0000     0.0000 </r>
       <r>  -131.7561     0.0000     0.0000 </r>
       <r>  -130.7235     0.0000     0.0000 </r>
       <r>  -129.6909     0.0000     0.0000 </r>
       <r>  -128.6583     0.0000     0.0000 </r>
       <r>  -127.6256     0.0000     0.0000 </r>
       <r>  -126.5930     0.0000     0.0000 </r>
       <r>  -125.5604     0.0000     0.0000 </r>
       <r>  -124.5278     0.0000     0.0000 </r>
       <r>  -123.4952     0.0000     0.0000 </r>
       <r>  -122.4626     0.0000     0.0000 </r>
       <r>  -121.4300     0.0000     0.0000 </r>
       <r>  -120.3974     0.0000     0.0000 </r>
       <r>  -119.3648     0.0000     0.0000 </r>
       <r>  -118.3322     0.0000     0.0000 </r>
       <r>  -117.2996     0.0000     0.0000 </r>
       <r>  -116.2670     0.0000     0.0000 </r>
       <r>  -115.2344     0.0000     0.0000 </r>
       <r>  -114.2018     0.0000     0.0000 </r>
       <r>  -113.1692     0.0000     0.0000 </r>
       <r>  -112.1366     0.0000     0.0000 </r>
       <r>  -111.1040     0.0000     0.0000 </r>
       <r>  -110.0714     0.0000     0.0000 </r>
       <r>  -109.0388     0.0000     0.0000 </r>
       <r>  -108.0062     0.0000     0.0000 </r>
       <r>  -106.9736     0.0000     0.0000 </r>
       <r>  -105.9410     0.0000     0.0000 </r>
       <r>  -104.9084     0.0000     0.0000 </r>
       <r>  -103.8758     0.0000     0.0000 </r>
       <r>  -102.8432     0.0000     0.0000 </r>
       <r>  -101.8106     0.0000     0.0000 </r>
       <r>  -100.7780     0.0000     0.0000 </r>
       <r>   -99.7454     0.0000     0.0000 </r>
       <r>   -98.7128     0.0000     0.0000 </r>
       <r>   -97.6802     0.0000     0.0000 </r>
       <r>   -96.6476     0.0000     0.0000 </r>
       <r>   -95.6150     0.0000     0.0000 </r>
       <r>   -94.5824     0.0000     0.0000 </r>
       <r>   -93.5498     0.0000     0.0000 </r>
       <r>   -92.5172     0.0000     0.0000 </r>
       <r>   -91.4846     0.0000     0.0000 </r>
       <r>   -90.4519     0.0000     0.0000 </r>
       <r>   -89.4193     0.0000     0.0000 </r>
       <r>   -88.3867     0.0000     0.0000 </r>
       <r>   -87.3541     0.0000     0.0000 </r>
       <r>   -86.3215     0.0000     0.0000 </r>
       <r>   -85.2889     0.0000     0.0000 </r>
       <r>   -84.2563     0.0000     0.0000 </r>
       <r>   -83.2237     0.0000     0.0000 </r>
       <r>   -82.1911     0.0000     0.0000 </r>
       <r>   -81.1585     0.0000     0.0000 </r>
       <r>   -80.1259     0.0000     0.0000 </r>
       <r>   -79.0933     0.0000     0.0000 </r>
       <r>   -78.0607     0.0000     0.0000 </r>
       <r>   -77.0281     0.0000     0.0000 </r>
       <r>   -75.9955     0.0000     0.0000 </r>
       <r>   -74.9629     0.0000     0.0000 </r>
       <r>   -73.9303     0.0000     0.0000 </r>
       <r>   -72.8977     0.0000     0.0000 </r>
       <r>   -71.8651     0.0000     0.0000 </r>
       <r>   -70.8325     0.0000     0.0000 </r>
       <r>   -69.7999     0.0000     0.0000 </r>
       <r>   -68.7673     0.0000     0.0000 </r>
       <r>   -67.7347     0.0000     0.0000 </r>
       <r>   -66.7021     0.0000     0.0000 </r>
       <r>   -65.6695     0.0000     0.0000 </r>
       <r>   -64.6369     0.0000     0.0000 </r>
       <r>   -63.6043     0.0000     0.0000 </r>
       <r>   -62.5717     0.0000     0.0000 </r>
       <r>   -61.5391     0.0000     0.0000 </r>
       <r>   -60.5065     0.0000     0.0000 </r>
       <r>   -59.4739     0.0000     0.0000 </r>
       <r>   -58.4413     0.0000     0.0000 </r>
       <r>   -57.4087     0.0000     0.0000 </r>
       <r>   -56.3761     0.0000     0.0000 </r>
       <r>   -55.3435     0.0000     0.0000 </r>
       <r>   -54.3109     0.0000     0.0000 </r>
       <r>   -53.2782     0.0000     0.0000 </r>
       <r>   -52.2456     0.0000     0.0000 </r>
       <r>   -51.2130     0.0000     0.0000 </r>
       <r>   -50.1804     0.0000     0.0000 </r>
       <r>   -49.1478     0.0000     0.0000 </r>
       <r>   -48.1152     0.0000     0.0000 </r>
       <r>   -47.0826     0.0000     0.0000 </r>
       <r>   -46.0500     0.0000     0.0000 </r>
       <r>   -45.0174     0.0000     0.0000 </r>
       <r>   -43.9848     0.0000     0.0000 </r>
       <r>   -42.9522     0.0000     0.0000 </r>
       <r>   -41.9196     0.0000     0.0000 </r>
       <r>   -40.8870     0.0000     0.0000 </r>
       <r>   -39.8544     0.0000     0.0000 </r>
       <r>   -38.8218     0.0000     0.0000 </r>
       <r>   -37.7892     0.0000     0.0000 </r>
       <r>   -36.7566     0.0000     0.0000 </r>
       <r>   -35.7240     0.0000     0.0000 </r>
       <r>   -34.6914     0.0000     0.0000 </r>
       <r>   -33.6588     0.0000     0.0000 </r>
       <r>   -32.6262     0.0000     0.0000 </r>
       <r>   -31.5936     0.0000     0.0000 </r>
       <r>   -30.5610     0.0000     0.0000 </r>
       <r>   -29.5284     0.0000     0.0000 </r>
       <r>   -28.4958     0.0000     0.0000 </r>
       <r>   -27.4632     0.0000     0.0000 </r>
       <r>   -26.4306     0.0000     0.0000 </r>
       <r>   -25.3980     0.0000     0.0000 </r>
       <r>   -24.3654     0.0000     0.0000 </r>
       <r>   -23.3328     0.0000     0.0000 </r>
       <r>   -22.3002     0.0000     0.0000 </r>
       <r>   -21.2676     0.0000     0.0000 </r>
       <r>   -20.2350     0.0000     0.0000 </r>
       <r>   -19.2024     0.0000     0.0000 </r>
       <r>   -18.1698     0.0000     0.0000 </r>
       <r>   -17.1372     0.0000     0.0000 </r>
       <r>   -16.1045     0.0000     0.0000 </r>
       <r>   -15.0719     0.0000     0.0000 </r>
       <r>   -14.0393     0.0000     0.0000 </r>
       <r>   -13.0067     0.0000     0.0000 </r>
       <r>   -11.9741     0.0000     0.0000 </r>
       <r>   -10.9415     0.0000     0.0000 </r>
       <r>    -9.9089     0.0000     0.0000 </r>
       <r>    -8.8763     0.0000     0.0000 </r>
       <r>    -7.8437     0.0000     0.0000 </r>
       <r>    -6.8111     0.0000     0.0000 </r>
       <r>    -5.7785     0.0000     0.0000 </r>
       <r>    -4.7459     0.0000     0.0000 </r>
       <r>    -3.7133     0.0000     0.0000 </r>
       <r>    -2.6807     0.0000     0.0000 </r>
       <r>    -1.6481     0.0000     0.0000 </r>
       <r>    -0.6155     0.0000     0.0000 </r>
       <r>     0.4171     0.0000     0.0000 </r>
       <r>     1.4497     0.0000     0.0000 </r>
       <r>     2.4823     0.0000     0.0000 </r>
       <r>     3.5149     0.0000     0.0000 </r>
       <r>     4.5475     0.0000     0.0000 </r>
       <r>     5.5801     0.0000     0.0000 </r>
       <r>     6.6127     0.0000     0.0000 </r>
       <r>     7.6453     0.0000     0.0000 </r>
       <r>     8.6779     0.0000     0.0000 </r>
       <r>     9.7105     0.0000     0.0000 </r>
       <r>    10.7431     0.0000     0.0000 </r>
       <r>    11.7757     0.0000     0.0000 </r>
       <r>    12.8083     0.0000     0.0000 </r>
       <r>    13.8409     0.0000     0.0000 </r>
       <r>    14.8735     0.0000     0.0000 </r>
       <r>    15.9061     0.0000     0.0000 </r>
       <r>    16.9387     0.0000     0.0000 </r>
       <r>    17.9713     0.0000     0.0000 </r>
       <r>    19.0039     0.0000     0.0000 </r>
       <r>    20.0365     0.0000     0.0000 </r>
       <r>    21.0692     0.0000     0.0000 </r>
       <r>    22.1018     0.0000     0.0000 </r>
       <r>    23.1344     0.0000     0.0000 </r>
       <r>    24.1670     0.0000     0.0000 </r>
       <r>    25.1996     0.0000     0.0000 </r>
       <r>    26.2322     0.0000     0.0000 </r>
       <r>    27.2648     0.0000     0.0000 </r>
       <r>    28.2974     0.0000     0.0000 </r>
       <r>    29.3300     0.0000     0.0000 </r>
       <r>    30.3626     0.0000     0.0000 </r>
       <r>    31.3952     0.0000     0.0000 </r>
       <r>    32.4278     0.0000     0.0000 </r>
       <r>    33.4604     0.0000     0.0000 </r>
       <r>    34.4930     0.0000     0.0000 </r>
       <r>    35.5256     0.0000     0.0000 </r>
       <r>    36.5582     0.0000     0.0000 </r>
       <r>    37.5908     0.0000     0.0000 </r>
       <r>    38.6234     0.0000     0.0000 </r>
       <r>    39.6560     0.0000     0.0000 </r>
       <r>    40.6886     0.0000     0.0000 </r>
       <r>    41.7212     0.0000     0.0000 </r>
       <r>    42.7538     0.0000     0.0000 </r>
       <r>    43.7864     0.0000     0.0000 </r>
       <r>    44.8190     0.0000     0.0000 </r>
       <r>    45.8516     0.0000     0.0000 </r>
       <r>    46.8842     0.0000     0.0000 </r>
       <r>    47.9168     0.0000     0.0000 </r>
       <r>    48.9494     0.0000     0.0000 </r>
       <r>    49.9820     0.0000     0.0000 </r>
       <r>    51.0146     0.0000     0.0000 </r>
       <r>    52.0472     0.0000     0.0000 </r>
       <r>    53.0798     0.0000     0.0000 </r>
       <r>    54.1124     0.0000     0.0000 </r>
       <r>    55.1450     0.0000     0.0000 </r>
       <r>    56.1776     0.0000     0.0000 </r>
       <r>    57.2103     0.0000     0.0000 </r>
       <r>    58.2429     0.0000     0.0000 </r>
       <r>    59.2755     0.0000     0.0000 </r>
       <r>    60.3081     0.0000     0.0000 </r>
       <r>    61.3407     0.0000     0.0000 </r>
       <r>    62.3733     0.0000     0.0000 </r>
       <r>    63.4059     0.0000     0.0000 </r>
       <r>    64.4385     0.0000     0.0000 </r>
       <r>    65.4711     0.0000     0.0000 </r>
       <r>    66.5037     0.0000     0.0000 </r>
       <r>    67.5363     0.0000     0.0000 </r>
       <r>    68.5689     0.0000     0.0000 </r>
       <r>    69.6015     0.0000     0.0000 </r>
       <r>    70.6341     0.0000     0.0000 </r>
       <r>    71.6667     0.0000     0.0000 </r>
       <r>    72.6993     0.0000     0.0000 </r>
       <r>    73.7319     0.0000     0.0000 </r>
       <r>    74.7645     0.0000     0.0000 </r>
       <r>    75.7971     0.0000     0.0000 </r>
       <r>    76.8297     0.0000     0.0000 </r>
       <r>    77.8623     0.0000     0.0000 </r>
       <r>    78.8949     0.0000     0.0000 </r>
       <r>    79.9275     0.0000     0.0000 </r>
       <r>    80.9601     0.0000     0.0000 </r>
       <r>    81.9927     0.0000     0.0000 </r>
       <r>    83.0253     0.0000     0.0000 </r>
       <r>    84.0579     0.0000     0.0000 </r>
       <r>    85.0905     0.0000     0.0000 </r>
       <r>    86.1231     0.0000     0.0000 </r>
       <r>    87.1557     0.0000     0.0000 </r>
       <r>    88.1883     0.0000     0.0000 </r>
       <r>    89.2209     0.0000     0.0000 </r>
       <r>    90.2535     0.0000     0.0000 </r>
       <r>    91.2861     0.0000     0.0000 </r>
       <r>    92.3187     0.0000     0.0000 </r>
       <r>    93.3513     0.0000     0.0000 </r>
       <r>    94.3840     0.0000     0.0000 </r>
       <r>    95.4166     0.0000     0.0000 </r>
       <r>    96.4492     0.0000     0.0000 </r>
       <r>    97.4818     0.0000     0.0000 </r>
       <r>    98.5144     0.0000     0.0000 </r>
       <r>    99.5470     0.0000     0.0000 </r>
      </set>
     </set>
    </array>
   </total>
  </dos>
 </calculation>
 <structure name="finalpos" >
  <crystal>
   <varray name="basis" >
    <v>       4.41457561       0.00000000       0.00000000 </v>
    <v>       2.20728780       3.82313462      -0.00000000 </v>
    <v>       2.20728780       1.27437821       3.60448589 </v>
   </varray>
   <i name="volume">     60.83477135 </i>
   <varray name="rec_basis" >
    <v>       0.22652234      -0.13078273      -0.09247736 </v>
    <v>       0.00000000       0.26156547      -0.09247736 </v>
    <v>      -0.00000000       0.00000000       0.27743208 </v>
   </varray>
  </crystal>
  <varray name="positions" >
   <v>       0.00000000       0.00000000       0.00000000 </v>
  </varray>
  <varray name="velocities" >
   <v>       0.00000000       0.00000000       0.00000000 </v>
  </varray>
 </structure>
</modeling>
