   1   1   0   0
  0.3721384E+02  0.3747484E-09  0.3747484E-09  0.3747484E-09  0.1000000E-15
  1.000000000000000E-004
  CAR 
 Og_FCC                                  
    134.52367982    -27.20738627  301     -4.96936468      1.00000000
    -27.207  0.0000E+00  0.0000E+00
    -26.668  0.0000E+00  0.0000E+00
    -26.129  0.0000E+00  0.0000E+00
    -25.590  0.0000E+00  0.0000E+00
    -25.051  0.0000E+00  0.0000E+00
    -24.512  0.0000E+00  0.0000E+00
    -23.973  0.0000E+00  0.0000E+00
    -23.434  0.0000E+00  0.0000E+00
    -22.895  0.0000E+00  0.0000E+00
    -22.355  0.0000E+00  0.0000E+00
    -21.816  0.0000E+00  0.0000E+00
    -21.277  0.0000E+00  0.0000E+00
    -20.738  0.0000E+00  0.0000E+00
    -20.199  0.0000E+00  0.0000E+00
    -19.660  0.0000E+00  0.8455E+00
    -19.121  0.0000E+00  0.2000E+01
    -18.582  0.0000E+00  0.2000E+01
    -18.043  0.0000E+00  0.2000E+01
    -17.504  0.0000E+00  0.2000E+01
    -16.964  0.0000E+00  0.2000E+01
    -16.425  0.0000E+00  0.2000E+01
    -15.886  0.0000E+00  0.2000E+01
    -15.347  0.0000E+00  0.2000E+01
    -14.808  0.0000E+00  0.2000E+01
    -14.269  0.0000E+00  0.2000E+01
    -13.730  0.0000E+00  0.2000E+01
    -13.191  0.0000E+00  0.2000E+01
    -12.652  0.0000E+00  0.2000E+01
    -12.112  0.0000E+00  0.2000E+01
    -11.573  0.0000E+00  0.2000E+01
    -11.034  0.0000E+00  0.2000E+01
    -10.495  0.0000E+00  0.2000E+01
     -9.956  0.0000E+00  0.2000E+01
     -9.417  0.0000E+00  0.2000E+01
     -8.878  0.0000E+00  0.2000E+01
     -8.339  0.0000E+00  0.2000E+01
     -7.800  0.0000E+00  0.2000E+01
     -7.261  0.0000E+00  0.2000E+01
     -6.721  0.0000E+00  0.2000E+01
     -6.182  0.0000E+00  0.2431E+01
     -5.643  0.0000E+00  0.4752E+01
     -5.104  0.0000E+00  0.8000E+01
     -4.565  0.0000E+00  0.8000E+01
     -4.026  0.0000E+00  0.8000E+01
     -3.487  0.0000E+00  0.8000E+01
     -2.948  0.0000E+00  0.8000E+01
     -2.409  0.0000E+00  0.8000E+01
     -1.870  0.0000E+00  0.8000E+01
     -1.330  0.0000E+00  0.8000E+01
     -0.791  0.0000E+00  0.8000E+01
     -0.252  0.0000E+00  0.8000E+01
      0.287  0.0000E+00  0.8000E+01
      0.826  0.0000E+00  0.8000E+01
      1.365  0.0000E+00  0.8000E+01
      1.904  0.0000E+00  0.8000E+01
      2.443  0.0000E+00  0.8000E+01
      2.982  0.0000E+00  0.8000E+01
      3.522  0.0000E+00  0.8000E+01
      4.061  0.0000E+00  0.8006E+01
      4.600  0.0000E+00  0.8087E+01
      5.139  0.0000E+00  0.8157E+01
      5.678  0.0000E+00  0.8344E+01
      6.217  0.6490E-01  0.8694E+01
      6.756  0.0000E+00  0.9090E+01
      7.295  0.0000E+00  0.1000E+02
      7.834  0.1298E+00  0.1010E+02
      8.373  0.0000E+00  0.1115E+02
      8.913  0.0000E+00  0.1173E+02
      9.452  0.0000E+00  0.1296E+02
      9.991  0.0000E+00  0.1360E+02
     10.530  0.0000E+00  0.1391E+02
     11.069  0.0000E+00  0.1460E+02
     11.608  0.0000E+00  0.1548E+02
     12.147  0.0000E+00  0.1603E+02
     12.686  0.0000E+00  0.1655E+02
     13.225  0.0000E+00  0.1697E+02
     13.764  0.0000E+00  0.1774E+02
     14.304  0.0000E+00  0.1843E+02
     14.843  0.0000E+00  0.1958E+02
     15.382  0.0000E+00  0.2009E+02
     15.921  0.0000E+00  0.2059E+02
     16.460  0.0000E+00  0.2155E+02
     16.999  0.0000E+00  0.2236E+02
     17.538  0.0000E+00  0.2272E+02
     18.077  0.0000E+00  0.2328E+02
     18.616  0.1298E+00  0.2463E+02
     19.156  0.2596E+00  0.2555E+02
     19.695  0.0000E+00  0.2609E+02
     20.234  0.0000E+00  0.2679E+02
     20.773  0.0000E+00  0.2749E+02
     21.312  0.0000E+00  0.2806E+02
     21.851  0.0000E+00  0.2823E+02
     22.390  0.1729E+00  0.2893E+02
     22.929  0.0000E+00  0.2963E+02
     23.468  0.2672E-01  0.2996E+02
     24.007  0.0000E+00  0.3096E+02
     24.547  0.0000E+00  0.3180E+02
     25.086  0.0000E+00  0.3300E+02
     25.625  0.1298E+00  0.3348E+02
     26.164  0.0000E+00  0.3397E+02
     26.703  0.0000E+00  0.3491E+02
     27.242  0.0000E+00  0.3559E+02
     27.781  0.0000E+00  0.3634E+02
     28.320  0.5192E+00  0.3692E+02
     28.859  0.0000E+00  0.3819E+02
     29.398  0.0000E+00  0.3885E+02
     29.938  0.0000E+00  0.4008E+02
     30.477  0.0000E+00  0.4026E+02
     31.016  0.0000E+00  0.4089E+02
     31.555  0.1556E+00  0.4229E+02
     32.094  0.0000E+00  0.4283E+02
     32.633  0.1057E+00  0.4360E+02
     33.172  0.0000E+00  0.4464E+02
     33.711  0.1349E-02  0.4527E+02
     34.250  0.0000E+00  0.4631E+02
     34.790  0.1945E-02  0.4728E+02
     35.329  0.0000E+00  0.4813E+02
     35.868  0.0000E+00  0.4876E+02
     36.407  0.1204E-04  0.4977E+02
     36.946  0.0000E+00  0.5040E+02
     37.485  0.0000E+00  0.5132E+02
     38.024  0.0000E+00  0.5232E+02
     38.563  0.3371E-01  0.5361E+02
     39.102  0.0000E+00  0.5442E+02
     39.641  0.0000E+00  0.5517E+02
     40.181  0.0000E+00  0.5601E+02
     40.720  0.0000E+00  0.5706E+02
     41.259  0.2596E+00  0.5828E+02
     41.798  0.0000E+00  0.5898E+02
     42.337  0.1126E+00  0.5995E+02
     42.876  0.0000E+00  0.6055E+02
     43.415  0.0000E+00  0.6151E+02
     43.954  0.2596E+00  0.6230E+02
     44.493  0.1300E-07  0.6340E+02
     45.032  0.7171E-01  0.6465E+02
     45.572  0.0000E+00  0.6566E+02
     46.111  0.2596E+00  0.6711E+02
     46.650  0.1298E+00  0.6804E+02
     47.189  0.0000E+00  0.6880E+02
     47.728  0.0000E+00  0.6942E+02
     48.267  0.0000E+00  0.7065E+02
     48.806  0.0000E+00  0.7121E+02
     49.345  0.0000E+00  0.7195E+02
     49.884  0.0000E+00  0.7330E+02
     50.424  0.0000E+00  0.7406E+02
     50.963  0.0000E+00  0.7560E+02
     51.502  0.3032E-11  0.7589E+02
     52.041  0.0000E+00  0.7690E+02
     52.580  0.0000E+00  0.7799E+02
     53.119  0.0000E+00  0.7889E+02
     53.658  0.0000E+00  0.8027E+02
     54.197  0.0000E+00  0.8198E+02
     54.736  0.0000E+00  0.8276E+02
     55.275  0.0000E+00  0.8343E+02
     55.815  0.6277E-01  0.8413E+02
     56.354  0.0000E+00  0.8546E+02
     56.893  0.0000E+00  0.8648E+02
     57.432  0.0000E+00  0.8749E+02
     57.971  0.0000E+00  0.8900E+02
     58.510  0.0000E+00  0.9010E+02
     59.049  0.0000E+00  0.9126E+02
     59.588  0.0000E+00  0.9220E+02
     60.127  0.0000E+00  0.9379E+02
     60.666  0.0000E+00  0.9471E+02
     61.206  0.0000E+00  0.9611E+02
     61.745  0.0000E+00  0.9727E+02
     62.284  0.1082E-01  0.9850E+02
     62.823  0.2665E+00  0.9945E+02
     63.362  0.2596E+00  0.1004E+03
     63.901  0.0000E+00  0.1014E+03
     64.440  0.0000E+00  0.1022E+03
     64.979  0.0000E+00  0.1035E+03
     65.518  0.0000E+00  0.1047E+03
     66.058  0.0000E+00  0.1061E+03
     66.597  0.1682E-01  0.1067E+03
     67.136  0.0000E+00  0.1082E+03
     67.675  0.0000E+00  0.1094E+03
     68.214  0.0000E+00  0.1110E+03
     68.753  0.0000E+00  0.1121E+03
     69.292  0.0000E+00  0.1132E+03
     69.831  0.0000E+00  0.1142E+03
     70.370  0.0000E+00  0.1150E+03
     70.909  0.0000E+00  0.1165E+03
     71.449  0.6490E-01  0.1172E+03
     71.988  0.0000E+00  0.1184E+03
     72.527  0.0000E+00  0.1199E+03
     73.066  0.1477E-12  0.1213E+03
     73.605  0.0000E+00  0.1229E+03
     74.144  0.1298E+00  0.1244E+03
     74.683  0.0000E+00  0.1257E+03
     75.222  0.0000E+00  0.1264E+03
     75.761  0.0000E+00  0.1276E+03
     76.300  0.0000E+00  0.1286E+03
     76.840  0.1468E-07  0.1298E+03
     77.379  0.0000E+00  0.1305E+03
     77.918  0.0000E+00  0.1320E+03
     78.457  0.0000E+00  0.1339E+03
     78.996  0.0000E+00  0.1347E+03
     79.535  0.0000E+00  0.1357E+03
     80.074  0.2527E+00  0.1366E+03
     80.613  0.4013E-01  0.1379E+03
     81.152  0.0000E+00  0.1392E+03
     81.692  0.0000E+00  0.1411E+03
     82.231  0.0000E+00  0.1425E+03
     82.770  0.0000E+00  0.1434E+03
     83.309  0.0000E+00  0.1445E+03
     83.848  0.0000E+00  0.1459E+03
     84.387  0.0000E+00  0.1471E+03
     84.926  0.0000E+00  0.1489E+03
     85.465  0.1009E-15  0.1501E+03
     86.004  0.0000E+00  0.1515E+03
     86.543  0.0000E+00  0.1529E+03
     87.083  0.3894E+00  0.1540E+03
     87.622  0.0000E+00  0.1550E+03
     88.161  0.0000E+00  0.1562E+03
     88.700  0.0000E+00  0.1582E+03
     89.239  0.0000E+00  0.1599E+03
     89.778  0.0000E+00  0.1612E+03
     90.317  0.0000E+00  0.1621E+03
     90.856  0.0000E+00  0.1632E+03
     91.395  0.0000E+00  0.1648E+03
     91.934  0.6668E-14  0.1661E+03
     92.474  0.0000E+00  0.1677E+03
     93.013  0.0000E+00  0.1691E+03
     93.552  0.0000E+00  0.1707E+03
     94.091  0.0000E+00  0.1716E+03
     94.630  0.0000E+00  0.1724E+03
     95.169  0.0000E+00  0.1740E+03
     95.708  0.0000E+00  0.1756E+03
     96.247  0.0000E+00  0.1766E+03
     96.786  0.0000E+00  0.1778E+03
     97.326  0.3233E-01  0.1788E+03
     97.865  0.1297E+00  0.1805E+03
     98.404  0.0000E+00  0.1820E+03
     98.943  0.0000E+00  0.1833E+03
     99.482  0.0000E+00  0.1857E+03
    100.021  0.0000E+00  0.1866E+03
    100.560  0.0000E+00  0.1879E+03
    101.099  0.3894E+00  0.1896E+03
    101.638  0.3461E+00  0.1909E+03
    102.177  0.0000E+00  0.1926E+03
    102.717  0.0000E+00  0.1937E+03
    103.256  0.0000E+00  0.1949E+03
    103.795  0.1031E+00  0.1959E+03
    104.334  0.0000E+00  0.1974E+03
    104.873  0.0000E+00  0.1985E+03
    105.412  0.2596E+00  0.2007E+03
    105.951  0.1758E-03  0.2025E+03
    106.490  0.0000E+00  0.2035E+03
    107.029  0.0000E+00  0.2046E+03
    107.569  0.0000E+00  0.2062E+03
    108.108  0.6689E-02  0.2078E+03
    108.647  0.0000E+00  0.2094E+03
    109.186  0.1298E+00  0.2110E+03
    109.725  0.0000E+00  0.2130E+03
    110.264  0.8879E-02  0.2144E+03
    110.803  0.0000E+00  0.2153E+03
    111.342  0.0000E+00  0.2171E+03
    111.881  0.5192E+00  0.2189E+03
    112.420  0.3433E+00  0.2196E+03
    112.960  0.0000E+00  0.2210E+03
    113.499  0.0000E+00  0.2224E+03
    114.038  0.7205E-17  0.2238E+03
    114.577  0.0000E+00  0.2254E+03
    115.116  0.2022E-13  0.2267E+03
    115.655  0.0000E+00  0.2282E+03
    116.194  0.1731E+00  0.2298E+03
    116.733  0.1325E-01  0.2309E+03
    117.272  0.0000E+00  0.2327E+03
    117.811  0.0000E+00  0.2340E+03
    118.351  0.0000E+00  0.2359E+03
    118.890  0.1799E-08  0.2377E+03
    119.429  0.2596E+00  0.2385E+03
    119.968  0.0000E+00  0.2410E+03
    120.507  0.0000E+00  0.2428E+03
    121.046  0.2596E+00  0.2442E+03
    121.585  0.0000E+00  0.2458E+03
    122.124  0.0000E+00  0.2473E+03
    122.663  0.0000E+00  0.2483E+03
    123.203  0.0000E+00  0.2494E+03
    123.742  0.0000E+00  0.2504E+03
    124.281  0.0000E+00  0.2521E+03
    124.820  0.0000E+00  0.2526E+03
    125.359  0.0000E+00  0.2534E+03
    125.898  0.0000E+00  0.2544E+03
    126.437  0.0000E+00  0.2553E+03
    126.976  0.0000E+00  0.2557E+03
    127.515  0.0000E+00  0.2560E+03
    128.054  0.0000E+00  0.2560E+03
    128.594  0.0000E+00  0.2560E+03
    129.133  0.0000E+00  0.2560E+03
    129.672  0.0000E+00  0.2560E+03
    130.211  0.0000E+00  0.2560E+03
    130.750  0.0000E+00  0.2560E+03
    131.289  0.0000E+00  0.2560E+03
    131.828  0.0000E+00  0.2560E+03
    132.367  0.0000E+00  0.2560E+03
    132.906  0.0000E+00  0.2560E+03
    133.445  0.0000E+00  0.2560E+03
    133.985  0.0000E+00  0.2560E+03
    134.524  0.0000E+00  0.2560E+03
