<?xml version="1.0" encoding="ISO-8859-1"?>
<modeling>
 <generator>
  <i name="program" type="string">vasp </i>
  <i name="version" type="string">5.4.4.18Apr17-6-g9f103f2a35  </i>
  <i name="subversion" type="string">(build Nov 03 2018 10:20:46) complex            parallel </i>
  <i name="platform" type="string">LinuxIFC </i>
  <i name="date" type="string">2018 12 14 </i>
  <i name="time" type="string">03:32:56 </i>
 </generator>
 <incar>
  <i type="string" name="SYSTEM">   Og_FCC</i>
  <i type="string" name="PREC">accurate</i>
  <i type="string" name="ALGO">   EXACT</i>
  <i type="logical" name="ADDGRID"> T  </i>
  <i type="logical" name="LSORBIT"> F  </i>
  <i type="int" name="ISPIN">     1</i>
  <i type="int" name="MAXMIX">    50</i>
  <i type="int" name="NELM">    50</i>
  <i type="int" name="NELMDL">    -5</i>
  <i type="int" name="NELMIN">     2</i>
  <i type="int" name="IBRION">    -1</i>
  <i type="int" name="NFREE">     5</i>
  <i name="EDIFF">      0.00000001</i>
  <i name="EDIFFG">      0.00001000</i>
  <i type="int" name="NSW">     1</i>
  <i type="int" name="ISIF">     3</i>
  <i type="int" name="ISYM">     0</i>
  <i name="SYMPREC">      0.00000010</i>
  <i name="ENCUT">    300.00000000</i>
  <i type="int" name="NBANDS">   128</i>
  <i name="POTIM">      0.10000000</i>
  <i type="logical" name="LREAL"> F  </i>
  <i type="int" name="ISMEAR">     0</i>
  <i name="SIGMA">      0.00100000</i>
  <i type="int" name="NWRITE">     2</i>
  <i type="logical" name="LWAVE"> T  </i>
  <i type="logical" name="LCHARG"> F  </i>
  <i type="logical" name="LVTOT"> F  </i>
  <i type="logical" name="LOPTICS"> T  </i>
  <i type="logical" name="GGA_COMPAT"> F  </i>
  <v type="int" name="KPOINT_BSE">    -1     0     0     0</v>
  <i type="int" name="NELM">    50</i>
  <i type="string" name="GGA"> PE</i>
 </incar>
 <structure name="primitive_cell" >
  <crystal>
   <varray name="basis" >
    <v>       3.74748430       0.00000000       0.00000000 </v>
    <v>       1.87374215       3.24541660      -0.00000000 </v>
    <v>       1.87374215       1.08180553       3.05980811 </v>
   </varray>
   <i name="volume">     37.21383833 </i>
   <varray name="rec_basis" >
    <v>       0.26684568      -0.15406343      -0.10893929 </v>
    <v>       0.00000000       0.30812685      -0.10893929 </v>
    <v>      -0.00000000       0.00000000       0.32681788 </v>
   </varray>
  </crystal>
  <varray name="positions" >
   <v>       0.00000000       0.00000000       0.00000000 </v>
  </varray>
 </structure>
 <varray name="primitive_index" >
  <v type="int" >        1 </v>
 </varray>
 <kpoints>
  <generation param="Gamma">
   <v type="int" name="divisions">       7        7        7 </v>
   <v name="usershift">      0.00000000       0.00000000       0.00000000 </v>
   <v name="genvec1">      0.14285714       0.00000000       0.00000000 </v>
   <v name="genvec2">      0.00000000       0.14285714       0.00000000 </v>
   <v name="genvec3">      0.00000000       0.00000000       0.14285714 </v>
   <v name="shift">      0.00000000       0.00000000       0.00000000 </v>
  </generation>
  <varray name="kpointlist" >
   <v>       0.00000000       0.00000000       0.00000000 </v>
   <v>       0.14285714      -0.00000000       0.00000000 </v>
   <v>       0.28571429      -0.00000000       0.00000000 </v>
   <v>       0.42857143      -0.00000000       0.00000000 </v>
   <v>      -0.00000000       0.14285714       0.00000000 </v>
   <v>       0.14285714       0.14285714       0.00000000 </v>
   <v>       0.28571429       0.14285714       0.00000000 </v>
   <v>       0.42857143       0.14285714       0.00000000 </v>
   <v>      -0.42857143       0.14285714      -0.00000000 </v>
   <v>      -0.28571429       0.14285714      -0.00000000 </v>
   <v>      -0.14285714       0.14285714      -0.00000000 </v>
   <v>       0.00000000       0.28571429       0.00000000 </v>
   <v>       0.14285714       0.28571429       0.00000000 </v>
   <v>       0.28571429       0.28571429       0.00000000 </v>
   <v>       0.42857143       0.28571429       0.00000000 </v>
   <v>      -0.42857143       0.28571429      -0.00000000 </v>
   <v>      -0.28571429       0.28571429       0.00000000 </v>
   <v>      -0.14285714       0.28571429       0.00000000 </v>
   <v>      -0.00000000       0.42857143      -0.00000000 </v>
   <v>       0.14285714       0.42857143       0.00000000 </v>
   <v>       0.28571429       0.42857143       0.00000000 </v>
   <v>       0.42857143       0.42857143       0.00000000 </v>
   <v>      -0.42857143       0.42857143      -0.00000000 </v>
   <v>      -0.28571429       0.42857143      -0.00000000 </v>
   <v>      -0.14285714       0.42857143       0.00000000 </v>
   <v>       0.00000000       0.00000000       0.14285714 </v>
   <v>       0.14285714       0.00000000       0.14285714 </v>
   <v>       0.28571429      -0.00000000       0.14285714 </v>
   <v>       0.42857143      -0.00000000       0.14285714 </v>
   <v>      -0.42857143       0.00000000       0.14285714 </v>
   <v>      -0.28571429      -0.00000000       0.14285714 </v>
   <v>      -0.14285714       0.00000000       0.14285714 </v>
   <v>       0.00000000       0.14285714       0.14285714 </v>
   <v>       0.14285714       0.14285714       0.14285714 </v>
   <v>       0.28571429       0.14285714       0.14285714 </v>
   <v>       0.42857143       0.14285714       0.14285714 </v>
   <v>      -0.42857143       0.14285714       0.14285714 </v>
   <v>      -0.28571429       0.14285714       0.14285714 </v>
   <v>      -0.14285714       0.14285714       0.14285714 </v>
   <v>       0.00000000       0.28571429       0.14285714 </v>
   <v>       0.14285714       0.28571429       0.14285714 </v>
   <v>       0.28571429       0.28571429       0.14285714 </v>
   <v>       0.42857143       0.28571429       0.14285714 </v>
   <v>      -0.42857143       0.28571429       0.14285714 </v>
   <v>      -0.28571429       0.28571429       0.14285714 </v>
   <v>      -0.14285714       0.28571429       0.14285714 </v>
   <v>      -0.00000000       0.42857143       0.14285714 </v>
   <v>       0.14285714       0.42857143       0.14285714 </v>
   <v>       0.28571429       0.42857143       0.14285714 </v>
   <v>       0.42857143       0.42857143       0.14285714 </v>
   <v>      -0.42857143       0.42857143       0.14285714 </v>
   <v>      -0.28571429       0.42857143       0.14285714 </v>
   <v>      -0.14285714       0.42857143       0.14285714 </v>
   <v>       0.00000000      -0.42857143       0.14285714 </v>
   <v>       0.14285714      -0.42857143       0.14285714 </v>
   <v>       0.28571429      -0.42857143       0.14285714 </v>
   <v>       0.42857143      -0.42857143       0.14285714 </v>
   <v>      -0.42857143      -0.42857143       0.14285714 </v>
   <v>      -0.28571429      -0.42857143       0.14285714 </v>
   <v>      -0.14285714      -0.42857143       0.14285714 </v>
   <v>       0.00000000      -0.28571429       0.14285714 </v>
   <v>       0.14285714      -0.28571429       0.14285714 </v>
   <v>       0.28571429      -0.28571429       0.14285714 </v>
   <v>       0.42857143      -0.28571429       0.14285714 </v>
   <v>      -0.42857143      -0.28571429       0.14285714 </v>
   <v>      -0.28571429      -0.28571429       0.14285714 </v>
   <v>      -0.14285714      -0.28571429       0.14285714 </v>
   <v>       0.00000000      -0.14285714       0.14285714 </v>
   <v>       0.14285714      -0.14285714       0.14285714 </v>
   <v>       0.28571429      -0.14285714       0.14285714 </v>
   <v>       0.42857143      -0.14285714       0.14285714 </v>
   <v>      -0.42857143      -0.14285714       0.14285714 </v>
   <v>      -0.28571429      -0.14285714       0.14285714 </v>
   <v>      -0.14285714      -0.14285714       0.14285714 </v>
   <v>       0.00000000       0.00000000       0.28571429 </v>
   <v>       0.14285714       0.00000000       0.28571429 </v>
   <v>       0.28571429      -0.00000000       0.28571429 </v>
   <v>       0.42857143      -0.00000000       0.28571429 </v>
   <v>      -0.42857143       0.00000000       0.28571429 </v>
   <v>      -0.28571429       0.00000000       0.28571429 </v>
   <v>      -0.14285714       0.00000000       0.28571429 </v>
   <v>       0.00000000       0.14285714       0.28571429 </v>
   <v>       0.14285714       0.14285714       0.28571429 </v>
   <v>       0.28571429       0.14285714       0.28571429 </v>
   <v>       0.42857143       0.14285714       0.28571429 </v>
   <v>      -0.42857143       0.14285714       0.28571429 </v>
   <v>      -0.28571429       0.14285714       0.28571429 </v>
   <v>      -0.14285714       0.14285714       0.28571429 </v>
   <v>       0.00000000       0.28571429       0.28571429 </v>
   <v>       0.14285714       0.28571429       0.28571429 </v>
   <v>       0.28571429       0.28571429       0.28571429 </v>
   <v>       0.42857143       0.28571429       0.28571429 </v>
   <v>      -0.42857143       0.28571429       0.28571429 </v>
   <v>      -0.28571429       0.28571429       0.28571429 </v>
   <v>      -0.14285714       0.28571429       0.28571429 </v>
   <v>       0.00000000       0.42857143       0.28571429 </v>
   <v>       0.14285714       0.42857143       0.28571429 </v>
   <v>       0.28571429       0.42857143       0.28571429 </v>
   <v>       0.42857143       0.42857143       0.28571429 </v>
   <v>      -0.42857143       0.42857143       0.28571429 </v>
   <v>      -0.28571429       0.42857143       0.28571429 </v>
   <v>      -0.14285714       0.42857143       0.28571429 </v>
   <v>       0.00000000      -0.42857143       0.28571429 </v>
   <v>       0.14285714      -0.42857143       0.28571429 </v>
   <v>       0.28571429      -0.42857143       0.28571429 </v>
   <v>       0.42857143      -0.42857143       0.28571429 </v>
   <v>      -0.42857143      -0.42857143       0.28571429 </v>
   <v>      -0.28571429      -0.42857143       0.28571429 </v>
   <v>      -0.14285714      -0.42857143       0.28571429 </v>
   <v>       0.00000000      -0.28571429       0.28571429 </v>
   <v>       0.14285714      -0.28571429       0.28571429 </v>
   <v>       0.28571429      -0.28571429       0.28571429 </v>
   <v>       0.42857143      -0.28571429       0.28571429 </v>
   <v>      -0.42857143      -0.28571429       0.28571429 </v>
   <v>      -0.28571429      -0.28571429       0.28571429 </v>
   <v>      -0.14285714      -0.28571429       0.28571429 </v>
   <v>       0.00000000      -0.14285714       0.28571429 </v>
   <v>       0.14285714      -0.14285714       0.28571429 </v>
   <v>       0.28571429      -0.14285714       0.28571429 </v>
   <v>       0.42857143      -0.14285714       0.28571429 </v>
   <v>      -0.42857143      -0.14285714       0.28571429 </v>
   <v>      -0.28571429      -0.14285714       0.28571429 </v>
   <v>      -0.14285714      -0.14285714       0.28571429 </v>
   <v>      -0.00000000       0.00000000       0.42857143 </v>
   <v>       0.14285714      -0.00000000       0.42857143 </v>
   <v>       0.28571429      -0.00000000       0.42857143 </v>
   <v>       0.42857143      -0.00000000       0.42857143 </v>
   <v>      -0.42857143       0.00000000       0.42857143 </v>
   <v>      -0.28571429       0.00000000       0.42857143 </v>
   <v>      -0.14285714      -0.00000000       0.42857143 </v>
   <v>       0.00000000       0.14285714       0.42857143 </v>
   <v>       0.14285714       0.14285714       0.42857143 </v>
   <v>       0.28571429       0.14285714       0.42857143 </v>
   <v>       0.42857143       0.14285714       0.42857143 </v>
   <v>      -0.42857143       0.14285714       0.42857143 </v>
   <v>      -0.28571429       0.14285714       0.42857143 </v>
   <v>      -0.14285714       0.14285714       0.42857143 </v>
   <v>      -0.00000000       0.28571429       0.42857143 </v>
   <v>       0.14285714       0.28571429       0.42857143 </v>
   <v>       0.28571429       0.28571429       0.42857143 </v>
   <v>       0.42857143       0.28571429       0.42857143 </v>
   <v>      -0.42857143       0.28571429       0.42857143 </v>
   <v>      -0.28571429       0.28571429       0.42857143 </v>
   <v>      -0.14285714       0.28571429       0.42857143 </v>
   <v>      -0.00000000       0.42857143       0.42857143 </v>
   <v>       0.14285714       0.42857143       0.42857143 </v>
   <v>       0.28571429       0.42857143       0.42857143 </v>
   <v>       0.42857143       0.42857143       0.42857143 </v>
   <v>      -0.42857143       0.42857143       0.42857143 </v>
   <v>      -0.28571429       0.42857143       0.42857143 </v>
   <v>      -0.14285714       0.42857143       0.42857143 </v>
   <v>      -0.00000000      -0.42857143       0.42857143 </v>
   <v>       0.14285714      -0.42857143       0.42857143 </v>
   <v>       0.28571429      -0.42857143       0.42857143 </v>
   <v>       0.42857143      -0.42857143       0.42857143 </v>
   <v>      -0.42857143      -0.42857143       0.42857143 </v>
   <v>      -0.28571429      -0.42857143       0.42857143 </v>
   <v>      -0.14285714      -0.42857143       0.42857143 </v>
   <v>      -0.00000000      -0.28571429       0.42857143 </v>
   <v>       0.14285714      -0.28571429       0.42857143 </v>
   <v>       0.28571429      -0.28571429       0.42857143 </v>
   <v>       0.42857143      -0.28571429       0.42857143 </v>
   <v>      -0.42857143      -0.28571429       0.42857143 </v>
   <v>      -0.28571429      -0.28571429       0.42857143 </v>
   <v>      -0.14285714      -0.28571429       0.42857143 </v>
   <v>       0.00000000      -0.14285714       0.42857143 </v>
   <v>       0.14285714      -0.14285714       0.42857143 </v>
   <v>       0.28571429      -0.14285714       0.42857143 </v>
   <v>       0.42857143      -0.14285714       0.42857143 </v>
   <v>      -0.42857143      -0.14285714       0.42857143 </v>
   <v>      -0.28571429      -0.14285714       0.42857143 </v>
   <v>      -0.14285714      -0.14285714       0.42857143 </v>
  </varray>
  <varray name="weights" >
   <v>       0.00291545 </v>
   <v>       0.00583090 </v>
   <v>       0.00583090 </v>
   <v>       0.00583090 </v>
   <v>       0.00583090 </v>
   <v>       0.00583090 </v>
   <v>       0.00583090 </v>
   <v>       0.00583090 </v>
   <v>       0.00583090 </v>
   <v>       0.00583090 </v>
   <v>       0.00583090 </v>
   <v>       0.00583090 </v>
   <v>       0.00583090 </v>
   <v>       0.00583090 </v>
   <v>       0.00583090 </v>
   <v>       0.00583090 </v>
   <v>       0.00583090 </v>
   <v>       0.00583090 </v>
   <v>       0.00583090 </v>
   <v>       0.00583090 </v>
   <v>       0.00583090 </v>
   <v>       0.00583090 </v>
   <v>       0.00583090 </v>
   <v>       0.00583090 </v>
   <v>       0.00583090 </v>
   <v>       0.00583090 </v>
   <v>       0.00583090 </v>
   <v>       0.00583090 </v>
   <v>       0.00583090 </v>
   <v>       0.00583090 </v>
   <v>       0.00583090 </v>
   <v>       0.00583090 </v>
   <v>       0.00583090 </v>
   <v>       0.00583090 </v>
   <v>       0.00583090 </v>
   <v>       0.00583090 </v>
   <v>       0.00583090 </v>
   <v>       0.00583090 </v>
   <v>       0.00583090 </v>
   <v>       0.00583090 </v>
   <v>       0.00583090 </v>
   <v>       0.00583090 </v>
   <v>       0.00583090 </v>
   <v>       0.00583090 </v>
   <v>       0.00583090 </v>
   <v>       0.00583090 </v>
   <v>       0.00583090 </v>
   <v>       0.00583090 </v>
   <v>       0.00583090 </v>
   <v>       0.00583090 </v>
   <v>       0.00583090 </v>
   <v>       0.00583090 </v>
   <v>       0.00583090 </v>
   <v>       0.00583090 </v>
   <v>       0.00583090 </v>
   <v>       0.00583090 </v>
   <v>       0.00583090 </v>
   <v>       0.00583090 </v>
   <v>       0.00583090 </v>
   <v>       0.00583090 </v>
   <v>       0.00583090 </v>
   <v>       0.00583090 </v>
   <v>       0.00583090 </v>
   <v>       0.00583090 </v>
   <v>       0.00583090 </v>
   <v>       0.00583090 </v>
   <v>       0.00583090 </v>
   <v>       0.00583090 </v>
   <v>       0.00583090 </v>
   <v>       0.00583090 </v>
   <v>       0.00583090 </v>
   <v>       0.00583090 </v>
   <v>       0.00583090 </v>
   <v>       0.00583090 </v>
   <v>       0.00583090 </v>
   <v>       0.00583090 </v>
   <v>       0.00583090 </v>
   <v>       0.00583090 </v>
   <v>       0.00583090 </v>
   <v>       0.00583090 </v>
   <v>       0.00583090 </v>
   <v>       0.00583090 </v>
   <v>       0.00583090 </v>
   <v>       0.00583090 </v>
   <v>       0.00583090 </v>
   <v>       0.00583090 </v>
   <v>       0.00583090 </v>
   <v>       0.00583090 </v>
   <v>       0.00583090 </v>
   <v>       0.00583090 </v>
   <v>       0.00583090 </v>
   <v>       0.00583090 </v>
   <v>       0.00583090 </v>
   <v>       0.00583090 </v>
   <v>       0.00583090 </v>
   <v>       0.00583090 </v>
   <v>       0.00583090 </v>
   <v>       0.00583090 </v>
   <v>       0.00583090 </v>
   <v>       0.00583090 </v>
   <v>       0.00583090 </v>
   <v>       0.00583090 </v>
   <v>       0.00583090 </v>
   <v>       0.00583090 </v>
   <v>       0.00583090 </v>
   <v>       0.00583090 </v>
   <v>       0.00583090 </v>
   <v>       0.00583090 </v>
   <v>       0.00583090 </v>
   <v>       0.00583090 </v>
   <v>       0.00583090 </v>
   <v>       0.00583090 </v>
   <v>       0.00583090 </v>
   <v>       0.00583090 </v>
   <v>       0.00583090 </v>
   <v>       0.00583090 </v>
   <v>       0.00583090 </v>
   <v>       0.00583090 </v>
   <v>       0.00583090 </v>
   <v>       0.00583090 </v>
   <v>       0.00583090 </v>
   <v>       0.00583090 </v>
   <v>       0.00583090 </v>
   <v>       0.00583090 </v>
   <v>       0.00583090 </v>
   <v>       0.00583090 </v>
   <v>       0.00583090 </v>
   <v>       0.00583090 </v>
   <v>       0.00583090 </v>
   <v>       0.00583090 </v>
   <v>       0.00583090 </v>
   <v>       0.00583090 </v>
   <v>       0.00583090 </v>
   <v>       0.00583090 </v>
   <v>       0.00583090 </v>
   <v>       0.00583090 </v>
   <v>       0.00583090 </v>
   <v>       0.00583090 </v>
   <v>       0.00583090 </v>
   <v>       0.00583090 </v>
   <v>       0.00583090 </v>
   <v>       0.00583090 </v>
   <v>       0.00583090 </v>
   <v>       0.00583090 </v>
   <v>       0.00583090 </v>
   <v>       0.00583090 </v>
   <v>       0.00583090 </v>
   <v>       0.00583090 </v>
   <v>       0.00583090 </v>
   <v>       0.00583090 </v>
   <v>       0.00583090 </v>
   <v>       0.00583090 </v>
   <v>       0.00583090 </v>
   <v>       0.00583090 </v>
   <v>       0.00583090 </v>
   <v>       0.00583090 </v>
   <v>       0.00583090 </v>
   <v>       0.00583090 </v>
   <v>       0.00583090 </v>
   <v>       0.00583090 </v>
   <v>       0.00583090 </v>
   <v>       0.00583090 </v>
   <v>       0.00583090 </v>
   <v>       0.00583090 </v>
   <v>       0.00583090 </v>
   <v>       0.00583090 </v>
   <v>       0.00583090 </v>
   <v>       0.00583090 </v>
   <v>       0.00583090 </v>
   <v>       0.00583090 </v>
   <v>       0.00583090 </v>
   <v>       0.00583090 </v>
  </varray>
 </kpoints>
 <parameters>
  <separator name="general" >
   <i type="string" name="SYSTEM">Og_FCC</i>
   <i type="logical" name="LCOMPAT"> F  </i>
  </separator>
  <separator name="electronic" >
   <i type="string" name="PREC">accura</i>
   <i name="ENMAX">    300.00000000</i>
   <i name="ENAUG">    799.85900000</i>
   <i name="EDIFF">      0.00000001</i>
   <i type="int" name="IALGO">    90</i>
   <i type="int" name="IWAVPR">    10</i>
   <i type="int" name="NBANDS">   128</i>
   <i name="NELECT">      8.00000000</i>
   <i type="int" name="TURBO">     0</i>
   <i type="int" name="IRESTART">     0</i>
   <i type="int" name="NREBOOT">     0</i>
   <i type="int" name="NMIN">     0</i>
   <i name="EREF">      0.00000000</i>
   <separator name="electronic smearing" >
    <i type="int" name="ISMEAR">     0</i>
    <i name="SIGMA">      0.00100000</i>
    <i name="KSPACING">      0.50000000</i>
    <i type="logical" name="KGAMMA"> T  </i>
   </separator>
   <separator name="electronic projectors" >
    <i type="logical" name="LREAL"> F  </i>
    <v name="ROPT">      0.00000000</v>
    <i type="int" name="LMAXPAW">  -100</i>
    <i type="int" name="LMAXMIX">     2</i>
    <i type="logical" name="NLSPLINE"> F  </i>
   </separator>
   <separator name="electronic startup" >
    <i type="int" name="ISTART">     1</i>
    <i type="int" name="ICHARG">     0</i>
    <i type="int" name="INIWAV">     1</i>
   </separator>
   <separator name="electronic spin" >
    <i type="int" name="ISPIN">     1</i>
    <i type="logical" name="LNONCOLLINEAR"> F  </i>
    <v name="MAGMOM">      1.00000000</v>
    <i name="NUPDOWN">     -1.00000000</i>
    <i type="logical" name="LSORBIT"> F  </i>
    <v name="SAXIS">      0.00000000      0.00000000      1.00000000</v>
    <i type="logical" name="LSPIRAL"> F  </i>
    <v name="QSPIRAL">      0.00000000      0.00000000      0.00000000</v>
    <i type="logical" name="LZEROZ"> F  </i>
   </separator>
   <separator name="electronic exchange-correlation" >
    <i type="logical" name="LASPH"> F  </i>
    <i type="logical" name="LMETAGGA"> F  </i>
   </separator>
   <separator name="electronic convergence" >
    <i type="int" name="NELM">    50</i>
    <i type="int" name="NELMDL">    -5</i>
    <i type="int" name="NELMIN">     2</i>
    <i name="ENINI">    300.00000000</i>
    <separator name="electronic convergence detail" >
     <i type="logical" name="LDIAG"> T  </i>
     <i type="logical" name="LSUBROT"> F  </i>
     <i name="WEIMIN">      0.00000000</i>
     <i name="EBREAK">      0.00000000</i>
     <i name="DEPER">      0.30000000</i>
     <i type="int" name="NRMM">     4</i>
     <i name="TIME">      0.40000000</i>
    </separator>
   </separator>
   <separator name="electronic mixer" >
    <i name="AMIX">      0.40000000</i>
    <i name="BMIX">      1.00000000</i>
    <i name="AMIN">      0.10000000</i>
    <i name="AMIX_MAG">      1.60000000</i>
    <i name="BMIX_MAG">      1.00000000</i>
    <separator name="electronic mixer details" >
     <i type="int" name="IMIX">     4</i>
     <i type="logical" name="MIXFIRST"> F  </i>
     <i type="int" name="MAXMIX">    50</i>
     <i name="WC">    100.00000000</i>
     <i type="int" name="INIMIX">     1</i>
     <i type="int" name="MIXPRE">     1</i>
     <i type="int" name="MREMOVE">     5</i>
    </separator>
   </separator>
   <separator name="electronic dipolcorrection" >
    <i type="logical" name="LDIPOL"> F  </i>
    <i type="logical" name="LMONO"> F  </i>
    <i type="int" name="IDIPOL">     0</i>
    <i name="EPSILON">      1.00000000</i>
    <v name="DIPOL">   -100.00000000   -100.00000000   -100.00000000</v>
    <i name="EFIELD">      0.00000000</i>
   </separator>
  </separator>
  <separator name="grids" >
   <i type="int" name="NGX">    24</i>
   <i type="int" name="NGY">    24</i>
   <i type="int" name="NGZ">    24</i>
   <i type="int" name="NGXF">    48</i>
   <i type="int" name="NGYF">    48</i>
   <i type="int" name="NGZF">    48</i>
   <i type="logical" name="ADDGRID"> T  </i>
  </separator>
  <separator name="ionic" >
   <i type="int" name="NSW">     1</i>
   <i type="int" name="IBRION">    -1</i>
   <i type="int" name="MDALGO">     0</i>
   <i type="int" name="ISIF">     3</i>
   <i name="PSTRESS">      0.00000000</i>
   <i name="EDIFFG">      0.00001000</i>
   <i type="int" name="NFREE">     5</i>
   <i name="POTIM">      0.10000000</i>
   <i name="SMASS">     -3.00000000</i>
   <i name="SCALEE">      1.00000000</i>
  </separator>
  <separator name="ionic md" >
   <i name="TEBEG">      0.00010000</i>
   <i name="TEEND">      0.00010000</i>
   <i type="int" name="NBLOCK">     1</i>
   <i type="int" name="KBLOCK">     1</i>
   <i type="int" name="NPACO">   256</i>
   <i name="APACO">     16.00000000</i>
  </separator>
  <separator name="symmetry" >
   <i type="int" name="ISYM">     0</i>
   <i name="SYMPREC">      0.00000010</i>
  </separator>
  <separator name="dos" >
   <i type="int" name="LORBIT">     0</i>
   <v name="RWIGS">     -1.00000000</v>
   <i type="int" name="NEDOS">   301</i>
   <i name="EMIN">     10.00000000</i>
   <i name="EMAX">    -10.00000000</i>
   <i name="EFERMI">      0.00000000</i>
  </separator>
  <separator name="writing" >
   <i type="int" name="NWRITE">     2</i>
   <i type="logical" name="LWAVE"> T  </i>
   <i type="logical" name="LDOWNSAMPLE"> F  </i>
   <i type="logical" name="LCHARG"> F  </i>
   <i type="logical" name="LPARD"> F  </i>
   <i type="logical" name="LVTOT"> F  </i>
   <i type="logical" name="LVHAR"> F  </i>
   <i type="logical" name="LELF"> F  </i>
   <i type="logical" name="LOPTICS"> T  </i>
   <v name="STM">      0.00000000      0.00000000      0.00000000      0.00000000      0.00000000      0.00000000      0.00000000</v>
  </separator>
  <separator name="performance" >
   <i type="int" name="NPAR">     4</i>
   <i type="int" name="NSIM">     4</i>
   <i type="int" name="NBLK">    -1</i>
   <i type="logical" name="LPLANE"> T  </i>
   <i type="logical" name="LSCALAPACK"> T  </i>
   <i type="logical" name="LSCAAWARE"> T  </i>
   <i type="logical" name="LSCALU"> F  </i>
   <i type="logical" name="LASYNC"> F  </i>
   <i type="logical" name="LORBITALREAL"> F  </i>
  </separator>
  <separator name="miscellaneous" >
   <i type="int" name="IDIOT">     3</i>
   <i type="int" name="ISPECIAL">     0</i>
   <i type="logical" name="LMUSIC"> F  </i>
   <v name="POMASS">     39.94900000</v>
   <v name="DARWINR">      0.00000000</v>
   <v name="DARWINV">      1.00000000</v>
   <i type="logical" name="LCORR"> T  </i>
  </separator>
  <i type="logical" name="GGA_COMPAT"> F  </i>
  <i type="logical" name="LBERRY"> F  </i>
  <i type="int" name="ICORELEVEL">     0</i>
  <i type="logical" name="LDAU"> F  </i>
  <i type="int" name="I_CONSTRAINED_M">     0</i>
  <separator name="electronic exchange-correlation" >
   <i type="string" name="GGA">PE</i>
   <i type="int" name="VOSKOWN">     0</i>
   <i type="logical" name="LHFCALC"> F  </i>
   <i type="string" name="PRECFOCK"></i>
   <i type="logical" name="LSYMGRAD"> F  </i>
   <i type="logical" name="LHFONE"> F  </i>
   <i type="logical" name="LRHFCALC"> F  </i>
   <i type="logical" name="LTHOMAS"> F  </i>
   <i type="logical" name="LMODELHF"> F  </i>
   <i name="ENCUT4O">     -1.00000000</i>
   <i type="int" name="EXXOEP">     0</i>
   <i type="int" name="FOURORBIT">     0</i>
   <i name="AEXX">      0.00000000</i>
   <i name="HFALPHA">      0.00000000</i>
   <i name="MCALPHA">      0.00000000</i>
   <i name="ALDAX">      1.00000000</i>
   <i name="AGGAX">      1.00000000</i>
   <i name="ALDAC">      1.00000000</i>
   <i name="AGGAC">      1.00000000</i>
   <i type="int" name="NKREDX">     1</i>
   <i type="int" name="NKREDY">     1</i>
   <i type="int" name="NKREDZ">     1</i>
   <i type="logical" name="SHIFTRED"> F  </i>
   <i type="logical" name="ODDONLY"> F  </i>
   <i type="logical" name="EVENONLY"> F  </i>
   <i type="int" name="LMAXFOCK">     0</i>
   <i type="int" name="NMAXFOCKAE">     0</i>
   <i type="logical" name="LFOCKAEDFT"> F  </i>
   <i name="HFSCREEN">      0.00000000</i>
   <i name="HFSCREENC">      0.00000000</i>
   <i type="int" name="NBANDSGWLOW">     0</i>
  </separator>
  <separator name="vdW DFT" >
   <i type="logical" name="LUSE_VDW"> F  </i>
   <i name="Zab_VDW">     -0.84910000</i>
   <i name="PARAM1">      0.12340000</i>
   <i name="PARAM2">      1.00000000</i>
   <i name="PARAM3">      0.00000000</i>
  </separator>
  <separator name="model GW" >
   <i type="int" name="MODEL_GW">     0</i>
   <i name="MODEL_EPS0">     22.32830300</i>
   <i name="MODEL_ALPHA">      1.00000000</i>
  </separator>
  <separator name="linear response parameters" >
   <i type="logical" name="LEPSILON"> F  </i>
   <i type="logical" name="LRPA"> F  </i>
   <i type="logical" name="LNABLA"> F  </i>
   <i type="logical" name="LVEL"> F  </i>
   <i type="int" name="KINTER">     0</i>
   <i name="CSHIFT">      0.10000000</i>
   <i name="OMEGAMAX">     -1.00000000</i>
   <i name="DEG_THRESHOLD">      0.00200000</i>
   <i name="RTIME">     -0.10000000</i>
   <i name="WPLASMAI">      0.00000000</i>
   <v name="DFIELD">      0.00000000      0.00000000      0.00000000</v>
   <v name="WPLASMA">      0.00000000      0.00000000      0.00000000      0.00000000      0.00000000      0.00000000      0.00000000      0.00000000      0.00000000</v>
  </separator>
  <separator name="orbital magnetization" >
   <i type="logical" name="NUCIND"> F  </i>
   <v name="MAGPOS">      0.00000000      0.00000000      0.00000000</v>
   <i type="logical" name="LNICSALL"> T  </i>
   <i type="logical" name="ORBITALMAG"> F  </i>
   <i type="logical" name="LMAGBLOCH"> F  </i>
   <i type="logical" name="LCHIMAG"> F  </i>
   <i type="logical" name="LGAUGE"> T  </i>
   <i type="int" name="MAGATOM">     0</i>
   <v name="MAGDIPOL">      0.00000000      0.00000000      0.00000000</v>
   <v name="AVECCONST">      0.00000000      0.00000000      0.00000000</v>
  </separator>
  <separator name="response functions" >
   <i type="logical" name="LADDER"> F  </i>
   <i type="logical" name="LRPAFORCE"> F  </i>
   <i type="logical" name="LFXC"> F  </i>
   <i type="logical" name="LHARTREE"> T  </i>
   <i type="int" name="IBSE">     0</i>
   <v type="int" name="KPOINT">    -1     0     0     0</v>
   <i type="logical" name="LTCTE"> F  </i>
   <i type="logical" name="LTETE"> F  </i>
   <i type="logical" name="LTRIPLET"> F  </i>
   <i type="logical" name="LFXCEPS"> F  </i>
   <i type="logical" name="LFXHEG"> F  </i>
   <i type="int" name="NATURALO">     2</i>
   <i type="logical" name="L2ORDER"> F  </i>
   <i type="logical" name="LMP2LT"> F  </i>
   <i type="logical" name="LUSEW"> F  </i>
   <i name="ENCUTGW">     -2.00000000</i>
   <i name="ENCUTGWSOFT">     -2.00000000</i>
   <i name="ENCUTLF">     -1.00000000</i>
   <i type="int" name="LMAXMP2">    -1</i>
   <i name="SCISSOR">      0.00000000</i>
   <i type="int" name="NOMEGA">     0</i>
   <i type="int" name="NOMEGAR">     0</i>
   <i type="int" name="NBANDSGW">    -1</i>
   <i type="int" name="NBANDSO">    -1</i>
   <i type="int" name="NBANDSV">    -1</i>
   <i type="int" name="NELM">    50</i>
   <i type="int" name="NELMHF">     1</i>
   <i type="int" name="DIM">     3</i>
   <i type="int" name="ANTIRES">     0</i>
   <i name="OMEGAMAX">    -30.00000000</i>
   <i name="OMEGAMIN">    -30.00000000</i>
   <i name="OMEGATL">   -200.00000000</i>
   <i type="int" name="OMEGAGRID">   140</i>
   <i name="CSHIFT">     -0.10000000</i>
   <i type="logical" name="SELFENERGY"> F  </i>
   <i type="logical" name="LSPECTRAL"> F  </i>
   <i type="logical" name="LSPECTRALGW"> F  </i>
   <i type="logical" name="LSINGLES"> F  </i>
   <i type="logical" name="LFERMIGW"> F  </i>
   <i type="logical" name="ODDONLYGW"> F  </i>
   <i type="logical" name="EVENONLYGW"> F  </i>
   <i type="int" name="NKREDLFX">     1</i>
   <i type="int" name="NKREDLFY">     1</i>
   <i type="int" name="NKREDLFZ">     1</i>
   <i type="int" name="MAXMEM">  2800</i>
   <i type="int" name="TELESCOPE">     0</i>
   <i type="int" name="TAUPAR">     1</i>
   <i type="int" name="OMEGAPAR">    -1</i>
   <i name="LAMBDA">      1.00000000</i>
  </separator>
  <separator name="External order field" >
   <i name="OFIELD_KAPPA">      0.00000000</i>
   <v name="OFIELD_K">      0.00000000      0.00000000      0.00000000</v>
   <i name="OFIELD_Q6_NEAR">      0.00000000</i>
   <i name="OFIELD_Q6_FAR">      0.00000000</i>
   <i name="OFIELD_A">      0.00000000</i>
  </separator>
 </parameters>
 <atominfo>
  <atoms>       1 </atoms>
  <types>       1 </types>
  <array name="atoms" >
   <dimension dim="1">ion</dimension>
   <field type="string">element</field>
   <field type="int">atomtype</field>
   <set>
    <rc><c>Ar</c><c>   1</c></rc>
   </set>
  </array>
  <array name="atomtypes" >
   <dimension dim="1">type</dimension>
   <field type="int">atomspertype</field>
   <field type="string">element</field>
   <field>mass</field>
   <field>valence</field>
   <field type="string">pseudopotential</field>
   <set>
    <rc><c>   1</c><c>Ar</c><c>     39.94900000</c><c>      8.00000000</c><c>  PAW_PBE Ar_GW 21Aug2013               </c></rc>
   </set>
  </array>
 </atominfo>
 <structure name="initialpos" >
  <crystal>
   <varray name="basis" >
    <v>       3.74748430       0.00000000       0.00000000 </v>
    <v>       1.87374215       3.24541660      -0.00000000 </v>
    <v>       1.87374215       1.08180553       3.05980811 </v>
   </varray>
   <i name="volume">     37.21383833 </i>
   <varray name="rec_basis" >
    <v>       0.26684568      -0.15406343      -0.10893929 </v>
    <v>       0.00000000       0.30812685      -0.10893929 </v>
    <v>      -0.00000000       0.00000000       0.32681788 </v>
   </varray>
  </crystal>
  <varray name="positions" >
   <v>       0.00000000       0.00000000       0.00000000 </v>
  </varray>
  <varray name="velocities" >
   <v>       0.00000000       0.00000000       0.00000000 </v>
  </varray>
 </structure>
 <calculation>
  <scstep>
   <time name="diag">   19.27   19.27</time>
   <time name="total">   19.29   19.28</time>
   <energy>
    <i name="alphaZ">      8.07484950 </i>
    <i name="ewald">   -398.63690970 </i>
    <i name="hartreedc">   -139.95454437 </i>
    <i name="XCdc">     27.53038292 </i>
    <i name="pawpsdc">    468.07276621 </i>
    <i name="pawaedc">   -470.85897679 </i>
    <i name="eentropy">      0.00000000 </i>
    <i name="bandstr">    -73.25916336 </i>
    <i name="atom">    579.01336654 </i>
    <i name="e_fr_energy">     -0.01822904 </i>
    <i name="e_wo_entrp">     -0.01822904 </i>
    <i name="e_0_energy">     -0.01822904 </i>
   </energy>
  </scstep>
  <scstep>
   <time name="diag">   19.20   19.19</time>
   <time name="total">   19.20   19.20</time>
   <energy>
    <i name="e_fr_energy">     -0.01822904 </i>
    <i name="e_wo_entrp">     -0.01822904 </i>
    <i name="e_0_energy">     -0.01822904 </i>
   </energy>
  </scstep>
  <scstep>
   <time name="diag">   19.20   19.19</time>
   <time name="total">   19.21   19.20</time>
   <energy>
    <i name="e_fr_energy">     -0.01822904 </i>
    <i name="e_wo_entrp">     -0.01822904 </i>
    <i name="e_0_energy">     -0.01822904 </i>
   </energy>
  </scstep>
  <scstep>
   <time name="diag">   19.25   19.24</time>
   <time name="total">   19.25   19.25</time>
   <energy>
    <i name="e_fr_energy">     -0.01822904 </i>
    <i name="e_wo_entrp">     -0.01822904 </i>
    <i name="e_0_energy">     -0.01822904 </i>
   </energy>
  </scstep>
  <scstep>
   <time name="diag">   19.21   19.20</time>
   <time name="total">   19.23   19.22</time>
   <energy>
    <i name="e_fr_energy">     -0.01822904 </i>
    <i name="e_wo_entrp">     -0.01822904 </i>
    <i name="e_0_energy">     -0.01822904 </i>
   </energy>
  </scstep>
  <scstep>
   <time name="diag">   19.24   19.23</time>
   <time name="total">   19.25   19.24</time>
   <energy>
    <i name="alphaZ">      8.07484950 </i>
    <i name="ewald">   -398.63690970 </i>
    <i name="hartreedc">   -139.95456529 </i>
    <i name="XCdc">     27.53038425 </i>
    <i name="pawpsdc">    468.07282768 </i>
    <i name="pawaedc">   -470.85903852 </i>
    <i name="eentropy">      0.00000000 </i>
    <i name="bandstr">    -73.25914350 </i>
    <i name="atom">    579.01336654 </i>
    <i name="e_fr_energy">     -0.01822904 </i>
    <i name="e_wo_entrp">     -0.01822904 </i>
    <i name="e_0_energy">     -0.01822904 </i>
   </energy>
  </scstep>
  <structure>
   <crystal>
    <varray name="basis" >
     <v>       3.74748430       0.00000000       0.00000000 </v>
     <v>       1.87374215       3.24541660      -0.00000000 </v>
     <v>       1.87374215       1.08180553       3.05980811 </v>
    </varray>
    <i name="volume">     37.21383833 </i>
    <varray name="rec_basis" >
     <v>       0.26684568      -0.15406343      -0.10893929 </v>
     <v>       0.00000000       0.30812685      -0.10893929 </v>
     <v>      -0.00000000       0.00000000       0.32681788 </v>
    </varray>
   </crystal>
   <varray name="positions" >
    <v>       0.00000000       0.00000000       0.00000000 </v>
   </varray>
  </structure>
  <varray name="forces" >
   <v>       0.00000000       0.00000000      -0.00000000 </v>
  </varray>
  <varray name="stress" >
   <v>     -10.68470570      -0.00020159      -0.00014791 </v>
   <v>      -0.00020149     -10.68447757      -0.00008035 </v>
   <v>      -0.00014794      -0.00008028     -10.68440607 </v>
  </varray>
  <energy>
   <i name="e_fr_energy">     -0.25502230 </i>
   <i name="e_wo_entrp">     -0.25502230 </i>
   <i name="e_0_energy">      0.00000000 </i>
  </energy>
  <time name="totalsc">  116.70  116.80</time>
  <eigenvalues>
   <array>
    <dimension dim="1">band</dimension>
    <dimension dim="2">kpoint</dimension>
    <dimension dim="3">spin</dimension>
    <field>eigene</field>
    <field>occ</field>
    <set>
     <set comment="spin 1">
      <set comment="kpoint 1">
       <r>  -19.8560    1.0000 </r>
       <r>   -5.1352    1.0000 </r>
       <r>   -5.1352    1.0000 </r>
       <r>   -5.1352    1.0000 </r>
       <r>    3.5347    0.0000 </r>
       <r>   10.6484    0.0000 </r>
       <r>   10.6484    0.0000 </r>
       <r>   10.6484    0.0000 </r>
       <r>   12.8997    0.0000 </r>
       <r>   12.8997    0.0000 </r>
       <r>   15.6481    0.0000 </r>
       <r>   18.3714    0.0000 </r>
       <r>   18.3714    0.0000 </r>
       <r>   18.3714    0.0000 </r>
       <r>   20.4901    0.0000 </r>
       <r>   26.9638    0.0000 </r>
       <r>   26.9638    0.0000 </r>
       <r>   26.9638    0.0000 </r>
       <r>   28.2594    0.0000 </r>
       <r>   28.2594    0.0000 </r>
       <r>   28.2594    0.0000 </r>
       <r>   31.0890    0.0000 </r>
       <r>   31.0890    0.0000 </r>
       <r>   37.4691    0.0000 </r>
       <r>   37.7211    0.0000 </r>
       <r>   37.7211    0.0000 </r>
       <r>   37.7211    0.0000 </r>
       <r>   44.2965    0.0000 </r>
       <r>   44.2965    0.0000 </r>
       <r>   47.5866    0.0000 </r>
       <r>   47.5866    0.0000 </r>
       <r>   47.5866    0.0000 </r>
       <r>   47.9891    0.0000 </r>
       <r>   47.9891    0.0000 </r>
       <r>   47.9891    0.0000 </r>
       <r>   51.8288    0.0000 </r>
       <r>   51.9789    0.0000 </r>
       <r>   51.9789    0.0000 </r>
       <r>   51.9789    0.0000 </r>
       <r>   54.4384    0.0000 </r>
       <r>   54.8998    0.0000 </r>
       <r>   54.8998    0.0000 </r>
       <r>   54.8998    0.0000 </r>
       <r>   55.1141    0.0000 </r>
       <r>   55.1141    0.0000 </r>
       <r>   55.1141    0.0000 </r>
       <r>   57.3455    0.0000 </r>
       <r>   57.3455    0.0000 </r>
       <r>   57.3455    0.0000 </r>
       <r>   57.9493    0.0000 </r>
       <r>   57.9493    0.0000 </r>
       <r>   61.5402    0.0000 </r>
       <r>   61.5402    0.0000 </r>
       <r>   61.5402    0.0000 </r>
       <r>   61.6968    0.0000 </r>
       <r>   61.6968    0.0000 </r>
       <r>   61.6968    0.0000 </r>
       <r>   61.8546    0.0000 </r>
       <r>   62.2776    0.0000 </r>
       <r>   72.1597    0.0000 </r>
       <r>   72.1597    0.0000 </r>
       <r>   75.9174    0.0000 </r>
       <r>   75.9174    0.0000 </r>
       <r>   75.9174    0.0000 </r>
       <r>   78.3126    0.0000 </r>
       <r>   78.3126    0.0000 </r>
       <r>   78.3126    0.0000 </r>
       <r>   82.2700    0.0000 </r>
       <r>   85.8854    0.0000 </r>
       <r>   85.8854    0.0000 </r>
       <r>   85.8854    0.0000 </r>
       <r>   86.7744    0.0000 </r>
       <r>   86.7744    0.0000 </r>
       <r>   86.7744    0.0000 </r>
       <r>   86.9310    0.0000 </r>
       <r>   86.9310    0.0000 </r>
       <r>   93.4490    0.0000 </r>
       <r>   97.2642    0.0000 </r>
       <r>   97.2642    0.0000 </r>
       <r>   97.2642    0.0000 </r>
       <r>   97.3236    0.0000 </r>
       <r>   97.3236    0.0000 </r>
       <r>   97.3236    0.0000 </r>
       <r>   98.7569    0.0000 </r>
       <r>   98.7569    0.0000 </r>
       <r>   99.0918    0.0000 </r>
       <r>   99.0918    0.0000 </r>
       <r>   99.0918    0.0000 </r>
       <r>   99.4256    0.0000 </r>
       <r>   99.4256    0.0000 </r>
       <r>   99.5773    0.0000 </r>
       <r>  100.4070    0.0000 </r>
       <r>  100.4070    0.0000 </r>
       <r>  100.4070    0.0000 </r>
       <r>  101.9240    0.0000 </r>
       <r>  101.9240    0.0000 </r>
       <r>  101.9240    0.0000 </r>
       <r>  102.9458    0.0000 </r>
       <r>  102.9458    0.0000 </r>
       <r>  102.9458    0.0000 </r>
       <r>  104.0449    0.0000 </r>
       <r>  104.4199    0.0000 </r>
       <r>  104.4199    0.0000 </r>
       <r>  104.4199    0.0000 </r>
       <r>  104.4249    0.0000 </r>
       <r>  104.4249    0.0000 </r>
       <r>  104.4249    0.0000 </r>
       <r>  104.9706    0.0000 </r>
       <r>  104.9706    0.0000 </r>
       <r>  104.9706    0.0000 </r>
       <r>  105.1063    0.0000 </r>
       <r>  105.1063    0.0000 </r>
       <r>  106.4555    0.0000 </r>
       <r>  116.1806    0.0000 </r>
       <r>  116.1806    0.0000 </r>
       <r>  116.1806    0.0000 </r>
       <r>  117.9616    0.0000 </r>
       <r>  119.2096    0.0000 </r>
       <r>  119.2096    0.0000 </r>
       <r>  120.1412    0.0000 </r>
       <r>  120.1412    0.0000 </r>
       <r>  120.1412    0.0000 </r>
       <r>  122.6760    0.0000 </r>
       <r>  122.6760    0.0000 </r>
       <r>  122.6760    0.0000 </r>
       <r>  122.9076    0.0000 </r>
       <r>  122.9076    0.0000 </r>
       <r>  122.9076    0.0000 </r>
      </set>
      <set comment="kpoint 2">
       <r>  -19.8203    1.0000 </r>
       <r>   -5.4070    1.0000 </r>
       <r>   -5.1611    1.0000 </r>
       <r>   -5.1611    1.0000 </r>
       <r>    4.0702    0.0000 </r>
       <r>    9.9541    0.0000 </r>
       <r>   10.8444    0.0000 </r>
       <r>   10.8444    0.0000 </r>
       <r>   12.5755    0.0000 </r>
       <r>   12.5755    0.0000 </r>
       <r>   16.4471    0.0000 </r>
       <r>   17.3350    0.0000 </r>
       <r>   19.4668    0.0000 </r>
       <r>   19.4668    0.0000 </r>
       <r>   22.3609    0.0000 </r>
       <r>   24.6414    0.0000 </r>
       <r>   25.1594    0.0000 </r>
       <r>   25.1594    0.0000 </r>
       <r>   28.5196    0.0000 </r>
       <r>   28.5196    0.0000 </r>
       <r>   30.2823    0.0000 </r>
       <r>   31.7491    0.0000 </r>
       <r>   31.7491    0.0000 </r>
       <r>   37.9131    0.0000 </r>
       <r>   37.9131    0.0000 </r>
       <r>   37.9833    0.0000 </r>
       <r>   38.4839    0.0000 </r>
       <r>   43.0728    0.0000 </r>
       <r>   43.5350    0.0000 </r>
       <r>   43.5350    0.0000 </r>
       <r>   46.5736    0.0000 </r>
       <r>   46.5736    0.0000 </r>
       <r>   47.9438    0.0000 </r>
       <r>   49.3808    0.0000 </r>
       <r>   49.3808    0.0000 </r>
       <r>   50.4067    0.0000 </r>
       <r>   50.4067    0.0000 </r>
       <r>   50.9320    0.0000 </r>
       <r>   51.5063    0.0000 </r>
       <r>   52.7210    0.0000 </r>
       <r>   52.7210    0.0000 </r>
       <r>   53.4826    0.0000 </r>
       <r>   54.0036    0.0000 </r>
       <r>   56.4256    0.0000 </r>
       <r>   56.4256    0.0000 </r>
       <r>   57.1393    0.0000 </r>
       <r>   57.5258    0.0000 </r>
       <r>   57.5258    0.0000 </r>
       <r>   58.7259    0.0000 </r>
       <r>   59.8083    0.0000 </r>
       <r>   60.2432    0.0000 </r>
       <r>   60.2432    0.0000 </r>
       <r>   60.4537    0.0000 </r>
       <r>   63.7436    0.0000 </r>
       <r>   63.7436    0.0000 </r>
       <r>   65.2222    0.0000 </r>
       <r>   65.2222    0.0000 </r>
       <r>   65.4571    0.0000 </r>
       <r>   69.2830    0.0000 </r>
       <r>   69.2830    0.0000 </r>
       <r>   70.4411    0.0000 </r>
       <r>   72.9511    0.0000 </r>
       <r>   74.1096    0.0000 </r>
       <r>   74.1096    0.0000 </r>
       <r>   75.0158    0.0000 </r>
       <r>   79.7986    0.0000 </r>
       <r>   79.7986    0.0000 </r>
       <r>   84.4455    0.0000 </r>
       <r>   84.4455    0.0000 </r>
       <r>   84.6214    0.0000 </r>
       <r>   86.0138    0.0000 </r>
       <r>   86.0138    0.0000 </r>
       <r>   86.6588    0.0000 </r>
       <r>   88.5824    0.0000 </r>
       <r>   89.0356    0.0000 </r>
       <r>   90.3837    0.0000 </r>
       <r>   90.3837    0.0000 </r>
       <r>   90.4762    0.0000 </r>
       <r>   90.4762    0.0000 </r>
       <r>   93.9557    0.0000 </r>
       <r>   93.9557    0.0000 </r>
       <r>   94.4108    0.0000 </r>
       <r>   95.3269    0.0000 </r>
       <r>   95.9262    0.0000 </r>
       <r>   95.9262    0.0000 </r>
       <r>   95.9969    0.0000 </r>
       <r>   97.9826    0.0000 </r>
       <r>   97.9826    0.0000 </r>
       <r>   99.2681    0.0000 </r>
       <r>   99.2681    0.0000 </r>
       <r>   99.4169    0.0000 </r>
       <r>   99.6161    0.0000 </r>
       <r>  100.6624    0.0000 </r>
       <r>  100.6624    0.0000 </r>
       <r>  101.2147    0.0000 </r>
       <r>  101.2147    0.0000 </r>
       <r>  101.6337    0.0000 </r>
       <r>  101.9083    0.0000 </r>
       <r>  104.9564    0.0000 </r>
       <r>  104.9564    0.0000 </r>
       <r>  105.4677    0.0000 </r>
       <r>  106.5543    0.0000 </r>
       <r>  106.8573    0.0000 </r>
       <r>  107.1201    0.0000 </r>
       <r>  107.1201    0.0000 </r>
       <r>  108.1652    0.0000 </r>
       <r>  108.1995    0.0000 </r>
       <r>  108.1995    0.0000 </r>
       <r>  110.3932    0.0000 </r>
       <r>  110.3932    0.0000 </r>
       <r>  111.1558    0.0000 </r>
       <r>  111.1558    0.0000 </r>
       <r>  112.6244    0.0000 </r>
       <r>  113.3361    0.0000 </r>
       <r>  113.3361    0.0000 </r>
       <r>  113.7424    0.0000 </r>
       <r>  114.3602    0.0000 </r>
       <r>  114.3602    0.0000 </r>
       <r>  116.5177    0.0000 </r>
       <r>  116.5177    0.0000 </r>
       <r>  117.2153    0.0000 </r>
       <r>  117.4626    0.0000 </r>
       <r>  120.6565    0.0000 </r>
       <r>  120.6565    0.0000 </r>
       <r>  121.7143    0.0000 </r>
       <r>  122.5962    0.0000 </r>
       <r>  122.5962    0.0000 </r>
       <r>  123.2846    0.0000 </r>
      </set>
      <set comment="kpoint 3">
       <r>  -19.7384    1.0000 </r>
       <r>   -5.9540    1.0000 </r>
       <r>   -5.2211    1.0000 </r>
       <r>   -5.2211    1.0000 </r>
       <r>    5.2799    0.0000 </r>
       <r>    8.9912    0.0000 </r>
       <r>   10.7185    0.0000 </r>
       <r>   10.7185    0.0000 </r>
       <r>   12.9655    0.0000 </r>
       <r>   12.9655    0.0000 </r>
       <r>   15.2848    0.0000 </r>
       <r>   18.9576    0.0000 </r>
       <r>   21.2574    0.0000 </r>
       <r>   21.6026    0.0000 </r>
       <r>   21.6026    0.0000 </r>
       <r>   22.3879    0.0000 </r>
       <r>   22.3879    0.0000 </r>
       <r>   27.4514    0.0000 </r>
       <r>   28.6307    0.0000 </r>
       <r>   28.6307    0.0000 </r>
       <r>   31.0948    0.0000 </r>
       <r>   32.6655    0.0000 </r>
       <r>   32.6655    0.0000 </r>
       <r>   36.1682    0.0000 </r>
       <r>   36.1682    0.0000 </r>
       <r>   37.2933    0.0000 </r>
       <r>   38.6733    0.0000 </r>
       <r>   41.7226    0.0000 </r>
       <r>   43.3276    0.0000 </r>
       <r>   43.3276    0.0000 </r>
       <r>   45.5825    0.0000 </r>
       <r>   45.9931    0.0000 </r>
       <r>   45.9931    0.0000 </r>
       <r>   47.1788    0.0000 </r>
       <r>   47.1788    0.0000 </r>
       <r>   47.6781    0.0000 </r>
       <r>   48.2361    0.0000 </r>
       <r>   50.7858    0.0000 </r>
       <r>   50.7858    0.0000 </r>
       <r>   51.1128    0.0000 </r>
       <r>   53.5244    0.0000 </r>
       <r>   53.5244    0.0000 </r>
       <r>   54.3821    0.0000 </r>
       <r>   56.5554    0.0000 </r>
       <r>   56.5554    0.0000 </r>
       <r>   58.3143    0.0000 </r>
       <r>   60.5363    0.0000 </r>
       <r>   60.5363    0.0000 </r>
       <r>   62.8452    0.0000 </r>
       <r>   63.3968    0.0000 </r>
       <r>   63.3968    0.0000 </r>
       <r>   64.2470    0.0000 </r>
       <r>   65.0559    0.0000 </r>
       <r>   65.0559    0.0000 </r>
       <r>   65.2701    0.0000 </r>
       <r>   68.0240    0.0000 </r>
       <r>   68.9284    0.0000 </r>
       <r>   68.9284    0.0000 </r>
       <r>   69.6772    0.0000 </r>
       <r>   69.6772    0.0000 </r>
       <r>   70.0633    0.0000 </r>
       <r>   70.8046    0.0000 </r>
       <r>   71.9054    0.0000 </r>
       <r>   71.9054    0.0000 </r>
       <r>   78.1251    0.0000 </r>
       <r>   78.1251    0.0000 </r>
       <r>   80.2335    0.0000 </r>
       <r>   81.2324    0.0000 </r>
       <r>   81.4726    0.0000 </r>
       <r>   81.4726    0.0000 </r>
       <r>   84.5663    0.0000 </r>
       <r>   84.8703    0.0000 </r>
       <r>   84.8703    0.0000 </r>
       <r>   85.6506    0.0000 </r>
       <r>   85.6506    0.0000 </r>
       <r>   85.8706    0.0000 </r>
       <r>   88.1843    0.0000 </r>
       <r>   88.1843    0.0000 </r>
       <r>   88.3077    0.0000 </r>
       <r>   89.0288    0.0000 </r>
       <r>   90.4956    0.0000 </r>
       <r>   90.4956    0.0000 </r>
       <r>   93.5804    0.0000 </r>
       <r>   96.0153    0.0000 </r>
       <r>   97.0317    0.0000 </r>
       <r>   97.0317    0.0000 </r>
       <r>   97.6640    0.0000 </r>
       <r>   97.6641    0.0000 </r>
       <r>   98.7927    0.0000 </r>
       <r>   99.2021    0.0000 </r>
       <r>   99.2021    0.0000 </r>
       <r>   99.4275    0.0000 </r>
       <r>  100.1328    0.0000 </r>
       <r>  100.5901    0.0000 </r>
       <r>  100.5901    0.0000 </r>
       <r>  101.7487    0.0000 </r>
       <r>  101.7487    0.0000 </r>
       <r>  101.9877    0.0000 </r>
       <r>  104.9810    0.0000 </r>
       <r>  104.9810    0.0000 </r>
       <r>  105.8969    0.0000 </r>
       <r>  108.2012    0.0000 </r>
       <r>  108.2012    0.0000 </r>
       <r>  109.1319    0.0000 </r>
       <r>  109.1319    0.0000 </r>
       <r>  109.1659    0.0000 </r>
       <r>  110.6287    0.0000 </r>
       <r>  111.0992    0.0000 </r>
       <r>  111.0992    0.0000 </r>
       <r>  111.2910    0.0000 </r>
       <r>  111.2910    0.0000 </r>
       <r>  112.4191    0.0000 </r>
       <r>  113.5301    0.0000 </r>
       <r>  114.3672    0.0000 </r>
       <r>  115.1021    0.0000 </r>
       <r>  116.0919    0.0000 </r>
       <r>  116.0919    0.0000 </r>
       <r>  117.8827    0.0000 </r>
       <r>  117.8827    0.0000 </r>
       <r>  119.1495    0.0000 </r>
       <r>  120.6995    0.0000 </r>
       <r>  120.6995    0.0000 </r>
       <r>  121.4764    0.0000 </r>
       <r>  121.4764    0.0000 </r>
       <r>  122.0783    0.0000 </r>
       <r>  122.5833    0.0000 </r>
       <r>  123.5714    0.0000 </r>
       <r>  123.5714    0.0000 </r>
      </set>
      <set comment="kpoint 4">
       <r>  -19.6711    1.0000 </r>
       <r>   -6.3471    1.0000 </r>
       <r>   -5.2682    1.0000 </r>
       <r>   -5.2682    1.0000 </r>
       <r>    6.2355    0.0000 </r>
       <r>    8.5907    0.0000 </r>
       <r>   10.3347    0.0000 </r>
       <r>   10.3347    0.0000 </r>
       <r>   14.2474    0.0000 </r>
       <r>   14.2474    0.0000 </r>
       <r>   15.0192    0.0000 </r>
       <r>   16.9642    0.0000 </r>
       <r>   19.4955    0.0000 </r>
       <r>   19.4955    0.0000 </r>
       <r>   24.1592    0.0000 </r>
       <r>   24.4377    0.0000 </r>
       <r>   24.4377    0.0000 </r>
       <r>   28.4670    0.0000 </r>
       <r>   28.4670    0.0000 </r>
       <r>   28.8204    0.0000 </r>
       <r>   32.5646    0.0000 </r>
       <r>   32.7768    0.0000 </r>
       <r>   32.7768    0.0000 </r>
       <r>   34.5476    0.0000 </r>
       <r>   34.5476    0.0000 </r>
       <r>   35.2800    0.0000 </r>
       <r>   38.7814    0.0000 </r>
       <r>   39.4485    0.0000 </r>
       <r>   41.4177    0.0000 </r>
       <r>   41.4177    0.0000 </r>
       <r>   43.0018    0.0000 </r>
       <r>   44.8596    0.0000 </r>
       <r>   44.8596    0.0000 </r>
       <r>   45.6129    0.0000 </r>
       <r>   49.9996    0.0000 </r>
       <r>   49.9996    0.0000 </r>
       <r>   50.2510    0.0000 </r>
       <r>   50.9091    0.0000 </r>
       <r>   50.9091    0.0000 </r>
       <r>   50.9542    0.0000 </r>
       <r>   53.3508    0.0000 </r>
       <r>   53.3508    0.0000 </r>
       <r>   53.7510    0.0000 </r>
       <r>   58.3407    0.0000 </r>
       <r>   58.6651    0.0000 </r>
       <r>   58.6651    0.0000 </r>
       <r>   60.5678    0.0000 </r>
       <r>   60.5678    0.0000 </r>
       <r>   62.8424    0.0000 </r>
       <r>   63.6457    0.0000 </r>
       <r>   63.6457    0.0000 </r>
       <r>   65.7186    0.0000 </r>
       <r>   66.6274    0.0000 </r>
       <r>   66.6274    0.0000 </r>
       <r>   69.1552    0.0000 </r>
       <r>   69.1552    0.0000 </r>
       <r>   69.2694    0.0000 </r>
       <r>   71.3549    0.0000 </r>
       <r>   72.1822    0.0000 </r>
       <r>   72.7366    0.0000 </r>
       <r>   72.7366    0.0000 </r>
       <r>   74.8175    0.0000 </r>
       <r>   74.8175    0.0000 </r>
       <r>   75.2926    0.0000 </r>
       <r>   75.2926    0.0000 </r>
       <r>   75.3245    0.0000 </r>
       <r>   76.4318    0.0000 </r>
       <r>   78.0764    0.0000 </r>
       <r>   79.7708    0.0000 </r>
       <r>   80.4709    0.0000 </r>
       <r>   80.4709    0.0000 </r>
       <r>   81.0486    0.0000 </r>
       <r>   81.0486    0.0000 </r>
       <r>   82.4229    0.0000 </r>
       <r>   82.4229    0.0000 </r>
       <r>   84.2422    0.0000 </r>
       <r>   85.7993    0.0000 </r>
       <r>   85.7993    0.0000 </r>
       <r>   87.2441    0.0000 </r>
       <r>   89.9226    0.0000 </r>
       <r>   89.9226    0.0000 </r>
       <r>   90.5387    0.0000 </r>
       <r>   93.4988    0.0000 </r>
       <r>   94.6796    0.0000 </r>
       <r>   94.9872    0.0000 </r>
       <r>   94.9872    0.0000 </r>
       <r>   97.3550    0.0000 </r>
       <r>   97.3550    0.0000 </r>
       <r>   98.4448    0.0000 </r>
       <r>   98.4448    0.0000 </r>
       <r>   98.7721    0.0000 </r>
       <r>  100.7362    0.0000 </r>
       <r>  100.7362    0.0000 </r>
       <r>  100.7386    0.0000 </r>
       <r>  102.0612    0.0000 </r>
       <r>  102.8554    0.0000 </r>
       <r>  104.4492    0.0000 </r>
       <r>  104.4492    0.0000 </r>
       <r>  104.5296    0.0000 </r>
       <r>  105.4146    0.0000 </r>
       <r>  105.4146    0.0000 </r>
       <r>  105.9122    0.0000 </r>
       <r>  105.9122    0.0000 </r>
       <r>  107.6233    0.0000 </r>
       <r>  108.1086    0.0000 </r>
       <r>  109.6923    0.0000 </r>
       <r>  109.6923    0.0000 </r>
       <r>  110.2674    0.0000 </r>
       <r>  112.6514    0.0000 </r>
       <r>  112.8514    0.0000 </r>
       <r>  112.8514    0.0000 </r>
       <r>  113.0159    0.0000 </r>
       <r>  113.0159    0.0000 </r>
       <r>  115.1211    0.0000 </r>
       <r>  116.1876    0.0000 </r>
       <r>  116.1876    0.0000 </r>
       <r>  116.5548    0.0000 </r>
       <r>  117.9490    0.0000 </r>
       <r>  117.9490    0.0000 </r>
       <r>  119.9337    0.0000 </r>
       <r>  119.9337    0.0000 </r>
       <r>  120.3263    0.0000 </r>
       <r>  120.5709    0.0000 </r>
       <r>  122.7230    0.0000 </r>
       <r>  123.0196    0.0000 </r>
       <r>  123.0196    0.0000 </r>
       <r>  124.2172    0.0000 </r>
       <r>  124.2172    0.0000 </r>
      </set>
      <set comment="kpoint 5">
       <r>  -19.8203    1.0000 </r>
       <r>   -5.4070    1.0000 </r>
       <r>   -5.1611    1.0000 </r>
       <r>   -5.1611    1.0000 </r>
       <r>    4.0702    0.0000 </r>
       <r>    9.9541    0.0000 </r>
       <r>   10.8444    0.0000 </r>
       <r>   10.8444    0.0000 </r>
       <r>   12.5755    0.0000 </r>
       <r>   12.5755    0.0000 </r>
       <r>   16.4471    0.0000 </r>
       <r>   17.3350    0.0000 </r>
       <r>   19.4668    0.0000 </r>
       <r>   19.4668    0.0000 </r>
       <r>   22.3609    0.0000 </r>
       <r>   24.6414    0.0000 </r>
       <r>   25.1594    0.0000 </r>
       <r>   25.1594    0.0000 </r>
       <r>   28.5196    0.0000 </r>
       <r>   28.5196    0.0000 </r>
       <r>   30.2823    0.0000 </r>
       <r>   31.7491    0.0000 </r>
       <r>   31.7491    0.0000 </r>
       <r>   37.9131    0.0000 </r>
       <r>   37.9131    0.0000 </r>
       <r>   37.9833    0.0000 </r>
       <r>   38.4839    0.0000 </r>
       <r>   43.0728    0.0000 </r>
       <r>   43.5350    0.0000 </r>
       <r>   43.5350    0.0000 </r>
       <r>   46.5736    0.0000 </r>
       <r>   46.5736    0.0000 </r>
       <r>   47.9438    0.0000 </r>
       <r>   49.3808    0.0000 </r>
       <r>   49.3808    0.0000 </r>
       <r>   50.4067    0.0000 </r>
       <r>   50.4067    0.0000 </r>
       <r>   50.9320    0.0000 </r>
       <r>   51.5063    0.0000 </r>
       <r>   52.7210    0.0000 </r>
       <r>   52.7210    0.0000 </r>
       <r>   53.4826    0.0000 </r>
       <r>   54.0036    0.0000 </r>
       <r>   56.4256    0.0000 </r>
       <r>   56.4256    0.0000 </r>
       <r>   57.1393    0.0000 </r>
       <r>   57.5258    0.0000 </r>
       <r>   57.5258    0.0000 </r>
       <r>   58.7259    0.0000 </r>
       <r>   59.8084    0.0000 </r>
       <r>   60.2432    0.0000 </r>
       <r>   60.2432    0.0000 </r>
       <r>   60.4537    0.0000 </r>
       <r>   63.7436    0.0000 </r>
       <r>   63.7436    0.0000 </r>
       <r>   65.2222    0.0000 </r>
       <r>   65.2222    0.0000 </r>
       <r>   65.4571    0.0000 </r>
       <r>   69.2830    0.0000 </r>
       <r>   69.2830    0.0000 </r>
       <r>   70.4411    0.0000 </r>
       <r>   72.9511    0.0000 </r>
       <r>   74.1096    0.0000 </r>
       <r>   74.1096    0.0000 </r>
       <r>   75.0158    0.0000 </r>
       <r>   79.7986    0.0000 </r>
       <r>   79.7986    0.0000 </r>
       <r>   84.4455    0.0000 </r>
       <r>   84.4455    0.0000 </r>
       <r>   84.6214    0.0000 </r>
       <r>   86.0138    0.0000 </r>
       <r>   86.0138    0.0000 </r>
       <r>   86.6588    0.0000 </r>
       <r>   88.5824    0.0000 </r>
       <r>   89.0356    0.0000 </r>
       <r>   90.3837    0.0000 </r>
       <r>   90.3837    0.0000 </r>
       <r>   90.4762    0.0000 </r>
       <r>   90.4762    0.0000 </r>
       <r>   93.9557    0.0000 </r>
       <r>   93.9557    0.0000 </r>
       <r>   94.4108    0.0000 </r>
       <r>   95.3269    0.0000 </r>
       <r>   95.9262    0.0000 </r>
       <r>   95.9262    0.0000 </r>
       <r>   95.9969    0.0000 </r>
       <r>   97.9826    0.0000 </r>
       <r>   97.9826    0.0000 </r>
       <r>   99.2681    0.0000 </r>
       <r>   99.2681    0.0000 </r>
       <r>   99.4168    0.0000 </r>
       <r>   99.6161    0.0000 </r>
       <r>  100.6624    0.0000 </r>
       <r>  100.6624    0.0000 </r>
       <r>  101.2147    0.0000 </r>
       <r>  101.2147    0.0000 </r>
       <r>  101.6337    0.0000 </r>
       <r>  101.9083    0.0000 </r>
       <r>  104.9564    0.0000 </r>
       <r>  104.9564    0.0000 </r>
       <r>  105.4677    0.0000 </r>
       <r>  106.5543    0.0000 </r>
       <r>  106.8573    0.0000 </r>
       <r>  107.1201    0.0000 </r>
       <r>  107.1201    0.0000 </r>
       <r>  108.1652    0.0000 </r>
       <r>  108.1995    0.0000 </r>
       <r>  108.1995    0.0000 </r>
       <r>  110.3932    0.0000 </r>
       <r>  110.3932    0.0000 </r>
       <r>  111.1558    0.0000 </r>
       <r>  111.1558    0.0000 </r>
       <r>  112.6244    0.0000 </r>
       <r>  113.3361    0.0000 </r>
       <r>  113.3361    0.0000 </r>
       <r>  113.7424    0.0000 </r>
       <r>  114.3602    0.0000 </r>
       <r>  114.3602    0.0000 </r>
       <r>  116.5177    0.0000 </r>
       <r>  116.5177    0.0000 </r>
       <r>  117.2153    0.0000 </r>
       <r>  117.4626    0.0000 </r>
       <r>  120.6565    0.0000 </r>
       <r>  120.6565    0.0000 </r>
       <r>  121.7143    0.0000 </r>
       <r>  122.5962    0.0000 </r>
       <r>  122.5962    0.0000 </r>
       <r>  123.2846    0.0000 </r>
      </set>
      <set comment="kpoint 6">
       <r>  -19.8085    1.0000 </r>
       <r>   -5.4035    1.0000 </r>
       <r>   -5.2156    1.0000 </r>
       <r>   -5.2156    1.0000 </r>
       <r>    4.2413    0.0000 </r>
       <r>    9.7341    0.0000 </r>
       <r>   11.0059    0.0000 </r>
       <r>   11.0059    0.0000 </r>
       <r>   11.5822    0.0000 </r>
       <r>   13.1557    0.0000 </r>
       <r>   17.2730    0.0000 </r>
       <r>   17.9350    0.0000 </r>
       <r>   18.8764    0.0000 </r>
       <r>   18.8764    0.0000 </r>
       <r>   23.6355    0.0000 </r>
       <r>   24.2747    0.0000 </r>
       <r>   24.2747    0.0000 </r>
       <r>   25.2059    0.0000 </r>
       <r>   27.2089    0.0000 </r>
       <r>   29.4530    0.0000 </r>
       <r>   30.8027    0.0000 </r>
       <r>   30.8027    0.0000 </r>
       <r>   32.5221    0.0000 </r>
       <r>   37.8989    0.0000 </r>
       <r>   38.3725    0.0000 </r>
       <r>   38.3725    0.0000 </r>
       <r>   38.8722    0.0000 </r>
       <r>   41.0981    0.0000 </r>
       <r>   43.9738    0.0000 </r>
       <r>   43.9738    0.0000 </r>
       <r>   45.4448    0.0000 </r>
       <r>   46.3151    0.0000 </r>
       <r>   47.2776    0.0000 </r>
       <r>   47.2776    0.0000 </r>
       <r>   49.0412    0.0000 </r>
       <r>   50.0954    0.0000 </r>
       <r>   51.5151    0.0000 </r>
       <r>   51.5151    0.0000 </r>
       <r>   52.9459    0.0000 </r>
       <r>   53.3196    0.0000 </r>
       <r>   53.3196    0.0000 </r>
       <r>   53.5934    0.0000 </r>
       <r>   54.5332    0.0000 </r>
       <r>   56.1269    0.0000 </r>
       <r>   56.5556    0.0000 </r>
       <r>   57.0120    0.0000 </r>
       <r>   57.0120    0.0000 </r>
       <r>   57.3778    0.0000 </r>
       <r>   58.3229    0.0000 </r>
       <r>   58.8837    0.0000 </r>
       <r>   58.8837    0.0000 </r>
       <r>   60.3428    0.0000 </r>
       <r>   62.2962    0.0000 </r>
       <r>   62.2962    0.0000 </r>
       <r>   65.0220    0.0000 </r>
       <r>   65.8470    0.0000 </r>
       <r>   67.9219    0.0000 </r>
       <r>   68.2540    0.0000 </r>
       <r>   68.2540    0.0000 </r>
       <r>   69.0976    0.0000 </r>
       <r>   71.5044    0.0000 </r>
       <r>   72.0401    0.0000 </r>
       <r>   72.0401    0.0000 </r>
       <r>   75.8476    0.0000 </r>
       <r>   76.6245    0.0000 </r>
       <r>   78.8971    0.0000 </r>
       <r>   78.8971    0.0000 </r>
       <r>   81.3236    0.0000 </r>
       <r>   82.6041    0.0000 </r>
       <r>   85.1241    0.0000 </r>
       <r>   85.8062    0.0000 </r>
       <r>   85.8062    0.0000 </r>
       <r>   88.5164    0.0000 </r>
       <r>   89.5412    0.0000 </r>
       <r>   89.5412    0.0000 </r>
       <r>   90.1649    0.0000 </r>
       <r>   90.3572    0.0000 </r>
       <r>   90.3572    0.0000 </r>
       <r>   90.6254    0.0000 </r>
       <r>   92.2153    0.0000 </r>
       <r>   92.2153    0.0000 </r>
       <r>   92.2647    0.0000 </r>
       <r>   93.5302    0.0000 </r>
       <r>   93.7792    0.0000 </r>
       <r>   96.7518    0.0000 </r>
       <r>   97.0057    0.0000 </r>
       <r>   97.0057    0.0000 </r>
       <r>   97.1047    0.0000 </r>
       <r>   97.3305    0.0000 </r>
       <r>   99.2177    0.0000 </r>
       <r>   99.2177    0.0000 </r>
       <r>   99.3346    0.0000 </r>
       <r>  101.8720    0.0000 </r>
       <r>  101.8720    0.0000 </r>
       <r>  102.0978    0.0000 </r>
       <r>  102.5346    0.0000 </r>
       <r>  102.8017    0.0000 </r>
       <r>  105.0457    0.0000 </r>
       <r>  105.2375    0.0000 </r>
       <r>  105.2375    0.0000 </r>
       <r>  105.2493    0.0000 </r>
       <r>  106.2817    0.0000 </r>
       <r>  107.7794    0.0000 </r>
       <r>  107.7794    0.0000 </r>
       <r>  108.5086    0.0000 </r>
       <r>  108.6635    0.0000 </r>
       <r>  108.6635    0.0000 </r>
       <r>  108.9852    0.0000 </r>
       <r>  109.0026    0.0000 </r>
       <r>  110.2209    0.0000 </r>
       <r>  110.2209    0.0000 </r>
       <r>  110.4353    0.0000 </r>
       <r>  111.1417    0.0000 </r>
       <r>  113.8036    0.0000 </r>
       <r>  115.1585    0.0000 </r>
       <r>  115.4155    0.0000 </r>
       <r>  115.4155    0.0000 </r>
       <r>  115.8537    0.0000 </r>
       <r>  115.8537    0.0000 </r>
       <r>  116.0512    0.0000 </r>
       <r>  116.4223    0.0000 </r>
       <r>  117.0876    0.0000 </r>
       <r>  117.7305    0.0000 </r>
       <r>  117.7305    0.0000 </r>
       <r>  118.3158    0.0000 </r>
       <r>  120.5580    0.0000 </r>
       <r>  124.6749    0.0000 </r>
       <r>  124.9154    0.0000 </r>
      </set>
      <set comment="kpoint 7">
       <r>  -19.7421    1.0000 </r>
       <r>   -5.8044    1.0000 </r>
       <r>   -5.2920    1.0000 </r>
       <r>   -5.2826    1.0000 </r>
       <r>    5.2253    0.0000 </r>
       <r>    8.9891    0.0000 </r>
       <r>   10.2965    0.0000 </r>
       <r>   11.1951    0.0000 </r>
       <r>   12.0031    0.0000 </r>
       <r>   13.5081    0.0000 </r>
       <r>   16.8023    0.0000 </r>
       <r>   19.1506    0.0000 </r>
       <r>   19.7309    0.0000 </r>
       <r>   20.0258    0.0000 </r>
       <r>   22.2948    0.0000 </r>
       <r>   22.6618    0.0000 </r>
       <r>   24.0676    0.0000 </r>
       <r>   26.5927    0.0000 </r>
       <r>   27.1279    0.0000 </r>
       <r>   28.7887    0.0000 </r>
       <r>   31.2588    0.0000 </r>
       <r>   31.7422    0.0000 </r>
       <r>   33.8646    0.0000 </r>
       <r>   35.9234    0.0000 </r>
       <r>   37.0962    0.0000 </r>
       <r>   38.5055    0.0000 </r>
       <r>   40.1454    0.0000 </r>
       <r>   41.0197    0.0000 </r>
       <r>   41.8567    0.0000 </r>
       <r>   42.6007    0.0000 </r>
       <r>   44.3108    0.0000 </r>
       <r>   45.0127    0.0000 </r>
       <r>   45.9529    0.0000 </r>
       <r>   47.4335    0.0000 </r>
       <r>   47.4870    0.0000 </r>
       <r>   48.7802    0.0000 </r>
       <r>   49.5337    0.0000 </r>
       <r>   50.4882    0.0000 </r>
       <r>   52.3509    0.0000 </r>
       <r>   53.1408    0.0000 </r>
       <r>   53.3564    0.0000 </r>
       <r>   53.8948    0.0000 </r>
       <r>   54.1748    0.0000 </r>
       <r>   56.3117    0.0000 </r>
       <r>   56.7375    0.0000 </r>
       <r>   57.8206    0.0000 </r>
       <r>   57.9197    0.0000 </r>
       <r>   60.5555    0.0000 </r>
       <r>   60.8639    0.0000 </r>
       <r>   61.2332    0.0000 </r>
       <r>   62.4202    0.0000 </r>
       <r>   63.3541    0.0000 </r>
       <r>   63.8322    0.0000 </r>
       <r>   65.3737    0.0000 </r>
       <r>   66.4621    0.0000 </r>
       <r>   67.4486    0.0000 </r>
       <r>   68.0804    0.0000 </r>
       <r>   68.9315    0.0000 </r>
       <r>   70.6849    0.0000 </r>
       <r>   70.7818    0.0000 </r>
       <r>   72.0789    0.0000 </r>
       <r>   72.7670    0.0000 </r>
       <r>   73.3472    0.0000 </r>
       <r>   74.0372    0.0000 </r>
       <r>   76.4808    0.0000 </r>
       <r>   77.5882    0.0000 </r>
       <r>   78.0294    0.0000 </r>
       <r>   81.2355    0.0000 </r>
       <r>   81.3219    0.0000 </r>
       <r>   81.5712    0.0000 </r>
       <r>   83.4507    0.0000 </r>
       <r>   84.4361    0.0000 </r>
       <r>   84.7631    0.0000 </r>
       <r>   85.6617    0.0000 </r>
       <r>   86.7836    0.0000 </r>
       <r>   88.2284    0.0000 </r>
       <r>   88.3047    0.0000 </r>
       <r>   89.1952    0.0000 </r>
       <r>   89.4172    0.0000 </r>
       <r>   90.2185    0.0000 </r>
       <r>   90.2433    0.0000 </r>
       <r>   91.0763    0.0000 </r>
       <r>   91.9214    0.0000 </r>
       <r>   93.3049    0.0000 </r>
       <r>   94.1396    0.0000 </r>
       <r>   95.2406    0.0000 </r>
       <r>   96.9953    0.0000 </r>
       <r>   97.8097    0.0000 </r>
       <r>   98.5799    0.0000 </r>
       <r>   98.9501    0.0000 </r>
       <r>   99.4027    0.0000 </r>
       <r>   99.9699    0.0000 </r>
       <r>  100.5073    0.0000 </r>
       <r>  100.7905    0.0000 </r>
       <r>  102.0925    0.0000 </r>
       <r>  103.2704    0.0000 </r>
       <r>  103.9066    0.0000 </r>
       <r>  104.9850    0.0000 </r>
       <r>  105.1654    0.0000 </r>
       <r>  106.3765    0.0000 </r>
       <r>  106.5029    0.0000 </r>
       <r>  107.1299    0.0000 </r>
       <r>  107.4091    0.0000 </r>
       <r>  107.6575    0.0000 </r>
       <r>  108.4853    0.0000 </r>
       <r>  108.6929    0.0000 </r>
       <r>  109.3211    0.0000 </r>
       <r>  109.5777    0.0000 </r>
       <r>  109.9409    0.0000 </r>
       <r>  111.2210    0.0000 </r>
       <r>  111.7290    0.0000 </r>
       <r>  111.8670    0.0000 </r>
       <r>  113.7351    0.0000 </r>
       <r>  115.6131    0.0000 </r>
       <r>  116.7344    0.0000 </r>
       <r>  116.7986    0.0000 </r>
       <r>  117.0853    0.0000 </r>
       <r>  117.7901    0.0000 </r>
       <r>  117.9609    0.0000 </r>
       <r>  118.0835    0.0000 </r>
       <r>  118.4994    0.0000 </r>
       <r>  118.6144    0.0000 </r>
       <r>  119.5326    0.0000 </r>
       <r>  119.6351    0.0000 </r>
       <r>  120.5337    0.0000 </r>
       <r>  121.1622    0.0000 </r>
       <r>  121.7229    0.0000 </r>
       <r>  122.4822    0.0000 </r>
      </set>
      <set comment="kpoint 8">
       <r>  -19.6697    1.0000 </r>
       <r>   -6.2020    1.0000 </r>
       <r>   -5.3839    1.0000 </r>
       <r>   -5.3326    1.0000 </r>
       <r>    6.3828    0.0000 </r>
       <r>    8.4119    0.0000 </r>
       <r>    9.7551    0.0000 </r>
       <r>   10.8637    0.0000 </r>
       <r>   13.3854    0.0000 </r>
       <r>   14.4815    0.0000 </r>
       <r>   16.0448    0.0000 </r>
       <r>   17.3750    0.0000 </r>
       <r>   19.0389    0.0000 </r>
       <r>   20.6567    0.0000 </r>
       <r>   23.2884    0.0000 </r>
       <r>   23.4692    0.0000 </r>
       <r>   24.8115    0.0000 </r>
       <r>   26.3562    0.0000 </r>
       <r>   29.5347    0.0000 </r>
       <r>   29.8915    0.0000 </r>
       <r>   31.1306    0.0000 </r>
       <r>   31.3247    0.0000 </r>
       <r>   33.2308    0.0000 </r>
       <r>   34.9901    0.0000 </r>
       <r>   35.8859    0.0000 </r>
       <r>   38.1009    0.0000 </r>
       <r>   38.4366    0.0000 </r>
       <r>   38.4554    0.0000 </r>
       <r>   41.1740    0.0000 </r>
       <r>   41.3556    0.0000 </r>
       <r>   43.8731    0.0000 </r>
       <r>   43.9908    0.0000 </r>
       <r>   44.9552    0.0000 </r>
       <r>   45.9415    0.0000 </r>
       <r>   48.0520    0.0000 </r>
       <r>   48.0539    0.0000 </r>
       <r>   49.6902    0.0000 </r>
       <r>   50.2251    0.0000 </r>
       <r>   52.0547    0.0000 </r>
       <r>   53.0950    0.0000 </r>
       <r>   53.8146    0.0000 </r>
       <r>   55.3669    0.0000 </r>
       <r>   56.0473    0.0000 </r>
       <r>   57.4852    0.0000 </r>
       <r>   57.5486    0.0000 </r>
       <r>   58.0100    0.0000 </r>
       <r>   59.8952    0.0000 </r>
       <r>   60.0598    0.0000 </r>
       <r>   62.6304    0.0000 </r>
       <r>   62.7831    0.0000 </r>
       <r>   63.5244    0.0000 </r>
       <r>   65.8293    0.0000 </r>
       <r>   66.9184    0.0000 </r>
       <r>   66.9334    0.0000 </r>
       <r>   67.4161    0.0000 </r>
       <r>   68.1647    0.0000 </r>
       <r>   69.9849    0.0000 </r>
       <r>   71.3506    0.0000 </r>
       <r>   71.3539    0.0000 </r>
       <r>   72.3056    0.0000 </r>
       <r>   72.7943    0.0000 </r>
       <r>   73.9971    0.0000 </r>
       <r>   74.3597    0.0000 </r>
       <r>   75.7107    0.0000 </r>
       <r>   76.4293    0.0000 </r>
       <r>   76.5449    0.0000 </r>
       <r>   77.1113    0.0000 </r>
       <r>   77.9711    0.0000 </r>
       <r>   78.3443    0.0000 </r>
       <r>   80.8314    0.0000 </r>
       <r>   81.0412    0.0000 </r>
       <r>   81.3316    0.0000 </r>
       <r>   81.7993    0.0000 </r>
       <r>   84.3078    0.0000 </r>
       <r>   84.6084    0.0000 </r>
       <r>   86.3184    0.0000 </r>
       <r>   87.5097    0.0000 </r>
       <r>   87.9199    0.0000 </r>
       <r>   88.5671    0.0000 </r>
       <r>   89.0650    0.0000 </r>
       <r>   89.3547    0.0000 </r>
       <r>   90.7392    0.0000 </r>
       <r>   91.0058    0.0000 </r>
       <r>   92.3156    0.0000 </r>
       <r>   92.8257    0.0000 </r>
       <r>   94.1267    0.0000 </r>
       <r>   94.6843    0.0000 </r>
       <r>   95.9080    0.0000 </r>
       <r>   97.0117    0.0000 </r>
       <r>   97.6350    0.0000 </r>
       <r>   98.8884    0.0000 </r>
       <r>   99.2169    0.0000 </r>
       <r>  100.5482    0.0000 </r>
       <r>  101.8096    0.0000 </r>
       <r>  102.4476    0.0000 </r>
       <r>  102.8865    0.0000 </r>
       <r>  103.5390    0.0000 </r>
       <r>  104.4119    0.0000 </r>
       <r>  105.0998    0.0000 </r>
       <r>  105.7963    0.0000 </r>
       <r>  106.5220    0.0000 </r>
       <r>  106.8734    0.0000 </r>
       <r>  107.0935    0.0000 </r>
       <r>  107.8514    0.0000 </r>
       <r>  108.4455    0.0000 </r>
       <r>  109.7009    0.0000 </r>
       <r>  109.8898    0.0000 </r>
       <r>  110.9344    0.0000 </r>
       <r>  110.9479    0.0000 </r>
       <r>  111.8753    0.0000 </r>
       <r>  112.4450    0.0000 </r>
       <r>  112.8355    0.0000 </r>
       <r>  113.5145    0.0000 </r>
       <r>  114.5185    0.0000 </r>
       <r>  114.7241    0.0000 </r>
       <r>  116.5299    0.0000 </r>
       <r>  117.5003    0.0000 </r>
       <r>  118.4825    0.0000 </r>
       <r>  119.1781    0.0000 </r>
       <r>  119.8135    0.0000 </r>
       <r>  119.9210    0.0000 </r>
       <r>  120.3619    0.0000 </r>
       <r>  121.3279    0.0000 </r>
       <r>  122.0634    0.0000 </r>
       <r>  123.0228    0.0000 </r>
       <r>  123.7771    0.0000 </r>
       <r>  123.9060    0.0000 </r>
       <r>  124.1406    0.0000 </r>
      </set>
      <set comment="kpoint 9">
       <r>  -19.6469    1.0000 </r>
       <r>   -6.3137    1.0000 </r>
       <r>   -5.4596    1.0000 </r>
       <r>   -5.3097    1.0000 </r>
       <r>    6.8275    0.0000 </r>
       <r>    8.2287    0.0000 </r>
       <r>    9.7380    0.0000 </r>
       <r>   10.6490    0.0000 </r>
       <r>   14.1297    0.0000 </r>
       <r>   14.6504    0.0000 </r>
       <r>   15.8628    0.0000 </r>
       <r>   16.6321    0.0000 </r>
       <r>   19.0049    0.0000 </r>
       <r>   19.4477    0.0000 </r>
       <r>   23.6767    0.0000 </r>
       <r>   24.6300    0.0000 </r>
       <r>   26.1069    0.0000 </r>
       <r>   27.5153    0.0000 </r>
       <r>   28.4988    0.0000 </r>
       <r>   28.8261    0.0000 </r>
       <r>   31.1446    0.0000 </r>
       <r>   31.4972    0.0000 </r>
       <r>   34.5944    0.0000 </r>
       <r>   35.1926    0.0000 </r>
       <r>   35.7252    0.0000 </r>
       <r>   36.4096    0.0000 </r>
       <r>   37.4951    0.0000 </r>
       <r>   38.6617    0.0000 </r>
       <r>   39.4604    0.0000 </r>
       <r>   40.3863    0.0000 </r>
       <r>   42.7271    0.0000 </r>
       <r>   44.3135    0.0000 </r>
       <r>   44.8494    0.0000 </r>
       <r>   46.5143    0.0000 </r>
       <r>   48.3411    0.0000 </r>
       <r>   48.5515    0.0000 </r>
       <r>   49.8371    0.0000 </r>
       <r>   50.1445    0.0000 </r>
       <r>   52.0870    0.0000 </r>
       <r>   53.2508    0.0000 </r>
       <r>   53.9782    0.0000 </r>
       <r>   55.9457    0.0000 </r>
       <r>   56.2151    0.0000 </r>
       <r>   57.0491    0.0000 </r>
       <r>   57.1211    0.0000 </r>
       <r>   59.3961    0.0000 </r>
       <r>   60.0790    0.0000 </r>
       <r>   61.6866    0.0000 </r>
       <r>   61.7788    0.0000 </r>
       <r>   63.9107    0.0000 </r>
       <r>   64.4195    0.0000 </r>
       <r>   65.6063    0.0000 </r>
       <r>   65.9381    0.0000 </r>
       <r>   67.8985    0.0000 </r>
       <r>   68.6836    0.0000 </r>
       <r>   68.9421    0.0000 </r>
       <r>   69.8733    0.0000 </r>
       <r>   70.2405    0.0000 </r>
       <r>   72.1219    0.0000 </r>
       <r>   72.7606    0.0000 </r>
       <r>   73.1866    0.0000 </r>
       <r>   73.8317    0.0000 </r>
       <r>   73.8575    0.0000 </r>
       <r>   75.6871    0.0000 </r>
       <r>   76.1348    0.0000 </r>
       <r>   76.2299    0.0000 </r>
       <r>   78.1432    0.0000 </r>
       <r>   78.2517    0.0000 </r>
       <r>   78.5176    0.0000 </r>
       <r>   78.8186    0.0000 </r>
       <r>   80.0729    0.0000 </r>
       <r>   82.3642    0.0000 </r>
       <r>   83.3508    0.0000 </r>
       <r>   83.7448    0.0000 </r>
       <r>   84.7705    0.0000 </r>
       <r>   84.8802    0.0000 </r>
       <r>   85.8207    0.0000 </r>
       <r>   86.4024    0.0000 </r>
       <r>   86.4952    0.0000 </r>
       <r>   88.7530    0.0000 </r>
       <r>   89.0072    0.0000 </r>
       <r>   89.4632    0.0000 </r>
       <r>   91.3201    0.0000 </r>
       <r>   91.8585    0.0000 </r>
       <r>   93.6031    0.0000 </r>
       <r>   94.2935    0.0000 </r>
       <r>   95.5524    0.0000 </r>
       <r>   96.7587    0.0000 </r>
       <r>   97.2828    0.0000 </r>
       <r>   97.3452    0.0000 </r>
       <r>   97.9677    0.0000 </r>
       <r>   98.1307    0.0000 </r>
       <r>   99.0679    0.0000 </r>
       <r>   99.7299    0.0000 </r>
       <r>  101.8724    0.0000 </r>
       <r>  102.5421    0.0000 </r>
       <r>  103.3171    0.0000 </r>
       <r>  104.7486    0.0000 </r>
       <r>  105.4008    0.0000 </r>
       <r>  105.4977    0.0000 </r>
       <r>  105.7799    0.0000 </r>
       <r>  106.9465    0.0000 </r>
       <r>  107.6785    0.0000 </r>
       <r>  108.1966    0.0000 </r>
       <r>  108.4947    0.0000 </r>
       <r>  109.3737    0.0000 </r>
       <r>  109.6411    0.0000 </r>
       <r>  110.8337    0.0000 </r>
       <r>  111.7966    0.0000 </r>
       <r>  113.1196    0.0000 </r>
       <r>  113.2634    0.0000 </r>
       <r>  113.9677    0.0000 </r>
       <r>  114.5135    0.0000 </r>
       <r>  115.4085    0.0000 </r>
       <r>  115.4764    0.0000 </r>
       <r>  116.1402    0.0000 </r>
       <r>  116.4683    0.0000 </r>
       <r>  117.3501    0.0000 </r>
       <r>  118.0526    0.0000 </r>
       <r>  118.5918    0.0000 </r>
       <r>  118.6713    0.0000 </r>
       <r>  118.7761    0.0000 </r>
       <r>  120.0355    0.0000 </r>
       <r>  123.4980    0.0000 </r>
       <r>  124.2355    0.0000 </r>
       <r>  124.4136    0.0000 </r>
       <r>  124.4863    0.0000 </r>
       <r>  124.8727    0.0000 </r>
      </set>
      <set comment="kpoint 10">
       <r>  -19.6919    1.0000 </r>
       <r>   -6.0819    1.0000 </r>
       <r>   -5.4413    1.0000 </r>
       <r>   -5.2382    1.0000 </r>
       <r>    6.0804    0.0000 </r>
       <r>    8.7194    0.0000 </r>
       <r>    9.7672    0.0000 </r>
       <r>   10.8873    0.0000 </r>
       <r>   12.5781    0.0000 </r>
       <r>   14.4891    0.0000 </r>
       <r>   16.2744    0.0000 </r>
       <r>   17.8091    0.0000 </r>
       <r>   19.5313    0.0000 </r>
       <r>   20.6266    0.0000 </r>
       <r>   22.0089    0.0000 </r>
       <r>   24.2474    0.0000 </r>
       <r>   24.6102    0.0000 </r>
       <r>   26.1986    0.0000 </r>
       <r>   28.6243    0.0000 </r>
       <r>   29.5138    0.0000 </r>
       <r>   30.9325    0.0000 </r>
       <r>   31.7337    0.0000 </r>
       <r>   34.2382    0.0000 </r>
       <r>   34.9687    0.0000 </r>
       <r>   34.9746    0.0000 </r>
       <r>   37.9390    0.0000 </r>
       <r>   39.6910    0.0000 </r>
       <r>   40.5817    0.0000 </r>
       <r>   40.9932    0.0000 </r>
       <r>   42.9279    0.0000 </r>
       <r>   43.2922    0.0000 </r>
[...]
     <r>    -0.3998     0.0000     0.0000     0.0000     0.0000     0.0000     0.0000 </r>
     <r>    -0.3898     0.0000     0.0000     0.0000     0.0000     0.0000     0.0000 </r>
     <r>    -0.3798     0.0000     0.0000     0.0000     0.0000     0.0000     0.0000 </r>
     <r>    -0.3698     0.0000     0.0000     0.0000     0.0000     0.0000     0.0000 </r>
     <r>    -0.3598     0.0000     0.0000     0.0000     0.0000     0.0000     0.0000 </r>
     <r>    -0.3497     0.0000     0.0000     0.0000     0.0000     0.0000     0.0000 </r>
     <r>    -0.3397     0.0000     0.0000     0.0000     0.0000     0.0000     0.0000 </r>
     <r>    -0.3297     0.0000     0.0000     0.0000     0.0000     0.0000     0.0000 </r>
     <r>    -0.3197     0.0000     0.0000     0.0000     0.0000     0.0000     0.0000 </r>
     <r>    -0.3097     0.0000     0.0000     0.0000     0.0000     0.0000     0.0000 </r>
     <r>    -0.2997     0.0000     0.0000     0.0000     0.0000     0.0000     0.0000 </r>
     <r>    -0.2897     0.0000     0.0000     0.0000     0.0000     0.0000     0.0000 </r>
     <r>    -0.2797     0.0000     0.0000     0.0000     0.0000     0.0000     0.0000 </r>
     <r>    -0.2697     0.0000     0.0000     0.0000     0.0000     0.0000     0.0000 </r>
     <r>    -0.2597     0.0000     0.0000     0.0000     0.0000     0.0000     0.0000 </r>
     <r>    -0.2496     0.0000     0.0000     0.0000     0.0000     0.0000     0.0000 </r>
     <r>    -0.2396     0.0000     0.0000     0.0000     0.0000     0.0000     0.0000 </r>
     <r>    -0.2296     0.0000     0.0000     0.0000     0.0000     0.0000     0.0000 </r>
     <r>    -0.2196     0.0000     0.0000     0.0000     0.0000     0.0000     0.0000 </r>
     <r>    -0.2096     0.0000     0.0000     0.0000     0.0000     0.0000     0.0000 </r>
     <r>    -0.1996     0.0000     0.0000     0.0000     0.0000     0.0000     0.0000 </r>
     <r>    -0.1896     0.0000     0.0000     0.0000     0.0000     0.0000     0.0000 </r>
     <r>    -0.1796     0.0000     0.0000     0.0000     0.0000     0.0000     0.0000 </r>
     <r>    -0.1696     0.0000     0.0000     0.0000     0.0000     0.0000     0.0000 </r>
     <r>    -0.1596     0.0000     0.0000     0.0000     0.0000     0.0000     0.0000 </r>
     <r>    -0.1495     0.0000     0.0000     0.0000     0.0000     0.0000     0.0000 </r>
     <r>    -0.1395     0.0000     0.0000     0.0000     0.0000     0.0000     0.0000 </r>
     <r>    -0.1295     0.0000     0.0000     0.0000     0.0000     0.0000     0.0000 </r>
     <r>    -0.1195     0.0000     0.0000     0.0000     0.0000     0.0000     0.0000 </r>
     <r>    -0.1095     0.0000     0.0000     0.0000     0.0000     0.0000     0.0000 </r>
     <r>    -0.0995     0.0000     0.0000     0.0000     0.0000     0.0000     0.0000 </r>
     <r>    -0.0895     0.0000     0.0000     0.0000     0.0000     0.0000     0.0000 </r>
     <r>    -0.0795     0.0000     0.0000     0.0000     0.0000     0.0000     0.0000 </r>
     <r>    -0.0695     0.0000     0.0000     0.0000     0.0000     0.0000     0.0000 </r>
     <r>    -0.0595     0.0000     0.0000     0.0000     0.0000     0.0000     0.0000 </r>
     <r>    -0.0494     0.0000     0.0000     0.0000     0.0000     0.0000     0.0000 </r>
     <r>    -0.0394     0.0000     0.0000     0.0000     0.0000     0.0000     0.0000 </r>
     <r>    -0.0294     0.0000     0.0000     0.0000     0.0000     0.0000     0.0000 </r>
     <r>    -0.0194     0.0000     0.0000     0.0000     0.0000     0.0000     0.0000 </r>
     <r>    -0.0094     0.0000     0.0000     0.0000     0.0000     0.0000     0.0000 </r>
     <r>     0.0006     0.0000     0.0000     0.0000     0.0000     0.0000     0.0000 </r>
     <r>     0.0106     0.0000     0.0000     0.0000     0.0000     0.0000     0.0000 </r>
     <r>     0.0206     0.0000     0.0000     0.0000     0.0000     0.0000     0.0000 </r>
     <r>     0.0306     0.0000     0.0000     0.0000     0.0000     0.0000     0.0000 </r>
    </set>
   </array>
  </conductivity>
  <dos>
   <i name="efermi">     -4.96936468 </i>
   <total>
    <array>
     <dimension dim="1">gridpoints</dimension>
     <dimension dim="2">spin</dimension>
     <field>energy</field>
     <field>total</field>
     <field>integrated</field>
     <set>
      <set comment="spin 1">
       <r>   -27.2074     0.0000     0.0000 </r>
       <r>   -26.6683     0.0000     0.0000 </r>
       <r>   -26.1292     0.0000     0.0000 </r>
       <r>   -25.5901     0.0000     0.0000 </r>
       <r>   -25.0510     0.0000     0.0000 </r>
       <r>   -24.5119     0.0000     0.0000 </r>
       <r>   -23.9728     0.0000     0.0000 </r>
       <r>   -23.4337     0.0000     0.0000 </r>
       <r>   -22.8946     0.0000     0.0000 </r>
       <r>   -22.3555     0.0000     0.0000 </r>
       <r>   -21.8164     0.0000     0.0000 </r>
       <r>   -21.2772     0.0000     0.0000 </r>
       <r>   -20.7381     0.0000     0.0000 </r>
       <r>   -20.1990     0.0000     0.0000 </r>
       <r>   -19.6599     0.0000     0.8455 </r>
       <r>   -19.1208     0.0000     2.0000 </r>
       <r>   -18.5817     0.0000     2.0000 </r>
       <r>   -18.0426     0.0000     2.0000 </r>
       <r>   -17.5035     0.0000     2.0000 </r>
       <r>   -16.9644     0.0000     2.0000 </r>
       <r>   -16.4253     0.0000     2.0000 </r>
       <r>   -15.8862     0.0000     2.0000 </r>
       <r>   -15.3471     0.0000     2.0000 </r>
       <r>   -14.8080     0.0000     2.0000 </r>
       <r>   -14.2689     0.0000     2.0000 </r>
       <r>   -13.7298     0.0000     2.0000 </r>
       <r>   -13.1907     0.0000     2.0000 </r>
       <r>   -12.6516     0.0000     2.0000 </r>
       <r>   -12.1125     0.0000     2.0000 </r>
       <r>   -11.5734     0.0000     2.0000 </r>
       <r>   -11.0343     0.0000     2.0000 </r>
       <r>   -10.4952     0.0000     2.0000 </r>
       <r>    -9.9561     0.0000     2.0000 </r>
       <r>    -9.4170     0.0000     2.0000 </r>
       <r>    -8.8779     0.0000     2.0000 </r>
       <r>    -8.3388     0.0000     2.0000 </r>
       <r>    -7.7997     0.0000     2.0000 </r>
       <r>    -7.2606     0.0000     2.0000 </r>
       <r>    -6.7215     0.0000     2.0000 </r>
       <r>    -6.1823     0.0000     2.4315 </r>
       <r>    -5.6432     0.0000     4.7522 </r>
       <r>    -5.1041     0.0000     8.0000 </r>
       <r>    -4.5650     0.0000     8.0000 </r>
       <r>    -4.0259     0.0000     8.0000 </r>
       <r>    -3.4868     0.0000     8.0000 </r>
       <r>    -2.9477     0.0000     8.0000 </r>
       <r>    -2.4086     0.0000     8.0000 </r>
       <r>    -1.8695     0.0000     8.0000 </r>
       <r>    -1.3304     0.0000     8.0000 </r>
       <r>    -0.7913     0.0000     8.0000 </r>
       <r>    -0.2522     0.0000     8.0000 </r>
       <r>     0.2869     0.0000     8.0000 </r>
       <r>     0.8260     0.0000     8.0000 </r>
       <r>     1.3651     0.0000     8.0000 </r>
       <r>     1.9042     0.0000     8.0000 </r>
       <r>     2.4433     0.0000     8.0000 </r>
       <r>     2.9824     0.0000     8.0000 </r>
       <r>     3.5215     0.0000     8.0000 </r>
       <r>     4.0606     0.0000     8.0058 </r>
       <r>     4.5997     0.0000     8.0875 </r>
       <r>     5.1388     0.0000     8.1574 </r>
       <r>     5.6779     0.0000     8.3440 </r>
       <r>     6.2170     0.0649     8.6939 </r>
       <r>     6.7561     0.0000     9.0904 </r>
       <r>     7.2952     0.0000    10.0000 </r>
       <r>     7.8343     0.1298    10.1050 </r>
       <r>     8.3734     0.0000    11.1545 </r>
       <r>     8.9126     0.0000    11.7259 </r>
       <r>     9.4517     0.0000    12.9621 </r>
       <r>     9.9908     0.0000    13.6035 </r>
       <r>    10.5299     0.0000    13.9067 </r>
       <r>    11.0690     0.0000    14.6006 </r>
       <r>    11.6081     0.0000    15.4752 </r>
       <r>    12.1472     0.0000    16.0350 </r>
       <r>    12.6863     0.0000    16.5481 </r>
       <r>    13.2254     0.0000    16.9679 </r>
       <r>    13.7645     0.0000    17.7376 </r>
       <r>    14.3036     0.0000    18.4257 </r>
       <r>    14.8427     0.0000    19.5802 </r>
       <r>    15.3818     0.0000    20.0933 </r>
       <r>    15.9209     0.0000    20.5889 </r>
       <r>    16.4600     0.0000    21.5452 </r>
       <r>    16.9991     0.0000    22.3615 </r>
       <r>    17.5382     0.0000    22.7230 </r>
       <r>    18.0773     0.0000    23.2828 </r>
       <r>    18.6164     0.1298    24.6297 </r>
       <r>    19.1555     0.2596    25.5510 </r>
       <r>    19.6946     0.0000    26.0875 </r>
       <r>    20.2337     0.0000    26.7872 </r>
       <r>    20.7728     0.0000    27.4927 </r>
       <r>    21.3119     0.0000    28.0641 </r>
       <r>    21.8510     0.0000    28.2274 </r>
       <r>    22.3901     0.1729    28.9270 </r>
       <r>    22.9292     0.0000    29.6268 </r>
       <r>    23.4683     0.0267    29.9561 </r>
       <r>    24.0075     0.0000    30.9563 </r>
       <r>    24.5466     0.0000    31.7959 </r>
       <r>    25.0857     0.0000    32.9971 </r>
       <r>    25.6248     0.1298    33.4752 </r>
       <r>    26.1639     0.0000    33.9650 </r>
       <r>    26.7030     0.0000    34.9096 </r>
       <r>    27.2421     0.0000    35.5918 </r>
       <r>    27.7812     0.0000    36.3382 </r>
       <r>    28.3203     0.5192    36.9155 </r>
       <r>    28.8594     0.0000    38.1866 </r>
       <r>    29.3985     0.0000    38.8513 </r>
       <r>    29.9376     0.0000    40.0758 </r>
       <r>    30.4767     0.0000    40.2624 </r>
       <r>    31.0158     0.0000    40.8921 </r>
       <r>    31.5549     0.1556    42.2938 </r>
       <r>    32.0940     0.0000    42.8280 </r>
       <r>    32.6331     0.1057    43.5963 </r>
       <r>    33.1722     0.0000    44.6356 </r>
       <r>    33.7113     0.0013    45.2660 </r>
       <r>    34.2504     0.0000    46.3149 </r>
       <r>    34.7895     0.0019    47.2838 </r>
       <r>    35.3286     0.0000    48.1341 </r>
       <r>    35.8677     0.0000    48.7638 </r>
       <r>    36.4068     0.0000    49.7668 </r>
       <r>    36.9459     0.0000    50.3965 </r>
       <r>    37.4850     0.0000    51.3236 </r>
       <r>    38.0241     0.0000    52.3207 </r>
       <r>    38.5632     0.0337    53.6100 </r>
       <r>    39.1024     0.0000    54.4198 </r>
       <r>    39.6415     0.0000    55.1662 </r>
       <r>    40.1806     0.0000    56.0058 </r>
       <r>    40.7197     0.0000    57.0554 </r>
       <r>    41.2588     0.2596    58.2799 </r>
       <r>    41.7979     0.0000    58.9796 </r>
       <r>    42.3370     0.1126    59.9499 </r>
       <r>    42.8761     0.0000    60.5539 </r>
       <r>    43.4152     0.0000    61.5102 </r>
       <r>    43.9543     0.2596    62.3032 </r>
       <r>    44.4934     0.0000    63.3994 </r>
       <r>    45.0325     0.0717    64.6509 </r>
       <r>    45.5716     0.0000    65.6618 </r>
       <r>    46.1107     0.2596    67.1079 </r>
       <r>    46.6498     0.1298    68.0408 </r>
       <r>    47.1889     0.0000    68.7988 </r>
       <r>    47.7280     0.0000    69.4227 </r>
       <r>    48.2671     0.0000    70.6531 </r>
       <r>    48.8062     0.0000    71.2128 </r>
       <r>    49.3453     0.0000    71.9475 </r>
       <r>    49.8844     0.0000    73.3003 </r>
       <r>    50.4235     0.0000    74.0583 </r>
       <r>    50.9626     0.0000    75.5977 </r>
       <r>    51.5017     0.0000    75.8892 </r>
       <r>    52.0408     0.0000    76.9038 </r>
       <r>    52.5799     0.0000    77.9883 </r>
       <r>    53.1190     0.0000    78.8863 </r>
       <r>    53.6581     0.0000    80.2741 </r>
       <r>    54.1973     0.0000    81.9767 </r>
       <r>    54.7364     0.0000    82.7638 </r>
       <r>    55.2755     0.0000    83.4286 </r>
       <r>    55.8146     0.0628    84.1271 </r>
       <r>    56.3537     0.0000    85.4577 </r>
       <r>    56.8928     0.0000    86.4840 </r>
       <r>    57.4319     0.0000    87.4927 </r>
       <r>    57.9710     0.0000    88.9971 </r>
       <r>    58.5101     0.0000    90.1050 </r>
       <r>    59.0492     0.0000    91.2595 </r>
       <r>    59.5883     0.0000    92.2041 </r>
       <r>    60.1274     0.0000    93.7901 </r>
       <r>    60.6665     0.0000    94.7114 </r>
       <r>    61.2056     0.0000    96.1108 </r>
       <r>    61.7447     0.0000    97.2653 </r>
       <r>    62.2838     0.0108    98.5015 </r>
       <r>    62.8229     0.2665    99.4498 </r>
       <r>    63.3620     0.2596   100.4490 </r>
       <r>    63.9011     0.0000   101.4286 </r>
       <r>    64.4402     0.0000   102.2449 </r>
       <r>    64.9793     0.0000   103.5044 </r>
       <r>    65.5184     0.0000   104.6589 </r>
       <r>    66.0575     0.0000   106.0700 </r>
       <r>    66.5966     0.0168   106.7438 </r>
       <r>    67.1357     0.0000   108.1574 </r>
       <r>    67.6748     0.0000   109.3819 </r>
       <r>    68.2139     0.0000   110.9679 </r>
       <r>    68.7530     0.0000   112.0875 </r>
       <r>    69.2921     0.0000   113.2187 </r>
       <r>    69.8313     0.0000   114.1516 </r>
       <r>    70.3704     0.0000   115.0379 </r>
       <r>    70.9095     0.0000   116.4606 </r>
       <r>    71.4486     0.0649   117.1720 </r>
       <r>    71.9877     0.0000   118.4198 </r>
       <r>    72.5268     0.0000   119.9475 </r>
       <r>    73.0659     0.0000   121.3469 </r>
       <r>    73.6050     0.0000   122.8513 </r>
       <r>    74.1441     0.1298   124.4490 </r>
       <r>    74.6832     0.0000   125.7085 </r>
       <r>    75.2223     0.0000   126.4082 </r>
       <r>    75.7614     0.0000   127.5977 </r>
       <r>    76.3005     0.0000   128.5948 </r>
       <r>    76.8396     0.0000   129.7959 </r>
       <r>    77.3787     0.0000   130.4956 </r>
       <r>    77.9178     0.0000   132.0350 </r>
       <r>    78.4569     0.0000   133.9417 </r>
       <r>    78.9960     0.0000   134.6764 </r>
       <r>    79.5351     0.0000   135.6910 </r>
       <r>    80.0742     0.2527   136.6318 </r>
       <r>    80.6133     0.0401   137.9167 </r>
       <r>    81.1524     0.0000   139.2478 </r>
       <r>    81.6915     0.0000   141.1020 </r>
       <r>    82.2306     0.0000   142.5015 </r>
       <r>    82.7697     0.0000   143.4402 </r>
       <r>    83.3088     0.0000   144.4548 </r>
       <r>    83.8479     0.0000   145.8542 </r>
       <r>    84.3870     0.0000   147.0554 </r>
       <r>    84.9262     0.0000   148.9446 </r>
       <r>    85.4653     0.0000   150.0991 </r>
       <r>    86.0044     0.0000   151.4694 </r>
       <r>    86.5435     0.0000   152.8921 </r>
       <r>    87.0826     0.3894   153.9825 </r>
       <r>    87.6217     0.0000   155.0087 </r>
       <r>    88.1608     0.0000   156.1983 </r>
       <r>    88.6999     0.0000   158.1691 </r>
       <r>    89.2390     0.0000   159.8717 </r>
       <r>    89.7781     0.0000   161.2012 </r>
       <r>    90.3172     0.0000   162.1341 </r>
       <r>    90.8563     0.0000   163.1953 </r>
       <r>    91.3954     0.0000   164.7697 </r>
       <r>    91.9345     0.0000   166.0991 </r>
       <r>    92.4736     0.0000   167.6735 </r>
       <r>    93.0127     0.0000   169.1429 </r>
       <r>    93.5518     0.0000   170.6997 </r>
       <r>    94.0909     0.0000   171.6443 </r>
       <r>    94.6300     0.0000   172.3557 </r>
       <r>    95.1691     0.0000   174.0350 </r>
       <r>    95.7082     0.0000   175.5510 </r>
       <r>    96.2473     0.0000   176.6472 </r>
       <r>    96.7864     0.0000   177.8017 </r>
       <r>    97.3255     0.0323   178.8046 </r>
       <r>    97.8646     0.1297   180.5306 </r>
       <r>    98.4037     0.0000   182.0233 </r>
       <r>    98.9428     0.0000   183.2711 </r>
       <r>    99.4819     0.0000   185.7493 </r>
       <r>   100.0211     0.0000   186.6414 </r>
       <r>   100.5602     0.0000   187.8950 </r>
       <r>   101.0993     0.3894   189.5860 </r>
       <r>   101.6384     0.3461   190.9155 </r>
       <r>   102.1775     0.0000   192.6356 </r>
       <r>   102.7166     0.0000   193.7201 </r>
       <r>   103.2557     0.0000   194.9038 </r>
       <r>   103.7948     0.1031   195.9389 </r>
       <r>   104.3339     0.0000   197.4286 </r>
       <r>   104.8730     0.0000   198.5481 </r>
       <r>   105.4121     0.2596   200.6881 </r>
       <r>   105.9512     0.0002   202.5074 </r>
       <r>   106.4903     0.0000   203.4577 </r>
       <r>   107.0294     0.0000   204.6356 </r>
       <r>   107.5685     0.0000   206.1983 </r>
       <r>   108.1076     0.0067   207.7879 </r>
       <r>   108.6467     0.0000   209.3586 </r>
       <r>   109.1858     0.1298   211.0379 </r>
       <r>   109.7249     0.0000   212.9504 </r>
       <r>   110.2640     0.0089   214.3896 </r>
       <r>   110.8031     0.0000   215.2711 </r>
       <r>   111.3422     0.0000   217.0554 </r>
       <r>   111.8813     0.5192   218.8746 </r>
       <r>   112.4204     0.3433   219.6195 </r>
       <r>   112.9595     0.0000   221.0321 </r>
       <r>   113.4986     0.0000   222.4082 </r>
       <r>   114.0377     0.0000   223.7609 </r>
       <r>   114.5768     0.0000   225.4052 </r>
       <r>   115.1160     0.0000   226.7464 </r>
       <r>   115.6551     0.0000   228.1574 </r>
       <r>   116.1942     0.1731   229.7609 </r>
       <r>   116.7333     0.0132   230.9226 </r>
       <r>   117.2724     0.0000   232.6764 </r>
       <r>   117.8115     0.0000   233.9825 </r>
       <r>   118.3506     0.0000   235.9242 </r>
       <r>   118.8897     0.0000   237.6735 </r>
       <r>   119.4288     0.2596   238.5015 </r>
       <r>   119.9679     0.0000   241.0437 </r>
       <r>   120.5070     0.0000   242.7872 </r>
       <r>   121.0461     0.2596   244.1749 </r>
       <r>   121.5852     0.0000   245.8426 </r>
       <r>   122.1243     0.0000   247.2653 </r>
       <r>   122.6634     0.0000   248.2799 </r>
       <r>   123.2025     0.0000   249.4344 </r>
       <r>   123.7416     0.0000   250.3790 </r>
       <r>   124.2807     0.0000   252.0816 </r>
       <r>   124.8198     0.0000   252.6064 </r>
       <r>   125.3589     0.0000   253.4461 </r>
       <r>   125.8980     0.0000   254.4257 </r>
       <r>   126.4371     0.0000   255.3353 </r>
       <r>   126.9762     0.0000   255.6501 </r>
       <r>   127.5153     0.0000   256.0000 </r>
       <r>   128.0544     0.0000   256.0000 </r>
       <r>   128.5935     0.0000   256.0000 </r>
       <r>   129.1326     0.0000   256.0000 </r>
       <r>   129.6717     0.0000   256.0000 </r>
       <r>   130.2109     0.0000   256.0000 </r>
       <r>   130.7500     0.0000   256.0000 </r>
       <r>   131.2891     0.0000   256.0000 </r>
       <r>   131.8282     0.0000   256.0000 </r>
       <r>   132.3673     0.0000   256.0000 </r>
       <r>   132.9064     0.0000   256.0000 </r>
       <r>   133.4455     0.0000   256.0000 </r>
       <r>   133.9846     0.0000   256.0000 </r>
       <r>   134.5237     0.0000   256.0000 </r>
      </set>
     </set>
    </array>
   </total>
  </dos>
 </calculation>
 <structure name="finalpos" >
  <crystal>
   <varray name="basis" >
    <v>       3.74748430       0.00000000       0.00000000 </v>
    <v>       1.87374215       3.24541660      -0.00000000 </v>
    <v>       1.87374215       1.08180553       3.05980811 </v>
   </varray>
   <i name="volume">     37.21383833 </i>
   <varray name="rec_basis" >
    <v>       0.26684568      -0.15406343      -0.10893929 </v>
    <v>       0.00000000       0.30812685      -0.10893929 </v>
    <v>      -0.00000000       0.00000000       0.32681788 </v>
   </varray>
  </crystal>
  <varray name="positions" >
   <v>       0.00000000       0.00000000       0.00000000 </v>
  </varray>
  <varray name="velocities" >
   <v>       0.00000000       0.00000000       0.00000000 </v>
  </varray>
 </structure>
</modeling>
