   1   1   0   0
  0.6470000E+02  0.4506158E-09  0.4506158E-09  0.4506158E-09  0.5000000E-15
  1.000000000000000E-004
  CAR 
 Og_FCC                                  
     15.33109054    -31.36829566  301      0.49874687      1.00000000
    -31.368  0.0000E+00  0.0000E+00
    -31.213  0.0000E+00  0.0000E+00
    -31.057  0.0000E+00  0.0000E+00
    -30.901  0.0000E+00  0.0000E+00
    -30.746  0.0000E+00  0.0000E+00
    -30.590  0.0000E+00  0.0000E+00
    -30.434  0.0000E+00  0.0000E+00
    -30.279  0.0000E+00  0.0000E+00
    -30.123  0.0000E+00  0.0000E+00
    -29.967  0.0000E+00  0.0000E+00
    -29.812  0.0000E+00  0.0000E+00
    -29.656 -0.2737E-27 -0.4260E-28
    -29.500 -0.2311E-09 -0.3597E-10
    -29.345 -0.4230E+00 -0.6584E-01
    -29.189  0.6655E+02  0.1029E+02
    -29.033 -0.1882E+01  0.1000E+02
    -28.878 -0.2183E-05  0.1000E+02
    -28.722  0.0000E+00  0.1000E+02
    -28.566  0.0000E+00  0.1000E+02
    -28.411  0.0000E+00  0.1000E+02
    -28.255  0.0000E+00  0.1000E+02
    -28.099  0.0000E+00  0.1000E+02
    -27.944  0.0000E+00  0.1000E+02
    -27.788  0.0000E+00  0.1000E+02
    -27.632  0.0000E+00  0.1000E+02
    -27.477  0.0000E+00  0.1000E+02
    -27.321  0.0000E+00  0.1000E+02
    -27.165  0.0000E+00  0.1000E+02
    -27.010  0.0000E+00  0.1000E+02
    -26.854  0.0000E+00  0.1000E+02
    -26.698  0.0000E+00  0.1000E+02
    -26.543  0.0000E+00  0.1000E+02
    -26.387  0.0000E+00  0.1000E+02
    -26.231  0.0000E+00  0.1000E+02
    -26.076  0.0000E+00  0.1000E+02
    -25.920  0.0000E+00  0.1000E+02
    -25.764  0.0000E+00  0.1000E+02
    -25.609  0.0000E+00  0.1000E+02
    -25.453  0.0000E+00  0.1000E+02
    -25.297  0.0000E+00  0.1000E+02
    -25.142  0.0000E+00  0.1000E+02
    -24.986  0.0000E+00  0.1000E+02
    -24.830  0.0000E+00  0.1000E+02
    -24.675  0.0000E+00  0.1000E+02
    -24.519  0.0000E+00  0.1000E+02
    -24.363  0.0000E+00  0.1000E+02
    -24.208  0.0000E+00  0.1000E+02
    -24.052  0.0000E+00  0.1000E+02
    -23.896  0.0000E+00  0.1000E+02
    -23.741  0.0000E+00  0.1000E+02
    -23.585  0.0000E+00  0.1000E+02
    -23.429  0.0000E+00  0.1000E+02
    -23.274  0.0000E+00  0.1000E+02
    -23.118  0.0000E+00  0.1000E+02
    -22.962  0.0000E+00  0.1000E+02
    -22.807  0.0000E+00  0.1000E+02
    -22.651 -0.1185E-50  0.1000E+02
    -22.495 -0.6715E-26  0.1000E+02
    -22.340 -0.1724E-09  0.1000E+02
    -22.184 -0.2221E-01  0.9997E+01
    -22.028  0.8953E+01  0.1139E+02
    -21.873  0.3917E+01  0.1200E+02
    -21.717 -0.3665E-03  0.1200E+02
    -21.561  0.0000E+00  0.1200E+02
    -21.406  0.0000E+00  0.1200E+02
    -21.250  0.0000E+00  0.1200E+02
    -21.094  0.0000E+00  0.1200E+02
    -20.939  0.0000E+00  0.1200E+02
    -20.783  0.0000E+00  0.1200E+02
    -20.627  0.0000E+00  0.1200E+02
    -20.472  0.0000E+00  0.1200E+02
    -20.316  0.0000E+00  0.1200E+02
    -20.160  0.0000E+00  0.1200E+02
    -20.005  0.0000E+00  0.1200E+02
    -19.849  0.0000E+00  0.1200E+02
    -19.693  0.0000E+00  0.1200E+02
    -19.538  0.0000E+00  0.1200E+02
    -19.382  0.0000E+00  0.1200E+02
    -19.226  0.0000E+00  0.1200E+02
    -19.071  0.0000E+00  0.1200E+02
    -18.915  0.0000E+00  0.1200E+02
    -18.759  0.0000E+00  0.1200E+02
    -18.604  0.0000E+00  0.1200E+02
    -18.448  0.0000E+00  0.1200E+02
    -18.292  0.0000E+00  0.1200E+02
    -18.137  0.0000E+00  0.1200E+02
    -17.981  0.0000E+00  0.1200E+02
    -17.825  0.0000E+00  0.1200E+02
    -17.670  0.0000E+00  0.1200E+02
    -17.514  0.0000E+00  0.1200E+02
    -17.358  0.0000E+00  0.1200E+02
    -17.203  0.0000E+00  0.1200E+02
    -17.047  0.0000E+00  0.1200E+02
    -16.891  0.0000E+00  0.1200E+02
    -16.736  0.0000E+00  0.1200E+02
    -16.580  0.0000E+00  0.1200E+02
    -16.424  0.0000E+00  0.1200E+02
    -16.269  0.0000E+00  0.1200E+02
    -16.113  0.0000E+00  0.1200E+02
    -15.957  0.0000E+00  0.1200E+02
    -15.802  0.0000E+00  0.1200E+02
    -15.646  0.0000E+00  0.1200E+02
    -15.491  0.0000E+00  0.1200E+02
    -15.335  0.0000E+00  0.1200E+02
    -15.179  0.0000E+00  0.1200E+02
    -15.024  0.0000E+00  0.1200E+02
    -14.868  0.0000E+00  0.1200E+02
    -14.712  0.0000E+00  0.1200E+02
    -14.557  0.0000E+00  0.1200E+02
    -14.401  0.0000E+00  0.1200E+02
    -14.245  0.0000E+00  0.1200E+02
    -14.090  0.0000E+00  0.1200E+02
    -13.934  0.0000E+00  0.1200E+02
    -13.778  0.0000E+00  0.1200E+02
    -13.623  0.0000E+00  0.1200E+02
    -13.467  0.0000E+00  0.1200E+02
    -13.311  0.0000E+00  0.1200E+02
    -13.156  0.0000E+00  0.1200E+02
    -13.000  0.0000E+00  0.1200E+02
    -12.844  0.0000E+00  0.1200E+02
    -12.689  0.0000E+00  0.1200E+02
    -12.533  0.0000E+00  0.1200E+02
    -12.377  0.0000E+00  0.1200E+02
    -12.222  0.0000E+00  0.1200E+02
    -12.066  0.0000E+00  0.1200E+02
    -11.910  0.0000E+00  0.1200E+02
    -11.755  0.0000E+00  0.1200E+02
    -11.599  0.0000E+00  0.1200E+02
    -11.443  0.0000E+00  0.1200E+02
    -11.288  0.0000E+00  0.1200E+02
    -11.132  0.0000E+00  0.1200E+02
    -10.976  0.0000E+00  0.1200E+02
    -10.821  0.0000E+00  0.1200E+02
    -10.665  0.0000E+00  0.1200E+02
    -10.509  0.0000E+00  0.1200E+02
    -10.354  0.0000E+00  0.1200E+02
    -10.198  0.0000E+00  0.1200E+02
    -10.042  0.0000E+00  0.1200E+02
     -9.887  0.0000E+00  0.1200E+02
     -9.731  0.0000E+00  0.1200E+02
     -9.575  0.0000E+00  0.1200E+02
     -9.420  0.0000E+00  0.1200E+02
     -9.264  0.0000E+00  0.1200E+02
     -9.108  0.0000E+00  0.1200E+02
     -8.953  0.0000E+00  0.1200E+02
     -8.797  0.0000E+00  0.1200E+02
     -8.641  0.0000E+00  0.1200E+02
     -8.486  0.0000E+00  0.1200E+02
     -8.330  0.0000E+00  0.1200E+02
     -8.174  0.0000E+00  0.1200E+02
     -8.019  0.0000E+00  0.1200E+02
     -7.863  0.0000E+00  0.1200E+02
     -7.707  0.0000E+00  0.1200E+02
     -7.552  0.0000E+00  0.1200E+02
     -7.396  0.0000E+00  0.1200E+02
     -7.240  0.0000E+00  0.1200E+02
     -7.085  0.0000E+00  0.1200E+02
     -6.929  0.0000E+00  0.1200E+02
     -6.773  0.0000E+00  0.1200E+02
     -6.618  0.0000E+00  0.1200E+02
     -6.462  0.0000E+00  0.1200E+02
     -6.306  0.0000E+00  0.1200E+02
     -6.151  0.0000E+00  0.1200E+02
     -5.995  0.0000E+00  0.1200E+02
     -5.839  0.0000E+00  0.1200E+02
     -5.684  0.0000E+00  0.1200E+02
     -5.528  0.0000E+00  0.1200E+02
     -5.372  0.0000E+00  0.1200E+02
     -5.217  0.0000E+00  0.1200E+02
     -5.061  0.0000E+00  0.1200E+02
     -4.905  0.0000E+00  0.1200E+02
     -4.750  0.0000E+00  0.1200E+02
     -4.594  0.0000E+00  0.1200E+02
     -4.438  0.0000E+00  0.1200E+02
     -4.283  0.0000E+00  0.1200E+02
     -4.127  0.0000E+00  0.1200E+02
     -3.971  0.0000E+00  0.1200E+02
     -3.816  0.0000E+00  0.1200E+02
     -3.660  0.0000E+00  0.1200E+02
     -3.504  0.0000E+00  0.1200E+02
     -3.349  0.0000E+00  0.1200E+02
     -3.193  0.0000E+00  0.1200E+02
     -3.037  0.0000E+00  0.1200E+02
     -2.882  0.0000E+00  0.1200E+02
     -2.726  0.0000E+00  0.1200E+02
     -2.570 -0.1793E-50  0.1200E+02
     -2.415 -0.1049E-25  0.1200E+02
     -2.259 -0.1864E-09  0.1200E+02
     -2.103 -0.5925E-02  0.1200E+02
     -1.948  0.5622E+00  0.1209E+02
     -1.792  0.1493E+01  0.1232E+02
     -1.636  0.3327E+01  0.1284E+02
     -1.481  0.3953E+01  0.1345E+02
     -1.325  0.1558E+01  0.1369E+02
     -1.169  0.8347E+00  0.1382E+02
     -1.014  0.1704E+01  0.1409E+02
     -0.858  0.1226E+01  0.1428E+02
     -0.702  0.1934E+01  0.1458E+02
     -0.547  0.1156E+01  0.1476E+02
     -0.391  0.4403E+01  0.1545E+02
     -0.235  0.2835E+01  0.1589E+02
     -0.080  0.3873E+01  0.1649E+02
      0.076  0.3511E+01  0.1704E+02
      0.232  0.3671E+01  0.1761E+02
      0.387  0.1920E+01  0.1791E+02
      0.543  0.5958E+00  0.1800E+02
      0.699 -0.6085E-02  0.1800E+02
      0.854 -0.9168E-09  0.1800E+02
      1.010  0.0000E+00  0.1800E+02
      1.166  0.0000E+00  0.1800E+02
      1.321  0.0000E+00  0.1800E+02
      1.477  0.0000E+00  0.1800E+02
      1.633  0.0000E+00  0.1800E+02
      1.788  0.0000E+00  0.1800E+02
      1.944  0.0000E+00  0.1800E+02
      2.100  0.0000E+00  0.1800E+02
      2.255  0.0000E+00  0.1800E+02
      2.411  0.0000E+00  0.1800E+02
      2.567 -0.1865E-43  0.1800E+02
      2.722 -0.4196E-21  0.1800E+02
      2.878 -0.2632E-07  0.1800E+02
      3.034  0.1887E-02  0.1800E+02
      3.189  0.1575E-01  0.1800E+02
      3.345 -0.1484E-04  0.1800E+02
      3.501 -0.1321E-08  0.1800E+02
      3.656 -0.4989E-02  0.1800E+02
      3.812  0.1474E+00  0.1802E+02
      3.968  0.9157E-01  0.1804E+02
      4.123  0.1277E-01  0.1804E+02
      4.279 -0.2016E-06  0.1804E+02
      4.435 -0.4921E-02  0.1804E+02
      4.590  0.2175E+00  0.1807E+02
      4.746  0.2877E-01  0.1808E+02
      4.902  0.5050E+00  0.1816E+02
      5.057  0.2917E-01  0.1816E+02
      5.213 -0.2826E-04  0.1816E+02
      5.369  0.8558E-01  0.1818E+02
      5.524  0.7231E+00  0.1829E+02
      5.680  0.3488E+00  0.1834E+02
      5.836  0.5933E+00  0.1843E+02
      5.991  0.1379E+01  0.1865E+02
      6.147  0.9042E+00  0.1879E+02
      6.303  0.5478E+00  0.1888E+02
      6.458  0.9595E+00  0.1902E+02
      6.614  0.1389E+01  0.1924E+02
      6.770  0.1696E+01  0.1950E+02
      6.925  0.1470E+01  0.1973E+02
      7.081  0.1834E-01  0.1974E+02
      7.237  0.5677E+00  0.1982E+02
      7.392  0.6741E+00  0.1993E+02
      7.548  0.1031E+01  0.2009E+02
      7.704  0.6448E+00  0.2019E+02
      7.859  0.4021E-01  0.2020E+02
      8.015  0.1127E+01  0.2037E+02
      8.171  0.8683E+00  0.2051E+02
      8.326  0.1760E+01  0.2078E+02
      8.482  0.2975E+01  0.2124E+02
      8.638  0.9705E+00  0.2140E+02
      8.793  0.1490E+01  0.2163E+02
      8.949  0.2815E+01  0.2207E+02
      9.105  0.2999E+01  0.2253E+02
      9.260  0.1004E+01  0.2269E+02
      9.416  0.2362E+00  0.2273E+02
      9.571  0.4388E+00  0.2279E+02
      9.727  0.4003E+00  0.2286E+02
      9.883  0.8944E+00  0.2300E+02
     10.038  0.3119E+01  0.2348E+02
     10.194  0.2860E+01  0.2393E+02
     10.350  0.1733E+01  0.2420E+02
     10.505  0.2302E+01  0.2455E+02
     10.661  0.2348E+01  0.2492E+02
     10.817  0.1461E+01  0.2515E+02
     10.972  0.4272E+00  0.2521E+02
     11.128  0.8197E+00  0.2534E+02
     11.284  0.5280E+00  0.2542E+02
     11.439  0.4298E+00  0.2549E+02
     11.595  0.1276E+00  0.2551E+02
     11.751  0.8028E+00  0.2563E+02
     11.906  0.7910E+00  0.2576E+02
     12.062  0.2644E+00  0.2580E+02
     12.218  0.6658E+00  0.2590E+02
     12.373  0.5195E+00  0.2598E+02
     12.529 -0.4042E-03  0.2598E+02
     12.685 -0.7394E-48  0.2598E+02
     12.840 -0.6672E-24  0.2598E+02
     12.996 -0.1782E-08  0.2598E+02
     13.152 -0.3591E-02  0.2598E+02
     13.307  0.1102E+00  0.2600E+02
     13.463 -0.8980E-03  0.2600E+02
     13.619  0.0000E+00  0.2600E+02
     13.774  0.0000E+00  0.2600E+02
     13.930  0.0000E+00  0.2600E+02
     14.086  0.0000E+00  0.2600E+02
     14.241  0.0000E+00  0.2600E+02
     14.397  0.0000E+00  0.2600E+02
     14.553  0.0000E+00  0.2600E+02
     14.708  0.0000E+00  0.2600E+02
     14.864  0.0000E+00  0.2600E+02
     15.020  0.0000E+00  0.2600E+02
     15.175  0.0000E+00  0.2600E+02
     15.331  0.0000E+00  0.2600E+02
