    1    1    1    1
  0.6470000E+02  0.4506158E-09  0.4506158E-09  0.4506158E-09  0.5000000E-15
  1.000000000000000E-004
  CAR 
 Og_FCC                                  
     18     35     13
 
  0.0000000E+00  0.0000000E+00  0.0000000E+00  0.1371742E-02
    1      -29.243765   1.000000
    2      -29.243765   1.000000
    3      -29.243765   1.000000
    4      -29.242604   1.000000
    5      -29.242604   1.000000
    6      -22.115872   1.000000
    7        0.486518   0.700273
    8        0.486518   0.700273
    9        0.486521   0.700227
   10        3.060750   0.000000
   11       10.086134   0.000000
   12       10.086136   0.000000
   13       10.086136   0.000000
 
  0.1111111E+00 -0.5932251E-17  0.1387779E-16  0.1097394E-01
    1      -29.243665   1.000000
    2      -29.243538   1.000000
    3      -29.243537   1.000000
    4      -29.242563   1.000000
    5      -29.242562   1.000000
    6      -22.107617   1.000000
    7       -0.066575   1.000000
    8        0.445640   1.030432
    9        0.445643   1.030428
   10        3.716385   0.000000
   11        9.377644   0.000000
   12       10.211703   0.000000
   13       10.211704   0.000000
 
  0.2222222E+00 -0.2574229E-16  0.0000000E+00  0.1097394E-01
    1      -29.243561   1.000000
    2      -29.243560   1.000000
    3      -29.243167   1.000000
    4      -29.241510   1.000000
    5      -29.241509   1.000000
    6      -22.086582   1.000000
    7       -0.956796   1.000000
    8        0.345450   1.000064
    9        0.345453   1.000064
   10        4.763948   0.000000
   11        9.115052   0.000000
   12       10.234162   0.000000
   13       10.234162   0.000000
 
  0.3333333E+00 -0.2473565E-16  0.1387779E-16  0.1097394E-01
    1      -29.243854   1.000000
    2      -29.243852   1.000000
    3      -29.242640   1.000000
    4      -29.239953   1.000000
    5      -29.239952   1.000000
    6      -22.062448   1.000000
    7       -1.658059   1.000000
    8        0.236702   1.000000
    9        0.236704   1.000000
   10        5.355987   0.000000
   11        9.754133   0.000000
   12        9.893983   0.000000
   13        9.893983   0.000000
 
  0.4444444E+00 -0.5148458E-16  0.0000000E+00  0.1097394E-01
    1      -29.244082   1.000000
    2      -29.244080   1.000000
    3      -29.242367   1.000000
    4      -29.238879   1.000000
    5      -29.238878   1.000000
    6      -22.046588   1.000000
    7       -2.031824   1.000000
    8        0.168380   1.000000
    9        0.168382   1.000000
   10        5.495793   0.000000
   11        9.653780   0.000000
   12        9.653780   0.000000
   13       10.022537   0.000000
 
  0.1111111E+00  0.1111111E+00  0.0000000E+00  0.8230453E-02
    1      -29.244045   1.000000
    2      -29.243155   1.000000
    3      -29.243155   1.000000
    4      -29.242869   1.000000
    5      -29.242315   1.000000
    6      -22.104865   1.000000
    7       -0.093252   1.000000
    8        0.357375   1.000237
    9        0.357377   1.000237
   10        3.941725   0.000000
   11        9.079675   0.000000
   12       10.386843   0.000000
   13       10.387017   0.000000
 
  0.2222222E+00  0.1111111E+00  0.0000000E+00  0.3292181E-01
    1      -29.243977   1.000000
    2      -29.243163   1.000000
    3      -29.242872   1.000000
    4      -29.242019   1.000000
    5      -29.241393   1.000000
    6      -22.088102   1.000000
    7       -0.761434   1.000000
    8        0.224952   1.000000
    9        0.263123   1.000000
   10        4.870311   0.000000
   11        8.692777   0.000000
   12        9.810676   0.000000
   13       10.614114   0.000000
 
  0.3333333E+00  0.1111111E+00  0.5551115E-16  0.3292181E-01
    1      -29.243905   1.000000
    2      -29.243117   1.000000
    3      -29.242892   1.000000
    4      -29.240753   1.000000
    5      -29.239815   1.000000
    6      -22.065000   1.000000
    7       -1.445642   1.000000
    8        0.112346   1.000000
    9        0.117727   1.000000
   10        5.656098   0.000000
   11        9.003630   0.000000
   12        9.159130   0.000000
   13       10.405267   0.000000
 
  0.4444444E+00  0.1111111E+00  0.0000000E+00  0.3292181E-01
    1      -29.244031   1.000000
    2      -29.243429   1.000000
    3      -29.242280   1.000000
    4      -29.239633   1.000000
    5      -29.238773   1.000000
    6      -22.046356   1.000000
    7       -1.882672   1.000000
    8       -0.042805   1.000000
    9        0.067359   1.000000
   10        5.934368   0.000000
   11        8.756815   0.000000
   12       10.055374   0.000000
   13       10.217969   0.000000
 
 -0.4444444E+00  0.1111111E+00  0.0000000E+00  0.3292181E-01
    1      -29.244063   1.000000
    2      -29.243594   1.000000
    3      -29.242054   1.000000
    4      -29.239076   1.000000
    5      -29.238847   1.000000
    6      -22.041049   1.000000
    7       -1.992768   1.000000
    8       -0.143564   1.000000
    9        0.107437   1.000000
   10        5.980044   0.000000
   11        8.697965   0.000000
   12        9.871088   0.000000
   13       10.952822   0.000000
 
 -0.3333333E+00  0.1111111E+00 -0.2775558E-16  0.3292181E-01
    1      -29.243839   1.000000
    2      -29.243520   1.000000
    3      -29.242279   1.000000
    4      -29.239981   1.000000
    5      -29.239213   1.000000
    6      -22.051634   1.000000
    7       -1.763241   1.000000
    8       -0.137839   1.000000
    9        0.216806   1.000000
   10        5.902417   0.000000
   11        8.953468   0.000000
   12        9.934061   0.000000
   13        9.945156   0.000000
 
 -0.2222222E+00  0.1111111E+00 -0.2775558E-16  0.3292181E-01
    1      -29.243524   1.000000
    2      -29.243204   1.000000
    3      -29.242923   1.000000
    4      -29.241625   1.000000
    5      -29.240226   1.000000
    6      -22.073024   1.000000
    7       -1.239647   1.000000
    8       -0.013665   1.000000
    9        0.349467   1.000101
   10        5.439987   0.000000
   11        8.995779   0.000000
   12        9.495538   0.000000
   13       10.252859   0.000000
 
 -0.1111111E+00  0.1111111E+00 -0.2513991E-16  0.1646091E-01
    1      -29.243552   1.000000
    2      -29.243312   1.000000
    3      -29.243076   1.000000
    4      -29.242774   1.000000
    5      -29.241578   1.000000
    6      -22.095096   1.000000
    7       -0.565387   1.000000
    8        0.213969   1.000000
    9        0.442321   1.033837
   10        4.483716   0.000000
   11        8.975877   0.000000
   12       10.141556   0.000000
   13       10.374380   0.000000
 
  0.2222222E+00  0.2222222E+00 -0.2775558E-16  0.8230453E-02
    1      -29.244610   1.000000
    2      -29.243397   1.000000
    3      -29.241552   1.000000
    4      -29.241281   1.000000
    5      -29.241281   1.000000
    6      -22.076886   1.000000
    7       -0.934001   1.000000
    8        0.054705   1.000000
    9        0.054707   1.000000
   10        5.469333   0.000000
   11        8.127471   0.000000
   12        9.327880   0.000000
   13       11.176350   0.000000
 
  0.3333333E+00  0.2222222E+00  0.0000000E+00  0.3292181E-01
    1      -29.244539   1.000000
    2      -29.243538   1.000000
    3      -29.241615   1.000000
    4      -29.240175   1.000000
    5      -29.239660   1.000000
    6      -22.058077   1.000000
    7       -1.356725   1.000000
    8       -0.141790   1.000000
    9       -0.083914   1.000000
   10        6.109152   0.000000
   11        8.005564   0.000000
   12        8.956943   0.000000
   13       11.330366   0.000000
 
  0.4444444E+00  0.2222222E+00  0.0000000E+00  0.3292181E-01
    1      -29.244337   1.000000
    2      -29.242916   1.000000
    3      -29.241959   1.000000
    4      -29.239635   1.000000
    5      -29.238591   1.000000
    6      -22.040438   1.000000
    7       -1.678174   1.000000
    8       -0.431625   1.000000
    9       -0.134376   1.000000
   10        6.495637   0.000000
   11        8.424911   0.000000
   12        8.922324   0.000000
   13       10.990205   0.000000
 
 -0.4444444E+00  0.2222222E+00 -0.4163336E-16  0.3292181E-01
    1      -29.244271   1.000000
    2      -29.242223   1.000000
    3      -29.241685   1.000000
    4      -29.239784   1.000000
    5      -29.238663   1.000000
    6      -22.032306   1.000000
    7       -1.776124   1.000000
    8       -0.696084   1.000000
    9       -0.077937   1.000000
   10        6.710464   0.000000
   11        8.335240   0.000000
   12       10.154148   0.000000
   13       10.650230   0.000000
 
 -0.3333333E+00  0.2222222E+00 -0.3469447E-16  0.3292181E-01
    1      -29.244017   1.000000
    2      -29.242343   1.000000
    3      -29.241328   1.000000
    4      -29.239771   1.000000
    5      -29.239740   1.000000
    6      -22.037559   1.000000
    7       -1.671440   1.000000
    8       -0.765754   1.000000
    9        0.064590   1.000000
   10        6.850397   0.000000
   11        8.332161   0.000000
   12        9.930047   0.000000
   13       10.475224   0.000000
 
 -0.2222222E+00  0.2222222E+00 -0.2578440E-16  0.1646091E-01
    1      -29.243691   1.000000
    2      -29.242529   1.000000
    3      -29.242223   1.000000
    4      -29.241150   1.000000
    5      -29.239504   1.000000
    6      -22.053677   1.000000
    7       -1.477484   1.000000
    8       -0.507647   1.000000
    9        0.234468   1.000000
   10        6.436750   0.000000
   11        8.689637   0.000000
   12        9.040052   0.000000
   13       10.436047   0.000000
 
  0.3333333E+00  0.3333333E+00  0.2775558E-16  0.8230453E-02
    1      -29.245198   1.000000
    2      -29.243909   1.000000
    3      -29.240606   1.000000
    4      -29.239023   1.000000
    5      -29.239023   1.000000
    6      -22.044874   1.000000
    7       -1.535389   1.000000
    8       -0.255284   1.000000
    9       -0.255282   1.000000
   10        6.066106   0.000000
   11        7.485211   0.000000
   12        9.678403   0.000000
   13       12.229582   0.000000
 
  0.4444444E+00  0.3333333E+00  0.0000000E+00  0.3292181E-01
    1      -29.245066   1.000000
    2      -29.244071   1.000000
    3      -29.240548   1.000000
    4      -29.238484   1.000000
    5      -29.238208   1.000000
    6      -22.031559   1.000000
    7       -1.700102   1.000000
    8       -0.501388   1.000000
    9       -0.331949   1.000000
   10        6.138577   0.000000
   11        7.557415   0.000000
   12       10.093883   0.000000
   13       12.245769   0.000000
 
 -0.4444444E+00  0.3333333E+00 -0.7632783E-16  0.3292181E-01
    1      -29.244679   1.000000
    2      -29.243046   1.000000
    3      -29.240780   1.000000
    4      -29.238813   1.000000
    5      -29.238248   1.000000
    6      -22.024399   1.000000
    7       -1.644741   1.000000
    8       -0.935204   1.000000
    9       -0.286343   1.000000
   10        6.424091   0.000000
   11        8.298951   0.000000
   12       10.089976   0.000000
   13       11.806788   0.000000
 
 -0.3333333E+00  0.3333333E+00 -0.6519221E-16  0.1646091E-01
    1      -29.244347   1.000000
    2      -29.241339   1.000000
    3      -29.241288   1.000000
    4      -29.239909   1.000000
    5      -29.239038   1.000000
    6      -22.026787   1.000000
    7       -1.383656   1.000000
    8       -1.310195   1.000000
    9       -0.134357   1.000000
   10        6.808528   0.000000
   11        8.861473   0.000000
   12       10.329760   0.000000
   13       10.639729   0.000000
 
  0.4444444E+00  0.4444444E+00 -0.5551115E-16  0.8230453E-02
    1      -29.245596   1.000000
    2      -29.244500   1.000000
    3      -29.240023   1.000000
    4      -29.237656   1.000000
    5      -29.237656   1.000000
    6      -22.023884   1.000000
    7       -1.834382   1.000000
    8       -0.441937   1.000000
    9       -0.441936   1.000000
   10        5.774841   0.000000
   11        7.163058   0.000000
   12       11.717645   0.000000
   13       13.208391   0.000000
 
 -0.4444444E+00  0.4444444E+00 -0.5156881E-16  0.1646091E-01
    1      -29.245275   1.000000
    2      -29.244298   1.000000
    3      -29.240109   1.000000
    4      -29.237821   1.000000
    5      -29.237704   1.000000
    6      -22.021055   1.000000
    7       -1.805442   1.000000
    8       -0.643734   1.000000
    9       -0.424817   1.000000
   10        5.944414   0.000000
   11        7.405350   0.000000
   12       12.030502   0.000000
   13       12.124229   0.000000
 
  0.3333333E+00  0.2222222E+00  0.1111111E+00  0.3292181E-01
    1      -29.243824   1.000000
    2      -29.243377   1.000000
    3      -29.242450   1.000000
    4      -29.241339   1.000000
    5      -29.240180   1.000000
    6      -22.070307   1.000000
    7       -1.172399   1.000000
    8       -0.117965   1.000000
    9        0.207830   1.000000
   10        5.736438   0.000000
   11        8.460697   0.000000
   12        9.092178   0.000000
   13       11.009578   0.000000
 
  0.4444444E+00  0.2222222E+00  0.1111111E+00  0.6584362E-01
    1      -29.243772   1.000000
    2      -29.243020   1.000000
    3      -29.242413   1.000000
    4      -29.240231   1.000000
    5      -29.239256   1.000000
    6      -22.049933   1.000000
    7       -1.573071   1.000000
    8       -0.393688   1.000000
    9        0.081388   1.000000
   10        6.463875   0.000000
   11        8.490132   0.000000
   12        8.903586   0.000000
   13       10.705532   0.000000
 
 -0.4444444E+00  0.2222222E+00  0.1111111E+00  0.6584362E-01
    1      -29.243929   1.000000
    2      -29.242965   1.000000
    3      -29.241650   1.000000
    4      -29.239772   1.000000
    5      -29.238769   1.000000
    6      -22.036557   1.000000
    7       -1.811353   1.000000
    8       -0.524340   1.000000
    9       -0.029697   1.000000
   10        6.704080   0.000000
   11        8.154527   0.000000
   12       10.144453   0.000000
   13       10.518418   0.000000
 
  0.4444444E+00  0.3333333E+00  0.1111111E+00  0.3292181E-01
    1      -29.244402   1.000000
    2      -29.243750   1.000000
    3      -29.241400   1.000000
    4      -29.239117   1.000000
    5      -29.239035   1.000000
    6      -22.042011   1.000000
    7       -1.564744   1.000000
    8       -0.452985   1.000000
    9       -0.189985   1.000000
   10        6.505219   0.000000
   11        7.953477   0.000000
   12        8.930967   0.000000
   13       11.886007   0.000000
 
 -0.4444444E+00  0.3333333E+00  0.1111111E+00  0.6584362E-01
    1      -29.244124   1.000000
    2      -29.243009   1.000000
    3      -29.241476   1.000000
    4      -29.239381   1.000000
    5      -29.238322   1.000000
    6      -22.029627   1.000000
    7       -1.633094   1.000000
    8       -0.786428   1.000000
    9       -0.291318   1.000000
   10        6.890021   0.000000
   11        8.407816   0.000000
   12        8.926907   0.000000
   13       11.618099   0.000000
 
 -0.3333333E+00  0.3333333E+00  0.1111111E+00  0.6584362E-01
    1      -29.243966   1.000000
    2      -29.242011   1.000000
    3      -29.241032   1.000000
    4      -29.240592   1.000000
    5      -29.238379   1.000000
    6      -22.026784   1.000000
    7       -1.554125   1.000000
    8       -1.047439   1.000000
    9       -0.246196   1.000000
   10        7.234175   0.000000
   11        8.243993   0.000000
   12        9.982012   0.000000
   13       10.547862   0.000000
 
 -0.2222222E+00  0.3333333E+00  0.1111111E+00  0.3292181E-01
    1      -29.243741   1.000000
    2      -29.242160   1.000000
    3      -29.242064   1.000000
    4      -29.239749   1.000000
    5      -29.239199   1.000000
    6      -22.034828   1.000000
    7       -1.559284   1.000000
    8       -0.890138   1.000000
    9       -0.083478   1.000000
   10        7.389537   0.000000
   11        7.979427   0.000000
   12        9.126125   0.000000
   13       11.171954   0.000000
 
 -0.4444444E+00  0.4444444E+00  0.1111111E+00  0.3292181E-01
    1      -29.244765   1.000000
    2      -29.244128   1.000000
    3      -29.240421   1.000000
    4      -29.238526   1.000000
    5      -29.237721   1.000000
    6      -22.023492   1.000000
    7       -1.724388   1.000000
    8       -0.652737   1.000000
    9       -0.482039   1.000000
   10        6.272827   0.000000
   11        7.676498   0.000000
   12       10.420895   0.000000
   13       12.195311   0.000000
 
 -0.3333333E+00  0.4444444E+00  0.1111111E+00  0.3292181E-01
    1      -29.244228   1.000000
    2      -29.243065   1.000000
    3      -29.240791   1.000000
    4      -29.239609   1.000000
    5      -29.237759   1.000000
    6      -22.021610   1.000000
    7       -1.553115   1.000000
    8       -1.026435   1.000000
    9       -0.444515   1.000000
   10        6.742622   0.000000
   11        8.410971   0.000000
   12        9.974122   0.000000
   13       10.755719   0.000000
 
 -0.3333333E+00  0.4444444E+00  0.2222222E+00  0.3292181E-01
    1      -29.243499   1.000000
    2      -29.242390   1.000000
    3      -29.241412   1.000000
    4      -29.240521   1.000000
    5      -29.237732   1.000000
    6      -22.022556   1.000000
    7       -1.425989   1.000000
    8       -1.114175   1.000000
    9       -0.510365   1.000000
   10        7.500927   0.000000
   11        8.560683   0.000000
   12        9.015049   0.000000
   13       10.339468   0.000000
