Og_FCC                                  
           1
     4.506158    0.000000    0.000000
     2.253079    3.902447   -0.000000
     2.253079    1.300816    3.679263
   Og
   1
Direct configuration=     1
   0.00000000  0.00000000  0.00000000
