   1   1   0   0
  0.3298244E+02  0.3599697E-09  0.3599697E-09  0.3599697E-09  0.1000000E-15
  1.000000000000000E-004
  CAR 
 Og_FCC                                  
     92.99021278    -32.74493828  301    -10.32216968      1.00000000
    -32.745  0.0000E+00  0.0000E+00
    -32.326  0.0000E+00  0.0000E+00
    -31.907  0.0000E+00  0.0000E+00
    -31.488  0.0000E+00  0.0000E+00
    -31.068  0.0000E+00  0.0000E+00
    -30.649  0.0000E+00  0.0000E+00
    -30.230  0.0000E+00  0.0000E+00
    -29.811  0.0000E+00  0.0000E+00
    -29.392  0.0000E+00  0.0000E+00
    -28.973  0.0000E+00  0.0000E+00
    -28.554  0.0000E+00  0.0000E+00
    -28.135  0.0000E+00  0.0000E+00
    -27.716  0.0000E+00  0.0000E+00
    -27.296  0.0000E+00  0.0000E+00
    -26.877  0.0000E+00  0.2500E+00
    -26.458  0.0000E+00  0.2000E+01
    -26.039  0.0000E+00  0.2000E+01
    -25.620  0.0000E+00  0.2000E+01
    -25.201  0.0000E+00  0.2000E+01
    -24.782  0.0000E+00  0.2000E+01
    -24.363  0.0000E+00  0.2000E+01
    -23.943  0.0000E+00  0.2000E+01
    -23.524  0.0000E+00  0.2000E+01
    -23.105  0.0000E+00  0.2000E+01
    -22.686  0.0000E+00  0.2000E+01
    -22.267  0.0000E+00  0.2000E+01
    -21.848  0.0000E+00  0.2000E+01
    -21.429  0.0000E+00  0.2000E+01
    -21.010  0.0000E+00  0.2000E+01
    -20.591  0.0000E+00  0.2000E+01
    -20.171  0.0000E+00  0.2000E+01
    -19.752  0.0000E+00  0.2000E+01
    -19.333  0.0000E+00  0.2000E+01
    -18.914  0.0000E+00  0.2000E+01
    -18.495  0.0000E+00  0.2000E+01
    -18.076  0.0000E+00  0.2000E+01
    -17.657  0.0000E+00  0.2000E+01
    -17.238  0.0000E+00  0.2000E+01
    -16.818  0.0000E+00  0.2000E+01
    -16.399  0.0000E+00  0.2000E+01
    -15.980  0.0000E+00  0.2000E+01
    -15.561  0.0000E+00  0.2000E+01
    -15.142  0.0000E+00  0.2000E+01
    -14.723  0.0000E+00  0.2000E+01
    -14.304  0.0000E+00  0.2000E+01
    -13.885  0.0000E+00  0.2000E+01
    -13.466  0.0000E+00  0.2000E+01
    -13.046  0.0000E+00  0.2000E+01
    -12.627  0.0000E+00  0.2000E+01
    -12.208  0.0000E+00  0.2000E+01
    -11.789  0.0000E+00  0.3139E+01
    -11.370  0.0000E+00  0.4194E+01
    -10.951  0.0000E+00  0.5991E+01
    -10.532  0.1333E-08  0.7981E+01
    -10.113  0.0000E+00  0.8000E+01
     -9.693  0.0000E+00  0.8000E+01
     -9.274  0.0000E+00  0.8000E+01
     -8.855  0.0000E+00  0.8000E+01
     -8.436  0.0000E+00  0.8000E+01
     -8.017  0.0000E+00  0.8000E+01
     -7.598  0.0000E+00  0.8000E+01
     -7.179  0.0000E+00  0.8000E+01
     -6.760  0.0000E+00  0.8000E+01
     -6.341  0.0000E+00  0.8000E+01
     -5.921  0.0000E+00  0.8000E+01
     -5.502  0.0000E+00  0.8000E+01
     -5.083  0.0000E+00  0.8000E+01
     -4.664  0.0000E+00  0.8000E+01
     -4.245  0.0000E+00  0.8000E+01
     -3.826  0.0000E+00  0.8000E+01
     -3.407  0.0000E+00  0.8000E+01
     -2.988  0.0000E+00  0.8000E+01
     -2.569  0.0000E+00  0.8000E+01
     -2.149  0.0000E+00  0.8000E+01
     -1.730  0.0000E+00  0.8000E+01
     -1.311  0.0000E+00  0.8000E+01
     -0.892  0.0000E+00  0.8000E+01
     -0.473  0.0000E+00  0.8000E+01
     -0.054  0.0000E+00  0.8000E+01
      0.365  0.0000E+00  0.8000E+01
      0.784  0.0000E+00  0.8000E+01
      1.204  0.0000E+00  0.8000E+01
      1.623  0.0000E+00  0.8000E+01
      2.042  0.0000E+00  0.8000E+01
      2.461  0.0000E+00  0.8000E+01
      2.880  0.0000E+00  0.8000E+01
      3.299  0.0000E+00  0.8000E+01
      3.718  0.0000E+00  0.8000E+01
      4.137  0.0000E+00  0.8000E+01
      4.556  0.0000E+00  0.8000E+01
      4.976  0.0000E+00  0.8000E+01
      5.395  0.0000E+00  0.8000E+01
      5.814  0.0000E+00  0.8009E+01
      6.233  0.0000E+00  0.8009E+01
      6.652  0.0000E+00  0.8139E+01
      7.071  0.0000E+00  0.8139E+01
      7.490  0.0000E+00  0.8250E+01
      7.909  0.0000E+00  0.8250E+01
      8.329  0.0000E+00  0.8546E+01
      8.748  0.0000E+00  0.8602E+01
      9.167  0.0000E+00  0.8667E+01
      9.586  0.0000E+00  0.9667E+01
     10.005  0.0000E+00  0.9667E+01
     10.424  0.0000E+00  0.1000E+02
     10.843  0.1022E-01  0.1000E+02
     11.262  0.0000E+00  0.1084E+02
     11.681  0.0000E+00  0.1123E+02
     12.101  0.0000E+00  0.1175E+02
     12.520  0.0000E+00  0.1231E+02
     12.939  0.0000E+00  0.1297E+02
     13.358  0.0000E+00  0.1350E+02
     13.777  0.0000E+00  0.1380E+02
     14.196  0.0000E+00  0.1428E+02
     14.615  0.0000E+00  0.1465E+02
     15.034  0.0000E+00  0.1569E+02
     15.454  0.0000E+00  0.1640E+02
     15.873  0.5302E+00  0.1812E+02
     16.292  0.0000E+00  0.1831E+02
     16.711  0.0000E+00  0.1882E+02
     17.130  0.0000E+00  0.1975E+02
     17.549  0.0000E+00  0.2015E+02
     17.968  0.0000E+00  0.2048E+02
     18.387  0.0000E+00  0.2122E+02
     18.806  0.0000E+00  0.2167E+02
     19.226  0.0000E+00  0.2215E+02
     19.645  0.0000E+00  0.2256E+02
     20.064  0.0000E+00  0.2300E+02
     20.483  0.0000E+00  0.2314E+02
     20.902  0.0000E+00  0.2431E+02
     21.321  0.0000E+00  0.2466E+02
     21.740  0.0000E+00  0.2544E+02
     22.159  0.0000E+00  0.2562E+02
     22.579  0.0000E+00  0.2622E+02
     22.998  0.0000E+00  0.2700E+02
     23.417  0.0000E+00  0.2725E+02
     23.836  0.0000E+00  0.2753E+02
     24.255  0.0000E+00  0.2818E+02
     24.674  0.0000E+00  0.2847E+02
     25.093  0.0000E+00  0.2866E+02
     25.512  0.0000E+00  0.2910E+02
     25.931  0.0000E+00  0.3003E+02
     26.351  0.0000E+00  0.3014E+02
     26.770  0.0000E+00  0.3017E+02
     27.189  0.0000E+00  0.3100E+02
     27.608  0.0000E+00  0.3133E+02
     28.027  0.0000E+00  0.3240E+02
     28.446  0.0000E+00  0.3325E+02
     28.865  0.4076E-01  0.3343E+02
     29.284  0.0000E+00  0.3408E+02
     29.704  0.0000E+00  0.3425E+02
     30.123  0.0000E+00  0.3458E+02
     30.542  0.0000E+00  0.3483E+02
     30.961  0.0000E+00  0.3592E+02
     31.380  0.0000E+00  0.3640E+02
     31.799  0.0000E+00  0.3684E+02
     32.218  0.0000E+00  0.3736E+02
     32.637  0.0000E+00  0.3788E+02
     33.056  0.0000E+00  0.3893E+02
     33.476  0.0000E+00  0.3915E+02
     33.895  0.0000E+00  0.3984E+02
     34.314  0.0000E+00  0.4018E+02
     34.733  0.6541E-04  0.4051E+02
     35.152  0.0000E+00  0.4132E+02
     35.571  0.0000E+00  0.4156E+02
     35.990  0.0000E+00  0.4156E+02
     36.409  0.0000E+00  0.4262E+02
     36.829  0.0000E+00  0.4399E+02
     37.248  0.0000E+00  0.4479E+02
     37.667  0.0000E+00  0.4541E+02
     38.086  0.0000E+00  0.4563E+02
     38.505  0.0000E+00  0.4622E+02
     38.924  0.0000E+00  0.4681E+02
     39.343  0.0000E+00  0.4715E+02
     39.762  0.0000E+00  0.4744E+02
     40.181  0.0000E+00  0.4801E+02
     40.601  0.0000E+00  0.4868E+02
     41.020  0.1433E-10  0.4901E+02
     41.439  0.0000E+00  0.5031E+02
     41.858  0.0000E+00  0.5079E+02
     42.277  0.0000E+00  0.5124E+02
     42.696  0.0000E+00  0.5213E+02
     43.115  0.2651E+00  0.5300E+02
     43.534  0.0000E+00  0.5346E+02
     43.954  0.0000E+00  0.5459E+02
     44.373  0.0000E+00  0.5528E+02
     44.792  0.3454E-13  0.5572E+02
     45.211  0.0000E+00  0.5598E+02
     45.630  0.0000E+00  0.5643E+02
     46.049  0.0000E+00  0.5687E+02
     46.468  0.6537E-12  0.5717E+02
     46.887  0.5077E-02  0.5802E+02
     47.306  0.0000E+00  0.5882E+02
     47.726  0.0000E+00  0.6027E+02
     48.145  0.0000E+00  0.6049E+02
     48.564  0.0000E+00  0.6097E+02
     48.983  0.0000E+00  0.6210E+02
     49.402  0.2966E+00  0.6293E+02
     49.821  0.0000E+00  0.6324E+02
     50.240  0.0000E+00  0.6419E+02
     50.659  0.0000E+00  0.6459E+02
     51.078  0.1285E-08  0.6546E+02
     51.498  0.0000E+00  0.6606E+02
     51.917  0.5615E-12  0.6650E+02
     52.336  0.0000E+00  0.6770E+02
     52.755  0.0000E+00  0.6826E+02
     53.174  0.0000E+00  0.6900E+02
     53.593  0.0000E+00  0.6985E+02
     54.012  0.0000E+00  0.7007E+02
     54.431  0.1366E+00  0.7050E+02
     54.851  0.0000E+00  0.7124E+02
     55.270  0.0000E+00  0.7200E+02
     55.689  0.3312E-04  0.7219E+02
     56.108  0.0000E+00  0.7286E+02
     56.527  0.0000E+00  0.7386E+02
     56.946  0.8837E-01  0.7453E+02
     57.365  0.5469E-12  0.7557E+02
     57.784  0.1128E-01  0.7656E+02
     58.203  0.0000E+00  0.7672E+02
     58.623  0.1249E+00  0.7699E+02
     59.042  0.0000E+00  0.7816E+02
     59.461  0.0000E+00  0.7910E+02
     59.880  0.0000E+00  0.7944E+02
     60.299  0.0000E+00  0.8053E+02
     60.718  0.2209E-01  0.8146E+02
     61.137  0.0000E+00  0.8233E+02
     61.556  0.0000E+00  0.8300E+02
     61.976  0.0000E+00  0.8336E+02
     62.395  0.0000E+00  0.8336E+02
     62.814  0.0000E+00  0.8403E+02
     63.233  0.0000E+00  0.8540E+02
     63.652  0.0000E+00  0.8618E+02
     64.071  0.0000E+00  0.8754E+02
     64.490  0.0000E+00  0.8787E+02
     64.909  0.4418E-01  0.8811E+02
     65.328  0.3354E-08  0.8904E+02
     65.748  0.0000E+00  0.9087E+02
     66.167  0.0000E+00  0.9104E+02
     66.586  0.0000E+00  0.9177E+02
     67.005  0.0000E+00  0.9210E+02
     67.424  0.0000E+00  0.9330E+02
     67.843  0.0000E+00  0.9413E+02
     68.262  0.0000E+00  0.9494E+02
     68.681  0.1321E+00  0.9599E+02
     69.101  0.0000E+00  0.9708E+02
     69.520  0.0000E+00  0.9775E+02
     69.939  0.0000E+00  0.9812E+02
     70.358  0.0000E+00  0.9908E+02
     70.777  0.0000E+00  0.9953E+02
     71.196  0.0000E+00  0.1004E+03
     71.615  0.0000E+00  0.1013E+03
     72.034  0.0000E+00  0.1018E+03
     72.453  0.0000E+00  0.1028E+03
     72.873  0.0000E+00  0.1042E+03
     73.292  0.0000E+00  0.1048E+03
     73.711  0.0000E+00  0.1055E+03
     74.130  0.0000E+00  0.1062E+03
     74.549  0.0000E+00  0.1069E+03
     74.968  0.0000E+00  0.1072E+03
     75.387  0.0000E+00  0.1076E+03
     75.806  0.0000E+00  0.1087E+03
     76.226  0.0000E+00  0.1095E+03
     76.645  0.6628E-01  0.1102E+03
     77.064  0.0000E+00  0.1107E+03
     77.483  0.0000E+00  0.1116E+03
     77.902  0.0000E+00  0.1130E+03
     78.321  0.0000E+00  0.1138E+03
     78.740  0.0000E+00  0.1143E+03
     79.159  0.3593E-03  0.1153E+03
     79.578  0.0000E+00  0.1168E+03
     79.998  0.0000E+00  0.1174E+03
     80.417  0.0000E+00  0.1191E+03
     80.836  0.9288E-12  0.1193E+03
     81.255  0.4047E-16  0.1203E+03
     81.674  0.3310E-05  0.1207E+03
     82.093  0.0000E+00  0.1216E+03
     82.512  0.0000E+00  0.1221E+03
     82.931  0.0000E+00  0.1231E+03
     83.351  0.0000E+00  0.1237E+03
     83.770  0.0000E+00  0.1247E+03
     84.189  0.0000E+00  0.1254E+03
     84.608  0.5176E+00  0.1260E+03
     85.027  0.0000E+00  0.1266E+03
     85.446  0.0000E+00  0.1272E+03
     85.865  0.0000E+00  0.1274E+03
     86.284  0.0000E+00  0.1277E+03
     86.703  0.0000E+00  0.1277E+03
     87.123  0.0000E+00  0.1279E+03
     87.542  0.0000E+00  0.1280E+03
     87.961  0.0000E+00  0.1280E+03
     88.380  0.0000E+00  0.1280E+03
     88.799  0.0000E+00  0.1280E+03
     89.218  0.0000E+00  0.1280E+03
     89.637  0.0000E+00  0.1280E+03
     90.056  0.0000E+00  0.1280E+03
     90.476  0.0000E+00  0.1280E+03
     90.895  0.0000E+00  0.1280E+03
     91.314  0.0000E+00  0.1280E+03
     91.733  0.0000E+00  0.1280E+03
     92.152  0.0000E+00  0.1280E+03
     92.571  0.0000E+00  0.1280E+03
     92.990  0.0000E+00  0.1280E+03
