   1   1   0   0
  0.3721384E+02  0.3747484E-09  0.3747484E-09  0.3747484E-09  0.1000000E-15
  1.000000000000000E-004
  CAR 
 Og_FCC                                  
     85.75005614    -33.03625674  301    -11.15977745      1.00000000
    -33.036  0.0000E+00  0.0000E+00
    -32.640  0.0000E+00  0.0000E+00
    -32.244  0.0000E+00  0.0000E+00
    -31.848  0.0000E+00  0.0000E+00
    -31.452  0.0000E+00  0.0000E+00
    -31.056  0.0000E+00  0.0000E+00
    -30.661  0.0000E+00  0.0000E+00
    -30.265  0.0000E+00  0.0000E+00
    -29.869  0.0000E+00  0.0000E+00
    -29.473  0.0000E+00  0.0000E+00
    -29.077  0.0000E+00  0.0000E+00
    -28.681  0.0000E+00  0.0000E+00
    -28.285  0.0000E+00  0.0000E+00
    -27.889  0.0000E+00  0.0000E+00
    -27.493  0.2231E-11  0.5463E+00
    -27.097  0.0000E+00  0.2000E+01
    -26.701  0.0000E+00  0.2000E+01
    -26.305  0.0000E+00  0.2000E+01
    -25.909  0.0000E+00  0.2000E+01
    -25.513  0.0000E+00  0.2000E+01
    -25.117  0.0000E+00  0.2000E+01
    -24.721  0.0000E+00  0.2000E+01
    -24.325  0.0000E+00  0.2000E+01
    -23.929  0.0000E+00  0.2000E+01
    -23.533  0.0000E+00  0.2000E+01
    -23.137  0.0000E+00  0.2000E+01
    -22.741  0.0000E+00  0.2000E+01
    -22.345  0.0000E+00  0.2000E+01
    -21.950  0.0000E+00  0.2000E+01
    -21.554  0.0000E+00  0.2000E+01
    -21.158  0.0000E+00  0.2000E+01
    -20.762  0.0000E+00  0.2000E+01
    -20.366  0.0000E+00  0.2000E+01
    -19.970  0.0000E+00  0.2000E+01
    -19.574  0.0000E+00  0.2000E+01
    -19.178  0.0000E+00  0.2000E+01
    -18.782  0.0000E+00  0.2000E+01
    -18.386  0.0000E+00  0.2000E+01
    -17.990  0.0000E+00  0.2000E+01
    -17.594  0.0000E+00  0.2000E+01
    -17.198  0.0000E+00  0.2000E+01
    -16.802  0.0000E+00  0.2000E+01
    -16.406  0.0000E+00  0.2000E+01
    -16.010  0.0000E+00  0.2000E+01
    -15.614  0.0000E+00  0.2000E+01
    -15.218  0.0000E+00  0.2000E+01
    -14.822  0.0000E+00  0.2000E+01
    -14.426  0.0000E+00  0.2000E+01
    -14.030  0.0000E+00  0.2000E+01
    -13.634  0.0000E+00  0.2000E+01
    -13.239  0.0000E+00  0.2000E+01
    -12.843  0.0000E+00  0.2000E+01
    -12.447  0.0000E+00  0.2287E+01
    -12.051  0.0000E+00  0.3972E+01
    -11.655  0.8304E-01  0.6468E+01
    -11.259  0.0000E+00  0.8000E+01
    -10.863  0.0000E+00  0.8000E+01
    -10.467  0.0000E+00  0.8000E+01
    -10.071  0.0000E+00  0.8000E+01
     -9.675  0.0000E+00  0.8000E+01
     -9.279  0.0000E+00  0.8000E+01
     -8.883  0.0000E+00  0.8000E+01
     -8.487  0.0000E+00  0.8000E+01
     -8.091  0.0000E+00  0.8000E+01
     -7.695  0.0000E+00  0.8000E+01
     -7.299  0.0000E+00  0.8000E+01
     -6.903  0.0000E+00  0.8000E+01
     -6.507  0.0000E+00  0.8000E+01
     -6.111  0.0000E+00  0.8000E+01
     -5.715  0.0000E+00  0.8000E+01
     -5.319  0.0000E+00  0.8000E+01
     -4.923  0.0000E+00  0.8000E+01
     -4.528  0.0000E+00  0.8000E+01
     -4.132  0.0000E+00  0.8000E+01
     -3.736  0.0000E+00  0.8000E+01
     -3.340  0.0000E+00  0.8000E+01
     -2.944  0.0000E+00  0.8000E+01
     -2.548  0.0000E+00  0.8000E+01
     -2.152  0.0000E+00  0.8000E+01
     -1.756  0.0000E+00  0.8000E+01
     -1.360  0.0000E+00  0.8000E+01
     -0.964  0.0000E+00  0.8000E+01
     -0.568  0.0000E+00  0.8000E+01
     -0.172  0.0000E+00  0.8000E+01
      0.224  0.0000E+00  0.8000E+01
      0.620  0.0000E+00  0.8000E+01
      1.016  0.0000E+00  0.8000E+01
      1.412  0.0000E+00  0.8000E+01
      1.808  0.0000E+00  0.8000E+01
      2.204  0.0000E+00  0.8000E+01
      2.600  0.0000E+00  0.8000E+01
      2.996  0.0000E+00  0.8000E+01
      3.392  0.0000E+00  0.8000E+01
      3.788  0.0000E+00  0.8000E+01
      4.183  0.0000E+00  0.8000E+01
      4.579  0.0000E+00  0.8000E+01
      4.975  0.0000E+00  0.8009E+01
      5.371  0.0000E+00  0.8009E+01
      5.767  0.0000E+00  0.8139E+01
      6.163  0.0000E+00  0.8139E+01
      6.559  0.0000E+00  0.8250E+01
      6.955  0.5523E+00  0.8469E+01
      7.351  0.0000E+00  0.8546E+01
      7.747  0.0000E+00  0.8602E+01
      8.143  0.4048E-04  0.8602E+01
      8.539  0.0000E+00  0.9333E+01
      8.935  0.0000E+00  0.9667E+01
      9.331  0.0000E+00  0.9667E+01
      9.727  0.0000E+00  0.1000E+02
     10.123  0.0000E+00  0.1059E+02
     10.519  0.0000E+00  0.1106E+02
     10.915  0.0000E+00  0.1131E+02
     11.311  0.0000E+00  0.1208E+02
     11.707  0.0000E+00  0.1272E+02
     12.103  0.0000E+00  0.1300E+02
     12.498  0.0000E+00  0.1350E+02
     12.894  0.0000E+00  0.1402E+02
     13.290  0.0000E+00  0.1433E+02
     13.686  0.0000E+00  0.1487E+02
     14.082  0.0000E+00  0.1569E+02
     14.478  0.0000E+00  0.1729E+02
     14.874  0.0000E+00  0.1823E+02
     15.270  0.0000E+00  0.1853E+02
     15.666  0.2806E+00  0.1931E+02
     16.062  0.0000E+00  0.2026E+02
     16.458  0.1698E-07  0.2048E+02
     16.854  0.0000E+00  0.2133E+02
     17.250  0.0000E+00  0.2181E+02
     17.646  0.0000E+00  0.2215E+02
     18.042  0.0000E+00  0.2278E+02
     18.438  0.0000E+00  0.2303E+02
     18.834  0.0000E+00  0.2358E+02
     19.230  0.0000E+00  0.2460E+02
     19.626  0.0000E+00  0.2466E+02
     20.022  0.0000E+00  0.2551E+02
     20.418  0.0000E+00  0.2607E+02
     20.814  0.0000E+00  0.2678E+02
     21.209  0.5095E+00  0.2729E+02
     21.605  0.0000E+00  0.2731E+02
     22.001  0.1854E+00  0.2790E+02
     22.397  0.0000E+00  0.2840E+02
     22.793  0.0000E+00  0.2847E+02
     23.189  0.0000E+00  0.2888E+02
     23.585  0.0000E+00  0.2944E+02
     23.981  0.2670E+00  0.3013E+02
     24.377  0.0000E+00  0.3017E+02
     24.773  0.0000E+00  0.3039E+02
     25.169  0.0000E+00  0.3133E+02
     25.565  0.0000E+00  0.3207E+02
     25.961  0.0000E+00  0.3319E+02
     26.357  0.0000E+00  0.3353E+02
     26.753  0.0000E+00  0.3408E+02
     27.149  0.0000E+00  0.3425E+02
     27.545  0.0000E+00  0.3458E+02
     27.941  0.0000E+00  0.3483E+02
     28.337  0.0000E+00  0.3536E+02
     28.733  0.0000E+00  0.3618E+02
     29.129  0.0000E+00  0.3673E+02
     29.525  0.0000E+00  0.3731E+02
     29.920  0.0000E+00  0.3798E+02
     30.316  0.0000E+00  0.3887E+02
     30.712  0.5236E-01  0.3939E+02
     31.108  0.4434E+00  0.3977E+02
     31.504  0.0000E+00  0.4018E+02
     31.900  0.0000E+00  0.4081E+02
     32.296  0.0000E+00  0.4155E+02
     32.692  0.0000E+00  0.4162E+02
     33.088  0.0000E+00  0.4168E+02
     33.484  0.0000E+00  0.4277E+02
     33.880  0.0000E+00  0.4412E+02
     34.276  0.0000E+00  0.4456E+02
     34.672  0.0000E+00  0.4541E+02
     35.068  0.0000E+00  0.4578E+02
     35.464  0.0000E+00  0.4633E+02
     35.860  0.0000E+00  0.4693E+02
     36.256  0.5848E-07  0.4715E+02
     36.652  0.0000E+00  0.4775E+02
     37.048  0.5612E+00  0.4823E+02
     37.444  0.0000E+00  0.4875E+02
     37.840  0.0000E+00  0.4964E+02
     38.236  0.0000E+00  0.5057E+02
     38.631  0.0000E+00  0.5080E+02
     39.027  0.0000E+00  0.5124E+02
     39.423  0.0000E+00  0.5244E+02
     39.819  0.0000E+00  0.5313E+02
     40.215  0.0000E+00  0.5409E+02
     40.611  0.0000E+00  0.5476E+02
     41.007  0.0000E+00  0.5543E+02
     41.403  0.0000E+00  0.5583E+02
     41.799  0.8408E-01  0.5642E+02
     42.195  0.0000E+00  0.5643E+02
     42.591  0.8135E-01  0.5707E+02
     42.987  0.0000E+00  0.5805E+02
     43.383  0.0000E+00  0.5882E+02
     43.779  0.0000E+00  0.5934E+02
     44.175  0.0000E+00  0.6027E+02
     44.571  0.0000E+00  0.6086E+02
     44.967  0.2788E-06  0.6166E+02
     45.363  0.2806E+00  0.6244E+02
     45.759  0.0000E+00  0.6319E+02
     46.155  0.0000E+00  0.6416E+02
     46.551  0.0000E+00  0.6448E+02
     46.947  0.0000E+00  0.6541E+02
     47.342  0.0000E+00  0.6583E+02
     47.738  0.0000E+00  0.6650E+02
     48.134  0.0000E+00  0.6743E+02
     48.530  0.0000E+00  0.6826E+02
     48.926  0.0000E+00  0.6878E+02
     49.322  0.0000E+00  0.6963E+02
     49.718  0.0000E+00  0.6985E+02
     50.114  0.0000E+00  0.7085E+02
     50.510  0.0000E+00  0.7130E+02
     50.906  0.0000E+00  0.7200E+02
     51.302  0.0000E+00  0.7242E+02
     51.698  0.0000E+00  0.7308E+02
     52.094  0.0000E+00  0.7375E+02
     52.490  0.1871E+00  0.7477E+02
     52.886  0.0000E+00  0.7572E+02
     53.282  0.0000E+00  0.7661E+02
     53.678  0.0000E+00  0.7672E+02
     54.074  0.0000E+00  0.7738E+02
     54.470  0.0000E+00  0.7819E+02
     54.866  0.0000E+00  0.7921E+02
     55.262  0.0000E+00  0.7981E+02
     55.658  0.0000E+00  0.8078E+02
     56.053  0.0000E+00  0.8183E+02
     56.449  0.1765E-06  0.8256E+02
     56.845  0.2196E-07  0.8322E+02
     57.241  0.0000E+00  0.8336E+02
     57.637  0.0000E+00  0.8394E+02
     58.033  0.0000E+00  0.8456E+02
     58.429  0.2385E-01  0.8591E+02
     58.825  0.0000E+00  0.8692E+02
     59.221  0.0000E+00  0.8754E+02
     59.617  0.0000E+00  0.8813E+02
     60.013  0.0000E+00  0.8911E+02
     60.409  0.0000E+00  0.9026E+02
     60.805  0.0000E+00  0.9093E+02
     61.201  0.1112E-11  0.9144E+02
     61.597  0.7525E-01  0.9205E+02
     61.993  0.0000E+00  0.9285E+02
     62.389  0.0000E+00  0.9391E+02
     62.785  0.0000E+00  0.9469E+02
     63.181  0.2806E+00  0.9606E+02
     63.577  0.0000E+00  0.9685E+02
     63.973  0.0000E+00  0.9764E+02
     64.369  0.0000E+00  0.9812E+02
     64.764  0.0000E+00  0.9897E+02
     65.160  0.0000E+00  0.9953E+02
     65.556  0.2806E+00  0.1005E+03
     65.952  0.1403E+00  0.1013E+03
     66.348  0.0000E+00  0.1021E+03
     66.744  0.0000E+00  0.1031E+03
     67.140  0.0000E+00  0.1041E+03
     67.536  0.0000E+00  0.1049E+03
     67.932  0.0000E+00  0.1056E+03
     68.328  0.0000E+00  0.1062E+03
     68.724  0.7367E-14  0.1070E+03
     69.120  0.0000E+00  0.1073E+03
     69.516  0.0000E+00  0.1079E+03
     69.912  0.0000E+00  0.1087E+03
     70.308  0.0000E+00  0.1098E+03
     70.704  0.1038E+00  0.1102E+03
     71.100  0.0000E+00  0.1113E+03
     71.496  0.0000E+00  0.1121E+03
     71.892  0.0000E+00  0.1132E+03
     72.288  0.0000E+00  0.1139E+03
     72.684  0.1990E-10  0.1150E+03
     73.080  0.0000E+00  0.1160E+03
     73.475  0.0000E+00  0.1173E+03
     73.871  0.0000E+00  0.1185E+03
     74.267  0.0000E+00  0.1193E+03
     74.663  0.0000E+00  0.1204E+03
     75.059  0.0000E+00  0.1207E+03
     75.455  0.0000E+00  0.1216E+03
     75.851  0.0000E+00  0.1217E+03
     76.247  0.0000E+00  0.1230E+03
     76.643  0.0000E+00  0.1237E+03
     77.039  0.0000E+00  0.1238E+03
     77.435  0.1825E+00  0.1252E+03
     77.831  0.0000E+00  0.1259E+03
     78.227  0.5612E+00  0.1266E+03
     78.623  0.0000E+00  0.1272E+03
     79.019  0.0000E+00  0.1275E+03
     79.415  0.0000E+00  0.1278E+03
     79.811  0.0000E+00  0.1278E+03
     80.207  0.0000E+00  0.1279E+03
     80.603  0.0000E+00  0.1280E+03
     80.999  0.0000E+00  0.1280E+03
     81.395  0.0000E+00  0.1280E+03
     81.791  0.0000E+00  0.1280E+03
     82.186  0.0000E+00  0.1280E+03
     82.582  0.0000E+00  0.1280E+03
     82.978  0.0000E+00  0.1280E+03
     83.374  0.0000E+00  0.1280E+03
     83.770  0.0000E+00  0.1280E+03
     84.166  0.0000E+00  0.1280E+03
     84.562  0.0000E+00  0.1280E+03
     84.958  0.0000E+00  0.1280E+03
     85.354  0.0000E+00  0.1280E+03
     85.750  0.0000E+00  0.1280E+03
