    1    1    1    1
  0.3298244E+02  0.3599697E-09  0.3599697E-09  0.3599697E-09  0.1000000E-15
  1.000000000000000E-004
  CAR 
 Og_FCC                                  
      8    216    128
 
  0.0000000E+00  0.0000000E+00  0.0000000E+00  0.4629630E-02
    1      -27.029704   1.000000
    2      -27.029703   1.000000
    3      -10.774538   1.000000
    4      -10.774537   1.000000
    5      -10.527906   1.000000
    6      -10.527905   1.000000
    7      -10.527889   1.000000
    8      -10.527888   1.000000
    9        5.477191   0.000000
   10        5.477192   0.000000
   11       14.844985   0.000000
   12       14.844985   0.000000
   13       14.846861   0.000000
   14       14.846861   0.000000
   15       14.846866   0.000000
   16       14.846867   0.000000
   17       14.440308   0.000000
   18       14.440309   0.000000
   19       14.440309   0.000000
   20       14.440309   0.000000
   21       17.330002   0.000000
   22       17.330003   0.000000
   23       20.631672   0.000000
   24       20.631673   0.000000
   25       20.643547   0.000000
   26       20.643549   0.000000
   27       20.643591   0.000000
   28       20.643593   0.000000
   29       22.187322   0.000000
   30       22.187324   0.000000
   31       30.561549   0.000000
   32       30.561550   0.000000
   33       30.561555   0.000000
   34       30.561557   0.000000
   35       30.568556   0.000000
   36       30.568557   0.000000
   37       32.883893   0.000000
   38       32.883894   0.000000
   39       33.017592   0.000000
   40       33.017593   0.000000
   41       33.017601   0.000000
   42       33.017602   0.000000
   43       35.405165   0.000000
   44       35.405167   0.000000
   45       35.405174   0.000000
   46       35.405176   0.000000
   47       42.138035   0.000000
   48       42.138035   0.000000
   49       42.815444   0.000000
   50       42.815447   0.000000
   51       42.815449   0.000000
   52       42.815452   0.000000
   53       42.815467   0.000000
   54       42.815469   0.000000
   55       50.418560   0.000000
   56       50.418565   0.000000
   57       50.418566   0.000000
   58       50.418568   0.000000
   59       53.470635   0.000000
   60       53.470636   0.000000
   61       53.480968   0.000000
   62       53.480971   0.000000
   63       53.480985   0.000000
   64       53.480987   0.000000
   65       53.483615   0.000000
   66       53.483617   0.000000
   67       53.523770   0.000000
   68       53.523772   0.000000
   69       53.523773   0.000000
   70       53.523775   0.000000
   71       57.895229   0.000000
   72       57.895229   0.000000
   73       58.235703   0.000000
   74       58.235703   0.000000
   75       58.241583   0.000000
   76       58.241585   0.000000
   77       58.241597   0.000000
   78       58.241599   0.000000
   79       60.714636   0.000000
   80       60.714639   0.000000
   81       61.566779   0.000000
   82       61.566783   0.000000
   83       61.566794   0.000000
   84       61.566800   0.000000
   85       61.566859   0.000000
   86       61.566863   0.000000
   87       62.831665   0.000000
   88       62.831671   0.000000
   89       62.831683   0.000000
   90       62.831688   0.000000
   91       62.831720   0.000000
   92       62.831727   0.000000
   93       64.034130   0.000000
   94       64.034133   0.000000
   95       64.034161   0.000000
   96       64.034164   0.000000
   97       64.034174   0.000000
   98       64.034178   0.000000
   99       64.905457   0.000000
  100       64.905462   0.000000
  101       64.905465   0.000000
  102       64.905470   0.000000
  103       67.872654   0.000000
  104       67.872656   0.000000
  105       68.217594   0.000000
  106       68.217597   0.000000
  107       68.217640   0.000000
  108       68.217643   0.000000
  109       68.217923   0.000000
  110       68.217925   0.000000
  111       68.803739   0.000000
  112       68.803741   0.000000
  113       68.808293   0.000000
  114       68.808297   0.000000
  115       68.808348   0.000000
  116       68.808351   0.000000
  117       69.032620   0.000000
  118       69.032623   0.000000
  119       81.608388   0.000000
  120       81.608390   0.000000
  121       81.608393   0.000000
  122       81.608394   0.000000
  123       87.267410   0.000000
  124       87.267412   0.000000
  125       87.267457   0.000000
  126       87.267460   0.000000
  127       87.274978   0.000000
  128       87.274979   0.000000
 
  0.1666667E+00  0.1890198E-17 -0.2775558E-16  0.4629630E-02
    1      -26.976447   1.000000
    2      -26.976446   1.000000
    3      -11.062873   1.000000
    4      -11.062872   1.000000
    5      -10.700236   1.000000
    6      -10.700236   1.000000
    7      -10.575433   1.000000
    8      -10.575433   1.000000
    9        6.282409   0.000000
   10        6.282409   0.000000
   11       13.483122   0.000000
   12       13.483123   0.000000
   13       15.095215   0.000000
   14       15.095216   0.000000
   15       15.097608   0.000000
   16       15.097608   0.000000
   17       14.031978   0.000000
   18       14.031978   0.000000
   19       14.033847   0.000000
   20       14.033847   0.000000
   21       18.052763   0.000000
   22       18.052766   0.000000
   23       19.543931   0.000000
   24       19.543933   0.000000
   25       22.276500   0.000000
   26       22.276502   0.000000
   27       22.284225   0.000000
   28       22.284226   0.000000
   29       25.060259   0.000000
   30       25.060261   0.000000
   31       27.763469   0.000000
   32       27.763471   0.000000
   33       28.157677   0.000000
   34       28.157678   0.000000
   35       28.180345   0.000000
   36       28.180346   0.000000
   37       32.709158   0.000000
   38       32.709159   0.000000
   39       32.738288   0.000000
   40       32.738288   0.000000
   41       35.023160   0.000000
   42       35.023162   0.000000
   43       36.507349   0.000000
   44       36.507350   0.000000
   45       36.536466   0.000000
   46       36.536467   0.000000
   47       42.987757   0.000000
   48       42.987758   0.000000
   49       42.990610   0.000000
   50       42.990612   0.000000
   51       43.207398   0.000000
   52       43.207401   0.000000
   53       43.543113   0.000000
   54       43.543114   0.000000
   55       47.596445   0.000000
   56       47.596448   0.000000
   57       49.255076   0.000000
   58       49.255077   0.000000
   59       49.264985   0.000000
   60       49.264986   0.000000
   61       51.922860   0.000000
   62       51.922861   0.000000
   63       51.927826   0.000000
   64       51.927827   0.000000
   65       53.373219   0.000000
   66       53.373222   0.000000
   67       54.860551   0.000000
   68       54.860553   0.000000
   69       54.864756   0.000000
   70       54.864758   0.000000
   71       56.843284   0.000000
   72       56.843288   0.000000
   73       57.004871   0.000000
   74       57.004872   0.000000
   75       57.016019   0.000000
   76       57.016021   0.000000
   77       57.305416   0.000000
   78       57.305417   0.000000
   79       58.142374   0.000000
   80       58.142379   0.000000
   81       59.145155   0.000000
   82       59.145157   0.000000
   83       59.148555   0.000000
   84       59.148556   0.000000
   85       60.478948   0.000000
   86       60.478950   0.000000
   87       63.156460   0.000000
   88       63.156462   0.000000
   89       63.156671   0.000000
   90       63.156673   0.000000
   91       63.722209   0.000000
   92       63.722212   0.000000
   93       65.006310   0.000000
   94       65.006312   0.000000
   95       65.008527   0.000000
   96       65.008528   0.000000
   97       66.497191   0.000000
   98       66.497194   0.000000
   99       67.651027   0.000000
  100       67.651030   0.000000
  101       67.821175   0.000000
  102       67.821176   0.000000
  103       67.821386   0.000000
  104       67.821388   0.000000
  105       68.643446   0.000000
  106       68.643451   0.000000
  107       72.643814   0.000000
  108       72.643815   0.000000
  109       72.644343   0.000000
  110       72.644344   0.000000
  111       72.999414   0.000000
  112       72.999417   0.000000
  113       73.466037   0.000000
  114       73.466039   0.000000
  115       73.466588   0.000000
  116       73.466590   0.000000
  117       77.428314   0.000000
  118       77.428315   0.000000
  119       77.447551   0.000000
  120       77.447552   0.000000
  121       79.931334   0.000000
  122       79.931338   0.000000
  123       82.367646   0.000000
  124       82.367650   0.000000
  125       83.038723   0.000000
  126       83.038727   0.000000
  127       83.471595   0.000000
  128       83.471595   0.000000
 
  0.3333333E+00  0.3780395E-17 -0.2775558E-16  0.4629630E-02
    1      -26.864142   1.000000
    2      -26.864142   1.000000
    3      -11.799730   1.000000
    4      -11.799729   1.000000
    5      -10.816533   1.000000
    6      -10.816533   1.000000
    7      -10.666404   1.000000
    8      -10.666404   1.000000
    9        8.017076   0.000000
   10        8.017076   0.000000
   11       11.874231   0.000000
   12       11.874232   0.000000
   13       14.643950   0.000000
   14       14.643950   0.000000
   15       14.645421   0.000000
   16       14.645422   0.000000
   17       14.982556   0.000000
   18       14.982556   0.000000
   19       14.986420   0.000000
   20       14.986420   0.000000
   21       16.691482   0.000000
   22       16.691484   0.000000
   23       21.021190   0.000000
   24       21.021190   0.000000
   25       24.104439   0.000000
   26       24.104440   0.000000
   27       24.135696   0.000000
   28       24.135697   0.000000
   29       24.571821   0.000000
   30       24.571823   0.000000
   31       25.690060   0.000000
   32       25.690061   0.000000
   33       25.691412   0.000000
   34       25.691413   0.000000
   35       31.841318   0.000000
   36       31.841321   0.000000
   37       32.739591   0.000000
   38       32.739592   0.000000
   39       32.763160   0.000000
   40       32.763161   0.000000
   41       34.849354   0.000000
   42       34.849356   0.000000
   43       37.608769   0.000000
   44       37.608770   0.000000
   45       37.643367   0.000000
   46       37.643368   0.000000
   47       40.043105   0.000000
   48       40.043107   0.000000
   49       40.045353   0.000000
   50       40.045354   0.000000
   51       41.060796   0.000000
   52       41.060798   0.000000
   53       44.257418   0.000000
   54       44.257421   0.000000
   55       46.510590   0.000000
   56       46.510593   0.000000
   57       48.187994   0.000000
   58       48.187996   0.000000
   59       48.189418   0.000000
   60       48.189419   0.000000
   61       48.896394   0.000000
   62       48.896396   0.000000
   63       50.694731   0.000000
   64       50.694733   0.000000
   65       50.695239   0.000000
   66       50.695240   0.000000
   67       52.850983   0.000000
   68       52.850988   0.000000
   69       54.301898   0.000000
   70       54.301899   0.000000
   71       54.322350   0.000000
   72       54.322351   0.000000
   73       54.430890   0.000000
   74       54.430892   0.000000
   75       57.000709   0.000000
   76       57.000710   0.000000
   77       57.485433   0.000000
   78       57.485435   0.000000
   79       57.486406   0.000000
   80       57.486408   0.000000
   81       60.026562   0.000000
   82       60.026564   0.000000
   83       60.034879   0.000000
   84       60.034880   0.000000
   85       60.525616   0.000000
   86       60.525619   0.000000
   87       63.900530   0.000000
   88       63.900532   0.000000
   89       63.901129   0.000000
   90       63.901130   0.000000
   91       65.151660   0.000000
   92       65.151663   0.000000
   93       69.028562   0.000000
   94       69.028563   0.000000
   95       69.029914   0.000000
   96       69.029915   0.000000
   97       71.225835   0.000000
   98       71.225838   0.000000
   99       71.674095   0.000000
  100       71.674097   0.000000
  101       71.699896   0.000000
  102       71.699897   0.000000
  103       72.782819   0.000000
  104       72.782822   0.000000
  105       73.798310   0.000000
  106       73.798312   0.000000
  107       73.805232   0.000000
  108       73.805234   0.000000
  109       76.055575   0.000000
  110       76.055581   0.000000
  111       76.140982   0.000000
  112       76.140983   0.000000
  113       76.142264   0.000000
  114       76.142265   0.000000
  115       76.882289   0.000000
  116       76.882293   0.000000
  117       77.738310   0.000000
  118       77.738315   0.000000
  119       79.422784   0.000000
  120       79.422786   0.000000
  121       79.423750   0.000000
  122       79.423753   0.000000
  123       79.743475   0.000000
  124       79.743478   0.000000
  125       83.597117   0.000000
  126       83.597119   0.000000
  127       83.597346   0.000000
  128       83.597348   0.000000
 
  0.5000000E+00  0.5670593E-17 -0.8326673E-16  0.4629630E-02
    1      -26.804826   1.000000
    2      -26.804825   1.000000
    3      -12.151076   1.000000
    4      -12.151075   1.000000
    5      -10.864283   1.000000
    6      -10.864282   1.000000
    7      -10.711932   1.000000
    8      -10.711931   1.000000
    9        9.111970   0.000000
   10        9.111970   0.000000
   11       11.072860   0.000000
   12       11.072861   0.000000
   13       14.260859   0.000000
   14       14.260860   0.000000
   15       14.261971   0.000000
   16       14.261973   0.000000
   17       16.252661   0.000000
   18       16.252661   0.000000
   19       16.255200   0.000000
   20       16.255201   0.000000
   21       16.784226   0.000000
   22       16.784228   0.000000
   23       18.928760   0.000000
   24       18.928761   0.000000
   25       21.896088   0.000000
   26       21.896089   0.000000
   27       21.926669   0.000000
   28       21.926671   0.000000
   29       27.933016   0.000000
   30       27.933017   0.000000
   31       27.938222   0.000000
   32       27.938223   0.000000
   33       28.087163   0.000000
   34       28.087164   0.000000
   35       31.226518   0.000000
   36       31.226520   0.000000
   37       32.560563   0.000000
   38       32.560565   0.000000
   39       32.606199   0.000000
   40       32.606201   0.000000
   41       36.838970   0.000000
   42       36.838972   0.000000
   43       36.841902   0.000000
   44       36.841903   0.000000
   45       38.475806   0.000000
   46       38.475809   0.000000
   47       38.809684   0.000000
   48       38.809687   0.000000
   49       39.363246   0.000000
   50       39.363247   0.000000
   51       39.389675   0.000000
   52       39.389676   0.000000
   53       41.594899   0.000000
   54       41.594901   0.000000
   55       45.035031   0.000000
   56       45.035033   0.000000
   57       46.325972   0.000000
   58       46.325973   0.000000
   59       46.327714   0.000000
   60       46.327715   0.000000
   61       47.670675   0.000000
   62       47.670677   0.000000
   63       49.768633   0.000000
   64       49.768634   0.000000
   65       49.768651   0.000000
   66       49.768652   0.000000
   67       51.082397   0.000000
   68       51.082401   0.000000
   69       56.899336   0.000000
   70       56.899337   0.000000
   71       56.900760   0.000000
   72       56.900762   0.000000
   73       56.904131   0.000000
   74       56.904132   0.000000
   75       56.938872   0.000000
   76       56.938874   0.000000
   77       58.406186   0.000000
   78       58.406187   0.000000
   79       58.408886   0.000000
   80       58.408887   0.000000
   81       59.243760   0.000000
   82       59.243762   0.000000
   83       59.263268   0.000000
   84       59.263270   0.000000
   85       60.753908   0.000000
   86       60.753910   0.000000
   87       65.212641   0.000000
   88       65.212645   0.000000
   89       66.199148   0.000000
   90       66.199149   0.000000
   91       66.229007   0.000000
   92       66.229007   0.000000
   93       68.810371   0.000000
   94       68.810372   0.000000
   95       68.813008   0.000000
   96       68.813009   0.000000
   97       69.537748   0.000000
   98       69.537750   0.000000
   99       69.997998   0.000000
  100       69.998000   0.000000
  101       70.003754   0.000000
  102       70.003755   0.000000
  103       73.361974   0.000000
  104       73.361979   0.000000
  105       76.786618   0.000000
  106       76.786620   0.000000
  107       76.787674   0.000000
  108       76.787676   0.000000
  109       78.330370   0.000000
  110       78.330373   0.000000
  111       79.217642   0.000000
  112       79.217644   0.000000
  113       79.233368   0.000000
  114       79.233370   0.000000
  115       80.278785   0.000000
  116       80.278786   0.000000
  117       80.279704   0.000000
  118       80.279705   0.000000
  119       81.900785   0.000000
  120       81.900787   0.000000
  121       81.904637   0.000000
  122       81.904639   0.000000
  123       82.800538   0.000000
  124       82.800542   0.000000
  125       83.544446   0.000000
  126       83.544449   0.000000
  127       84.148585   0.000000
  128       84.148591   0.000000
 
 -0.3333333E+00 -0.3780395E-17  0.2775558E-16  0.4629630E-02
    1      -26.864137   1.000000
    2      -26.864136   1.000000
    3      -11.799724   1.000000
    4      -11.799723   1.000000
    5      -10.816531   1.000000
    6      -10.816531   1.000000
    7      -10.666402   1.000000
    8      -10.666402   1.000000
    9        8.017076   0.000000
   10        8.017077   0.000000
   11       11.874238   0.000000
   12       11.874239   0.000000
   13       14.643951   0.000000
   14       14.643952   0.000000
   15       14.645423   0.000000
   16       14.645424   0.000000
   17       14.982556   0.000000
   18       14.982556   0.000000
   19       14.986420   0.000000
   20       14.986420   0.000000
   21       16.691482   0.000000
   22       16.691484   0.000000
   23       21.021190   0.000000
   24       21.021190   0.000000
   25       24.104439   0.000000
   26       24.104440   0.000000
   27       24.135696   0.000000
   28       24.135697   0.000000
   29       24.571821   0.000000
   30       24.571823   0.000000
   31       25.690060   0.000000
   32       25.690061   0.000000
   33       25.691412   0.000000
   34       25.691413   0.000000
   35       31.841318   0.000000
   36       31.841321   0.000000
   37       32.739591   0.000000
   38       32.739592   0.000000
   39       32.763160   0.000000
   40       32.763161   0.000000
   41       34.849354   0.000000
   42       34.849356   0.000000
   43       37.608768   0.000000
   44       37.608769   0.000000
   45       37.643367   0.000000
   46       37.643368   0.000000
   47       40.043105   0.000000
   48       40.043107   0.000000
   49       40.045353   0.000000
   50       40.045355   0.000000
   51       41.060796   0.000000
   52       41.060798   0.000000
   53       44.257418   0.000000
   54       44.257421   0.000000
   55       46.510590   0.000000
   56       46.510593   0.000000
   57       48.187995   0.000000
   58       48.187996   0.000000
   59       48.189418   0.000000
   60       48.189419   0.000000
   61       48.896394   0.000000
   62       48.896396   0.000000
   63       50.694731   0.000000
   64       50.694733   0.000000
   65       50.695239   0.000000
   66       50.695240   0.000000
   67       52.850983   0.000000
   68       52.850988   0.000000
   69       54.301898   0.000000
   70       54.301899   0.000000
   71       54.322350   0.000000
   72       54.322351   0.000000
   73       54.430890   0.000000
   74       54.430892   0.000000
   75       57.000709   0.000000
   76       57.000710   0.000000
   77       57.485433   0.000000
   78       57.485435   0.000000
   79       57.486406   0.000000
   80       57.486407   0.000000
   81       60.026562   0.000000
   82       60.026564   0.000000
   83       60.034879   0.000000
   84       60.034880   0.000000
   85       60.525616   0.000000
   86       60.525619   0.000000
   87       63.900531   0.000000
   88       63.900532   0.000000
   89       63.901129   0.000000
   90       63.901130   0.000000
   91       65.151660   0.000000
   92       65.151663   0.000000
   93       69.028562   0.000000
   94       69.028563   0.000000
   95       69.029914   0.000000
   96       69.029915   0.000000
   97       71.225835   0.000000
   98       71.225838   0.000000
   99       71.674095   0.000000
  100       71.674097   0.000000
  101       71.699896   0.000000
  102       71.699897   0.000000
  103       72.782819   0.000000
  104       72.782822   0.000000
  105       73.798310   0.000000
  106       73.798312   0.000000
  107       73.805232   0.000000
  108       73.805234   0.000000
  109       76.055575   0.000000
  110       76.055581   0.000000
  111       76.140982   0.000000
  112       76.140983   0.000000
  113       76.142263   0.000000
  114       76.142265   0.000000
  115       76.882289   0.000000
  116       76.882293   0.000000
  117       77.738310   0.000000
  118       77.738315   0.000000
  119       79.422784   0.000000
  120       79.422786   0.000000
  121       79.423750   0.000000
  122       79.423752   0.000000
  123       79.743475   0.000000
  124       79.743478   0.000000
  125       83.597117   0.000000
  126       83.597119   0.000000
  127       83.597346   0.000000
  128       83.597349   0.000000
 
 -0.1666667E+00 -0.1890198E-17  0.2775558E-16  0.4629630E-02
    1      -26.976444   1.000000
    2      -26.976443   1.000000
    3      -11.062869   1.000000
    4      -11.062868   1.000000
    5      -10.700235   1.000000
    6      -10.700235   1.000000
    7      -10.575432   1.000000
    8      -10.575432   1.000000
    9        6.282407   0.000000
   10        6.282407   0.000000
   11       13.483124   0.000000
   12       13.483125   0.000000
   13       15.095217   0.000000
   14       15.095217   0.000000
   15       15.097609   0.000000
   16       15.097610   0.000000
   17       14.031978   0.000000
   18       14.031978   0.000000
   19       14.033847   0.000000
   20       14.033847   0.000000
   21       18.052763   0.000000
   22       18.052766   0.000000
   23       19.543931   0.000000
   24       19.543933   0.000000
   25       22.276500   0.000000
   26       22.276502   0.000000
   27       22.284225   0.000000
   28       22.284226   0.000000
   29       25.060259   0.000000
   30       25.060261   0.000000
   31       27.763469   0.000000
   32       27.763471   0.000000
   33       28.157677   0.000000
   34       28.157678   0.000000
   35       28.180345   0.000000
   36       28.180346   0.000000
   37       32.709158   0.000000
   38       32.709159   0.000000
   39       32.738287   0.000000
   40       32.738288   0.000000
   41       35.023160   0.000000
   42       35.023162   0.000000
   43       36.507349   0.000000
   44       36.507350   0.000000
   45       36.536466   0.000000
   46       36.536467   0.000000
   47       42.987756   0.000000
   48       42.987758   0.000000
   49       42.990610   0.000000
   50       42.990612   0.000000
   51       43.207398   0.000000
   52       43.207401   0.000000
   53       43.543113   0.000000
   54       43.543114   0.000000
   55       47.596445   0.000000
   56       47.596448   0.000000
   57       49.255076   0.000000
   58       49.255077   0.000000
   59       49.264985   0.000000
   60       49.264986   0.000000
   61       51.922860   0.000000
   62       51.922861   0.000000
   63       51.927826   0.000000
   64       51.927827   0.000000
   65       53.373219   0.000000
   66       53.373222   0.000000
   67       54.860551   0.000000
   68       54.860553   0.000000
   69       54.864756   0.000000
   70       54.864758   0.000000
   71       56.843284   0.000000
   72       56.843288   0.000000
   73       57.004871   0.000000
   74       57.004872   0.000000
   75       57.016020   0.000000
   76       57.016021   0.000000
   77       57.305416   0.000000
   78       57.305417   0.000000
   79       58.142374   0.000000
   80       58.142379   0.000000
   81       59.145155   0.000000
   82       59.145157   0.000000
   83       59.148555   0.000000
   84       59.148556   0.000000
   85       60.478948   0.000000
   86       60.478950   0.000000
   87       63.156460   0.000000
   88       63.156462   0.000000
   89       63.156671   0.000000
   90       63.156673   0.000000
   91       63.722209   0.000000
   92       63.722212   0.000000
   93       65.006310   0.000000
   94       65.006312   0.000000
   95       65.008527   0.000000
   96       65.008528   0.000000
   97       66.497191   0.000000
   98       66.497194   0.000000
   99       67.651027   0.000000
  100       67.651030   0.000000
  101       67.821174   0.000000
  102       67.821176   0.000000
  103       67.821386   0.000000
  104       67.821388   0.000000
  105       68.643446   0.000000
  106       68.643451   0.000000
  107       72.643813   0.000000
  108       72.643815   0.000000
  109       72.644343   0.000000
  110       72.644345   0.000000
  111       72.999414   0.000000
  112       72.999417   0.000000
  113       73.466037   0.000000
  114       73.466040   0.000000
  115       73.466588   0.000000
  116       73.466590   0.000000
  117       77.428314   0.000000
  118       77.428315   0.000000
  119       77.447551   0.000000
  120       77.447552   0.000000
  121       79.931334   0.000000
  122       79.931338   0.000000
  123       82.367646   0.000000
  124       82.367650   0.000000
  125       83.038723   0.000000
  126       83.038727   0.000000
  127       83.471595   0.000000
  128       83.471596   0.000000
 
  0.3851860E-33  0.1666667E+00 -0.1387779E-16  0.4629630E-02
    1      -26.976447   1.000000
    2      -26.976446   1.000000
    3      -11.062873   1.000000
    4      -11.062872   1.000000
    5      -10.700236   1.000000
    6      -10.700236   1.000000
    7      -10.575433   1.000000
    8      -10.575433   1.000000
    9        6.282409   0.000000
   10        6.282409   0.000000
   11       13.483121   0.000000
   12       13.483122   0.000000
   13       15.095216   0.000000
   14       15.095216   0.000000
   15       15.097608   0.000000
   16       15.097609   0.000000
   17       14.031977   0.000000
   18       14.031978   0.000000
   19       14.033847   0.000000
   20       14.033847   0.000000
   21       18.052765   0.000000
   22       18.052767   0.000000
   23       19.543931   0.000000
   24       19.543932   0.000000
   25       22.276499   0.000000
   26       22.276501   0.000000
   27       22.284224   0.000000
   28       22.284225   0.000000
   29       25.060259   0.000000
   30       25.060261   0.000000
   31       27.763470   0.000000
   32       27.763472   0.000000
   33       28.157674   0.000000
   34       28.157675   0.000000
   35       28.180342   0.000000
   36       28.180344   0.000000
   37       32.709162   0.000000
   38       32.709162   0.000000
   39       32.738291   0.000000
   40       32.738292   0.000000
   41       35.023160   0.000000
   42       35.023162   0.000000
   43       36.507349   0.000000
   44       36.507350   0.000000
   45       36.536466   0.000000
   46       36.536467   0.000000
   47       42.987757   0.000000
   48       42.987759   0.000000
   49       42.990611   0.000000
   50       42.990613   0.000000
   51       43.207396   0.000000
   52       43.207399   0.000000
   53       43.543113   0.000000
   54       43.543114   0.000000
   55       47.596444   0.000000
   56       47.596446   0.000000
   57       49.255075   0.000000
   58       49.255077   0.000000
   59       49.264984   0.000000
   60       49.264986   0.000000
   61       51.922858   0.000000
   62       51.922860   0.000000
   63       51.927825   0.000000
   64       51.927827   0.000000
   65       53.373217   0.000000
   66       53.373220   0.000000
   67       54.860550   0.000000
   68       54.860551   0.000000
   69       54.864755   0.000000
   70       54.864757   0.000000
   71       56.843280   0.000000
   72       56.843285   0.000000
   73       57.004873   0.000000
   74       57.004875   0.000000
   75       57.016021   0.000000
   76       57.016023   0.000000
   77       57.305417   0.000000
   78       57.305418   0.000000
   79       58.142376   0.000000
   80       58.142380   0.000000
   81       59.145158   0.000000
   82       59.145160   0.000000
   83       59.148558   0.000000
   84       59.148559   0.000000
   85       60.478953   0.000000
   86       60.478955   0.000000
   87       63.156464   0.000000
   88       63.156466   0.000000
   89       63.156673   0.000000
   90       63.156675   0.000000
   91       63.722209   0.000000
   92       63.722212   0.000000
   93       65.006309   0.000000
   94       65.006311   0.000000
   95       65.008525   0.000000
   96       65.008527   0.000000
   97       66.497191   0.000000
   98       66.497194   0.000000
   99       67.651018   0.000000
  100       67.651022   0.000000
  101       67.821171   0.000000
  102       67.821174   0.000000
  103       67.821382   0.000000
  104       67.821385   0.000000
  105       68.643443   0.000000
  106       68.643448   0.000000
  107       72.643813   0.000000
  108       72.643814   0.000000
  109       72.644344   0.000000
  110       72.644346   0.000000
  111       72.999415   0.000000
  112       72.999418   0.000000
  113       73.466038   0.000000
  114       73.466041   0.000000
  115       73.466589   0.000000
  116       73.466591   0.000000
  117       77.428312   0.000000
  118       77.428314   0.000000
  119       77.447549   0.000000
  120       77.447552   0.000000
  121       79.931337   0.000000