    2    2  999    1
  0.2822930E+02  0.3418259E-09  0.3424337E-09  0.5571002E-09  0.1000000E-15
  1.000000000000000E-004
  CAR 
 Cn_HCP                                  
     24    364     36
 
  0.0000000E+00  0.0000000E+00  0.0000000E+00  0.1377410E-02
    1       -5.660807   1.000000
    2       -5.660797   1.000000
    3       -3.339753   1.000000
    4       -3.339750   1.000000
    5       -2.323019   1.000000
    6       -2.323017   1.000000
    7       -2.321305   1.000000
    8       -2.321302   1.000000
    9       -2.309046   1.000000
   10       -2.309044   1.000000
   11       -0.675114   1.000000
   12       -0.675111   1.000000
   13        0.555241   1.000000
   14        0.555244   1.000000
   15        0.721667   1.000000
   16        0.721669   1.000000
   17        0.749572   1.000000
   18        0.749575   1.000000
   19        0.992089   1.000000
   20        0.992091   1.000000
   21        1.766415   1.000000
   22        1.766418   1.000000
   23        2.204313   0.394050
   24        2.204317   0.394017
   25        3.003367  -0.000000
   26        3.003386  -0.000000
   27       12.594002   0.000000
   28       12.594002   0.000000
   29       13.272718   0.000000
   30       13.272721   0.000000
   31       16.070452   0.000000
   32       16.070486   0.000000
   33       17.611951   0.000000
   34       17.614477   0.000000
   35       17.619124   0.000000
   36       17.623964   0.000000
 
  0.9090909E-01  0.7496943E-17  0.1694066E-20  0.2754821E-02
    1       -5.494244   1.000000
    2       -5.494234   1.000000
    3       -3.203056   1.000000
    4       -3.203054   1.000000
    5       -2.328315   1.000000
    6       -2.328313   1.000000
    7       -2.303928   1.000000
    8       -2.303926   1.000000
    9       -2.295493   1.000000
   10       -2.295491   1.000000
   11       -0.734095   1.000000
   12       -0.734093   1.000000
   13        0.552168   1.000000
   14        0.552170   1.000000
   15        0.748367   1.000000
   16        0.748369   1.000000
   17        0.775462   1.000000
   18        0.775464   1.000000
   19        0.984056   1.000000
   20        0.984058   1.000000
   21        1.533657   1.000000
   22        1.533659   1.000000
   23        2.118060   0.971886
   24        2.118065   0.971870
   25        3.523391  -0.000000
   26        3.523405  -0.000000
   27       12.082461   0.000000
   28       12.082463   0.000000
   29       12.602298   0.000000
   30       12.602300   0.000000
   31       16.064427   0.000000
   32       16.064457   0.000000
   33       16.557812   0.000000
   34       16.557822   0.000000
   35       17.754364   0.000000
   36       17.754871   0.000000
 
  0.1818182E+00  0.1499389E-16  0.3388132E-20  0.2754821E-02
    1       -5.014735   1.000000
    2       -5.014725   1.000000
    3       -2.871354   1.000000
    4       -2.871353   1.000000
    5       -2.328079   1.000000
    6       -2.328076   1.000000
    7       -2.277808   1.000000
    8       -2.277806   1.000000
    9       -2.251343   1.000000
   10       -2.251342   1.000000
   11       -0.814584   1.000000
   12       -0.814582   1.000000
   13        0.594117   1.000000
   14        0.594118   1.000000
   15        0.703283   1.000000
   16        0.703286   1.000000
   17        0.875320   1.000000
   18        0.875322   1.000000
   19        0.999810   1.000000
   20        0.999811   1.000000
   21        1.259586   1.000000
   22        1.259589   1.000000
   23        2.026858   1.020853
   24        2.026863   1.020855
   25        4.490892  -0.000000
   26        4.490903  -0.000000
   27       10.454250   0.000000
   28       10.454257   0.000000
   29       11.270887   0.000000
   30       11.270890   0.000000
   31       15.140667   0.000000
   32       15.140673   0.000000
   33       16.011613   0.000000
   34       16.011634   0.000000
   35       17.676067   0.000000
   36       17.692409   0.000000
 
  0.2727273E+00  0.1555193E-16 -0.1185846E-19  0.2754821E-02
    1       -4.302358   1.000000
    2       -4.302349   1.000000
    3       -2.624937   1.000000
    4       -2.624935   1.000000
    5       -2.328302   1.000000
    6       -2.328299   1.000000
    7       -2.253927   1.000000
    8       -2.253926   1.000000
    9       -2.135213   1.000000
   10       -2.135211   1.000000
   11       -0.621685   1.000000
   12       -0.621683   1.000000
   13        0.497094   1.000000
   14        0.497095   1.000000
   15        0.684631   1.000000
   16        0.684632   1.000000
   17        0.951398   1.000000
   18        0.951400   1.000000
   19        1.118806   1.000000
   20        1.118808   1.000000
   21        1.309394   1.000000
   22        1.309396   1.000000
   23        1.949697   1.001644
   24        1.949701   1.001644
   25        5.476933   0.000000
   26        5.476942   0.000000
   27        8.373280   0.000000
   28        8.373288   0.000000
   29        9.837530   0.000000
   30        9.837533   0.000000
   31       13.426428   0.000000
   32       13.426437   0.000000
   33       14.934363   0.000000
   34       14.934367   0.000000
   35       16.411951   0.000000
   36       16.412035   0.000000
 
  0.3636364E+00  0.2998777E-16  0.6776264E-20  0.2754821E-02
    1       -3.577244   1.000000
    2       -3.577238   1.000000
    3       -2.595720   1.000000
    4       -2.595718   1.000000
    5       -2.341119   1.000000
    6       -2.341117   1.000000
    7       -2.275589   1.000000
    8       -2.275588   1.000000
    9       -1.854704   1.000000
   10       -1.854702   1.000000
   11       -0.106854   1.000000
   12       -0.106853   1.000000
   13        0.312453   1.000000
   14        0.312454   1.000000
   15        0.701366   1.000000
   16        0.701369   1.000000
   17        1.094498   1.000000
   18        1.094499   1.000000
   19        1.215208   1.000000
   20        1.215209   1.000000
   21        1.617468   1.000000
   22        1.617472   1.000000
   23        1.987546   1.006979
   24        1.987549   1.006979
   25        5.704489   0.000000
   26        5.704492   0.000000
   27        6.733664   0.000000
   28        6.733668   0.000000
   29        8.837740   0.000000
   30        8.837743   0.000000
   31       11.997257   0.000000
   32       11.997267   0.000000
   33       13.394119   0.000000
   34       13.394125   0.000000
   35       15.516452   0.000000
   36       15.516476   0.000000
 
  0.4545455E+00  0.7217918E-16  0.1355253E-19  0.2754821E-02
    1       -3.188250   1.000000
    2       -3.188246   1.000000
    3       -2.619648   1.000000
    4       -2.619647   1.000000
    5       -2.376293   1.000000
    6       -2.376293   1.000000
    7       -2.299253   1.000000
    8       -2.299250   1.000000
    9       -1.299989   1.000000
   10       -1.299985   1.000000
   11       -0.308225   1.000000
   12       -0.308221   1.000000
   13        0.624361   1.000000
   14        0.624364   1.000000
   15        0.712117   1.000000
   16        0.712119   1.000000
   17        1.231422   1.000000
   18        1.231426   1.000000
   19        1.244209   1.000000
   20        1.244212   1.000000
   21        2.005038   1.012011
   22        2.005042   1.012013
   23        2.176879   0.623765
   24        2.176882   0.623744
   25        4.937525   0.000000
   26        4.937535   0.000000
   27        5.689147   0.000000
   28        5.689152   0.000000
   29        8.998797   0.000000
   30        8.998802   0.000000
   31       11.415086   0.000000
   32       11.415096   0.000000
   33       12.087379   0.000000
   34       12.087388   0.000000
   35       14.996600   0.000000
   36       14.996623   0.000000
 
  0.1154744E-20  0.9090909E-01  0.0000000E+00  0.2754821E-02
    1       -5.494905   1.000000
    2       -5.494895   1.000000
    3       -3.203951   1.000000
    4       -3.203948   1.000000
    5       -2.328985   1.000000
    6       -2.328983   1.000000
    7       -2.304466   1.000000
    8       -2.304464   1.000000
    9       -2.294930   1.000000
   10       -2.294928   1.000000
   11       -0.733739   1.000000
   12       -0.733736   1.000000
   13        0.553310   1.000000
   14        0.553311   1.000000
   15        0.742403   1.000000
   16        0.742405   1.000000
   17        0.780182   1.000000
   18        0.780184   1.000000
   19        0.985124   1.000000
   20        0.985126   1.000000
   21        1.533723   1.000000
   22        1.533725   1.000000
   23        2.116793   0.975793
   24        2.116797   0.975781
   25        3.523901  -0.000000
   26        3.523916  -0.000000
   27       12.081032   0.000000
   28       12.081034   0.000000
   29       12.592290   0.000000
   30       12.592294   0.000000
   31       16.067778   0.000000
   32       16.067808   0.000000
   33       16.577642   0.000000
   34       16.577673   0.000000
   35       17.755113   0.000000
   36       17.769757   0.000000
 
  0.9090909E-01  0.9090909E-01  0.6776264E-20  0.2754821E-02
    1       -5.171029   1.000000
    2       -5.171019   1.000000
    3       -2.963923   1.000000
    4       -2.963921   1.000000
    5       -2.327673   1.000000
    6       -2.327670   1.000000
    7       -2.288960   1.000000
    8       -2.288958   1.000000
    9       -2.268644   1.000000
   10       -2.268642   1.000000
   11       -0.809443   1.000000
   12       -0.809441   1.000000
   13        0.579858   1.000000
   14        0.579860   1.000000
   15        0.729261   1.000000
   16        0.729263   1.000000
   17        0.852169   1.000000
   18        0.852171   1.000000
   19        0.990832   1.000000
   20        0.990834   1.000000
   21        1.300275   1.000000
   22        1.300279   1.000000
   23        2.048499   1.030552
   24        2.048504   1.030554
   25        4.218280  -0.000000
   26        4.218293  -0.000000
   27       11.148210   0.000000
   28       11.148214   0.000000
   29       11.451139   0.000000
   30       11.451143   0.000000
   31       15.254993   0.000000
   32       15.255003   0.000000
   33       16.551483   0.000000
   34       16.551536   0.000000
   35       17.942237   0.000000
   36       18.028070   0.000000
 
  0.1818182E+00  0.9090909E-01  0.6776264E-20  0.2754821E-02
    1       -4.565472   1.000000
    2       -4.565463   1.000000
    3       -2.645327   1.000000
    4       -2.645326   1.000000
    5       -2.325885   1.000000
    6       -2.325882   1.000000
    7       -2.269067   1.000000
    8       -2.269065   1.000000
    9       -2.210432   1.000000
   10       -2.210430   1.000000
   11       -0.785395   1.000000
   12       -0.785393   1.000000
   13        0.602525   1.000000
   14        0.602526   1.000000
   15        0.677302   1.000000
   16        0.677303   1.000000
   17        0.927684   1.000000
   18        0.927685   1.000000
   19        1.082885   1.000000
   20        1.082887   1.000000
   21        1.210528   1.000000
   22        1.210531   1.000000
   23        1.963082   1.002854
   24        1.963086   1.002855
   25        5.163847   0.000000
   26        5.163857   0.000000
   27        9.357223   0.000000
   28        9.357230   0.000000
   29       10.089369   0.000000
   30       10.089374   0.000000
   31       13.846646   0.000000
   32       13.846655   0.000000
   33       15.594819   0.000000
   34       15.594825   0.000000
   35       16.891591   0.000000
   36       16.892621   0.000000
 
  0.2727273E+00  0.9090909E-01 -0.6776264E-20  0.2754821E-02
    1       -3.808526   1.000000
    2       -3.808518   1.000000
    3       -2.524940   1.000000
    4       -2.524939   1.000000
    5       -2.331274   1.000000
    6       -2.331271   1.000000
    7       -2.264875   1.000000
    8       -2.264874   1.000000
    9       -2.044587   1.000000
   10       -2.044585   1.000000
   11       -0.406563   1.000000
   12       -0.406562   1.000000
   13        0.390687   1.000000
   14        0.390688   1.000000
   15        0.744118   1.000000
   16        0.744120   1.000000
   17        1.001500   1.000000
   18        1.001503   1.000000
   19        1.193733   1.000000
   20        1.193736   1.000000
   21        1.436787   1.000000
   22        1.436790   1.000000
   23        1.934452   1.000833
   24        1.934456   1.000833
   25        5.852250   0.000000
   26        5.852254   0.000000
   27        7.472367   0.000000
   28        7.472374   0.000000
   29        9.026198   0.000000
   30        9.026201   0.000000
   31       12.298079   0.000000
   32       12.298089   0.000000
   33       13.980422   0.000000
   34       13.980426   0.000000
   35       15.703955   0.000000
   36       15.703976   0.000000
 
  0.3636364E+00  0.9090909E-01  0.6776264E-20  0.2754821E-02
    1       -3.219030   1.000000
    2       -3.219025   1.000000
    3       -2.537870   1.000000
    4       -2.537868   1.000000
    5       -2.364697   1.000000
    6       -2.364696   1.000000
    7       -2.284975   1.000000
    8       -2.284973   1.000000
    9       -1.622675   1.000000
   10       -1.622671   1.000000
   11       -0.150828   1.000000
   12       -0.150826   1.000000
   13        0.439372   1.000000
   14        0.439374   1.000000
   15        0.712156   1.000000
   16        0.712158   1.000000
   17        1.156249   1.000000
   18        1.156251   1.000000
   19        1.202810   1.000000
   20        1.202812   1.000000
   21        1.795355   1.000000
   22        1.795359   1.000000
   23        2.042093   1.027834
   24        2.042095   1.027835
   25        5.386449   0.000000
   26        5.386457   0.000000
   27        6.238161   0.000000
   28        6.238166   0.000000
   29        8.974068   0.000000
   30        8.974072   0.000000
   31       11.185286   0.000000
   32       11.185297   0.000000
   33       12.544860   0.000000
   34       12.544866   0.000000
   35       14.858156   0.000000
   36       14.858179   0.000000
 
  0.4545455E+00  0.9090909E-01 -0.1355253E-19  0.2754821E-02
    1       -3.040570   1.000000
    2       -3.040567   1.000000
    3       -2.552555   1.000000
    4       -2.552554   1.000000
    5       -2.390105   1.000000
    6       -2.390105   1.000000
    7       -2.292987   1.000000
    8       -2.292984   1.000000
    9       -1.158790   1.000000
   10       -1.158786   1.000000
   11       -0.425540   1.000000
   12       -0.425536   1.000000
   13        0.632814   1.000000
   14        0.632817   1.000000
   15        0.745150   1.000000
   16        0.745153   1.000000
   17        1.124542   1.000000
   18        1.124545   1.000000
   19        1.309659   1.000000
   20        1.309662   1.000000
   21        1.965543   1.003144
   22        1.965546   1.003144
   23        2.160811   0.747961
   24        2.160814   0.747941
   25        4.942500   0.000000
   26        4.942511   0.000000
   27        5.673390   0.000000
   28        5.673395   0.000000
   29        9.270653   0.000000
   30        9.270657   0.000000
   31       11.027516   0.000000
   32       11.027527   0.000000
   33       11.675537   0.000000
   34       11.675542   0.000000
   35       14.534894   0.000000
   36       14.534910   0.000000
 
 -0.4545455E+00  0.9090909E-01 -0.1355253E-19  0.2754821E-02
    1       -3.218818   1.000000
    2       -3.218814   1.000000
    3       -2.537921   1.000000
    4       -2.537919   1.000000
    5       -2.364926   1.000000
    6       -2.364925   1.000000
    7       -2.284986   1.000000
    8       -2.284984   1.000000
    9       -1.622559   1.000000
   10       -1.622555   1.000000
   11       -0.151152   1.000000
   12       -0.151150   1.000000
   13        0.439144   1.000000
   14        0.439146   1.000000
   15        0.712918   1.000000
   16        0.712921   1.000000
   17        1.157016   1.000000
   18        1.157019   1.000000
   19        1.203151   1.000000
   20        1.203151   1.000000
   21        1.797649   1.000000
   22        1.797653   1.000000
   23        2.043568   1.028484
   24        2.043571   1.028485
   25        5.384130   0.000000
   26        5.384138   0.000000
   27        6.235194   0.000000
   28        6.235198   0.000000
   29        8.973132   0.000000
   30        8.973138   0.000000
   31       11.186247   0.000000
   32       11.186257   0.000000
   33       12.546408   0.000000
   34       12.546413   0.000000
   35       14.857834   0.000000
   36       14.857847   0.000000
 
 -0.3636364E+00  0.9090909E-01  0.3388132E-20  0.2754821E-02
    1       -3.808018   1.000000
    2       -3.808010   1.000000
    3       -2.524985   1.000000
    4       -2.524983   1.000000
    5       -2.331492   1.000000
    6       -2.331489   1.000000
    7       -2.264899   1.000000
    8       -2.264898   1.000000
    9       -2.044298   1.000000
   10       -2.044296   1.000000
   11       -0.406011   1.000000
   12       -0.406009   1.000000
   13        0.390720   1.000000
   14        0.390721   1.000000
   15        0.744645   1.000000
   16        0.744647   1.000000
   17        1.001819   1.000000
   18        1.001821   1.000000
   19        1.194751   1.000000
   20        1.194754   1.000000
   21        1.437810   1.000000
   22        1.437813   1.000000
   23        1.935348   1.000869
   24        1.935351   1.000869
   25        5.851142   0.000000
   26        5.851147   0.000000
   27        7.469763   0.000000
   28        7.469769   0.000000
   29        9.024386   0.000000
   30        9.024392   0.000000
   31       12.300864   0.000000
   32       12.300873   0.000000
   33       13.981988   0.000000
   34       13.981991   0.000000
   35       15.703408   0.000000
   36       15.703437   0.000000
 
 -0.2727273E+00  0.9090909E-01  0.6776264E-20  0.2754821E-02
    1       -4.564846   1.000000
    2       -4.564836   1.000000
    3       -2.645110   1.000000
    4       -2.645109   1.000000
    5       -2.325850   1.000000
    6       -2.325847   1.000000
    7       -2.268962   1.000000
    8       -2.268961   1.000000
    9       -2.210135   1.000000
   10       -2.210133   1.000000
   11       -0.784795   1.000000
   12       -0.784793   1.000000
   13        0.602850   1.000000
   14        0.602852   1.000000
   15        0.677047   1.000000
   16        0.677049   1.000000
   17        0.927595   1.000000
   18        0.927596   1.000000
   19        1.082886   1.000000
   20        1.082889   1.000000
   21        1.211219   1.000000
   22        1.211221   1.000000
   23        1.963714   1.002926
   24        1.963718   1.002927
   25        5.163537   0.000000
   26        5.163547   0.000000
   27        9.355388   0.000000
   28        9.355395   0.000000
   29       10.089925   0.000000
   30       10.089932   0.000000
   31       13.852028   0.000000
   32       13.852037   0.000000
   33       15.593274   0.000000
   34       15.593361   0.000000
   35       16.892379   0.000000
   36       16.894432   0.000000
 
 -0.1818182E+00  0.9090909E-01  0.3388132E-20  0.2754821E-02
    1       -5.170542   1.000000
    2       -5.170532   1.000000
    3       -2.963400   1.000000
    4       -2.963398   1.000000
    5       -2.327398   1.000000
    6       -2.327396   1.000000
    7       -2.288888   1.000000
    8       -2.288886   1.000000
    9       -2.268541   1.000000
   10       -2.268539   1.000000
   11       -0.809448   1.000000
   12       -0.809445   1.000000
   13        0.579364   1.000000
   14        0.579366   1.000000
   15        0.730704   1.000000
   16        0.730706   1.000000
   17        0.851185   1.000000
   18        0.851187   1.000000
   19        0.990138   1.000000
   20        0.990140   1.000000
   21        1.300673   1.000000
   22        1.300676   1.000000
   23        2.049121   1.030799
   24        2.049125   1.030800
   25        4.218014  -0.000000
   26        4.218027  -0.000000
   27       11.147200   0.000000
   28       11.147204   0.000000
   29       11.455145   0.000000
   30       11.455149   0.000000
   31       15.261949   0.000000
   32       15.261959   0.000000
   33       16.537591   0.000000
   34       16.537627   0.000000
   35       17.962420   0.000000
   36       18.056619   0.000000
 
 -0.9090909E-01  0.9090909E-01  0.0000000E+00  0.2754821E-02
    1       -5.494724   1.000000
    2       -5.494714   1.000000
    3       -3.203703   1.000000
    4       -3.203700   1.000000
    5       -2.328795   1.000000
    6       -2.328794   1.000000
    7       -2.304312   1.000000
    8       -2.304310   1.000000
    9       -2.295091   1.000000
   10       -2.295089   1.000000
   11       -0.733840   1.000000
   12       -0.733837   1.000000
   13        0.552991   1.000000
   14        0.552993   1.000000
   15        0.743876   1.000000
   16        0.743878   1.000000
   17        0.779077   1.000000
   18        0.779079   1.000000
   19        0.984804   1.000000
   20        0.984806   1.000000
   21        1.533704   1.000000
   22        1.533706   1.000000
   23        2.117180   0.974617
   24        2.117182   0.974609
   25        3.523723  -0.000000
   26        3.523738  -0.000000
   27       12.081367   0.000000
   28       12.081369   0.000000
   29       12.595200   0.000000
   30       12.595204   0.000000
   31       16.066330   0.000000
   32       16.066359   0.000000
   33       16.572534   0.000000
   34       16.572540   0.000000
   35       17.755025   0.000000
   36       17.757971   0.000000
 
  0.2309488E-20  0.1818182E+00  0.0000000E+00  0.2754821E-02
    1       -5.017180   1.000000
    2       -5.017170   1.000000
    3       -2.874782   1.000000
    4       -2.874781   1.000000
    5       -2.329351   1.000000
    6       -2.329349   1.000000
    7       -2.278153   1.000000
    8       -2.278152   1.000000
    9       -2.251287   1.000000
   10       -2.251285   1.000000
   11       -0.813871   1.000000
   12       -0.813868   1.000000
   13        0.595510   1.000000
   14        0.595512   1.000000
   15        0.698504   1.000000
   16        0.698506   1.000000
   17        0.874240   1.000000
   18        0.874243   1.000000
   19        1.004401   1.000000
   20        1.004403   1.000000
   21        1.260867   1.000000
   22        1.260870   1.000000
   23        2.024192   1.019654
   24        2.024195   1.019655
   25        4.492021  -0.000000
   26        4.492032  -0.000000
   27       10.445579   0.000000
   28       10.445587   0.000000
   29       11.258951   0.000000
   30       11.258954   0.000000
   31       15.154196   0.000000
   32       15.154202   0.000000
   33       16.032369   0.000000
   34       16.032391   0.000000
   35       17.646955   0.000000
   36       17.658786   0.000000
 
  0.9090909E-01  0.1818182E+00  0.0000000E+00  0.2754821E-02
    1       -4.567189   1.000000
    2       -4.567179   1.000000
    3       -2.648255   1.000000
    4       -2.648254   1.000000
    5       -2.326623   1.000000
    6       -2.326621   1.000000
    7       -2.268786   1.000000
    8       -2.268784   1.000000
    9       -2.210485   1.000000
   10       -2.210483   1.000000
   11       -0.785244   1.000000
   12       -0.785242   1.000000
   13        0.599359   1.000000
   14        0.599360   1.000000
   15        0.677813   1.000000
   16        0.677814   1.000000
   17        0.925081   1.000000
   18        0.925083   1.000000
   19        1.085945   1.000000
   20        1.085947   1.000000
   21        1.213087   1.000000
   22        1.213090   1.000000
   23        1.961519   1.002682
   24        1.961523   1.002682
   25        5.164886   0.000000
   26        5.164896   0.000000
   27        9.351533   0.000000
   28        9.351542   0.000000
   29       10.083230   0.000000
   30       10.083234   0.000000
   31       13.854255   0.000000
   32       13.854264   0.000000
   33       15.603694   0.000000
   34       15.603711   0.000000
   35       16.874805   0.000000
   36       16.876613   0.000000
 
  0.1818182E+00  0.1818182E+00  0.1355253E-19  0.2754821E-02
    1       -3.887882   1.000000
    2       -3.887874   1.000000
    3       -2.432364   1.000000
    4       -2.432363   1.000000
    5       -2.327489   1.000000
    6       -2.327486   1.000000
    7       -2.282186   1.000000
    8       -2.282185   1.000000
    9       -2.137696   1.000000
   10       -2.137695   1.000000
   11       -0.588611   1.000000
   12       -0.588609   1.000000
   13        0.447827   1.000000
   14        0.447827   1.000000
   15        0.784075   1.000000
   16        0.784077   1.000000
   17        0.985124   1.000000
   18        0.985128   1.000000
   19        1.167167   1.000000
   20        1.167170   1.000000
   21        1.349200   1.000000
   22        1.349203   1.000000
   23        1.914822   1.000321
   24        1.914825   1.000321
   25        5.846727   0.000000
   26        5.846733   0.000000
   27        8.068672   0.000000
   28        8.068681   0.000000
   29        8.870048   0.000000
   30        8.870052   0.000000
   31       12.449767   0.000000
   32       12.449776   0.000000
   33       14.056277   0.000000
   34       14.056282   0.000000
   35       16.061367   0.000000
   36       16.061684   0.000000
 
  0.2727273E+00  0.1818182E+00  0.0000000E+00  0.2754821E-02
    1       -3.180549   1.000000
    2       -3.180543   1.000000
    3       -2.378527   1.000000
    4       -2.378526   1.000000
    5       -2.355526   1.000000
    6       -2.355524   1.000000
    7       -2.278512   1.000000
    8       -2.278510   1.000000
    9       -1.900256   1.000000
   10       -1.900253   1.000000
   11       -0.184043   1.000000
   12       -0.184042   1.000000
   13        0.281227   1.000000
   14        0.281228   1.000000
   15        0.769424   1.000000
   16        0.769426   1.000000
   17        1.095062   1.000000
   18        1.095064   1.000000
   19        1.132671   1.000000
   20        1.132672   1.000000
   21        1.639464   1.000000
   22        1.639469   1.000000
   23        1.945377   1.001364
   24        1.945379   1.001364
   25        5.867513   0.000000
   26        5.867517   0.000000
   27        6.718041   0.000000
   28        6.718048   0.000000
   29        8.948989   0.000000
   30        8.948993   0.000000
   31       11.071499   0.000000
   32       11.071508   0.000000
   33       12.588133   0.000000
   34       12.588137   0.000000
   35       14.791046   0.000000
   36       14.791068   0.000000
 
  0.3636364E+00  0.1818182E+00  0.1355253E-19  0.2754821E-02
    1       -2.814163   1.000000
    2       -2.814160   1.000000
    3       -2.401234   1.000000
    4       -2.401233   1.000000
    5       -2.387876   1.000000
    6       -2.387875   1.000000
    7       -2.273524   1.000000
    8       -2.273522   1.000000
    9       -1.354992   1.000000
   10       -1.354989   1.000000
   11       -0.253832   1.000000
   12       -0.253830   1.000000
   13        0.509616   1.000000
   14        0.509618   1.000000
   15        0.697535   1.000000
   16        0.697537   1.000000
   17        0.972225   1.000000
   18        0.972227   1.000000
   19        1.310347   1.000000
   20        1.310350   1.000000
   21        1.708552   1.000000
   22        1.708556   1.000000
   23        1.984656   1.006329
   24        1.984658   1.006330
   25        5.335751   0.000000
   26        5.335761   0.000000
   27        6.216877   0.000000
   28        6.216881   0.000000
   29        9.606172   0.000000
   30        9.606176   0.000000
   31       10.288323   0.000000
   32       10.288334   0.000000
   33       11.491522   0.000000
   34       11.491526   0.000000
   35       13.803296   0.000000
   36       13.803309   0.000000
 
  0.4545455E+00  0.1818182E+00  0.0000000E+00  0.2754821E-02
    1       -2.814147   1.000000
    2       -2.814144   1.000000
    3       -2.401362   1.000000
    4       -2.401361   1.000000
    5       -2.387976   1.000000
    6       -2.387975   1.000000
    7       -2.273573   1.000000
    8       -2.273571   1.000000
    9       -1.354797   1.000000
   10       -1.354794   1.000000
   11       -0.253822   1.000000
   12       -0.253819   1.000000
   13        0.509275   1.000000
   14        0.509276   1.000000
   15        0.698165   1.000000
   16        0.698167   1.000000
   17        0.973484   1.000000
   18        0.973487   1.000000
   19        1.309953   1.000000
   20        1.309954   1.000000
   21        1.711074   1.000000
   22        1.711078   1.000000
   23        1.986431   1.006722
   24        1.986434   1.006723
   25        5.332947   0.000000
   26        5.332957   0.000000
   27        6.213683   0.000000
   28        6.213686   0.000000
   29        9.605987   0.000000
   30        9.605992   0.000000
   31       10.288519   0.000000
   32       10.288528   0.000000
   33       11.493562   0.000000
   34       11.493564   0.000000
   35       13.802025   0.000000
   36       13.802038   0.000000
 
 -0.4545455E+00  0.1818182E+00 -0.6776264E-20  0.2754821E-02
    1       -3.180133   1.000000
    2       -3.180127   1.000000
    3       -2.378628   1.000000
    4       -2.378626   1.000000
    5       -2.355917   1.000000
    6       -2.355916   1.000000
    7       -2.278592   1.000000
    8       -2.278590   1.000000
    9       -1.899550   1.000000
   10       -1.899548   1.000000
   11       -0.183836   1.000000
   12       -0.183835   1.000000
   13        0.282089   1.000000
   14        0.282090   1.000000
   15        0.770312   1.000000
   16        0.770314   1.000000
   17        1.095958   1.000000
   18        1.095961   1.000000
   19        1.134185   1.000000
   20        1.134186   1.000000
   21        1.642156   1.000000
   22        1.642161   1.000000
   23        1.947962   1.001526
   24        1.947965   1.001526
   25        5.863436   0.000000
   26        5.863440   0.000000
   27        6.712114   0.000000
   28        6.712120   0.000000
   29        8.947694   0.000000