Cn_HCP                                  
           1
     3.481416   -0.005507   -0.000961
    -1.745494    3.029782    0.001907
    -0.002424    0.004673    5.233642
   Cn
   2
Direct configuration=     1
   0.16581486  0.33272070  0.24998618
   0.83418517  0.66727927  0.75001382
Cn_HCP                                  
           1
     3.480743   -0.005458   -0.000937
    -1.745115    3.029042    0.001856
    -0.002386    0.004602    5.241120
   Cn
   2
Direct configuration=     2
   0.16580792  0.33271417  0.24998691
   0.83419211  0.66728580  0.75001309
Cn_HCP                                  
           1
     3.472714   -0.005042   -0.000735
    -1.740741    3.020745    0.001426
    -0.002060    0.003992    5.301390
   Cn
   2
Direct configuration=     3
   0.16575081  0.33266061  0.24999255
   0.83424922  0.66733936  0.75000745
Cn_HCP                                  
           1
     3.451991   -0.004408   -0.000466
    -1.729831    3.000805    0.000856
    -0.001623    0.003178    5.367552
   Cn
   2
Direct configuration=     4
   0.16569579  0.33260908  0.24999765
   0.83430424  0.66739089  0.75000235
Cn_HCP                                  
           1
     3.357008   -0.001867    0.000564
    -1.680140    2.910634   -0.001318
     0.000053    0.000066    5.601409
   Cn
   2
Direct configuration=     5
   0.16547561  0.33241236  0.25002155
   0.83452442  0.66758761  0.74997845
Cn_HCP                                  
           1
     3.399441   -0.002975    0.000114
    -1.702315    2.950841   -0.000369
    -0.000678    0.001425    5.499611
   Cn
   2
Direct configuration=     6
   0.16557029  0.33249756  0.25001125
   0.83442974  0.66750241  0.74998875
Cn_HCP                                  
           1
     3.392811   -0.002789    0.000187
    -1.698839    2.944530   -0.000523
    -0.000560    0.001206    5.516301
   Cn
   2
Direct configuration=     7
   0.16555079  0.33248029  0.25001300
   0.83444924  0.66751968  0.74998700
Cn_HCP                                  
           1
     3.387593   -0.002603    0.000249
    -1.696069    2.939486   -0.000654
    -0.000459    0.001018    5.531025
   Cn
   2
Direct configuration=     8
   0.16556752  0.33249667  0.25001076
   0.83443251  0.66750330  0.74998924
Cn_HCP                                  
           1
     3.389628   -0.002732    0.000217
    -1.697198    2.941569   -0.000587
    -0.000511    0.001114    5.522595
   Cn
   2
Direct configuration=     9
   0.16554489  0.33247549  0.25001482
   0.83445514  0.66752448  0.74998518
Cn_HCP                                  
           1
     3.392904   -0.002611    0.000209
    -1.698731    2.944246   -0.000569
    -0.000525    0.001139    5.524054
   Cn
   2
Direct configuration=    10
   0.16560616  0.33253151  0.25000430
   0.83439387  0.66746846  0.74999570
