Cn_HCP                                  
           1
     3.392904   -0.002611    0.000209
    -1.698731    2.944246   -0.000569
    -0.000525    0.001139    5.524054
   Cn
   2
Direct configuration=     1
   0.16560616  0.33253151  0.25000430
   0.83439387  0.66746846  0.74999570
Cn_HCP                                  
           1
     3.396654   -0.002603    0.000209
    -1.700600    2.947479   -0.000571
    -0.000525    0.001139    5.530734
   Cn
   2
Direct configuration=     2
   0.16560610  0.33253153  0.25000412
   0.83439393  0.66746844  0.74999588
Cn_HCP                                  
           1
     3.415939   -0.002553    0.000214
    -1.710199    2.964085   -0.000581
    -0.000522    0.001138    5.565613
   Cn
   2
Direct configuration=     3
   0.16560678  0.33253203  0.25000469
   0.83439325  0.66746794  0.74999531
Cn_HCP                                  
           1
     3.417811   -0.002540    0.000215
    -1.711124    2.965680   -0.000582
    -0.000521    0.001136    5.569521
   Cn
   2
Direct configuration=     4
   0.16560677  0.33253237  0.25000452
   0.83439326  0.66746760  0.74999548
Cn_HCP                                  
           1
     3.418258   -0.002528    0.000216
    -1.711337    2.966042   -0.000584
    -0.000520    0.001135    5.571002
   Cn
   2
Direct configuration=     5
   0.16560725  0.33253318  0.25000418
   0.83439278  0.66746679  0.74999582
