Cn_HCP                                  
           1
     3.418258   -0.002528    0.000216
    -1.711337    2.966042   -0.000584
    -0.000520    0.001135    5.571002
   Cn
   2
Direct configuration=     1
   0.16560725  0.33253318  0.25000418
   0.83439278  0.66746679  0.74999582
Cn_HCP                                  
           1
     3.418034   -0.002521    0.000216
    -1.711219    2.965833   -0.000585
    -0.000519    0.001134    5.571096
   Cn
   2
Direct configuration=     2
   0.16560733  0.33253328  0.25000403
   0.83439270  0.66746669  0.74999597
