    1    1    1    1
  0.5494106E+02  0.4267144E-09  0.4267144E-09  0.4267144E-09  0.1000000E-15
  1.000000000000000E-004
  CAR 
 Og_FCC                                  
     18    504     28
