Og_FCC                                  
           1
     4.400175    0.000000    0.000000
     2.200088    3.810664   -0.000000
     2.200088    1.270221    3.592728
   Og
   1
Direct configuration=     1
   0.00000000  0.00000000  0.00000000
