   1   1   0   0
  0.1628488E+02  0.2845115E-09  0.2845115E-09  0.2845115E-09  0.1000000E-15
  1.000000000000000E-004
  CAR 
 Og_FCC                                  
    167.11026112    -33.42774183  301    -22.56526667      1.00000000
    -33.428  0.0000E+00  0.0000E+00
    -32.759  0.0000E+00  0.0000E+00
    -32.091  0.0000E+00  0.0000E+00
    -31.422  0.0000E+00  0.0000E+00
    -30.754  0.0000E+00  0.0000E+00
    -30.085  0.0000E+00  0.0000E+00
    -29.417  0.0000E+00  0.0000E+00
    -28.749  0.0000E+00  0.0000E+00
    -28.080  0.0000E+00  0.0000E+00
    -27.412  0.0000E+00  0.0000E+00
    -26.743  0.0000E+00  0.0000E+00
    -26.075  0.0000E+00  0.0000E+00
    -25.406  0.0000E+00  0.0000E+00
    -24.738  0.0000E+00  0.0000E+00
    -24.069  0.0000E+00  0.8333E-01
    -23.401  0.1256E-09  0.5463E+00
    -22.732  0.0000E+00  0.2000E+01
    -22.064  0.0000E+00  0.2000E+01
    -21.395  0.0000E+00  0.2000E+01
    -20.727  0.0000E+00  0.2000E+01
    -20.059  0.0000E+00  0.2000E+01
    -19.390  0.0000E+00  0.2000E+01
    -18.722  0.0000E+00  0.2000E+01
    -18.053  0.0000E+00  0.2000E+01
    -17.385  0.0000E+00  0.2000E+01
    -16.716  0.0000E+00  0.2000E+01
    -16.048  0.0000E+00  0.2000E+01
    -15.379  0.0000E+00  0.2000E+01
    -14.711  0.0000E+00  0.2000E+01
    -14.042  0.0000E+00  0.2000E+01
    -13.374  0.0000E+00  0.2000E+01
    -12.705  0.0000E+00  0.2000E+01
    -12.037  0.0000E+00  0.2000E+01
    -11.369  0.0000E+00  0.2000E+01
    -10.700  0.0000E+00  0.2000E+01
    -10.032  0.0000E+00  0.2000E+01
     -9.363  0.0000E+00  0.2000E+01
     -8.695  0.0000E+00  0.2000E+01
     -8.026  0.0000E+00  0.2000E+01
     -7.358  0.0000E+00  0.2000E+01
     -6.689  0.0000E+00  0.2000E+01
     -6.021  0.0000E+00  0.2000E+01
     -5.352  0.0000E+00  0.2000E+01
     -4.684  0.0000E+00  0.2000E+01
     -4.016  0.0000E+00  0.2000E+01
     -3.347  0.0000E+00  0.2000E+01
     -2.679  0.0000E+00  0.2000E+01
     -2.010  0.0000E+00  0.2000E+01
     -1.342  0.0000E+00  0.2000E+01
     -0.673  0.0000E+00  0.2000E+01
     -0.005  0.0000E+00  0.2000E+01
      0.664  0.0000E+00  0.2000E+01
      1.332  0.0000E+00  0.2000E+01
      2.001  0.0000E+00  0.2000E+01
      2.669  0.0000E+00  0.2000E+01
      3.338  0.0000E+00  0.2000E+01
      4.006  0.0000E+00  0.2000E+01
      4.674  0.0000E+00  0.2000E+01
      5.343  0.0000E+00  0.2000E+01
      6.011  0.0000E+00  0.2000E+01
      6.680  0.3324E+00  0.2796E+01
      7.348  0.0000E+00  0.3306E+01
      8.017  0.0000E+00  0.3528E+01
      8.685  0.0000E+00  0.4000E+01
      9.354  0.0000E+00  0.4333E+01
     10.022  0.0000E+00  0.4444E+01
     10.691  0.0000E+00  0.5000E+01
     11.359  0.0000E+00  0.5472E+01
     12.028  0.0000E+00  0.5509E+01
     12.696  0.0000E+00  0.5731E+01
     13.364  0.0000E+00  0.5806E+01
     14.033  0.0000E+00  0.6250E+01
     14.701  0.0000E+00  0.6639E+01
     15.370  0.0000E+00  0.7028E+01
     16.038  0.0000E+00  0.7139E+01
     16.707  0.0000E+00  0.7250E+01
     17.375  0.0000E+00  0.7944E+01
     18.044  0.0000E+00  0.8296E+01
     18.712  0.0000E+00  0.8630E+01
     19.381  0.0000E+00  0.9296E+01
     20.049  0.0000E+00  0.9741E+01
     20.718  0.9915E-03  0.9741E+01
     21.386  0.0000E+00  0.1006E+02
     22.054  0.0000E+00  0.1031E+02
     22.723  0.0000E+00  0.1036E+02
     23.391  0.0000E+00  0.1136E+02
     24.060  0.0000E+00  0.1171E+02
     24.728  0.0000E+00  0.1231E+02
     25.397  0.0000E+00  0.1264E+02
     26.065  0.0000E+00  0.1271E+02
     26.734  0.0000E+00  0.1319E+02
     27.402  0.0000E+00  0.1358E+02
     28.071  0.0000E+00  0.1395E+02
     28.739  0.0000E+00  0.1436E+02
     29.407  0.0000E+00  0.1450E+02
     30.076  0.0000E+00  0.1480E+02
     30.744  0.0000E+00  0.1561E+02
     31.413  0.0000E+00  0.1572E+02
     32.081  0.0000E+00  0.1628E+02
     32.750  0.0000E+00  0.1695E+02
     33.418  0.0000E+00  0.1740E+02
     34.087  0.0000E+00  0.1756E+02
     34.755  0.0000E+00  0.1841E+02
     35.424  0.0000E+00  0.1848E+02
     36.092  0.0000E+00  0.1870E+02
     36.761  0.1662E+00  0.1943E+02
     37.429  0.0000E+00  0.2009E+02
     38.097  0.0000E+00  0.2054E+02
     38.766  0.0000E+00  0.2069E+02
     39.434  0.0000E+00  0.2096E+02
     40.103  0.0000E+00  0.2141E+02
     40.771  0.0000E+00  0.2154E+02
     41.440  0.0000E+00  0.2281E+02
     42.108  0.3900E-12  0.2336E+02
     42.777  0.0000E+00  0.2392E+02
     43.445  0.0000E+00  0.2449E+02
     44.114  0.0000E+00  0.2496E+02
     44.782  0.0000E+00  0.2502E+02
     45.451  0.0000E+00  0.2552E+02
     46.119  0.0000E+00  0.2629E+02
     46.787  0.0000E+00  0.2651E+02
     47.456  0.0000E+00  0.2684E+02
     48.124  0.0000E+00  0.2712E+02
     48.793  0.0000E+00  0.2768E+02
     49.461  0.1662E+00  0.2868E+02
     50.130  0.0000E+00  0.2893E+02
     50.798  0.0000E+00  0.2995E+02
     51.467  0.0000E+00  0.3010E+02
     52.135  0.0000E+00  0.3077E+02
     52.804  0.0000E+00  0.3127E+02
     53.472  0.0000E+00  0.3188E+02
     54.141  0.0000E+00  0.3244E+02
     54.809  0.0000E+00  0.3321E+02
     55.477  0.0000E+00  0.3371E+02
     56.146  0.0000E+00  0.3416E+02
     56.814  0.0000E+00  0.3431E+02
     57.483  0.0000E+00  0.3497E+02
     58.151  0.0000E+00  0.3520E+02
     58.820  0.0000E+00  0.3587E+02
     59.488  0.0000E+00  0.3631E+02
     60.157  0.0000E+00  0.3676E+02
     60.825  0.0000E+00  0.3757E+02
     61.494  0.0000E+00  0.3817E+02
     62.162  0.0000E+00  0.3907E+02
     62.830  0.0000E+00  0.3969E+02
     63.499  0.0000E+00  0.3991E+02
     64.167  0.0000E+00  0.4063E+02
     64.836  0.0000E+00  0.4193E+02
     65.504  0.0000E+00  0.4215E+02
     66.173  0.0000E+00  0.4259E+02
     66.841  0.0000E+00  0.4311E+02
     67.510  0.0000E+00  0.4389E+02
     68.178  0.0000E+00  0.4400E+02
     68.847  0.0000E+00  0.4472E+02
     69.515  0.1075E-09  0.4522E+02
     70.184  0.0000E+00  0.4547E+02
     70.852  0.0000E+00  0.4629E+02
     71.520  0.0000E+00  0.4677E+02
     72.189  0.0000E+00  0.4799E+02
     72.857  0.0000E+00  0.4819E+02
     73.526  0.0000E+00  0.4882E+02
     74.194  0.0000E+00  0.4913E+02
     74.863  0.0000E+00  0.4991E+02
     75.531  0.0000E+00  0.5113E+02
     76.200  0.0000E+00  0.5176E+02
     76.868  0.0000E+00  0.5293E+02
     77.537  0.0000E+00  0.5322E+02
     78.205  0.0000E+00  0.5428E+02
     78.874  0.0000E+00  0.5472E+02
     79.542  0.0000E+00  0.5489E+02
     80.210  0.0000E+00  0.5541E+02
     80.879  0.0000E+00  0.5574E+02
     81.547  0.0000E+00  0.5587E+02
     82.216  0.0000E+00  0.5669E+02
     82.884  0.0000E+00  0.5758E+02
     83.553  0.8311E-01  0.5836E+02
     84.221  0.0000E+00  0.5903E+02
     84.890  0.0000E+00  0.5979E+02
     85.558  0.0000E+00  0.6051E+02
     86.227  0.0000E+00  0.6114E+02
     86.895  0.0000E+00  0.6158E+02
     87.564  0.3324E+00  0.6236E+02
     88.232  0.0000E+00  0.6331E+02
     88.900  0.0000E+00  0.6387E+02
     89.569  0.0000E+00  0.6465E+02
     90.237  0.0000E+00  0.6542E+02
     90.906  0.0000E+00  0.6619E+02
     91.574  0.0000E+00  0.6706E+02
     92.243  0.0000E+00  0.6770E+02
     92.911  0.1110E-02  0.6840E+02
     93.580  0.0000E+00  0.6890E+02
     94.248  0.0000E+00  0.6948E+02
     94.917  0.0000E+00  0.7041E+02
     95.585  0.0000E+00  0.7049E+02
     96.254  0.0000E+00  0.7164E+02
     96.922  0.0000E+00  0.7186E+02
     97.590  0.0000E+00  0.7231E+02
     98.259  0.0000E+00  0.7327E+02
     98.927  0.0000E+00  0.7338E+02
     99.596  0.3325E+00  0.7469E+02
    100.264  0.0000E+00  0.7531E+02
    100.933  0.0000E+00  0.7602E+02
    101.601  0.0000E+00  0.7694E+02
    102.270  0.0000E+00  0.7815E+02
    102.938  0.0000E+00  0.7913E+02
    103.607  0.0000E+00  0.7915E+02
    104.275  0.1643E+00  0.8040E+02
    104.943  0.0000E+00  0.8110E+02
    105.612  0.0000E+00  0.8177E+02
    106.280  0.0000E+00  0.8240E+02
    106.949  0.0000E+00  0.8321E+02
    107.617  0.0000E+00  0.8399E+02
    108.286  0.7143E-09  0.8455E+02
    108.954  0.0000E+00  0.8573E+02
    109.623  0.0000E+00  0.8608E+02
    110.291  0.0000E+00  0.8693E+02
    110.960  0.0000E+00  0.8716E+02
    111.628  0.0000E+00  0.8806E+02
    112.297  0.0000E+00  0.8865E+02
    112.965  0.0000E+00  0.8923E+02
    113.633  0.0000E+00  0.9056E+02
    114.302  0.0000E+00  0.9092E+02
    114.970  0.0000E+00  0.9172E+02
    115.639  0.0000E+00  0.9231E+02
    116.307  0.0000E+00  0.9327E+02
    116.976  0.0000E+00  0.9412E+02
    117.644  0.5390E-08  0.9456E+02
    118.313  0.0000E+00  0.9555E+02
    118.981  0.2493E+00  0.9658E+02
    119.650  0.1662E+00  0.9812E+02
    120.318  0.0000E+00  0.9864E+02
    120.987  0.0000E+00  0.9992E+02
    121.655  0.0000E+00  0.1001E+03
    122.323  0.0000E+00  0.1013E+03
    122.992  0.0000E+00  0.1020E+03
    123.660  0.0000E+00  0.1020E+03
    124.329  0.0000E+00  0.1023E+03
    124.997  0.0000E+00  0.1031E+03
    125.666  0.0000E+00  0.1045E+03
    126.334  0.0000E+00  0.1052E+03
    127.003  0.0000E+00  0.1062E+03
    127.671  0.0000E+00  0.1068E+03
    128.340  0.0000E+00  0.1075E+03
    129.008  0.0000E+00  0.1083E+03
    129.677  0.8311E-01  0.1095E+03
    130.345  0.0000E+00  0.1103E+03
    131.013  0.0000E+00  0.1110E+03
    131.682  0.0000E+00  0.1113E+03
    132.350  0.0000E+00  0.1118E+03
    133.019  0.0000E+00  0.1131E+03
    133.687  0.0000E+00  0.1138E+03
    134.356  0.0000E+00  0.1148E+03
    135.024  0.0000E+00  0.1155E+03
    135.693  0.0000E+00  0.1163E+03
    136.361  0.0000E+00  0.1172E+03
    137.030  0.0000E+00  0.1178E+03
    137.698  0.0000E+00  0.1189E+03
    138.366  0.0000E+00  0.1195E+03
    139.035  0.0000E+00  0.1215E+03
    139.703  0.0000E+00  0.1220E+03
    140.372  0.2493E+00  0.1228E+03
    141.040  0.0000E+00  0.1233E+03
    141.709  0.0000E+00  0.1240E+03
    142.377  0.0000E+00  0.1246E+03
    143.046  0.0000E+00  0.1256E+03
    143.714  0.0000E+00  0.1265E+03
    144.383  0.0000E+00  0.1268E+03
    145.051  0.0000E+00  0.1268E+03
    145.720  0.0000E+00  0.1274E+03
    146.388  0.0000E+00  0.1274E+03
    147.056  0.0000E+00  0.1275E+03
    147.725  0.0000E+00  0.1275E+03
    148.393  0.0000E+00  0.1275E+03
    149.062  0.0000E+00  0.1277E+03
    149.730  0.0000E+00  0.1278E+03
    150.399  0.0000E+00  0.1278E+03
    151.067  0.0000E+00  0.1278E+03
    151.736  0.0000E+00  0.1278E+03
    152.404  0.0000E+00  0.1278E+03
    153.073  0.0000E+00  0.1279E+03
    153.741  0.0000E+00  0.1279E+03
    154.410  0.0000E+00  0.1279E+03
    155.078  0.0000E+00  0.1279E+03
    155.746  0.0000E+00  0.1279E+03
    156.415  0.0000E+00  0.1279E+03
    157.083  0.0000E+00  0.1279E+03
    157.752  0.0000E+00  0.1279E+03
    158.420  0.0000E+00  0.1280E+03
    159.089  0.0000E+00  0.1280E+03
    159.757  0.0000E+00  0.1280E+03
    160.426  0.0000E+00  0.1280E+03
    161.094  0.0000E+00  0.1280E+03
    161.763  0.0000E+00  0.1280E+03
    162.431  0.0000E+00  0.1280E+03
    163.100  0.0000E+00  0.1280E+03
    163.768  0.0000E+00  0.1280E+03
    164.436  0.0000E+00  0.1280E+03
    165.105  0.0000E+00  0.1280E+03
    165.773  0.0000E+00  0.1280E+03
    166.442  0.0000E+00  0.1280E+03
    167.110  0.0000E+00  0.1280E+03
