<?xml version="1.0" encoding="ISO-8859-1"?>
<modeling>
 <generator>
  <i name="program" type="string">vasp </i>
  <i name="version" type="string">5.4.4.18Apr17-6-g9f103f2a35  </i>
  <i name="subversion" type="string">(build Jul 09 2018 16:43:14) complex            parallel </i>
  <i name="platform" type="string">LinuxIFC </i>
  <i name="date" type="string">2018 11 29 </i>
  <i name="time" type="string">22:19:40 </i>
 </generator>
 <incar>
  <i type="string" name="SYSTEM">   Og_FCC</i>
  <i type="string" name="PREC">accurate</i>
  <i type="string" name="ALGO">   QPGW</i>
  <i type="logical" name="ADDGRID"> T  </i>
  <i type="logical" name="LSORBIT"> T  </i>
  <i type="int" name="ISPIN">     1</i>
  <i type="int" name="MAXMIX">    50</i>
  <i type="int" name="NELM">     1</i>
  <i type="int" name="IBRION">    -1</i>
  <i type="int" name="NFREE">     5</i>
  <i name="EDIFF">      0.00000001</i>
  <i name="EDIFFG">      0.00001000</i>
  <i type="int" name="NSW">     1</i>
  <i type="int" name="ISIF">     3</i>
  <i type="int" name="ISYM">     0</i>
  <i name="SYMPREC">      0.00000010</i>
  <i name="ENCUT">    300.00000000</i>
  <i type="int" name="NBANDS">   128</i>
  <i name="POTIM">      0.10000000</i>
  <i type="logical" name="LREAL"> F  </i>
  <i type="int" name="ISMEAR">     0</i>
  <i name="SIGMA">      0.00100000</i>
  <i type="int" name="NWRITE">     1</i>
  <i type="logical" name="LWAVE"> T  </i>
  <i type="logical" name="LCHARG"> F  </i>
  <i type="logical" name="LVTOT"> F  </i>
  <i type="logical" name="GGA_COMPAT"> F  </i>
  <i type="int" name="NOMEGA">    50</i>
  <v type="int" name="KPOINT_BSE">    -1     0     0     0</v>
  <i type="logical" name="LSPECTRAL"> T  </i>
  <i type="int" name="NELM">     1</i>
  <i type="string" name="METAGGA"> SCAN</i>
 </incar>
 <structure name="primitive_cell" >
  <crystal>
   <varray name="basis" >
    <v>       2.84511503       0.00000000       0.00000000 </v>
    <v>       1.42255751       2.46394189       0.00000000 </v>
    <v>       1.42255751       0.82131396       2.32302669 </v>
   </varray>
   <i name="volume">     16.28487729 </i>
   <varray name="rec_basis" >
    <v>       0.35147964      -0.20292686      -0.14349096 </v>
    <v>       0.00000000       0.40585373      -0.14349096 </v>
    <v>       0.00000000       0.00000000       0.43047288 </v>
   </varray>
  </crystal>
  <varray name="positions" >
   <v>       0.00000000       0.00000000       0.00000000 </v>
  </varray>
 </structure>
 <varray name="primitive_index" >
  <v type="int" >        1 </v>
 </varray>
 <kpoints>
  <generation param="Gamma">
   <v type="int" name="divisions">       6        6        6 </v>
   <v name="usershift">      0.00000000       0.00000000       0.00000000 </v>
   <v name="genvec1">      0.16666667       0.00000000       0.00000000 </v>
   <v name="genvec2">      0.00000000       0.16666667       0.00000000 </v>
   <v name="genvec3">      0.00000000       0.00000000       0.16666667 </v>
   <v name="shift">      0.00000000       0.00000000       0.00000000 </v>
  </generation>
  <varray name="kpointlist" >
   <v>       0.00000000       0.00000000       0.00000000 </v>
   <v>       0.16666667      -0.00000000       0.00000000 </v>
   <v>       0.33333333      -0.00000000       0.00000000 </v>
   <v>       0.50000000      -0.00000000       0.00000000 </v>
   <v>      -0.33333333       0.00000000      -0.00000000 </v>
   <v>      -0.16666667       0.00000000      -0.00000000 </v>
   <v>       0.00000000       0.16666667      -0.00000000 </v>
   <v>       0.16666667       0.16666667       0.00000000 </v>
   <v>       0.33333333       0.16666667       0.00000000 </v>
   <v>       0.50000000       0.16666667       0.00000000 </v>
   <v>      -0.33333333       0.16666667      -0.00000000 </v>
   <v>      -0.16666667       0.16666667      -0.00000000 </v>
   <v>       0.00000000       0.33333333       0.00000000 </v>
   <v>       0.16666667       0.33333333       0.00000000 </v>
   <v>       0.33333333       0.33333333       0.00000000 </v>
   <v>       0.50000000       0.33333333       0.00000000 </v>
   <v>      -0.33333333       0.33333333      -0.00000000 </v>
   <v>      -0.16666667       0.33333333       0.00000000 </v>
   <v>       0.00000000       0.50000000       0.00000000 </v>
   <v>       0.16666667       0.50000000       0.00000000 </v>
   <v>       0.33333333       0.50000000       0.00000000 </v>
   <v>       0.50000000       0.50000000       0.00000000 </v>
   <v>      -0.33333333       0.50000000      -0.00000000 </v>
   <v>      -0.16666667       0.50000000      -0.00000000 </v>
   <v>       0.00000000      -0.33333333       0.00000000 </v>
   <v>       0.16666667      -0.33333333      -0.00000000 </v>
   <v>       0.33333333      -0.33333333       0.00000000 </v>
   <v>       0.50000000      -0.33333333      -0.00000000 </v>
   <v>      -0.33333333      -0.33333333      -0.00000000 </v>
   <v>      -0.16666667      -0.33333333       0.00000000 </v>
   <v>       0.00000000      -0.16666667       0.00000000 </v>
   <v>       0.16666667      -0.16666667       0.00000000 </v>
   <v>       0.33333333      -0.16666667       0.00000000 </v>
   <v>       0.50000000      -0.16666667       0.00000000 </v>
   <v>      -0.33333333      -0.16666667      -0.00000000 </v>
   <v>      -0.16666667      -0.16666667      -0.00000000 </v>
   <v>       0.00000000       0.00000000       0.16666667 </v>
   <v>       0.16666667      -0.00000000       0.16666667 </v>
   <v>       0.33333333      -0.00000000       0.16666667 </v>
   <v>       0.50000000      -0.00000000       0.16666667 </v>
   <v>      -0.33333333       0.00000000       0.16666667 </v>
   <v>      -0.16666667       0.00000000       0.16666667 </v>
   <v>       0.00000000       0.16666667       0.16666667 </v>
   <v>       0.16666667       0.16666667       0.16666667 </v>
   <v>       0.33333333       0.16666667       0.16666667 </v>
   <v>       0.50000000       0.16666667       0.16666667 </v>
   <v>      -0.33333333       0.16666667       0.16666667 </v>
   <v>      -0.16666667       0.16666667       0.16666667 </v>
   <v>       0.00000000       0.33333333       0.16666667 </v>
   <v>       0.16666667       0.33333333       0.16666667 </v>
   <v>       0.33333333       0.33333333       0.16666667 </v>
   <v>       0.50000000       0.33333333       0.16666667 </v>
   <v>      -0.33333333       0.33333333       0.16666667 </v>
   <v>      -0.16666667       0.33333333       0.16666667 </v>
   <v>       0.00000000       0.50000000       0.16666667 </v>
   <v>       0.16666667       0.50000000       0.16666667 </v>
   <v>       0.33333333       0.50000000       0.16666667 </v>
   <v>       0.50000000       0.50000000       0.16666667 </v>
   <v>      -0.33333333       0.50000000       0.16666667 </v>
   <v>      -0.16666667       0.50000000       0.16666667 </v>
   <v>       0.00000000      -0.33333333       0.16666667 </v>
   <v>       0.16666667      -0.33333333       0.16666667 </v>
   <v>       0.33333333      -0.33333333       0.16666667 </v>
   <v>       0.50000000      -0.33333333       0.16666667 </v>
   <v>      -0.33333333      -0.33333333       0.16666667 </v>
   <v>      -0.16666667      -0.33333333       0.16666667 </v>
   <v>       0.00000000      -0.16666667       0.16666667 </v>
   <v>       0.16666667      -0.16666667       0.16666667 </v>
   <v>       0.33333333      -0.16666667       0.16666667 </v>
   <v>       0.50000000      -0.16666667       0.16666667 </v>
   <v>      -0.33333333      -0.16666667       0.16666667 </v>
   <v>      -0.16666667      -0.16666667       0.16666667 </v>
   <v>       0.00000000       0.00000000       0.33333333 </v>
   <v>       0.16666667      -0.00000000       0.33333333 </v>
   <v>       0.33333333      -0.00000000       0.33333333 </v>
   <v>       0.50000000      -0.00000000       0.33333333 </v>
   <v>      -0.33333333       0.00000000       0.33333333 </v>
   <v>      -0.16666667       0.00000000       0.33333333 </v>
   <v>       0.00000000       0.16666667       0.33333333 </v>
   <v>       0.16666667       0.16666667       0.33333333 </v>
   <v>       0.33333333       0.16666667       0.33333333 </v>
   <v>       0.50000000       0.16666667       0.33333333 </v>
   <v>      -0.33333333       0.16666667       0.33333333 </v>
   <v>      -0.16666667       0.16666667       0.33333333 </v>
   <v>       0.00000000       0.33333333       0.33333333 </v>
   <v>       0.16666667       0.33333333       0.33333333 </v>
   <v>       0.33333333       0.33333333       0.33333333 </v>
   <v>       0.50000000       0.33333333       0.33333333 </v>
   <v>      -0.33333333       0.33333333       0.33333333 </v>
   <v>      -0.16666667       0.33333333       0.33333333 </v>
   <v>       0.00000000       0.50000000       0.33333333 </v>
   <v>       0.16666667       0.50000000       0.33333333 </v>
   <v>       0.33333333       0.50000000       0.33333333 </v>
   <v>       0.50000000       0.50000000       0.33333333 </v>
   <v>      -0.33333333       0.50000000       0.33333333 </v>
   <v>      -0.16666667       0.50000000       0.33333333 </v>
   <v>       0.00000000      -0.33333333       0.33333333 </v>
   <v>       0.16666667      -0.33333333       0.33333333 </v>
   <v>       0.33333333      -0.33333333       0.33333333 </v>
   <v>       0.50000000      -0.33333333       0.33333333 </v>
   <v>      -0.33333333      -0.33333333       0.33333333 </v>
   <v>      -0.16666667      -0.33333333       0.33333333 </v>
   <v>       0.00000000      -0.16666667       0.33333333 </v>
   <v>       0.16666667      -0.16666667       0.33333333 </v>
   <v>       0.33333333      -0.16666667       0.33333333 </v>
   <v>       0.50000000      -0.16666667       0.33333333 </v>
   <v>      -0.33333333      -0.16666667       0.33333333 </v>
   <v>      -0.16666667      -0.16666667       0.33333333 </v>
   <v>       0.00000000       0.00000000       0.50000000 </v>
   <v>       0.16666667      -0.00000000       0.50000000 </v>
   <v>       0.33333333      -0.00000000       0.50000000 </v>
   <v>       0.50000000      -0.00000000       0.50000000 </v>
   <v>      -0.33333333       0.00000000       0.50000000 </v>
   <v>      -0.16666667       0.00000000       0.50000000 </v>
   <v>       0.00000000       0.16666667       0.50000000 </v>
   <v>       0.16666667       0.16666667       0.50000000 </v>
   <v>       0.33333333       0.16666667       0.50000000 </v>
   <v>       0.50000000       0.16666667       0.50000000 </v>
   <v>      -0.33333333       0.16666667       0.50000000 </v>
   <v>      -0.16666667       0.16666667       0.50000000 </v>
   <v>       0.00000000       0.33333333       0.50000000 </v>
   <v>       0.16666667       0.33333333       0.50000000 </v>
   <v>       0.33333333       0.33333333       0.50000000 </v>
   <v>       0.50000000       0.33333333       0.50000000 </v>
   <v>      -0.33333333       0.33333333       0.50000000 </v>
   <v>      -0.16666667       0.33333333       0.50000000 </v>
   <v>       0.00000000       0.50000000       0.50000000 </v>
   <v>       0.16666667       0.50000000       0.50000000 </v>
   <v>       0.33333333       0.50000000       0.50000000 </v>
   <v>       0.50000000       0.50000000       0.50000000 </v>
   <v>      -0.33333333       0.50000000       0.50000000 </v>
   <v>      -0.16666667       0.50000000       0.50000000 </v>
   <v>       0.00000000      -0.33333333       0.50000000 </v>
   <v>       0.16666667      -0.33333333       0.50000000 </v>
   <v>       0.33333333      -0.33333333       0.50000000 </v>
   <v>       0.50000000      -0.33333333       0.50000000 </v>
   <v>      -0.33333333      -0.33333333       0.50000000 </v>
   <v>      -0.16666667      -0.33333333       0.50000000 </v>
   <v>       0.00000000      -0.16666667       0.50000000 </v>
   <v>       0.16666667      -0.16666667       0.50000000 </v>
   <v>       0.33333333      -0.16666667       0.50000000 </v>
   <v>       0.50000000      -0.16666667       0.50000000 </v>
   <v>      -0.33333333      -0.16666667       0.50000000 </v>
   <v>      -0.16666667      -0.16666667       0.50000000 </v>
   <v>       0.00000000       0.00000000      -0.33333333 </v>
   <v>       0.16666667      -0.00000000      -0.33333333 </v>
   <v>       0.33333333      -0.00000000      -0.33333333 </v>
   <v>       0.50000000      -0.00000000      -0.33333333 </v>
   <v>      -0.33333333       0.00000000      -0.33333333 </v>
   <v>      -0.16666667       0.00000000      -0.33333333 </v>
   <v>       0.00000000       0.16666667      -0.33333333 </v>
   <v>       0.16666667       0.16666667      -0.33333333 </v>
   <v>       0.33333333       0.16666667      -0.33333333 </v>
   <v>       0.50000000       0.16666667      -0.33333333 </v>
   <v>      -0.33333333       0.16666667      -0.33333333 </v>
   <v>      -0.16666667       0.16666667      -0.33333333 </v>
   <v>       0.00000000       0.33333333      -0.33333333 </v>
   <v>       0.16666667       0.33333333      -0.33333333 </v>
   <v>       0.33333333       0.33333333      -0.33333333 </v>
   <v>       0.50000000       0.33333333      -0.33333333 </v>
   <v>      -0.33333333       0.33333333      -0.33333333 </v>
   <v>      -0.16666667       0.33333333      -0.33333333 </v>
   <v>       0.00000000       0.50000000      -0.33333333 </v>
   <v>       0.16666667       0.50000000      -0.33333333 </v>
   <v>       0.33333333       0.50000000      -0.33333333 </v>
   <v>       0.50000000       0.50000000      -0.33333333 </v>
   <v>      -0.33333333       0.50000000      -0.33333333 </v>
   <v>      -0.16666667       0.50000000      -0.33333333 </v>
   <v>       0.00000000      -0.33333333      -0.33333333 </v>
   <v>       0.16666667      -0.33333333      -0.33333333 </v>
   <v>       0.33333333      -0.33333333      -0.33333333 </v>
   <v>       0.50000000      -0.33333333      -0.33333333 </v>
   <v>      -0.33333333      -0.33333333      -0.33333333 </v>
   <v>      -0.16666667      -0.33333333      -0.33333333 </v>
   <v>       0.00000000      -0.16666667      -0.33333333 </v>
   <v>       0.16666667      -0.16666667      -0.33333333 </v>
   <v>       0.33333333      -0.16666667      -0.33333333 </v>
   <v>       0.50000000      -0.16666667      -0.33333333 </v>
   <v>      -0.33333333      -0.16666667      -0.33333333 </v>
   <v>      -0.16666667      -0.16666667      -0.33333333 </v>
   <v>       0.00000000       0.00000000      -0.16666667 </v>
   <v>       0.16666667      -0.00000000      -0.16666667 </v>
   <v>       0.33333333      -0.00000000      -0.16666667 </v>
   <v>       0.50000000      -0.00000000      -0.16666667 </v>
   <v>      -0.33333333       0.00000000      -0.16666667 </v>
   <v>      -0.16666667       0.00000000      -0.16666667 </v>
   <v>       0.00000000       0.16666667      -0.16666667 </v>
   <v>       0.16666667       0.16666667      -0.16666667 </v>
   <v>       0.33333333       0.16666667      -0.16666667 </v>
   <v>       0.50000000       0.16666667      -0.16666667 </v>
   <v>      -0.33333333       0.16666667      -0.16666667 </v>
   <v>      -0.16666667       0.16666667      -0.16666667 </v>
   <v>       0.00000000       0.33333333      -0.16666667 </v>
   <v>       0.16666667       0.33333333      -0.16666667 </v>
   <v>       0.33333333       0.33333333      -0.16666667 </v>
   <v>       0.50000000       0.33333333      -0.16666667 </v>
   <v>      -0.33333333       0.33333333      -0.16666667 </v>
   <v>      -0.16666667       0.33333333      -0.16666667 </v>
   <v>       0.00000000       0.50000000      -0.16666667 </v>
   <v>       0.16666667       0.50000000      -0.16666667 </v>
   <v>       0.33333333       0.50000000      -0.16666667 </v>
   <v>       0.50000000       0.50000000      -0.16666667 </v>
   <v>      -0.33333333       0.50000000      -0.16666667 </v>
   <v>      -0.16666667       0.50000000      -0.16666667 </v>
   <v>       0.00000000      -0.33333333      -0.16666667 </v>
   <v>       0.16666667      -0.33333333      -0.16666667 </v>
   <v>       0.33333333      -0.33333333      -0.16666667 </v>
   <v>       0.50000000      -0.33333333      -0.16666667 </v>
   <v>      -0.33333333      -0.33333333      -0.16666667 </v>
   <v>      -0.16666667      -0.33333333      -0.16666667 </v>
   <v>       0.00000000      -0.16666667      -0.16666667 </v>
   <v>       0.16666667      -0.16666667      -0.16666667 </v>
   <v>       0.33333333      -0.16666667      -0.16666667 </v>
   <v>       0.50000000      -0.16666667      -0.16666667 </v>
   <v>      -0.33333333      -0.16666667      -0.16666667 </v>
   <v>      -0.16666667      -0.16666667      -0.16666667 </v>
  </varray>
  <varray name="weights" >
   <v>       0.00462963 </v>
   <v>       0.00462963 </v>
   <v>       0.00462963 </v>
   <v>       0.00462963 </v>
   <v>       0.00462963 </v>
   <v>       0.00462963 </v>
   <v>       0.00462963 </v>
   <v>       0.00462963 </v>
   <v>       0.00462963 </v>
   <v>       0.00462963 </v>
   <v>       0.00462963 </v>
   <v>       0.00462963 </v>
   <v>       0.00462963 </v>
   <v>       0.00462963 </v>
   <v>       0.00462963 </v>
   <v>       0.00462963 </v>
   <v>       0.00462963 </v>
   <v>       0.00462963 </v>
   <v>       0.00462963 </v>
   <v>       0.00462963 </v>
   <v>       0.00462963 </v>
   <v>       0.00462963 </v>
   <v>       0.00462963 </v>
   <v>       0.00462963 </v>
   <v>       0.00462963 </v>
   <v>       0.00462963 </v>
   <v>       0.00462963 </v>
   <v>       0.00462963 </v>
   <v>       0.00462963 </v>
   <v>       0.00462963 </v>
   <v>       0.00462963 </v>
   <v>       0.00462963 </v>
   <v>       0.00462963 </v>
   <v>       0.00462963 </v>
   <v>       0.00462963 </v>
   <v>       0.00462963 </v>
   <v>       0.00462963 </v>
   <v>       0.00462963 </v>
   <v>       0.00462963 </v>
   <v>       0.00462963 </v>
   <v>       0.00462963 </v>
   <v>       0.00462963 </v>
   <v>       0.00462963 </v>
   <v>       0.00462963 </v>
   <v>       0.00462963 </v>
   <v>       0.00462963 </v>
   <v>       0.00462963 </v>
   <v>       0.00462963 </v>
   <v>       0.00462963 </v>
   <v>       0.00462963 </v>
   <v>       0.00462963 </v>
   <v>       0.00462963 </v>
   <v>       0.00462963 </v>
   <v>       0.00462963 </v>
   <v>       0.00462963 </v>
   <v>       0.00462963 </v>
   <v>       0.00462963 </v>
   <v>       0.00462963 </v>
   <v>       0.00462963 </v>
   <v>       0.00462963 </v>
   <v>       0.00462963 </v>
   <v>       0.00462963 </v>
   <v>       0.00462963 </v>
   <v>       0.00462963 </v>
   <v>       0.00462963 </v>
   <v>       0.00462963 </v>
   <v>       0.00462963 </v>
   <v>       0.00462963 </v>
   <v>       0.00462963 </v>
   <v>       0.00462963 </v>
   <v>       0.00462963 </v>
   <v>       0.00462963 </v>
   <v>       0.00462963 </v>
   <v>       0.00462963 </v>
   <v>       0.00462963 </v>
   <v>       0.00462963 </v>
   <v>       0.00462963 </v>
   <v>       0.00462963 </v>
   <v>       0.00462963 </v>
   <v>       0.00462963 </v>
   <v>       0.00462963 </v>
   <v>       0.00462963 </v>
   <v>       0.00462963 </v>
   <v>       0.00462963 </v>
   <v>       0.00462963 </v>
   <v>       0.00462963 </v>
   <v>       0.00462963 </v>
   <v>       0.00462963 </v>
   <v>       0.00462963 </v>
   <v>       0.00462963 </v>
   <v>       0.00462963 </v>
   <v>       0.00462963 </v>
   <v>       0.00462963 </v>
   <v>       0.00462963 </v>
   <v>       0.00462963 </v>
   <v>       0.00462963 </v>
   <v>       0.00462963 </v>
   <v>       0.00462963 </v>
   <v>       0.00462963 </v>
   <v>       0.00462963 </v>
   <v>       0.00462963 </v>
   <v>       0.00462963 </v>
   <v>       0.00462963 </v>
   <v>       0.00462963 </v>
   <v>       0.00462963 </v>
   <v>       0.00462963 </v>
   <v>       0.00462963 </v>
   <v>       0.00462963 </v>
   <v>       0.00462963 </v>
   <v>       0.00462963 </v>
   <v>       0.00462963 </v>
   <v>       0.00462963 </v>
   <v>       0.00462963 </v>
   <v>       0.00462963 </v>
   <v>       0.00462963 </v>
   <v>       0.00462963 </v>
   <v>       0.00462963 </v>
   <v>       0.00462963 </v>
   <v>       0.00462963 </v>
   <v>       0.00462963 </v>
   <v>       0.00462963 </v>
   <v>       0.00462963 </v>
   <v>       0.00462963 </v>
   <v>       0.00462963 </v>
   <v>       0.00462963 </v>
   <v>       0.00462963 </v>
   <v>       0.00462963 </v>
   <v>       0.00462963 </v>
   <v>       0.00462963 </v>
   <v>       0.00462963 </v>
   <v>       0.00462963 </v>
   <v>       0.00462963 </v>
   <v>       0.00462963 </v>
   <v>       0.00462963 </v>
   <v>       0.00462963 </v>
   <v>       0.00462963 </v>
   <v>       0.00462963 </v>
   <v>       0.00462963 </v>
   <v>       0.00462963 </v>
   <v>       0.00462963 </v>
   <v>       0.00462963 </v>
   <v>       0.00462963 </v>
   <v>       0.00462963 </v>
   <v>       0.00462963 </v>
   <v>       0.00462963 </v>
   <v>       0.00462963 </v>
   <v>       0.00462963 </v>
   <v>       0.00462963 </v>
   <v>       0.00462963 </v>
   <v>       0.00462963 </v>
   <v>       0.00462963 </v>
   <v>       0.00462963 </v>
   <v>       0.00462963 </v>
   <v>       0.00462963 </v>
   <v>       0.00462963 </v>
   <v>       0.00462963 </v>
   <v>       0.00462963 </v>
   <v>       0.00462963 </v>
   <v>       0.00462963 </v>
   <v>       0.00462963 </v>
   <v>       0.00462963 </v>
   <v>       0.00462963 </v>
   <v>       0.00462963 </v>
   <v>       0.00462963 </v>
   <v>       0.00462963 </v>
   <v>       0.00462963 </v>
   <v>       0.00462963 </v>
   <v>       0.00462963 </v>
   <v>       0.00462963 </v>
   <v>       0.00462963 </v>
   <v>       0.00462963 </v>
   <v>       0.00462963 </v>
   <v>       0.00462963 </v>
   <v>       0.00462963 </v>
   <v>       0.00462963 </v>
   <v>       0.00462963 </v>
   <v>       0.00462963 </v>
   <v>       0.00462963 </v>
   <v>       0.00462963 </v>
   <v>       0.00462963 </v>
   <v>       0.00462963 </v>
   <v>       0.00462963 </v>
   <v>       0.00462963 </v>
   <v>       0.00462963 </v>
   <v>       0.00462963 </v>
   <v>       0.00462963 </v>
   <v>       0.00462963 </v>
   <v>       0.00462963 </v>
   <v>       0.00462963 </v>
   <v>       0.00462963 </v>
   <v>       0.00462963 </v>
   <v>       0.00462963 </v>
   <v>       0.00462963 </v>
   <v>       0.00462963 </v>
   <v>       0.00462963 </v>
   <v>       0.00462963 </v>
   <v>       0.00462963 </v>
   <v>       0.00462963 </v>
   <v>       0.00462963 </v>
   <v>       0.00462963 </v>
   <v>       0.00462963 </v>
   <v>       0.00462963 </v>
   <v>       0.00462963 </v>
   <v>       0.00462963 </v>
   <v>       0.00462963 </v>
   <v>       0.00462963 </v>
   <v>       0.00462963 </v>
   <v>       0.00462963 </v>
   <v>       0.00462963 </v>
   <v>       0.00462963 </v>
   <v>       0.00462963 </v>
   <v>       0.00462963 </v>
   <v>       0.00462963 </v>
   <v>       0.00462963 </v>
   <v>       0.00462963 </v>
   <v>       0.00462963 </v>
  </varray>
 </kpoints>
 <parameters>
  <separator name="general" >
   <i type="string" name="SYSTEM">Og_FCC</i>
   <i type="logical" name="LCOMPAT"> F  </i>
  </separator>
  <separator name="electronic" >
   <i type="string" name="PREC">accura</i>
   <i name="ENMAX">    300.00000000</i>
   <i name="ENAUG">   1514.19200000</i>
   <i name="EDIFF">      0.00000001</i>
   <i type="int" name="IALGO">    38</i>
   <i type="int" name="IWAVPR">    10</i>
   <i type="int" name="NBANDS">   128</i>
   <i name="NELECT">      2.00000000</i>
   <i type="int" name="TURBO">     0</i>
   <i type="int" name="IRESTART">     0</i>
   <i type="int" name="NREBOOT">     0</i>
   <i type="int" name="NMIN">     0</i>
   <i name="EREF">      0.00000000</i>
   <separator name="electronic smearing" >
    <i type="int" name="ISMEAR">     0</i>
    <i name="SIGMA">      0.00100000</i>
    <i name="KSPACING">      0.50000000</i>
    <i type="logical" name="KGAMMA"> T  </i>
   </separator>
   <separator name="electronic projectors" >
    <i type="logical" name="LREAL"> F  </i>
    <v name="ROPT">      0.00000000</v>
    <i type="int" name="LMAXPAW">  -100</i>
    <i type="int" name="LMAXMIX">     2</i>
    <i type="logical" name="NLSPLINE"> F  </i>
   </separator>
   <separator name="electronic startup" >
    <i type="int" name="ISTART">     1</i>
    <i type="int" name="ICHARG">     0</i>
    <i type="int" name="INIWAV">     1</i>
   </separator>
   <separator name="electronic spin" >
    <i type="int" name="ISPIN">     1</i>
    <i type="logical" name="LNONCOLLINEAR"> T  </i>
    <v name="MAGMOM">      1.00000000      1.00000000      1.00000000</v>
    <i name="NUPDOWN">     -1.00000000</i>
    <i type="logical" name="LSORBIT"> T  </i>
    <v name="SAXIS">      0.00000000      0.00000000      1.00000000</v>
    <i type="logical" name="LSPIRAL"> F  </i>
    <v name="QSPIRAL">      0.00000000      0.00000000      0.00000000</v>
    <i type="logical" name="LZEROZ"> F  </i>
   </separator>
   <separator name="electronic exchange-correlation" >
    <i type="logical" name="LASPH"> F  </i>
    <i type="logical" name="LMETAGGA"> F  </i>
   </separator>
   <separator name="electronic convergence" >
    <i type="int" name="NELM">     1</i>
    <i type="int" name="NELMDL">     0</i>
    <i type="int" name="NELMIN">     2</i>
    <i name="ENINI">    300.00000000</i>
    <separator name="electronic convergence detail" >
     <i type="logical" name="LDIAG"> T  </i>
     <i type="logical" name="LSUBROT"> F  </i>
     <i name="WEIMIN">      0.00000000</i>
     <i name="EBREAK">      0.00000000</i>
     <i name="DEPER">      0.30000000</i>
     <i type="int" name="NRMM">     4</i>
     <i name="TIME">      0.40000000</i>
    </separator>
   </separator>
   <separator name="electronic mixer" >
    <i name="AMIX">      0.40000000</i>
    <i name="BMIX">      1.00000000</i>
    <i name="AMIN">      0.10000000</i>
    <i name="AMIX_MAG">      1.60000000</i>
    <i name="BMIX_MAG">      1.00000000</i>
    <separator name="electronic mixer details" >
     <i type="int" name="IMIX">     1</i>
     <i type="logical" name="MIXFIRST"> F  </i>
     <i type="int" name="MAXMIX">    50</i>
     <i name="WC">    100.00000000</i>
     <i type="int" name="INIMIX">     1</i>
     <i type="int" name="MIXPRE">     1</i>
     <i type="int" name="MREMOVE">     5</i>
    </separator>
   </separator>
   <separator name="electronic dipolcorrection" >
    <i type="logical" name="LDIPOL"> F  </i>
    <i type="logical" name="LMONO"> F  </i>
    <i type="int" name="IDIPOL">     0</i>
    <i name="EPSILON">      1.00000000</i>
    <v name="DIPOL">   -100.00000000   -100.00000000   -100.00000000</v>
    <i name="EFIELD">      0.00000000</i>
   </separator>
  </separator>
  <separator name="grids" >
   <i type="int" name="NGX">    16</i>
   <i type="int" name="NGY">    16</i>
   <i type="int" name="NGZ">    16</i>
   <i type="int" name="NGXF">    32</i>
   <i type="int" name="NGYF">    32</i>
   <i type="int" name="NGZF">    32</i>
   <i type="logical" name="ADDGRID"> T  </i>
  </separator>
  <separator name="ionic" >
   <i type="int" name="NSW">     1</i>
   <i type="int" name="IBRION">    -1</i>
   <i type="int" name="MDALGO">     0</i>
   <i type="int" name="ISIF">     3</i>
   <i name="PSTRESS">      0.00000000</i>
   <i name="EDIFFG">      0.00001000</i>
   <i type="int" name="NFREE">     5</i>
   <i name="POTIM">      0.10000000</i>
   <i name="SMASS">     -3.00000000</i>
   <i name="SCALEE">      1.00000000</i>
  </separator>
  <separator name="ionic md" >
   <i name="TEBEG">      0.00010000</i>
   <i name="TEEND">      0.00010000</i>
   <i type="int" name="NBLOCK">     1</i>
   <i type="int" name="KBLOCK">     1</i>
   <i type="int" name="NPACO">   256</i>
   <i name="APACO">     16.00000000</i>
  </separator>
  <separator name="symmetry" >
   <i type="int" name="ISYM">     0</i>
   <i name="SYMPREC">      0.00000010</i>
  </separator>
  <separator name="dos" >
   <i type="int" name="LORBIT">     0</i>
   <v name="RWIGS">     -1.00000000</v>
   <i type="int" name="NEDOS">   301</i>
   <i name="EMIN">     10.00000000</i>
   <i name="EMAX">    -10.00000000</i>
   <i name="EFERMI">      0.00000000</i>
  </separator>
  <separator name="writing" >
   <i type="int" name="NWRITE">     1</i>
   <i type="logical" name="LWAVE"> T  </i>
   <i type="logical" name="LDOWNSAMPLE"> F  </i>
   <i type="logical" name="LCHARG"> F  </i>
   <i type="logical" name="LPARD"> F  </i>
   <i type="logical" name="LVTOT"> F  </i>
   <i type="logical" name="LVHAR"> F  </i>
   <i type="logical" name="LELF"> F  </i>
   <i type="logical" name="LOPTICS"> F  </i>
   <v name="STM">      0.00000000      0.00000000      0.00000000      0.00000000      0.00000000      0.00000000      0.00000000</v>
  </separator>
  <separator name="performance" >
   <i type="int" name="NPAR">     2</i>
   <i type="int" name="NSIM">     4</i>
   <i type="int" name="NBLK">    -1</i>
   <i type="logical" name="LPLANE"> T  </i>
   <i type="logical" name="LSCALAPACK"> T  </i>
   <i type="logical" name="LSCAAWARE"> F  </i>
   <i type="logical" name="LSCALU"> F  </i>
   <i type="logical" name="LASYNC"> F  </i>
   <i type="logical" name="LORBITALREAL"> F  </i>
  </separator>
  <separator name="miscellaneous" >
   <i type="int" name="IDIOT">     3</i>
   <i type="int" name="ISPECIAL">     0</i>
   <i type="logical" name="LMUSIC"> F  </i>
   <v name="POMASS">      4.00000000</v>
   <v name="DARWINR">      0.00000000</v>
   <v name="DARWINV">      1.00000000</v>
   <i type="logical" name="LCORR"> T  </i>
  </separator>
  <i type="logical" name="GGA_COMPAT"> F  </i>
  <i type="logical" name="LBERRY"> F  </i>
  <i type="int" name="ICORELEVEL">     0</i>
  <i type="logical" name="LDAU"> F  </i>
  <i type="int" name="I_CONSTRAINED_M">     0</i>
  <separator name="electronic exchange-correlation" >
   <i type="string" name="GGA">--</i>
   <i type="int" name="VOSKOWN">     0</i>
   <i type="logical" name="LHFCALC"> T  </i>
   <i type="string" name="PRECFOCK">normal</i>
   <i type="logical" name="LSYMGRAD"> F  </i>
   <i type="logical" name="LHFONE"> F  </i>
   <i type="logical" name="LRHFCALC"> F  </i>
   <i type="logical" name="LTHOMAS"> F  </i>
   <i type="logical" name="LMODELHF"> F  </i>
   <i name="ENCUT4O">     -1.00000000</i>
   <i type="int" name="EXXOEP">     0</i>
   <i type="int" name="FOURORBIT">     0</i>
   <i name="AEXX">      1.00000000</i>
   <i name="HFALPHA">     -1.00000000</i>
   <i name="MCALPHA">      0.00000000</i>
   <i name="ALDAX">      0.00000000</i>
   <i name="AGGAX">      0.00000000</i>
   <i name="ALDAC">      0.00000000</i>
   <i name="AGGAC">      0.00000000</i>
   <i type="int" name="NKREDX">     1</i>
   <i type="int" name="NKREDY">     1</i>
   <i type="int" name="NKREDZ">     1</i>
   <i type="logical" name="SHIFTRED"> F  </i>
   <i type="logical" name="ODDONLY"> F  </i>
   <i type="logical" name="EVENONLY"> F  </i>
   <i type="int" name="LMAXFOCK">     4</i>
   <i type="int" name="NMAXFOCKAE">     1</i>
   <i type="logical" name="LFOCKAEDFT"> F  </i>
   <i name="HFSCREEN">      0.00000000</i>
   <i name="HFSCREENC">      0.00000000</i>
   <i type="int" name="NBANDSGWLOW">     1</i>
  </separator>
  <separator name="vdW DFT" >
   <i type="logical" name="LUSE_VDW"> F  </i>
   <i name="Zab_VDW">     -0.84910000</i>
   <i name="PARAM1">      0.12340000</i>
   <i name="PARAM2">      1.00000000</i>
   <i name="PARAM3">      0.00000000</i>
  </separator>
  <separator name="model GW" >
   <i type="int" name="MODEL_GW">     0</i>
   <i name="MODEL_EPS0">      9.77092638</i>
   <i name="MODEL_ALPHA">      1.00000000</i>
  </separator>
  <separator name="linear response parameters" >
   <i type="logical" name="LEPSILON"> F  </i>
   <i type="logical" name="LRPA"> F  </i>
   <i type="logical" name="LNABLA"> F  </i>
   <i type="logical" name="LVEL"> F  </i>
   <i type="int" name="KINTER">     0</i>
   <i name="CSHIFT">      0.10000000</i>
   <i name="OMEGAMAX">     -1.00000000</i>
   <i name="DEG_THRESHOLD">      0.00200000</i>
   <i name="RTIME">     -0.10000000</i>
   <i name="WPLASMAI">      0.00000000</i>
   <v name="DFIELD">      0.00000000      0.00000000      0.00000000</v>
   <v name="WPLASMA">      0.00000000      0.00000000      0.00000000      0.00000000      0.00000000      0.00000000      0.00000000      0.00000000      0.00000000</v>
  </separator>
  <separator name="orbital magnetization" >
   <i type="logical" name="NUCIND"> F  </i>
   <v name="MAGPOS">      0.00000000      0.00000000      0.00000000</v>
   <i type="logical" name="LNICSALL"> T  </i>
   <i type="logical" name="ORBITALMAG"> F  </i>
   <i type="logical" name="LMAGBLOCH"> F  </i>
   <i type="logical" name="LCHIMAG"> F  </i>
   <i type="logical" name="LGAUGE"> T  </i>
   <i type="int" name="MAGATOM">     0</i>
   <v name="MAGDIPOL">      0.00000000      0.00000000      0.00000000</v>
   <v name="AVECCONST">      0.00000000      0.00000000      0.00000000</v>
  </separator>
  <separator name="response functions" >
   <i type="logical" name="LADDER"> F  </i>
   <i type="logical" name="LRPAFORCE"> F  </i>
   <i type="logical" name="LFXC"> F  </i>
   <i type="logical" name="LHARTREE"> T  </i>
   <i type="int" name="IBSE">     0</i>
   <v type="int" name="KPOINT">    -1     0     0     0</v>
   <i type="logical" name="LTCTE"> F  </i>
   <i type="logical" name="LTETE"> F  </i>
   <i type="logical" name="LTRIPLET"> F  </i>
   <i type="logical" name="LFXCEPS"> F  </i>
   <i type="logical" name="LFXHEG"> F  </i>
   <i type="int" name="NATURALO">     2</i>
   <i type="logical" name="L2ORDER"> F  </i>
   <i type="logical" name="LMP2LT"> F  </i>
   <i type="logical" name="LUSEW"> F  </i>
   <i name="ENCUTGW">    200.00000000</i>
   <i name="ENCUTGWSOFT">    200.00000000</i>
   <i name="ENCUTLF">     -1.00000000</i>
   <i type="int" name="LMAXMP2">    -1</i>
   <i name="SCISSOR">      0.00000000</i>
   <i type="int" name="NOMEGA">    50</i>
   <i type="int" name="NOMEGAR">    50</i>
   <i type="int" name="NBANDSGW">    -1</i>
   <i type="int" name="NBANDSO">    -1</i>
   <i type="int" name="NBANDSV">    -1</i>
   <i type="int" name="NELM">     1</i>
   <i type="int" name="NELMHF">     1</i>
   <i type="int" name="DIM">     3</i>
   <i type="int" name="ANTIRES">     0</i>
   <i name="OMEGAMAX">    -30.00000000</i>
   <i name="OMEGAMIN">    -30.00000000</i>
   <i name="OMEGATL">   -200.00000000</i>
   <i type="int" name="OMEGAGRID">     0</i>
   <i name="CSHIFT">     -0.10000000</i>
   <i type="logical" name="SELFENERGY"> F  </i>
   <i type="logical" name="LSPECTRAL"> T  </i>
   <i type="logical" name="LSPECTRALGW"> F  </i>
   <i type="logical" name="LSINGLES"> F  </i>
   <i type="logical" name="LFERMIGW"> F  </i>
   <i type="logical" name="ODDONLYGW"> F  </i>
   <i type="logical" name="EVENONLYGW"> F  </i>
   <i type="int" name="NKREDLFX">     1</i>
   <i type="int" name="NKREDLFY">     1</i>
   <i type="int" name="NKREDLFZ">     1</i>
   <i type="int" name="MAXMEM">  2800</i>
   <i type="int" name="TELESCOPE">     0</i>
   <i type="int" name="TAUPAR">     1</i>
   <i type="int" name="OMEGAPAR">    -1</i>
   <i name="LAMBDA">      1.00000000</i>
  </separator>
  <separator name="External order field" >
   <i name="OFIELD_KAPPA">      0.00000000</i>
   <v name="OFIELD_K">      0.00000000      0.00000000      0.00000000</v>
   <i name="OFIELD_Q6_NEAR">      0.00000000</i>
   <i name="OFIELD_Q6_FAR">      0.00000000</i>
   <i name="OFIELD_A">      0.00000000</i>
  </separator>
 </parameters>
 <atominfo>
  <atoms>       1 </atoms>
  <types>       1 </types>
  <array name="atoms" >
   <dimension dim="1">ion</dimension>
   <field type="string">element</field>
   <field type="int">atomtype</field>
   <set>
    <rc><c>He</c><c>   1</c></rc>
   </set>
  </array>
  <array name="atomtypes" >
   <dimension dim="1">type</dimension>
   <field type="int">atomspertype</field>
   <field type="string">element</field>
   <field>mass</field>
   <field>valence</field>
   <field type="string">pseudopotential</field>
   <set>
    <rc><c>   1</c><c>He</c><c>      4.00000000</c><c>      2.00000000</c><c>  PAW_PBE He_GW 13May2007               </c></rc>
   </set>
  </array>
 </atominfo>
 <structure name="initialpos" >
  <crystal>
   <varray name="basis" >
    <v>       2.84511503       0.00000000       0.00000000 </v>
    <v>       1.42255751       2.46394189       0.00000000 </v>
    <v>       1.42255751       0.82131396       2.32302669 </v>
   </varray>
   <i name="volume">     16.28487729 </i>
   <varray name="rec_basis" >
    <v>       0.35147964      -0.20292686      -0.14349096 </v>
    <v>       0.00000000       0.40585373      -0.14349096 </v>
    <v>       0.00000000       0.00000000       0.43047288 </v>
   </varray>
  </crystal>
  <varray name="positions" >
   <v>       0.00000000       0.00000000       0.00000000 </v>
  </varray>
  <varray name="velocities" >
   <v>       0.00000000       0.00000000       0.00000000 </v>
  </varray>
 </structure>
 <kpoints>
  <generation param="Gamma">
   <v type="int" name="divisions">       6        6        6 </v>
   <v name="usershift">      0.00000000       0.00000000       0.00000000 </v>
   <v name="genvec1">      0.16666667       0.00000000       0.00000000 </v>
   <v name="genvec2">      0.00000000       0.16666667       0.00000000 </v>
   <v name="genvec3">      0.00000000       0.00000000       0.16666667 </v>
   <v name="shift">      0.00000000       0.00000000       0.00000000 </v>
  </generation>
  <varray name="kpointlist" >
   <v>       0.00000000       0.00000000       0.00000000 </v>
   <v>       0.16666667      -0.00000000       0.00000000 </v>
   <v>       0.33333333      -0.00000000       0.00000000 </v>
   <v>       0.50000000      -0.00000000       0.00000000 </v>
   <v>      -0.33333333       0.00000000      -0.00000000 </v>
   <v>      -0.16666667       0.00000000      -0.00000000 </v>
   <v>       0.00000000       0.16666667      -0.00000000 </v>
   <v>       0.16666667       0.16666667       0.00000000 </v>
   <v>       0.33333333       0.16666667       0.00000000 </v>
   <v>       0.50000000       0.16666667       0.00000000 </v>
   <v>      -0.33333333       0.16666667      -0.00000000 </v>
   <v>      -0.16666667       0.16666667      -0.00000000 </v>
   <v>       0.00000000       0.33333333       0.00000000 </v>
   <v>       0.16666667       0.33333333       0.00000000 </v>
   <v>       0.33333333       0.33333333       0.00000000 </v>
   <v>       0.50000000       0.33333333       0.00000000 </v>
   <v>      -0.33333333       0.33333333      -0.00000000 </v>
   <v>      -0.16666667       0.33333333       0.00000000 </v>
   <v>       0.00000000       0.50000000       0.00000000 </v>
   <v>       0.16666667       0.50000000       0.00000000 </v>
   <v>       0.33333333       0.50000000       0.00000000 </v>
   <v>       0.50000000       0.50000000       0.00000000 </v>
   <v>      -0.33333333       0.50000000      -0.00000000 </v>
   <v>      -0.16666667       0.50000000      -0.00000000 </v>
   <v>       0.00000000      -0.33333333       0.00000000 </v>
   <v>       0.16666667      -0.33333333      -0.00000000 </v>
   <v>       0.33333333      -0.33333333       0.00000000 </v>
   <v>       0.50000000      -0.33333333      -0.00000000 </v>
   <v>      -0.33333333      -0.33333333      -0.00000000 </v>
   <v>      -0.16666667      -0.33333333       0.00000000 </v>
   <v>       0.00000000      -0.16666667       0.00000000 </v>
   <v>       0.16666667      -0.16666667       0.00000000 </v>
   <v>       0.33333333      -0.16666667       0.00000000 </v>
   <v>       0.50000000      -0.16666667       0.00000000 </v>
   <v>      -0.33333333      -0.16666667      -0.00000000 </v>
   <v>      -0.16666667      -0.16666667      -0.00000000 </v>
   <v>       0.00000000       0.00000000       0.16666667 </v>
   <v>       0.16666667      -0.00000000       0.16666667 </v>
   <v>       0.33333333      -0.00000000       0.16666667 </v>
   <v>       0.50000000      -0.00000000       0.16666667 </v>
   <v>      -0.33333333       0.00000000       0.16666667 </v>
   <v>      -0.16666667       0.00000000       0.16666667 </v>
   <v>       0.00000000       0.16666667       0.16666667 </v>
   <v>       0.16666667       0.16666667       0.16666667 </v>
   <v>       0.33333333       0.16666667       0.16666667 </v>
   <v>       0.50000000       0.16666667       0.16666667 </v>
   <v>      -0.33333333       0.16666667       0.16666667 </v>
   <v>      -0.16666667       0.16666667       0.16666667 </v>
   <v>       0.00000000       0.33333333       0.16666667 </v>
   <v>       0.16666667       0.33333333       0.16666667 </v>
   <v>       0.33333333       0.33333333       0.16666667 </v>
   <v>       0.50000000       0.33333333       0.16666667 </v>
   <v>      -0.33333333       0.33333333       0.16666667 </v>
   <v>      -0.16666667       0.33333333       0.16666667 </v>
   <v>       0.00000000       0.50000000       0.16666667 </v>
   <v>       0.16666667       0.50000000       0.16666667 </v>
   <v>       0.33333333       0.50000000       0.16666667 </v>
   <v>       0.50000000       0.50000000       0.16666667 </v>
   <v>      -0.33333333       0.50000000       0.16666667 </v>
   <v>      -0.16666667       0.50000000       0.16666667 </v>
   <v>       0.00000000      -0.33333333       0.16666667 </v>
   <v>       0.16666667      -0.33333333       0.16666667 </v>
   <v>       0.33333333      -0.33333333       0.16666667 </v>
   <v>       0.50000000      -0.33333333       0.16666667 </v>
   <v>      -0.33333333      -0.33333333       0.16666667 </v>
   <v>      -0.16666667      -0.33333333       0.16666667 </v>
   <v>       0.00000000      -0.16666667       0.16666667 </v>
   <v>       0.16666667      -0.16666667       0.16666667 </v>
   <v>       0.33333333      -0.16666667       0.16666667 </v>
   <v>       0.50000000      -0.16666667       0.16666667 </v>
   <v>      -0.33333333      -0.16666667       0.16666667 </v>
   <v>      -0.16666667      -0.16666667       0.16666667 </v>
   <v>       0.00000000       0.00000000       0.33333333 </v>
   <v>       0.16666667      -0.00000000       0.33333333 </v>
   <v>       0.33333333      -0.00000000       0.33333333 </v>
   <v>       0.50000000      -0.00000000       0.33333333 </v>
   <v>      -0.33333333       0.00000000       0.33333333 </v>
   <v>      -0.16666667       0.00000000       0.33333333 </v>
   <v>       0.00000000       0.16666667       0.33333333 </v>
   <v>       0.16666667       0.16666667       0.33333333 </v>
   <v>       0.33333333       0.16666667       0.33333333 </v>
   <v>       0.50000000       0.16666667       0.33333333 </v>
   <v>      -0.33333333       0.16666667       0.33333333 </v>
   <v>      -0.16666667       0.16666667       0.33333333 </v>
   <v>       0.00000000       0.33333333       0.33333333 </v>
   <v>       0.16666667       0.33333333       0.33333333 </v>
   <v>       0.33333333       0.33333333       0.33333333 </v>
   <v>       0.50000000       0.33333333       0.33333333 </v>
   <v>      -0.33333333       0.33333333       0.33333333 </v>
   <v>      -0.16666667       0.33333333       0.33333333 </v>
   <v>       0.00000000       0.50000000       0.33333333 </v>
   <v>       0.16666667       0.50000000       0.33333333 </v>
   <v>       0.33333333       0.50000000       0.33333333 </v>
   <v>       0.50000000       0.50000000       0.33333333 </v>
   <v>      -0.33333333       0.50000000       0.33333333 </v>
   <v>      -0.16666667       0.50000000       0.33333333 </v>
   <v>       0.00000000      -0.33333333       0.33333333 </v>
   <v>       0.16666667      -0.33333333       0.33333333 </v>
   <v>       0.33333333      -0.33333333       0.33333333 </v>
   <v>       0.50000000      -0.33333333       0.33333333 </v>
   <v>      -0.33333333      -0.33333333       0.33333333 </v>
   <v>      -0.16666667      -0.33333333       0.33333333 </v>
   <v>       0.00000000      -0.16666667       0.33333333 </v>
   <v>       0.16666667      -0.16666667       0.33333333 </v>
   <v>       0.33333333      -0.16666667       0.33333333 </v>
   <v>       0.50000000      -0.16666667       0.33333333 </v>
   <v>      -0.33333333      -0.16666667       0.33333333 </v>
   <v>      -0.16666667      -0.16666667       0.33333333 </v>
   <v>       0.00000000       0.00000000       0.50000000 </v>
   <v>       0.16666667      -0.00000000       0.50000000 </v>
   <v>       0.33333333      -0.00000000       0.50000000 </v>
   <v>       0.50000000      -0.00000000       0.50000000 </v>
   <v>      -0.33333333       0.00000000       0.50000000 </v>
   <v>      -0.16666667       0.00000000       0.50000000 </v>
   <v>       0.00000000       0.16666667       0.50000000 </v>
   <v>       0.16666667       0.16666667       0.50000000 </v>
   <v>       0.33333333       0.16666667       0.50000000 </v>
   <v>       0.50000000       0.16666667       0.50000000 </v>
   <v>      -0.33333333       0.16666667       0.50000000 </v>
   <v>      -0.16666667       0.16666667       0.50000000 </v>
   <v>       0.00000000       0.33333333       0.50000000 </v>
   <v>       0.16666667       0.33333333       0.50000000 </v>
   <v>       0.33333333       0.33333333       0.50000000 </v>
   <v>       0.50000000       0.33333333       0.50000000 </v>
   <v>      -0.33333333       0.33333333       0.50000000 </v>
   <v>      -0.16666667       0.33333333       0.50000000 </v>
   <v>       0.00000000       0.50000000       0.50000000 </v>
   <v>       0.16666667       0.50000000       0.50000000 </v>
   <v>       0.33333333       0.50000000       0.50000000 </v>
   <v>       0.50000000       0.50000000       0.50000000 </v>
   <v>      -0.33333333       0.50000000       0.50000000 </v>
   <v>      -0.16666667       0.50000000       0.50000000 </v>
   <v>       0.00000000      -0.33333333       0.50000000 </v>
   <v>       0.16666667      -0.33333333       0.50000000 </v>
   <v>       0.33333333      -0.33333333       0.50000000 </v>
   <v>       0.50000000      -0.33333333       0.50000000 </v>
   <v>      -0.33333333      -0.33333333       0.50000000 </v>
   <v>      -0.16666667      -0.33333333       0.50000000 </v>
   <v>       0.00000000      -0.16666667       0.50000000 </v>
   <v>       0.16666667      -0.16666667       0.50000000 </v>
   <v>       0.33333333      -0.16666667       0.50000000 </v>
   <v>       0.50000000      -0.16666667       0.50000000 </v>
   <v>      -0.33333333      -0.16666667       0.50000000 </v>
   <v>      -0.16666667      -0.16666667       0.50000000 </v>
   <v>       0.00000000       0.00000000      -0.33333333 </v>
   <v>       0.16666667      -0.00000000      -0.33333333 </v>
   <v>       0.33333333      -0.00000000      -0.33333333 </v>
   <v>       0.50000000      -0.00000000      -0.33333333 </v>
   <v>      -0.33333333       0.00000000      -0.33333333 </v>
   <v>      -0.16666667       0.00000000      -0.33333333 </v>
   <v>       0.00000000       0.16666667      -0.33333333 </v>
   <v>       0.16666667       0.16666667      -0.33333333 </v>
   <v>       0.33333333       0.16666667      -0.33333333 </v>
   <v>       0.50000000       0.16666667      -0.33333333 </v>
   <v>      -0.33333333       0.16666667      -0.33333333 </v>
   <v>      -0.16666667       0.16666667      -0.33333333 </v>
   <v>       0.00000000       0.33333333      -0.33333333 </v>
   <v>       0.16666667       0.33333333      -0.33333333 </v>
   <v>       0.33333333       0.33333333      -0.33333333 </v>
   <v>       0.50000000       0.33333333      -0.33333333 </v>
   <v>      -0.33333333       0.33333333      -0.33333333 </v>
   <v>      -0.16666667       0.33333333      -0.33333333 </v>
   <v>       0.00000000       0.50000000      -0.33333333 </v>
   <v>       0.16666667       0.50000000      -0.33333333 </v>
   <v>       0.33333333       0.50000000      -0.33333333 </v>
   <v>       0.50000000       0.50000000      -0.33333333 </v>
   <v>      -0.33333333       0.50000000      -0.33333333 </v>
   <v>      -0.16666667       0.50000000      -0.33333333 </v>
   <v>       0.00000000      -0.33333333      -0.33333333 </v>
   <v>       0.16666667      -0.33333333      -0.33333333 </v>
   <v>       0.33333333      -0.33333333      -0.33333333 </v>
   <v>       0.50000000      -0.33333333      -0.33333333 </v>
   <v>      -0.33333333      -0.33333333      -0.33333333 </v>
   <v>      -0.16666667      -0.33333333      -0.33333333 </v>
   <v>       0.00000000      -0.16666667      -0.33333333 </v>
   <v>       0.16666667      -0.16666667      -0.33333333 </v>
   <v>       0.33333333      -0.16666667      -0.33333333 </v>
   <v>       0.50000000      -0.16666667      -0.33333333 </v>
   <v>      -0.33333333      -0.16666667      -0.33333333 </v>
   <v>      -0.16666667      -0.16666667      -0.33333333 </v>
   <v>       0.00000000       0.00000000      -0.16666667 </v>
   <v>       0.16666667      -0.00000000      -0.16666667 </v>
   <v>       0.33333333      -0.00000000      -0.16666667 </v>
   <v>       0.50000000      -0.00000000      -0.16666667 </v>
   <v>      -0.33333333       0.00000000      -0.16666667 </v>
   <v>      -0.16666667       0.00000000      -0.16666667 </v>
   <v>       0.00000000       0.16666667      -0.16666667 </v>
   <v>       0.16666667       0.16666667      -0.16666667 </v>
   <v>       0.33333333       0.16666667      -0.16666667 </v>
   <v>       0.50000000       0.16666667      -0.16666667 </v>
   <v>      -0.33333333       0.16666667      -0.16666667 </v>
   <v>      -0.16666667       0.16666667      -0.16666667 </v>
   <v>       0.00000000       0.33333333      -0.16666667 </v>
   <v>       0.16666667       0.33333333      -0.16666667 </v>
   <v>       0.33333333       0.33333333      -0.16666667 </v>
   <v>       0.50000000       0.33333333      -0.16666667 </v>
   <v>      -0.33333333       0.33333333      -0.16666667 </v>
   <v>      -0.16666667       0.33333333      -0.16666667 </v>
   <v>       0.00000000       0.50000000      -0.16666667 </v>
   <v>       0.16666667       0.50000000      -0.16666667 </v>
   <v>       0.33333333       0.50000000      -0.16666667 </v>
   <v>       0.50000000       0.50000000      -0.16666667 </v>
   <v>      -0.33333333       0.50000000      -0.16666667 </v>
   <v>      -0.16666667       0.50000000      -0.16666667 </v>
   <v>       0.00000000      -0.33333333      -0.16666667 </v>
   <v>       0.16666667      -0.33333333      -0.16666667 </v>
   <v>       0.33333333      -0.33333333      -0.16666667 </v>
   <v>       0.50000000      -0.33333333      -0.16666667 </v>
   <v>      -0.33333333      -0.33333333      -0.16666667 </v>
   <v>      -0.16666667      -0.33333333      -0.16666667 </v>
   <v>       0.00000000      -0.16666667      -0.16666667 </v>
   <v>       0.16666667      -0.16666667      -0.16666667 </v>
   <v>       0.33333333      -0.16666667      -0.16666667 </v>
   <v>       0.50000000      -0.16666667      -0.16666667 </v>
   <v>      -0.33333333      -0.16666667      -0.16666667 </v>
   <v>      -0.16666667      -0.16666667      -0.16666667 </v>
  </varray>
  <varray name="weights" >
   <v>       0.00462963 </v>
   <v>       0.00462963 </v>
   <v>       0.00462963 </v>
   <v>       0.00462963 </v>
   <v>       0.00462963 </v>
   <v>       0.00462963 </v>
   <v>       0.00462963 </v>
   <v>       0.00462963 </v>
   <v>       0.00462963 </v>
   <v>       0.00462963 </v>
   <v>       0.00462963 </v>
   <v>       0.00462963 </v>
   <v>       0.00462963 </v>
   <v>       0.00462963 </v>
   <v>       0.00462963 </v>
   <v>       0.00462963 </v>
   <v>       0.00462963 </v>
   <v>       0.00462963 </v>
   <v>       0.00462963 </v>
   <v>       0.00462963 </v>
   <v>       0.00462963 </v>
   <v>       0.00462963 </v>
   <v>       0.00462963 </v>
   <v>       0.00462963 </v>
   <v>       0.00462963 </v>
   <v>       0.00462963 </v>
   <v>       0.00462963 </v>
   <v>       0.00462963 </v>
   <v>       0.00462963 </v>
   <v>       0.00462963 </v>
   <v>       0.00462963 </v>
   <v>       0.00462963 </v>
   <v>       0.00462963 </v>
   <v>       0.00462963 </v>
   <v>       0.00462963 </v>
   <v>       0.00462963 </v>
   <v>       0.00462963 </v>
   <v>       0.00462963 </v>
   <v>       0.00462963 </v>
   <v>       0.00462963 </v>
   <v>       0.00462963 </v>
   <v>       0.00462963 </v>
   <v>       0.00462963 </v>
   <v>       0.00462963 </v>
   <v>       0.00462963 </v>
   <v>       0.00462963 </v>
   <v>       0.00462963 </v>
   <v>       0.00462963 </v>
   <v>       0.00462963 </v>
   <v>       0.00462963 </v>
   <v>       0.00462963 </v>
   <v>       0.00462963 </v>
   <v>       0.00462963 </v>
   <v>       0.00462963 </v>
   <v>       0.00462963 </v>
   <v>       0.00462963 </v>
   <v>       0.00462963 </v>
   <v>       0.00462963 </v>
   <v>       0.00462963 </v>
   <v>       0.00462963 </v>
   <v>       0.00462963 </v>
   <v>       0.00462963 </v>
   <v>       0.00462963 </v>
   <v>       0.00462963 </v>
   <v>       0.00462963 </v>
   <v>       0.00462963 </v>
   <v>       0.00462963 </v>
   <v>       0.00462963 </v>
   <v>       0.00462963 </v>
   <v>       0.00462963 </v>
   <v>       0.00462963 </v>
   <v>       0.00462963 </v>
   <v>       0.00462963 </v>
   <v>       0.00462963 </v>
   <v>       0.00462963 </v>
   <v>       0.00462963 </v>
   <v>       0.00462963 </v>
   <v>       0.00462963 </v>
   <v>       0.00462963 </v>
   <v>       0.00462963 </v>
   <v>       0.00462963 </v>
   <v>       0.00462963 </v>
   <v>       0.00462963 </v>
   <v>       0.00462963 </v>
   <v>       0.00462963 </v>
   <v>       0.00462963 </v>
   <v>       0.00462963 </v>
   <v>       0.00462963 </v>
   <v>       0.00462963 </v>
   <v>       0.00462963 </v>
   <v>       0.00462963 </v>
   <v>       0.00462963 </v>
   <v>       0.00462963 </v>
   <v>       0.00462963 </v>
   <v>       0.00462963 </v>
   <v>       0.00462963 </v>
   <v>       0.00462963 </v>
   <v>       0.00462963 </v>
   <v>       0.00462963 </v>
   <v>       0.00462963 </v>
   <v>       0.00462963 </v>
   <v>       0.00462963 </v>
   <v>       0.00462963 </v>
   <v>       0.00462963 </v>
   <v>       0.00462963 </v>
   <v>       0.00462963 </v>
   <v>       0.00462963 </v>
   <v>       0.00462963 </v>
   <v>       0.00462963 </v>
   <v>       0.00462963 </v>
   <v>       0.00462963 </v>
   <v>       0.00462963 </v>
   <v>       0.00462963 </v>
   <v>       0.00462963 </v>
   <v>       0.00462963 </v>
   <v>       0.00462963 </v>
   <v>       0.00462963 </v>
   <v>       0.00462963 </v>
   <v>       0.00462963 </v>
   <v>       0.00462963 </v>
   <v>       0.00462963 </v>
   <v>       0.00462963 </v>
   <v>       0.00462963 </v>
   <v>       0.00462963 </v>
   <v>       0.00462963 </v>
   <v>       0.00462963 </v>
   <v>       0.00462963 </v>
   <v>       0.00462963 </v>
   <v>       0.00462963 </v>
   <v>       0.00462963 </v>
   <v>       0.00462963 </v>
   <v>       0.00462963 </v>
   <v>       0.00462963 </v>
   <v>       0.00462963 </v>
   <v>       0.00462963 </v>
   <v>       0.00462963 </v>
   <v>       0.00462963 </v>
   <v>       0.00462963 </v>
   <v>       0.00462963 </v>
   <v>       0.00462963 </v>
   <v>       0.00462963 </v>
   <v>       0.00462963 </v>
   <v>       0.00462963 </v>
   <v>       0.00462963 </v>
   <v>       0.00462963 </v>
   <v>       0.00462963 </v>
   <v>       0.00462963 </v>
   <v>       0.00462963 </v>
   <v>       0.00462963 </v>
   <v>       0.00462963 </v>
   <v>       0.00462963 </v>
   <v>       0.00462963 </v>
   <v>       0.00462963 </v>
   <v>       0.00462963 </v>
   <v>       0.00462963 </v>
   <v>       0.00462963 </v>
   <v>       0.00462963 </v>
   <v>       0.00462963 </v>
   <v>       0.00462963 </v>
   <v>       0.00462963 </v>
   <v>       0.00462963 </v>
   <v>       0.00462963 </v>
   <v>       0.00462963 </v>
   <v>       0.00462963 </v>
   <v>       0.00462963 </v>
   <v>       0.00462963 </v>
   <v>       0.00462963 </v>
   <v>       0.00462963 </v>
   <v>       0.00462963 </v>
   <v>       0.00462963 </v>
   <v>       0.00462963 </v>
   <v>       0.00462963 </v>
   <v>       0.00462963 </v>
   <v>       0.00462963 </v>
   <v>       0.00462963 </v>
   <v>       0.00462963 </v>
   <v>       0.00462963 </v>
   <v>       0.00462963 </v>
   <v>       0.00462963 </v>
   <v>       0.00462963 </v>
   <v>       0.00462963 </v>
   <v>       0.00462963 </v>
   <v>       0.00462963 </v>
   <v>       0.00462963 </v>
   <v>       0.00462963 </v>
   <v>       0.00462963 </v>
   <v>       0.00462963 </v>
   <v>       0.00462963 </v>
   <v>       0.00462963 </v>
   <v>       0.00462963 </v>
   <v>       0.00462963 </v>
   <v>       0.00462963 </v>
   <v>       0.00462963 </v>
   <v>       0.00462963 </v>
   <v>       0.00462963 </v>
   <v>       0.00462963 </v>
   <v>       0.00462963 </v>
   <v>       0.00462963 </v>
   <v>       0.00462963 </v>
   <v>       0.00462963 </v>
   <v>       0.00462963 </v>
   <v>       0.00462963 </v>
   <v>       0.00462963 </v>
   <v>       0.00462963 </v>
   <v>       0.00462963 </v>
   <v>       0.00462963 </v>
   <v>       0.00462963 </v>
   <v>       0.00462963 </v>
   <v>       0.00462963 </v>
   <v>       0.00462963 </v>
   <v>       0.00462963 </v>
   <v>       0.00462963 </v>
   <v>       0.00462963 </v>
   <v>       0.00462963 </v>
   <v>       0.00462963 </v>
   <v>       0.00462963 </v>
  </varray>
 </kpoints>
 <dielectricfunction comment="HEAD OF MICROSCOPIC DIELECTRIC TENSOR (INDEPENDENT PARTICLE)">
  <imag>
   <array>
    <dimension dim="1">gridpoints</dimension>
    <field>energy</field>
    <field>xx</field>
    <field>yy</field>
    <field>zz</field>
    <field>xy</field>
    <field>yz</field>
    <field>zx</field>
    <set>
     <r>     0.0000     0.0000     0.0000     0.0000     0.0000     0.0000    -0.0000 </r>
     <r>     1.2670     0.0002     0.0002     0.0002     0.0000     0.0000     0.0000 </r>
     <r>     2.5296     0.0004     0.0004     0.0004     0.0000     0.0000     0.0000 </r>
     <r>     3.7835     0.0006     0.0006     0.0006     0.0000     0.0000     0.0000 </r>
     <r>     5.0250     0.0008     0.0008     0.0008     0.0000     0.0000     0.0000 </r>
     <r>     6.2509     0.0011     0.0011     0.0011     0.0000     0.0000     0.0000 </r>
     <r>     7.4590     0.0013     0.0013     0.0013     0.0000     0.0000     0.0000 </r>
     <r>     8.6476     0.0016     0.0016     0.0016     0.0000     0.0000     0.0000 </r>
     <r>     9.8161     0.0019     0.0019     0.0019     0.0000     0.0000     0.0000 </r>
     <r>    10.9643     0.0022     0.0022     0.0022     0.0000     0.0000     0.0000 </r>
     <r>    12.0931     0.0025     0.0025     0.0025     0.0000     0.0000     0.0000 </r>
     <r>    13.2036     0.0029     0.0029     0.0029     0.0000     0.0000     0.0000 </r>
     <r>    14.2976     0.0034     0.0034     0.0034     0.0000     0.0000     0.0000 </r>
     <r>    15.3773     0.0040     0.0040     0.0040     0.0000     0.0000     0.0000 </r>
     <r>    16.4452     0.0046     0.0046     0.0046     0.0000     0.0000     0.0000 </r>
     <r>    17.5041     0.0054     0.0054     0.0054     0.0000     0.0000     0.0000 </r>
     <r>    18.5572     0.0064     0.0064     0.0064     0.0000     0.0000     0.0000 </r>
     <r>    19.6077     0.0076     0.0076     0.0076     0.0000     0.0000     0.0000 </r>
     <r>    20.6593     0.0093     0.0093     0.0093     0.0000     0.0000     0.0000 </r>
     <r>    21.7158     0.0115     0.0115     0.0115     0.0000     0.0000     0.0000 </r>
     <r>    22.7814     0.0146     0.0146     0.0146     0.0000     0.0000     0.0000 </r>
     <r>    23.8604     0.0193     0.0193     0.0193     0.0000     0.0000     0.0000 </r>
     <r>    24.9578     0.0271     0.0271     0.0271     0.0000     0.0000     0.0000 </r>
     <r>    26.0785     0.0418     0.0418     0.0418     0.0000     0.0000     0.0000 </r>
     <r>    27.2288     0.0775     0.0775     0.0775     0.0000     0.0000     0.0000 </r>
     <r>    28.4147     0.2025     0.2024     0.2024     0.0000     0.0000     0.0000 </r>
     <r>    29.6436     0.4966     0.4966     0.4966     0.0000     0.0000     0.0000 </r>
     <r>    30.9235     0.6438     0.6438     0.6438     0.0000     0.0000     0.0000 </r>
     <r>    32.2642     0.4962     0.4962     0.4962     0.0000     0.0000     0.0000 </r>
     <r>    33.6761     0.3375     0.3375     0.3375    -0.0000    -0.0000    -0.0000 </r>
     <r>    35.1720     0.2301     0.2301     0.2301    -0.0000    -0.0000    -0.0000 </r>
     <r>    36.7668     0.1971     0.1971     0.1971    -0.0000    -0.0000    -0.0000 </r>
     <r>    38.4782     0.2150     0.2150     0.2150    -0.0000    -0.0000    -0.0000 </r>
     <r>    40.3274     0.2069     0.2069     0.2069    -0.0000    -0.0000    -0.0000 </r>
     <r>    42.3404     0.2016     0.2016     0.2016    -0.0000    -0.0000    -0.0000 </r>
     <r>    44.5491     0.1508     0.1508     0.1508    -0.0000    -0.0000    -0.0000 </r>
     <r>    46.9931     0.1319     0.1319     0.1319    -0.0000    -0.0000    -0.0000 </r>
     <r>    49.7223     0.0818     0.0818     0.0818     0.0000     0.0000     0.0000 </r>
     <r>    52.8001     0.0639     0.0639     0.0639     0.0000     0.0000     0.0000 </r>
     <r>    56.3100     0.0494     0.0494     0.0494     0.0000     0.0000     0.0000 </r>
     <r>    60.3609     0.0415     0.0415     0.0415     0.0000     0.0000     0.0000 </r>
     <r>    65.1007     0.0356     0.0356     0.0356     0.0000     0.0000     0.0000 </r>
     <r>    70.7334     0.0219     0.0219     0.0219     0.0000     0.0000     0.0000 </r>
     <r>    77.5488     0.0160     0.0160     0.0160     0.0000     0.0000     0.0000 </r>
     <r>    85.9723     0.0105     0.0106     0.0106    -0.0000    -0.0000    -0.0000 </r>
     <r>    96.6548     0.0068     0.0068     0.0068    -0.0000    -0.0000    -0.0000 </r>
     <r>   110.6435     0.0043     0.0043     0.0043    -0.0000    -0.0000    -0.0000 </r>
     <r>   129.7389     0.0024     0.0024     0.0024     0.0000     0.0000     0.0000 </r>
     <r>   157.3167     0.0009     0.0009     0.0009     0.0000     0.0000     0.0000 </r>
     <r>   200.5384     0.0001     0.0001     0.0001    -0.0000    -0.0000    -0.0000 </r>
    </set>
   </array>
  </imag>
  <real>
   <array>
    <dimension dim="1">gridpoints</dimension>
    <field>energy</field>
    <field>xx</field>
    <field>yy</field>
    <field>zz</field>
    <field>xy</field>
    <field>yz</field>
    <field>zx</field>
    <set>
     <r>     0.0000     1.1238     1.1238     1.1238     0.0000     0.0000     0.0000 </r>
     <r>     1.2670     1.1239     1.1239     1.1239     0.0000     0.0000     0.0000 </r>
     <r>     2.5296     1.1244     1.1244     1.1244     0.0000     0.0000     0.0000 </r>
     <r>     3.7835     1.1252     1.1252     1.1252     0.0000     0.0000     0.0000 </r>
     <r>     5.0250     1.1263     1.1263     1.1263     0.0000     0.0000     0.0000 </r>
     <r>     6.2509     1.1278     1.1278     1.1278     0.0000     0.0000     0.0000 </r>
     <r>     7.4590     1.1296     1.1296     1.1296     0.0000     0.0000     0.0000 </r>
     <r>     8.6476     1.1318     1.1318     1.1318     0.0000     0.0000     0.0000 </r>
     <r>     9.8161     1.1343     1.1343     1.1343     0.0000     0.0000     0.0000 </r>
     <r>    10.9643     1.1373     1.1373     1.1373     0.0000     0.0000     0.0000 </r>
     <r>    12.0931     1.1407     1.1407     1.1407     0.0000     0.0000     0.0000 </r>
     <r>    13.2036     1.1445     1.1445     1.1445     0.0000     0.0000     0.0000 </r>
     <r>    14.2976     1.1490     1.1490     1.1490     0.0000     0.0000     0.0000 </r>
     <r>    15.3773     1.1540     1.1540     1.1540     0.0000     0.0000     0.0000 </r>
     <r>    16.4452     1.1599     1.1599     1.1599     0.0000     0.0000     0.0000 </r>
     <r>    17.5041     1.1666     1.1666     1.1666     0.0000     0.0000     0.0000 </r>
     <r>    18.5572     1.1745     1.1745     1.1745     0.0000     0.0000     0.0000 </r>
     <r>    19.6077     1.1839     1.1839     1.1839     0.0000     0.0000     0.0000 </r>
     <r>    20.6593     1.1951     1.1951     1.1951     0.0000     0.0000     0.0000 </r>
     <r>    21.7158     1.2089     1.2089     1.2089     0.0000     0.0000     0.0000 </r>
     <r>    22.7814     1.2262     1.2262     1.2262     0.0000     0.0000     0.0000 </r>
     <r>    23.8604     1.2489     1.2489     1.2489     0.0000     0.0000     0.0000 </r>
     <r>    24.9578     1.2800     1.2799     1.2799     0.0000     0.0000     0.0000 </r>
     <r>    26.0785     1.3256     1.3256     1.3256     0.0000     0.0000     0.0000 </r>
     <r>    27.2288     1.3995     1.3995     1.3995     0.0000     0.0000     0.0000 </r>
     <r>    28.4147     1.5132     1.5132     1.5132     0.0000     0.0000     0.0000 </r>
     <r>    29.6436     1.4713     1.4713     1.4713     0.0000     0.0000     0.0000 </r>
     <r>    30.9235     1.1661     1.1661     1.1661    -0.0000    -0.0000    -0.0000 </r>
     <r>    32.2642     0.9228     0.9229     0.9229    -0.0000    -0.0000    -0.0000 </r>
     <r>    33.6761     0.8734     0.8734     0.8734    -0.0000    -0.0000    -0.0000 </r>
     <r>    35.1720     0.8985     0.8985     0.8985    -0.0000    -0.0000    -0.0000 </r>
     <r>    36.7668     0.9508     0.9508     0.9508    -0.0000    -0.0000    -0.0000 </r>
     <r>    38.4782     0.9594     0.9594     0.9594     0.0000     0.0000     0.0000 </r>
     <r>    40.3274     0.9398     0.9398     0.9398     0.0000     0.0000     0.0000 </r>
     <r>    42.3404     0.9092     0.9092     0.9092     0.0000     0.0000     0.0000 </r>
     <r>    44.5491     0.8903     0.8903     0.8903     0.0000     0.0000     0.0000 </r>
     <r>    46.9931     0.8873     0.8873     0.8873     0.0000     0.0000     0.0000 </r>
     <r>    49.7223     0.8877     0.8877     0.8877     0.0000     0.0000     0.0000 </r>
     <r>    52.8001     0.9109     0.9109     0.9109     0.0000     0.0000     0.0000 </r>
     <r>    56.3100     0.9237     0.9237     0.9237     0.0000     0.0000     0.0000 </r>
     <r>    60.3609     0.9359     0.9359     0.9359     0.0000     0.0000     0.0000 </r>
     <r>    65.1007     0.9412     0.9412     0.9412    -0.0000    -0.0000    -0.0000 </r>
     <r>    70.7334     0.9479     0.9479     0.9479    -0.0000    -0.0000    -0.0000 </r>
     <r>    77.5488     0.9584     0.9584     0.9584    -0.0000    -0.0000    -0.0000 </r>
     <r>    85.9723     0.9664     0.9664     0.9664    -0.0000    -0.0000    -0.0000 </r>
     <r>    96.6548     0.9740     0.9740     0.9740    -0.0000    -0.0000    -0.0000 </r>
     <r>   110.6435     0.9804     0.9804     0.9804     0.0000     0.0000     0.0000 </r>
     <r>   129.7389     0.9858     0.9858     0.9858     0.0000     0.0000     0.0000 </r>
     <r>   157.3167     0.9904     0.9904     0.9904    -0.0000    -0.0000    -0.0000 </r>
     <r>   200.5384     0.9943     0.9943     0.9943     0.0000     0.0000     0.0000 </r>
    </set>
   </array>
  </real>
 </dielectricfunction>
 <varray name="epsilon_diag_mic" >
  <v>       0.00000000       1.12375839 </v>
  <v>       2.70474090       1.05873065 </v>
  <v>       5.40948180       1.01028828 </v>
  <v>       5.40948180       1.01028828 </v>
  <v>       2.70474090       1.05873065 </v>
  <v>       2.70474090       1.05873065 </v>
  <v>       3.12316577       1.04700256 </v>
  <v>       5.17918452       1.01233065 </v>
  <v>       6.80678200       1.00285370 </v>
  <v>       4.41682340       1.02116101 </v>
  <v>       5.40948180       1.01028828 </v>
  <v>       5.17918452       1.01233065 </v>
  <v>       6.24633155       1.00502854 </v>
  <v>       6.80678200       1.00285371 </v>
  <v>       5.40948180       1.01028828 </v>
  <v>       6.80678200       1.00285371 </v>
  <v>       6.24633155       1.00502854 </v>
  <v>       5.17918452       1.01233065 </v>
  <v>       2.70474090       1.05873065 </v>
  <v>       4.41682340       1.02116102 </v>
  <v>       6.80678200       1.00285370 </v>
  <v>       5.17918452       1.01233065 </v>
  <v>       3.12316577       1.04700256 </v>
  <v>       2.70474090       1.05873065 </v>
  <v>       3.12316577       1.04700256 </v>
  <v>       5.17918452       1.01233065 </v>
  <v>       6.80678200       1.00285371 </v>
  <v>       4.41682340       1.02116101 </v>
  <v>       3.12316577       1.04700256 </v>
  <v>       2.70474090       1.05873117 </v>
  <v>       4.41682340       1.02115968 </v>
  <v>       6.80678200       1.00284977 </v>
  <v>       5.17918452       1.01233068 </v>
  <v>       5.17918452       1.01233065 </v>
  <v>       4.41682340       1.02115967 </v>
  <v>       5.17918452       1.01233147 </v>
  <v>       6.98361098       1.00236791 </v>
  <v>       6.98361098       1.00236829 </v>
  <v>       6.80678200       1.00284977 </v>
  <v>       6.98361098       1.00236791 </v>
  <v>       6.80678200       1.00285371 </v>
  <v>       6.98361098       1.00236829 </v>
  <v>       4.41682340       1.02116101 </v>
  <v>       5.17918452       1.01233068 </v>
  <v>       6.98361098       1.00236829 </v>
  <v>       6.98361098       1.00236829 </v>
  <v>       5.17918452       1.01233068 </v>
  <v>       5.40948180       1.01028828 </v>
  <v>       5.17918452       1.01233065 </v>
  <v>       6.24633155       1.00502854 </v>
  <v>       6.80678200       1.00285370 </v>
  <v>       5.17918452       1.01233065 </v>
  <v>       4.41682340       1.02115968 </v>
  <v>       5.17918452       1.01233147 </v>
  <v>       6.98361098       1.00236791 </v>
  <v>       6.98361098       1.00236829 </v>
  <v>       6.24633155       1.00502854 </v>
  <v>       5.17918452       1.01233147 </v>
  <v>       5.40948180       1.01029134 </v>
  <v>       6.80678200       1.00285305 </v>
  <v>       6.98361098       1.00236791 </v>
  <v>       6.80678200       1.00285304 </v>
  <v>       6.80678200       1.00285370 </v>
  <v>       6.98361098       1.00236829 </v>
  <v>       6.80678200       1.00284979 </v>
  <v>       6.98361098       1.00236791 </v>
  <v>       6.98361098       1.00236791 </v>
  <v>       6.80678200       1.00285306 </v>
  <v>       6.80678200       1.00285306 </v>
  <v>       6.98361098       1.00236791 </v>
  <v>       6.98361098       1.00236791 </v>
  <v>       6.80678200       1.00284976 </v>
  <v>       5.40948180       1.01028828 </v>
  <v>       6.80678200       1.00285371 </v>
  <v>       6.24633155       1.00502854 </v>
  <v>       5.17918452       1.01233065 </v>
  <v>       6.80678200       1.00285371 </v>
  <v>       6.98361098       1.00236829 </v>
  <v>       6.80678200       1.00285304 </v>
  <v>       6.98361098       1.00236791 </v>
  <v>       6.24633155       1.00502854 </v>
  <v>       6.80678200       1.00285305 </v>
  <v>       5.40948180       1.01029134 </v>
  <v>       5.17918452       1.01233146 </v>
  <v>       5.17918452       1.01233065 </v>
  <v>       6.98361098       1.00236829 </v>
  <v>       6.98361098       1.00236791 </v>
  <v>       5.17918452       1.01233146 </v>
  <v>       4.41682340       1.02115967 </v>
  <v>       2.70474090       1.05873065 </v>
  <v>       4.41682340       1.02116102 </v>
  <v>       6.80678200       1.00285371 </v>
  <v>       5.17918452       1.01233065 </v>
  <v>       3.12316577       1.04700256 </v>
  <v>       4.41682340       1.02116102 </v>
  <v>       5.17918452       1.01233068 </v>
  <v>       6.98361098       1.00236829 </v>
  <v>       6.98361098       1.00236829 </v>
  <v>       5.17918452       1.01233068 </v>
  <v>       6.80678200       1.00285371 </v>
  <v>       6.98361098       1.00236829 </v>
  <v>       6.98361098       1.00236791 </v>
  <v>       6.80678200       1.00284976 </v>
  <v>       5.17918452       1.01233065 </v>
  <v>       6.98361098       1.00236829 </v>
  <v>       6.98361098       1.00236791 </v>
  <v>       5.17918452       1.01233147 </v>
  <v>       4.41682340       1.02115967 </v>
  <v>       3.12316577       1.04700256 </v>
  <v>       5.17918452       1.01233068 </v>
  <v>       6.80678200       1.00284978 </v>
  <v>       4.41682340       1.02115968 </v>
  <v>       2.70474090       1.05873117 </v>
 </varray>
 <dielectricfunction comment="1 + v P,  with REDUCIBLE POLARIZABILTY P=P_0 (1 -(v+f) P_0)^-1">
  <imag>
   <array>
    <dimension dim="1">gridpoints</dimension>
    <field>energy</field>
    <field>xx</field>
    <field>yy</field>
    <field>zz</field>
    <field>xy</field>
    <field>yz</field>
    <field>zx</field>
    <set>
     <r>     0.0000     0.0000     0.0000     0.0000    -0.0000    -0.0000     0.0000 </r>
     <r>     1.2670     0.0002     0.0002     0.0002    -0.0000    -0.0000    -0.0000 </r>
     <r>     2.5296     0.0004     0.0004     0.0004    -0.0000    -0.0000    -0.0000 </r>
     <r>     3.7835     0.0006     0.0006     0.0006    -0.0000    -0.0000    -0.0000 </r>
     <r>     5.0250     0.0008     0.0008     0.0008    -0.0000    -0.0000    -0.0000 </r>
     <r>     6.2509     0.0010     0.0011     0.0010    -0.0000    -0.0000    -0.0000 </r>
     <r>     7.4590     0.0013     0.0013     0.0013    -0.0000    -0.0000    -0.0000 </r>
     <r>     8.6476     0.0016     0.0016     0.0016    -0.0000    -0.0000    -0.0000 </r>
     <r>     9.8161     0.0018     0.0018     0.0018    -0.0000    -0.0000    -0.0000 </r>
     <r>    10.9643     0.0022     0.0022     0.0022    -0.0000    -0.0000    -0.0000 </r>
     <r>    12.0931     0.0025     0.0025     0.0025    -0.0000    -0.0000    -0.0000 </r>
     <r>    13.2036     0.0029     0.0029     0.0029    -0.0000    -0.0000    -0.0000 </r>
     <r>    14.2976     0.0034     0.0034     0.0034    -0.0000    -0.0000    -0.0000 </r>
     <r>    15.3773     0.0040     0.0040     0.0040    -0.0000    -0.0000    -0.0000 </r>
     <r>    16.4452     0.0046     0.0046     0.0046    -0.0000    -0.0000    -0.0000 </r>
     <r>    17.5041     0.0054     0.0054     0.0054    -0.0000    -0.0000    -0.0000 </r>
     <r>    18.5572     0.0064     0.0064     0.0064    -0.0000    -0.0000    -0.0000 </r>
     <r>    19.6077     0.0076     0.0076     0.0076    -0.0000    -0.0000    -0.0000 </r>
     <r>    20.6593     0.0092     0.0092     0.0092    -0.0000    -0.0000    -0.0000 </r>
     <r>    21.7158     0.0114     0.0114     0.0114    -0.0000    -0.0000    -0.0000 </r>
     <r>    22.7814     0.0145     0.0145     0.0145    -0.0000    -0.0000    -0.0000 </r>
     <r>    23.8604     0.0192     0.0192     0.0192    -0.0000    -0.0000    -0.0000 </r>
     <r>    24.9578     0.0270     0.0270     0.0270    -0.0000    -0.0000    -0.0000 </r>
     <r>    26.0785     0.0418     0.0418     0.0418    -0.0000    -0.0000    -0.0000 </r>
     <r>    27.2288     0.0774     0.0775     0.0775    -0.0000    -0.0000    -0.0000 </r>
     <r>    28.4147     0.2023     0.2024     0.2023    -0.0000    -0.0000    -0.0000 </r>
     <r>    29.6436     0.4964     0.4968     0.4963    -0.0000    -0.0000    -0.0000 </r>
     <r>    30.9235     0.6430     0.6439     0.6425    -0.0000    -0.0000    -0.0000 </r>
     <r>    32.2642     0.4946     0.4953     0.4942    -0.0000    -0.0000    -0.0000 </r>
     <r>    33.6761     0.3355     0.3358     0.3353     0.0000     0.0000     0.0000 </r>
     <r>    35.1720     0.2290     0.2285     0.2286     0.0000     0.0000     0.0000 </r>
     <r>    36.7668     0.1958     0.1950     0.1954     0.0000     0.0000     0.0000 </r>
     <r>    38.4782     0.2135     0.2126     0.2134     0.0000     0.0000     0.0000 </r>
     <r>    40.3274     0.2060     0.2055     0.2061     0.0000     0.0000     0.0000 </r>
     <r>    42.3404     0.2012     0.2009     0.2009     0.0000     0.0000     0.0000 </r>
     <r>    44.5491     0.1506     0.1506     0.1504     0.0000     0.0000     0.0000 </r>
     <r>    46.9931     0.1317     0.1320     0.1319     0.0000     0.0000     0.0000 </r>
     <r>    49.7223     0.0819     0.0823     0.0822    -0.0000    -0.0000    -0.0000 </r>
     <r>    52.8001     0.0639     0.0641     0.0641    -0.0000    -0.0000    -0.0000 </r>
     <r>    56.3100     0.0494     0.0495     0.0496    -0.0000    -0.0000    -0.0000 </r>
     <r>    60.3609     0.0415     0.0416     0.0416    -0.0000    -0.0000    -0.0000 </r>
     <r>    65.1007     0.0357     0.0358     0.0358    -0.0000    -0.0000    -0.0000 </r>
     <r>    70.7334     0.0222     0.0221     0.0221    -0.0000    -0.0000    -0.0000 </r>
     <r>    77.5488     0.0161     0.0161     0.0161    -0.0000    -0.0000    -0.0000 </r>
     <r>    85.9723     0.0106     0.0106     0.0106     0.0000     0.0000     0.0000 </r>
     <r>    96.6548     0.0069     0.0069     0.0069     0.0000     0.0000     0.0000 </r>
     <r>   110.6435     0.0044     0.0044     0.0044     0.0000     0.0000     0.0000 </r>
     <r>   129.7389     0.0024     0.0024     0.0024    -0.0000    -0.0000    -0.0000 </r>
     <r>   157.3167     0.0009     0.0009     0.0009    -0.0000    -0.0000    -0.0000 </r>
     <r>   200.5384     0.0001     0.0001     0.0001     0.0000     0.0000     0.0000 </r>
    </set>
   </array>
  </imag>
  <real>
   <array>
    <dimension dim="1">gridpoints</dimension>
    <field>energy</field>
    <field>xx</field>
    <field>yy</field>
    <field>zz</field>
    <field>xy</field>
    <field>yz</field>
    <field>zx</field>
    <set>
     <r>     0.0000     1.1235     1.1235     1.1235    -0.0000    -0.0000    -0.0000 </r>
     <r>     1.2670     1.1237     1.1237     1.1236    -0.0000    -0.0000    -0.0000 </r>
     <r>     2.5296     1.1241     1.1242     1.1241    -0.0000    -0.0000    -0.0000 </r>
     <r>     3.7835     1.1250     1.1250     1.1249    -0.0000    -0.0000    -0.0000 </r>
     <r>     5.0250     1.1261     1.1261     1.1260    -0.0000    -0.0000    -0.0000 </r>
     <r>     6.2509     1.1276     1.1276     1.1275    -0.0000    -0.0000    -0.0000 </r>
     <r>     7.4590     1.1294     1.1294     1.1293    -0.0000    -0.0000    -0.0000 </r>
     <r>     8.6476     1.1315     1.1315     1.1315    -0.0000    -0.0000    -0.0000 </r>
     <r>     9.8161     1.1341     1.1341     1.1340    -0.0000    -0.0000    -0.0000 </r>
     <r>    10.9643     1.1370     1.1370     1.1370    -0.0000    -0.0000    -0.0000 </r>
     <r>    12.0931     1.1404     1.1404     1.1403    -0.0000    -0.0000    -0.0000 </r>
     <r>    13.2036     1.1442     1.1443     1.1442    -0.0000    -0.0000    -0.0000 </r>
     <r>    14.2976     1.1487     1.1487     1.1486    -0.0000    -0.0000    -0.0000 </r>
     <r>    15.3773     1.1537     1.1537     1.1537    -0.0000    -0.0000    -0.0000 </r>
     <r>    16.4452     1.1595     1.1596     1.1595    -0.0000    -0.0000    -0.0000 </r>
     <r>    17.5041     1.1663     1.1663     1.1662    -0.0000    -0.0000    -0.0000 </r>
     <r>    18.5572     1.1742     1.1742     1.1741    -0.0000    -0.0000    -0.0000 </r>
     <r>    19.6077     1.1835     1.1835     1.1834    -0.0000    -0.0000    -0.0000 </r>
     <r>    20.6593     1.1947     1.1947     1.1946    -0.0000    -0.0000    -0.0000 </r>
     <r>    21.7158     1.2084     1.2085     1.2083    -0.0000    -0.0000    -0.0000 </r>
     <r>    22.7814     1.2257     1.2258     1.2257    -0.0000    -0.0000    -0.0000 </r>
     <r>    23.8604     1.2484     1.2484     1.2483    -0.0000    -0.0000    -0.0000 </r>
     <r>    24.9578     1.2794     1.2795     1.2793    -0.0000    -0.0000    -0.0000 </r>
     <r>    26.0785     1.3250     1.3251     1.3249    -0.0000    -0.0000    -0.0000 </r>
     <r>    27.2288     1.3988     1.3989     1.3986    -0.0000    -0.0000    -0.0000 </r>
     <r>    28.4147     1.5123     1.5126     1.5121    -0.0000    -0.0000    -0.0000 </r>
[...]
       <r>   108.9542     0.0000     0.0000 </r>
       <r>   109.6227     0.0000     0.0000 </r>
       <r>   110.2912     0.0000     0.0000 </r>
       <r>   110.9596     0.0000     0.0000 </r>
       <r>   111.6281     0.0000     0.0000 </r>
       <r>   112.2965     0.0000     0.0000 </r>
       <r>   112.9650     0.0000     0.0000 </r>
       <r>   113.6335     0.0000     0.0000 </r>
       <r>   114.3019     0.0000     0.0000 </r>
       <r>   114.9704     0.0000     0.0000 </r>
       <r>   115.6388     0.0000     0.0000 </r>
       <r>   116.3073     0.0000     0.0000 </r>
       <r>   116.9758     0.0000     0.0000 </r>
       <r>   117.6442     0.0000     0.0000 </r>
       <r>   118.3127     0.0000     0.0000 </r>
       <r>   118.9811     0.0000     0.0000 </r>
       <r>   119.6496     0.0000     0.0000 </r>
       <r>   120.3181     0.0000     0.0000 </r>
       <r>   120.9865     0.0000     0.0000 </r>
       <r>   121.6550     0.0000     0.0000 </r>
       <r>   122.3234     0.0000     0.0000 </r>
       <r>   122.9919     0.0000     0.0000 </r>
       <r>   123.6604     0.0000     0.0000 </r>
       <r>   124.3288     0.0000     0.0000 </r>
       <r>   124.9973     0.0000     0.0000 </r>
       <r>   125.6657     0.0000     0.0000 </r>
       <r>   126.3342     0.0000     0.0000 </r>
       <r>   127.0027     0.0000     0.0000 </r>
       <r>   127.6711     0.0000     0.0000 </r>
       <r>   128.3396     0.0000     0.0000 </r>
       <r>   129.0080     0.0000     0.0000 </r>
       <r>   129.6765     0.0000     0.0000 </r>
       <r>   130.3450     0.0000     0.0000 </r>
       <r>   131.0134     0.0000     0.0000 </r>
       <r>   131.6819     0.0000     0.0000 </r>
       <r>   132.3503     0.0000     0.0000 </r>
       <r>   133.0188     0.0000     0.0000 </r>
       <r>   133.6873     0.0000     0.0000 </r>
       <r>   134.3557     0.0000     0.0000 </r>
       <r>   135.0242     0.0000     0.0000 </r>
       <r>   135.6926     0.0000     0.0000 </r>
       <r>   136.3611     0.0000     0.0000 </r>
       <r>   137.0296     0.0000     0.0000 </r>
       <r>   137.6980     0.0000     0.0000 </r>
       <r>   138.3665     0.0000     0.0000 </r>
       <r>   139.0349     0.0000     0.0000 </r>
       <r>   139.7034     0.0000     0.0000 </r>
       <r>   140.3719     0.0000     0.0000 </r>
       <r>   141.0403     0.0000     0.0000 </r>
       <r>   141.7088     0.0000     0.0000 </r>
       <r>   142.3772     0.0000     0.0000 </r>
       <r>   143.0457     0.0000     0.0000 </r>
       <r>   143.7142     0.0000     0.0000 </r>
       <r>   144.3826     0.0000     0.0000 </r>
       <r>   145.0511     0.0000     0.0000 </r>
       <r>   145.7195     0.0000     0.0000 </r>
       <r>   146.3880     0.0000     0.0000 </r>
       <r>   147.0565     0.0000     0.0000 </r>
       <r>   147.7249     0.0000     0.0000 </r>
       <r>   148.3934     0.0000     0.0000 </r>
       <r>   149.0618     0.0000     0.0000 </r>
       <r>   149.7303     0.0000     0.0000 </r>
       <r>   150.3988     0.0000     0.0000 </r>
       <r>   151.0672     0.0000     0.0000 </r>
       <r>   151.7357     0.0000     0.0000 </r>
       <r>   152.4041     0.0000     0.0000 </r>
       <r>   153.0726     0.0000     0.0000 </r>
       <r>   153.7411     0.0000     0.0000 </r>
       <r>   154.4095     0.0000     0.0000 </r>
       <r>   155.0780     0.0000     0.0000 </r>
       <r>   155.7464     0.0000     0.0000 </r>
       <r>   156.4149     0.0000     0.0000 </r>
       <r>   157.0834     0.0000     0.0000 </r>
       <r>   157.7518     0.0000     0.0000 </r>
       <r>   158.4203     0.0000     0.0000 </r>
       <r>   159.0887     0.0000     0.0000 </r>
       <r>   159.7572     0.0000     0.0000 </r>
       <r>   160.4257     0.0000     0.0000 </r>
       <r>   161.0941     0.0000     0.0000 </r>
       <r>   161.7626     0.0000     0.0000 </r>
       <r>   162.4310     0.0000     0.0000 </r>
       <r>   163.0995     0.0000     0.0000 </r>
       <r>   163.7680     0.0000     0.0000 </r>
       <r>   164.4364     0.0000     0.0000 </r>
       <r>   165.1049     0.0000     0.0000 </r>
       <r>   165.7733     0.0000     0.0000 </r>
       <r>   166.4418     0.0000     0.0000 </r>
       <r>   167.1103     0.0000     0.0000 </r>
      </set>
      <set comment="spin 4">
       <r>   -33.4277     0.0000     0.0000 </r>
       <r>   -32.7593     0.0000     0.0000 </r>
       <r>   -32.0908     0.0000     0.0000 </r>
       <r>   -31.4224     0.0000     0.0000 </r>
       <r>   -30.7539     0.0000     0.0000 </r>
       <r>   -30.0854     0.0000     0.0000 </r>
       <r>   -29.4170     0.0000     0.0000 </r>
       <r>   -28.7485     0.0000     0.0000 </r>
       <r>   -28.0801     0.0000     0.0000 </r>
       <r>   -27.4116     0.0000     0.0000 </r>
       <r>   -26.7431     0.0000     0.0000 </r>
       <r>   -26.0747     0.0000     0.0000 </r>
       <r>   -25.4062     0.0000     0.0000 </r>
       <r>   -24.7378     0.0000     0.0000 </r>
       <r>   -24.0693     0.0000     0.0000 </r>
       <r>   -23.4008     0.0000     0.0000 </r>
       <r>   -22.7324     0.0000     0.0000 </r>
       <r>   -22.0639     0.0000     0.0000 </r>
       <r>   -21.3955     0.0000     0.0000 </r>
       <r>   -20.7270     0.0000     0.0000 </r>
       <r>   -20.0585     0.0000     0.0000 </r>
       <r>   -19.3901     0.0000     0.0000 </r>
       <r>   -18.7216     0.0000     0.0000 </r>
       <r>   -18.0532     0.0000     0.0000 </r>
       <r>   -17.3847     0.0000     0.0000 </r>
       <r>   -16.7162     0.0000     0.0000 </r>
       <r>   -16.0478     0.0000     0.0000 </r>
       <r>   -15.3793     0.0000     0.0000 </r>
       <r>   -14.7109     0.0000     0.0000 </r>
       <r>   -14.0424     0.0000     0.0000 </r>
       <r>   -13.3739     0.0000     0.0000 </r>
       <r>   -12.7055     0.0000     0.0000 </r>
       <r>   -12.0370     0.0000     0.0000 </r>
       <r>   -11.3686     0.0000     0.0000 </r>
       <r>   -10.7001     0.0000     0.0000 </r>
       <r>   -10.0316     0.0000     0.0000 </r>
       <r>    -9.3632     0.0000     0.0000 </r>
       <r>    -8.6947     0.0000     0.0000 </r>
       <r>    -8.0263     0.0000     0.0000 </r>
       <r>    -7.3578     0.0000     0.0000 </r>
       <r>    -6.6893     0.0000     0.0000 </r>
       <r>    -6.0209     0.0000     0.0000 </r>
       <r>    -5.3524     0.0000     0.0000 </r>
       <r>    -4.6840     0.0000     0.0000 </r>
       <r>    -4.0155     0.0000     0.0000 </r>
       <r>    -3.3470     0.0000     0.0000 </r>
       <r>    -2.6786     0.0000     0.0000 </r>
       <r>    -2.0101     0.0000     0.0000 </r>
       <r>    -1.3417     0.0000     0.0000 </r>
       <r>    -0.6732     0.0000     0.0000 </r>
       <r>    -0.0047     0.0000     0.0000 </r>
       <r>     0.6637     0.0000     0.0000 </r>
       <r>     1.3322     0.0000     0.0000 </r>
       <r>     2.0006     0.0000     0.0000 </r>
       <r>     2.6691     0.0000     0.0000 </r>
       <r>     3.3376     0.0000     0.0000 </r>
       <r>     4.0060     0.0000     0.0000 </r>
       <r>     4.6745     0.0000     0.0000 </r>
       <r>     5.3429     0.0000     0.0000 </r>
       <r>     6.0114     0.0000     0.0000 </r>
       <r>     6.6799     0.0000     0.0000 </r>
       <r>     7.3483     0.0000     0.0000 </r>
       <r>     8.0168     0.0000     0.0000 </r>
       <r>     8.6852     0.0000     0.0000 </r>
       <r>     9.3537     0.0000     0.0000 </r>
       <r>    10.0222     0.0000     0.0000 </r>
       <r>    10.6906     0.0000     0.0000 </r>
       <r>    11.3591     0.0000     0.0000 </r>
       <r>    12.0275     0.0000     0.0000 </r>
       <r>    12.6960     0.0000     0.0000 </r>
       <r>    13.3645     0.0000     0.0000 </r>
       <r>    14.0329     0.0000     0.0000 </r>
       <r>    14.7014     0.0000     0.0000 </r>
       <r>    15.3698     0.0000     0.0000 </r>
       <r>    16.0383     0.0000     0.0000 </r>
       <r>    16.7068     0.0000     0.0000 </r>
       <r>    17.3752     0.0000     0.0000 </r>
       <r>    18.0437     0.0000     0.0000 </r>
       <r>    18.7121     0.0000     0.0000 </r>
       <r>    19.3806     0.0000     0.0000 </r>
       <r>    20.0491     0.0000     0.0000 </r>
       <r>    20.7175     0.0000     0.0000 </r>
       <r>    21.3860     0.0000     0.0000 </r>
       <r>    22.0544     0.0000     0.0000 </r>
       <r>    22.7229     0.0000     0.0000 </r>
       <r>    23.3914     0.0000     0.0000 </r>
       <r>    24.0598     0.0000     0.0000 </r>
       <r>    24.7283     0.0000     0.0000 </r>
       <r>    25.3967     0.0000     0.0000 </r>
       <r>    26.0652     0.0000     0.0000 </r>
       <r>    26.7337     0.0000     0.0000 </r>
       <r>    27.4021     0.0000     0.0000 </r>
       <r>    28.0706     0.0000     0.0000 </r>
       <r>    28.7390     0.0000     0.0000 </r>
       <r>    29.4075     0.0000     0.0000 </r>
       <r>    30.0760     0.0000     0.0000 </r>
       <r>    30.7444     0.0000     0.0000 </r>
       <r>    31.4129     0.0000     0.0000 </r>
       <r>    32.0813     0.0000     0.0000 </r>
       <r>    32.7498     0.0000     0.0000 </r>
       <r>    33.4183     0.0000     0.0000 </r>
       <r>    34.0867     0.0000     0.0000 </r>
       <r>    34.7552     0.0000     0.0000 </r>
       <r>    35.4236     0.0000     0.0000 </r>
       <r>    36.0921     0.0000     0.0000 </r>
       <r>    36.7606     0.0000     0.0000 </r>
       <r>    37.4290     0.0000     0.0000 </r>
       <r>    38.0975     0.0000     0.0000 </r>
       <r>    38.7659     0.0000     0.0000 </r>
       <r>    39.4344     0.0000     0.0000 </r>
       <r>    40.1029     0.0000     0.0000 </r>
       <r>    40.7713     0.0000     0.0000 </r>
       <r>    41.4398     0.0000     0.0000 </r>
       <r>    42.1082     0.0000     0.0000 </r>
       <r>    42.7767     0.0000     0.0000 </r>
       <r>    43.4452     0.0000     0.0000 </r>
       <r>    44.1136     0.0000     0.0000 </r>
       <r>    44.7821     0.0000     0.0000 </r>
       <r>    45.4505     0.0000     0.0000 </r>
       <r>    46.1190     0.0000     0.0000 </r>
       <r>    46.7875     0.0000     0.0000 </r>
       <r>    47.4559     0.0000     0.0000 </r>
       <r>    48.1244     0.0000     0.0000 </r>
       <r>    48.7928     0.0000     0.0000 </r>
       <r>    49.4613     0.0000     0.0000 </r>
       <r>    50.1298     0.0000     0.0000 </r>
       <r>    50.7982     0.0000     0.0000 </r>
       <r>    51.4667     0.0000     0.0000 </r>
       <r>    52.1351     0.0000     0.0000 </r>
       <r>    52.8036     0.0000     0.0000 </r>
       <r>    53.4721     0.0000     0.0000 </r>
       <r>    54.1405     0.0000     0.0000 </r>
       <r>    54.8090     0.0000     0.0000 </r>
       <r>    55.4774     0.0000     0.0000 </r>
       <r>    56.1459     0.0000     0.0000 </r>
       <r>    56.8144     0.0000     0.0000 </r>
       <r>    57.4828     0.0000     0.0000 </r>
       <r>    58.1513     0.0000     0.0000 </r>
       <r>    58.8197     0.0000     0.0000 </r>
       <r>    59.4882     0.0000     0.0000 </r>
       <r>    60.1567     0.0000     0.0000 </r>
       <r>    60.8251     0.0000     0.0000 </r>
       <r>    61.4936     0.0000     0.0000 </r>
       <r>    62.1620     0.0000     0.0000 </r>
       <r>    62.8305     0.0000     0.0000 </r>
       <r>    63.4990     0.0000     0.0000 </r>
       <r>    64.1674     0.0000     0.0000 </r>
       <r>    64.8359     0.0000     0.0000 </r>
       <r>    65.5043     0.0000     0.0000 </r>
       <r>    66.1728     0.0000     0.0000 </r>
       <r>    66.8413     0.0000     0.0000 </r>
       <r>    67.5097     0.0000     0.0000 </r>
       <r>    68.1782     0.0000     0.0000 </r>
       <r>    68.8466     0.0000     0.0000 </r>
       <r>    69.5151     0.0000     0.0000 </r>
       <r>    70.1836     0.0000     0.0000 </r>
       <r>    70.8520     0.0000     0.0000 </r>
       <r>    71.5205     0.0000     0.0000 </r>
       <r>    72.1889     0.0000     0.0000 </r>
       <r>    72.8574     0.0000     0.0000 </r>
       <r>    73.5259     0.0000     0.0000 </r>
       <r>    74.1943     0.0000     0.0000 </r>
       <r>    74.8628     0.0000     0.0000 </r>
       <r>    75.5312     0.0000     0.0000 </r>
       <r>    76.1997     0.0000     0.0000 </r>
       <r>    76.8682     0.0000     0.0000 </r>
       <r>    77.5366     0.0000     0.0000 </r>
       <r>    78.2051     0.0000     0.0000 </r>
       <r>    78.8735     0.0000     0.0000 </r>
       <r>    79.5420     0.0000     0.0000 </r>
       <r>    80.2105     0.0000     0.0000 </r>
       <r>    80.8789     0.0000     0.0000 </r>
       <r>    81.5474     0.0000     0.0000 </r>
       <r>    82.2158     0.0000     0.0000 </r>
       <r>    82.8843     0.0000     0.0000 </r>
       <r>    83.5528     0.0000     0.0000 </r>
       <r>    84.2212     0.0000     0.0000 </r>
       <r>    84.8897     0.0000     0.0000 </r>
       <r>    85.5581     0.0000     0.0000 </r>
       <r>    86.2266     0.0000     0.0000 </r>
       <r>    86.8951     0.0000     0.0000 </r>
       <r>    87.5635     0.0000     0.0000 </r>
       <r>    88.2320     0.0000     0.0000 </r>
       <r>    88.9004     0.0000     0.0000 </r>
       <r>    89.5689     0.0000     0.0000 </r>
       <r>    90.2374     0.0000     0.0000 </r>
       <r>    90.9058     0.0000     0.0000 </r>
       <r>    91.5743     0.0000     0.0000 </r>
       <r>    92.2427     0.0000     0.0000 </r>
       <r>    92.9112     0.0000     0.0000 </r>
       <r>    93.5797     0.0000     0.0000 </r>
       <r>    94.2481     0.0000     0.0000 </r>
       <r>    94.9166     0.0000     0.0000 </r>
       <r>    95.5850     0.0000     0.0000 </r>
       <r>    96.2535     0.0000     0.0000 </r>
       <r>    96.9220     0.0000     0.0000 </r>
       <r>    97.5904     0.0000     0.0000 </r>
       <r>    98.2589     0.0000     0.0000 </r>
       <r>    98.9273     0.0000     0.0000 </r>
       <r>    99.5958     0.0000     0.0000 </r>
       <r>   100.2643     0.0000     0.0000 </r>
       <r>   100.9327     0.0000     0.0000 </r>
       <r>   101.6012     0.0000     0.0000 </r>
       <r>   102.2696     0.0000     0.0000 </r>
       <r>   102.9381     0.0000     0.0000 </r>
       <r>   103.6066     0.0000     0.0000 </r>
       <r>   104.2750     0.0000     0.0000 </r>
       <r>   104.9435     0.0000     0.0000 </r>
       <r>   105.6119     0.0000     0.0000 </r>
       <r>   106.2804     0.0000     0.0000 </r>
       <r>   106.9489     0.0000     0.0000 </r>
       <r>   107.6173     0.0000     0.0000 </r>
       <r>   108.2858     0.0000     0.0000 </r>
       <r>   108.9542     0.0000     0.0000 </r>
       <r>   109.6227     0.0000     0.0000 </r>
       <r>   110.2912     0.0000     0.0000 </r>
       <r>   110.9596     0.0000     0.0000 </r>
       <r>   111.6281     0.0000     0.0000 </r>
       <r>   112.2965     0.0000     0.0000 </r>
       <r>   112.9650     0.0000     0.0000 </r>
       <r>   113.6335     0.0000     0.0000 </r>
       <r>   114.3019     0.0000     0.0000 </r>
       <r>   114.9704     0.0000     0.0000 </r>
       <r>   115.6388     0.0000     0.0000 </r>
       <r>   116.3073     0.0000     0.0000 </r>
       <r>   116.9758     0.0000     0.0000 </r>
       <r>   117.6442     0.0000     0.0000 </r>
       <r>   118.3127     0.0000     0.0000 </r>
       <r>   118.9811     0.0000     0.0000 </r>
       <r>   119.6496     0.0000     0.0000 </r>
       <r>   120.3181     0.0000     0.0000 </r>
       <r>   120.9865     0.0000     0.0000 </r>
       <r>   121.6550     0.0000     0.0000 </r>
       <r>   122.3234     0.0000     0.0000 </r>
       <r>   122.9919     0.0000     0.0000 </r>
       <r>   123.6604     0.0000     0.0000 </r>
       <r>   124.3288     0.0000     0.0000 </r>
       <r>   124.9973     0.0000     0.0000 </r>
       <r>   125.6657     0.0000     0.0000 </r>
       <r>   126.3342     0.0000     0.0000 </r>
       <r>   127.0027     0.0000     0.0000 </r>
       <r>   127.6711     0.0000     0.0000 </r>
       <r>   128.3396     0.0000     0.0000 </r>
       <r>   129.0080     0.0000     0.0000 </r>
       <r>   129.6765     0.0000     0.0000 </r>
       <r>   130.3450     0.0000     0.0000 </r>
       <r>   131.0134     0.0000     0.0000 </r>
       <r>   131.6819     0.0000     0.0000 </r>
       <r>   132.3503     0.0000     0.0000 </r>
       <r>   133.0188     0.0000     0.0000 </r>
       <r>   133.6873     0.0000     0.0000 </r>
       <r>   134.3557     0.0000     0.0000 </r>
       <r>   135.0242     0.0000     0.0000 </r>
       <r>   135.6926     0.0000     0.0000 </r>
       <r>   136.3611     0.0000     0.0000 </r>
       <r>   137.0296     0.0000     0.0000 </r>
       <r>   137.6980     0.0000     0.0000 </r>
       <r>   138.3665     0.0000     0.0000 </r>
       <r>   139.0349     0.0000     0.0000 </r>
       <r>   139.7034     0.0000     0.0000 </r>
       <r>   140.3719     0.0000     0.0000 </r>
       <r>   141.0403     0.0000     0.0000 </r>
       <r>   141.7088     0.0000     0.0000 </r>
       <r>   142.3772     0.0000     0.0000 </r>
       <r>   143.0457     0.0000     0.0000 </r>
       <r>   143.7142     0.0000     0.0000 </r>
       <r>   144.3826     0.0000     0.0000 </r>
       <r>   145.0511     0.0000     0.0000 </r>
       <r>   145.7195     0.0000     0.0000 </r>
       <r>   146.3880     0.0000     0.0000 </r>
       <r>   147.0565     0.0000     0.0000 </r>
       <r>   147.7249     0.0000     0.0000 </r>
       <r>   148.3934     0.0000     0.0000 </r>
       <r>   149.0618     0.0000     0.0000 </r>
       <r>   149.7303     0.0000     0.0000 </r>
       <r>   150.3988     0.0000     0.0000 </r>
       <r>   151.0672     0.0000     0.0000 </r>
       <r>   151.7357     0.0000     0.0000 </r>
       <r>   152.4041     0.0000     0.0000 </r>
       <r>   153.0726     0.0000     0.0000 </r>
       <r>   153.7411     0.0000     0.0000 </r>
       <r>   154.4095     0.0000     0.0000 </r>
       <r>   155.0780     0.0000     0.0000 </r>
       <r>   155.7464     0.0000     0.0000 </r>
       <r>   156.4149     0.0000     0.0000 </r>
       <r>   157.0834     0.0000     0.0000 </r>
       <r>   157.7518     0.0000     0.0000 </r>
       <r>   158.4203     0.0000     0.0000 </r>
       <r>   159.0887     0.0000     0.0000 </r>
       <r>   159.7572     0.0000     0.0000 </r>
       <r>   160.4257     0.0000     0.0000 </r>
       <r>   161.0941     0.0000     0.0000 </r>
       <r>   161.7626     0.0000     0.0000 </r>
       <r>   162.4310     0.0000     0.0000 </r>
       <r>   163.0995     0.0000     0.0000 </r>
       <r>   163.7680     0.0000     0.0000 </r>
       <r>   164.4364     0.0000     0.0000 </r>
       <r>   165.1049     0.0000     0.0000 </r>
       <r>   165.7733     0.0000     0.0000 </r>
       <r>   166.4418     0.0000     0.0000 </r>
       <r>   167.1103     0.0000     0.0000 </r>
      </set>
     </set>
    </array>
   </total>
  </dos>
 </calculation>
 <structure name="finalpos" >
  <crystal>
   <varray name="basis" >
    <v>       2.84511503       0.00000000       0.00000000 </v>
    <v>       1.42255751       2.46394189       0.00000000 </v>
    <v>       1.42255751       0.82131396       2.32302669 </v>
   </varray>
   <i name="volume">     16.28487729 </i>
   <varray name="rec_basis" >
    <v>       0.35147964      -0.20292686      -0.14349096 </v>
    <v>       0.00000000       0.40585373      -0.14349096 </v>
    <v>       0.00000000       0.00000000       0.43047288 </v>
   </varray>
  </crystal>
  <varray name="positions" >
   <v>       0.00000000       0.00000000       0.00000000 </v>
  </varray>
  <varray name="velocities" >
   <v>       0.00000000       0.00000000       0.00000000 </v>
  </varray>
 </structure>
</modeling>
