   1   1   0   0
  0.3721384E+02  0.3747484E-09  0.3747484E-09  0.3747484E-09  0.1000000E-15
  1.000000000000000E-004
  CAR 
 Og_FCC                                  
     15.50193416    -21.53967713  301     -5.08702811      1.00000000
    -21.540  0.0000E+00  0.0000E+00
    -21.416  0.0000E+00  0.0000E+00
    -21.293  0.0000E+00  0.0000E+00
    -21.169  0.0000E+00  0.0000E+00
    -21.046  0.0000E+00  0.0000E+00
    -20.922  0.0000E+00  0.0000E+00
    -20.799  0.0000E+00  0.0000E+00
    -20.675  0.0000E+00  0.0000E+00
    -20.552  0.0000E+00  0.0000E+00
    -20.428  0.0000E+00  0.0000E+00
    -20.305  0.0000E+00  0.0000E+00
    -20.181  0.0000E+00  0.0000E+00
    -20.058  0.0000E+00  0.0000E+00
    -19.935  0.0000E+00  0.0000E+00
    -19.811  0.2996E-04  0.5248E-01
    -19.688  0.1133E+01  0.5190E+00
    -19.564  0.0000E+00  0.2000E+01
    -19.441  0.0000E+00  0.2000E+01
    -19.317  0.0000E+00  0.2000E+01
    -19.194  0.0000E+00  0.2000E+01
    -19.070  0.0000E+00  0.2000E+01
    -18.947  0.0000E+00  0.2000E+01
    -18.823  0.0000E+00  0.2000E+01
    -18.700  0.0000E+00  0.2000E+01
    -18.576  0.0000E+00  0.2000E+01
    -18.453  0.0000E+00  0.2000E+01
    -18.329  0.0000E+00  0.2000E+01
    -18.206  0.0000E+00  0.2000E+01
    -18.082  0.0000E+00  0.2000E+01
    -17.959  0.0000E+00  0.2000E+01
    -17.836  0.0000E+00  0.2000E+01
    -17.712  0.0000E+00  0.2000E+01
    -17.589  0.0000E+00  0.2000E+01
    -17.465  0.0000E+00  0.2000E+01
    -17.342  0.0000E+00  0.2000E+01
    -17.218  0.0000E+00  0.2000E+01
    -17.095  0.0000E+00  0.2000E+01
    -16.971  0.0000E+00  0.2000E+01
    -16.848  0.0000E+00  0.2000E+01
    -16.724  0.0000E+00  0.2000E+01
    -16.601  0.0000E+00  0.2000E+01
    -16.477  0.0000E+00  0.2000E+01
    -16.354  0.0000E+00  0.2000E+01
    -16.230  0.0000E+00  0.2000E+01
    -16.107  0.0000E+00  0.2000E+01
    -15.983  0.0000E+00  0.2000E+01
    -15.860  0.0000E+00  0.2000E+01
    -15.736  0.0000E+00  0.2000E+01
    -15.613  0.0000E+00  0.2000E+01
    -15.490  0.0000E+00  0.2000E+01
    -15.366  0.0000E+00  0.2000E+01
    -15.243  0.0000E+00  0.2000E+01
    -15.119  0.0000E+00  0.2000E+01
    -14.996  0.0000E+00  0.2000E+01
    -14.872  0.0000E+00  0.2000E+01
    -14.749  0.0000E+00  0.2000E+01
    -14.625  0.0000E+00  0.2000E+01
    -14.502  0.0000E+00  0.2000E+01
    -14.378  0.0000E+00  0.2000E+01
    -14.255  0.0000E+00  0.2000E+01
    -14.131  0.0000E+00  0.2000E+01
    -14.008  0.0000E+00  0.2000E+01
    -13.884  0.0000E+00  0.2000E+01
    -13.761  0.0000E+00  0.2000E+01
    -13.637  0.0000E+00  0.2000E+01
    -13.514  0.0000E+00  0.2000E+01
    -13.391  0.0000E+00  0.2000E+01
    -13.267  0.0000E+00  0.2000E+01
    -13.144  0.0000E+00  0.2000E+01
    -13.020  0.0000E+00  0.2000E+01
    -12.897  0.0000E+00  0.2000E+01
    -12.773  0.0000E+00  0.2000E+01
    -12.650  0.0000E+00  0.2000E+01
    -12.526  0.0000E+00  0.2000E+01
    -12.403  0.0000E+00  0.2000E+01
    -12.279  0.0000E+00  0.2000E+01
    -12.156  0.0000E+00  0.2000E+01
    -12.032  0.0000E+00  0.2000E+01
    -11.909  0.0000E+00  0.2000E+01
    -11.785  0.0000E+00  0.2000E+01
    -11.662  0.0000E+00  0.2000E+01
    -11.538  0.0000E+00  0.2000E+01
    -11.415  0.0000E+00  0.2000E+01
    -11.291  0.0000E+00  0.2000E+01
    -11.168  0.0000E+00  0.2000E+01
    -11.045  0.0000E+00  0.2000E+01
    -10.921  0.0000E+00  0.2000E+01
    -10.798  0.0000E+00  0.2000E+01
    -10.674  0.0000E+00  0.2000E+01
    -10.551  0.0000E+00  0.2000E+01
    -10.427  0.0000E+00  0.2000E+01
    -10.304  0.0000E+00  0.2000E+01
    -10.180  0.0000E+00  0.2000E+01
    -10.057  0.0000E+00  0.2000E+01
     -9.933  0.0000E+00  0.2000E+01
     -9.810  0.0000E+00  0.2000E+01
     -9.686  0.0000E+00  0.2000E+01
     -9.563  0.0000E+00  0.2000E+01
     -9.439  0.0000E+00  0.2000E+01
     -9.316  0.0000E+00  0.2000E+01
     -9.192  0.0000E+00  0.2000E+01
     -9.069  0.0000E+00  0.2000E+01
     -8.946  0.0000E+00  0.2000E+01
     -8.822  0.0000E+00  0.2000E+01
     -8.699  0.0000E+00  0.2000E+01
     -8.575  0.0000E+00  0.2000E+01
     -8.452  0.0000E+00  0.2000E+01
     -8.328  0.0000E+00  0.2000E+01
     -8.205  0.0000E+00  0.2000E+01
     -8.081  0.0000E+00  0.2000E+01
     -7.958  0.0000E+00  0.2000E+01
     -7.834  0.0000E+00  0.2000E+01
     -7.711  0.0000E+00  0.2000E+01
     -7.587  0.0000E+00  0.2000E+01
     -7.464  0.0000E+00  0.2000E+01
     -7.340  0.0000E+00  0.2000E+01
     -7.217  0.0000E+00  0.2000E+01
     -7.093  0.0000E+00  0.2000E+01
     -6.970  0.0000E+00  0.2000E+01
     -6.847  0.0000E+00  0.2000E+01
     -6.723  0.0000E+00  0.2000E+01
     -6.600  0.0000E+00  0.2000E+01
     -6.476  0.0000E+00  0.2000E+01
     -6.353  0.1741E-14  0.2000E+01
     -6.229  0.0000E+00  0.2222E+01
     -6.106  0.0000E+00  0.3131E+01
     -5.982  0.1133E+01  0.3621E+01
     -5.859  0.0000E+00  0.3843E+01
     -5.735  0.0000E+00  0.4192E+01
     -5.612  0.0000E+00  0.4752E+01
     -5.488  0.0000E+00  0.5452E+01
     -5.365  0.0000E+00  0.6583E+01
     -5.241  0.4087E-05  0.7516E+01
     -5.118  0.0000E+00  0.8000E+01
     -4.994  0.0000E+00  0.8000E+01
     -4.871  0.0000E+00  0.8000E+01
     -4.747  0.0000E+00  0.8000E+01
     -4.624  0.0000E+00  0.8000E+01
     -4.501  0.0000E+00  0.8000E+01
     -4.377  0.0000E+00  0.8000E+01
     -4.254  0.0000E+00  0.8000E+01
     -4.130  0.0000E+00  0.8000E+01
     -4.007  0.0000E+00  0.8000E+01
     -3.883  0.0000E+00  0.8000E+01
     -3.760  0.0000E+00  0.8000E+01
     -3.636  0.0000E+00  0.8000E+01
     -3.513  0.0000E+00  0.8000E+01
     -3.389  0.0000E+00  0.8000E+01
     -3.266  0.0000E+00  0.8000E+01
     -3.142  0.0000E+00  0.8000E+01
     -3.019  0.0000E+00  0.8000E+01
     -2.895  0.0000E+00  0.8000E+01
     -2.772  0.0000E+00  0.8000E+01
     -2.648  0.0000E+00  0.8000E+01
     -2.525  0.0000E+00  0.8000E+01
     -2.402  0.0000E+00  0.8000E+01
     -2.278  0.0000E+00  0.8000E+01
     -2.155  0.0000E+00  0.8000E+01
     -2.031  0.0000E+00  0.8000E+01
     -1.908  0.0000E+00  0.8000E+01
     -1.784  0.0000E+00  0.8000E+01
     -1.661  0.0000E+00  0.8000E+01
     -1.537  0.0000E+00  0.8000E+01
     -1.414  0.0000E+00  0.8000E+01
     -1.290  0.0000E+00  0.8000E+01
     -1.167  0.0000E+00  0.8000E+01
     -1.043  0.0000E+00  0.8000E+01
     -0.920  0.0000E+00  0.8000E+01
     -0.796  0.0000E+00  0.8000E+01
     -0.673  0.0000E+00  0.8000E+01
     -0.549  0.0000E+00  0.8000E+01
     -0.426  0.0000E+00  0.8000E+01
     -0.302  0.0000E+00  0.8000E+01
     -0.179  0.0000E+00  0.8000E+01
     -0.056  0.0000E+00  0.8000E+01
      0.068  0.0000E+00  0.8000E+01
      0.191  0.0000E+00  0.8000E+01
      0.315  0.0000E+00  0.8000E+01
      0.438  0.0000E+00  0.8000E+01
      0.562  0.0000E+00  0.8000E+01
      0.685  0.0000E+00  0.8000E+01
      0.809  0.0000E+00  0.8000E+01
      0.932  0.0000E+00  0.8000E+01
      1.056  0.0000E+00  0.8000E+01
      1.179  0.0000E+00  0.8000E+01
      1.303  0.0000E+00  0.8000E+01
      1.426  0.0000E+00  0.8000E+01
      1.550  0.0000E+00  0.8000E+01
      1.673  0.0000E+00  0.8000E+01
      1.797  0.0000E+00  0.8000E+01
      1.920  0.0000E+00  0.8000E+01
      2.043  0.0000E+00  0.8000E+01
      2.167  0.0000E+00  0.8000E+01
      2.290  0.0000E+00  0.8000E+01
      2.414  0.0000E+00  0.8000E+01
      2.537  0.0000E+00  0.8000E+01
      2.661  0.0000E+00  0.8000E+01
      2.784  0.0000E+00  0.8000E+01
      2.908  0.0000E+00  0.8000E+01
      3.031  0.0000E+00  0.8000E+01
      3.155  0.0000E+00  0.8000E+01
      3.278  0.0000E+00  0.8000E+01
      3.402  0.0000E+00  0.8000E+01
      3.525  0.0000E+00  0.8000E+01
      3.649  0.0000E+00  0.8006E+01
      3.772  0.0000E+00  0.8006E+01
      3.896  0.0000E+00  0.8006E+01
      4.019  0.0000E+00  0.8006E+01
      4.143  0.0000E+00  0.8052E+01
      4.266  0.0000E+00  0.8087E+01
      4.389  0.0000E+00  0.8087E+01
      4.513  0.0000E+00  0.8087E+01
      4.636  0.0000E+00  0.8087E+01
      4.760  0.0000E+00  0.8087E+01
      4.883  0.0000E+00  0.8157E+01
      5.007  0.0000E+00  0.8157E+01
      5.130  0.0000E+00  0.8157E+01
      5.254  0.0000E+00  0.8297E+01
      5.377  0.0000E+00  0.8344E+01
      5.501  0.0000E+00  0.8344E+01
      5.624  0.0000E+00  0.8344E+01
      5.748  0.0000E+00  0.8379E+01
      5.871  0.0000E+00  0.8379E+01
      5.995  0.0000E+00  0.8379E+01
      6.118  0.0000E+00  0.8519E+01
      6.242  0.3778E+00  0.8741E+01
      6.365  0.0000E+00  0.8741E+01
      6.488  0.5477E+00  0.9088E+01
      6.612  0.0000E+00  0.9090E+01
      6.735  0.0000E+00  0.9090E+01
      6.859  0.0000E+00  0.9370E+01
      6.982  0.0000E+00  0.9370E+01
      7.106  0.0000E+00  0.9370E+01
      7.229  0.1133E+01  0.9510E+01
      7.353  0.0000E+00  0.1000E+02
      7.476  0.0000E+00  0.1000E+02
      7.600  0.0000E+00  0.1000E+02
      7.723  0.0000E+00  0.1000E+02
      7.847  0.0000E+00  0.1010E+02
      7.970  0.0000E+00  0.1024E+02
      8.094  0.0000E+00  0.1052E+02
      8.217  0.0000E+00  0.1080E+02
      8.341  0.0000E+00  0.1115E+02
      8.464  0.0000E+00  0.1133E+02
      8.588  0.8578E-06  0.1133E+02
      8.711  0.0000E+00  0.1152E+02
      8.834  0.0000E+00  0.1166E+02
      8.958  0.0000E+00  0.1173E+02
      9.081  0.0000E+00  0.1205E+02
      9.205  0.0000E+00  0.1233E+02
      9.328  0.0000E+00  0.1275E+02
      9.452  0.0000E+00  0.1296E+02
      9.575  0.0000E+00  0.1296E+02
      9.699  0.0000E+00  0.1296E+02
      9.822  0.0000E+00  0.1345E+02
      9.946  0.0000E+00  0.1356E+02
     10.069  0.0000E+00  0.1360E+02
     10.193  0.0000E+00  0.1360E+02
     10.316  0.0000E+00  0.1374E+02
     10.440  0.0000E+00  0.1384E+02
     10.563  0.0000E+00  0.1391E+02
     10.687  0.0000E+00  0.1406E+02
     10.810  0.0000E+00  0.1416E+02
     10.933  0.0000E+00  0.1453E+02
     11.057  0.0000E+00  0.1460E+02
     11.180  0.0000E+00  0.1460E+02
     11.304  0.5667E+00  0.1523E+02
     11.427  0.0000E+00  0.1530E+02
     11.551  0.0000E+00  0.1530E+02
     11.674  0.0000E+00  0.1544E+02
     11.798  0.0000E+00  0.1558E+02
     11.921  0.0000E+00  0.1558E+02
     12.045  0.1133E+01  0.1572E+02
     12.168  0.1133E+01  0.1590E+02
     12.292  0.0000E+00  0.1590E+02
     12.415  0.0000E+00  0.1590E+02
     12.539  0.0000E+00  0.1590E+02
     12.662  0.0000E+00  0.1590E+02
     12.786  0.0000E+00  0.1590E+02
     12.909  0.0000E+00  0.1590E+02
     13.032  0.0000E+00  0.1590E+02
     13.156  0.0000E+00  0.1597E+02
     13.279  0.0000E+00  0.1597E+02
     13.403  0.0000E+00  0.1597E+02
     13.526  0.0000E+00  0.1597E+02
     13.650  0.0000E+00  0.1597E+02
     13.773  0.0000E+00  0.1597E+02
     13.897  0.0000E+00  0.1600E+02
     14.020  0.0000E+00  0.1600E+02
     14.144  0.0000E+00  0.1600E+02
     14.267  0.0000E+00  0.1600E+02
     14.391  0.0000E+00  0.1600E+02
     14.514  0.0000E+00  0.1600E+02
     14.638  0.0000E+00  0.1600E+02
     14.761  0.0000E+00  0.1600E+02
     14.885  0.0000E+00  0.1600E+02
     15.008  0.0000E+00  0.1600E+02
     15.132  0.0000E+00  0.1600E+02
     15.255  0.0000E+00  0.1600E+02
     15.378  0.0000E+00  0.1600E+02
     15.502  0.0000E+00  0.1600E+02
