    1    1    1    1
  0.3721384E+02  0.3747484E-09  0.3747484E-09  0.3747484E-09  0.1000000E-15
  1.000000000000000E-004
  CAR 
 Og_FCC                                  
      8    172      8
 
  0.0000000E+00  0.0000000E+00  0.0000000E+00  0.2915452E-02
    1      -19.855968   1.000000
    2       -5.135158   1.000000
    3       -5.135158   1.000000
    4       -5.135157   1.000000
    5        3.534692   0.000000
    6       10.648368   0.000000
    7       10.648370   0.000000
    8       10.648370   0.000000
 
  0.1428571E+00 -0.1225762E-16  0.1387779E-16  0.5830904E-02
    1      -19.820244   1.000000
    2       -5.407026   1.000000
    3       -5.161080   1.000000
    4       -5.161079   1.000000
    5        4.070162   0.000000
    6        9.954131   0.000000
    7       10.844362   0.000000
    8       10.844363   0.000000
 
  0.2857143E+00 -0.2451524E-16  0.2775558E-16  0.5830904E-02
    1      -19.738407   1.000000
    2       -5.954023   1.000000
    3       -5.221119   1.000000
    4       -5.221118   1.000000
    5        5.279872   0.000000
    6        8.991168   0.000000
    7       10.718452   0.000000
    8       10.718453   0.000000
 
  0.4285714E+00 -0.2289507E-16  0.2775558E-16  0.5830904E-02
    1      -19.671066   1.000000
    2       -6.347137   1.000000
    3       -5.268241   1.000000
    4       -5.268240   1.000000
    5        6.235489   0.000000
    6        8.590742   0.000000
    7       10.334678   0.000000
    8       10.334679   0.000000
 
 -0.1925930E-33  0.1428571E+00  0.0000000E+00  0.5830904E-02
    1      -19.820244   1.000000
    2       -5.407026   1.000000
    3       -5.161080   1.000000
    4       -5.161079   1.000000
    5        4.070162   0.000000
    6        9.954131   0.000000
    7       10.844362   0.000000
    8       10.844363   0.000000
 
  0.1428571E+00  0.1428571E+00  0.1387779E-16  0.5830904E-02
    1      -19.808449   1.000000
    2       -5.403494   1.000000
    3       -5.215615   1.000000
    4       -5.215614   1.000000
    5        4.241274   0.000000
    6        9.734068   0.000000
    7       11.005873   0.000000
    8       11.005874   0.000000
 
  0.2857143E+00  0.1428571E+00  0.2775558E-16  0.5830904E-02
    1      -19.742102   1.000000
    2       -5.804401   1.000000
    3       -5.292005   1.000000
    4       -5.282597   1.000000
    5        5.225281   0.000000
    6        8.989064   0.000000
    7       10.296498   0.000000
    8       11.195145   0.000000
 
  0.4285714E+00  0.1428571E+00  0.5551115E-16  0.5830904E-02
    1      -19.669663   1.000000
    2       -6.202037   1.000000
    3       -5.383879   1.000000
    4       -5.332553   1.000000
    5        6.382776   0.000000
    6        8.411892   0.000000
    7        9.755058   0.000000
    8       10.863679   0.000000
 
 -0.4285714E+00  0.1428571E+00 -0.5551115E-16  0.5830904E-02
    1      -19.646915   1.000000
    2       -6.313705   1.000000
    3       -5.459585   1.000000
    4       -5.309736   1.000000
    5        6.827544   0.000000
    6        8.228710   0.000000
    7        9.737985   0.000000
    8       10.649003   0.000000
 
 -0.2857143E+00  0.1428571E+00 -0.2775558E-16  0.5830904E-02
    1      -19.691940   1.000000
    2       -6.081875   1.000000
    3       -5.441327   1.000000
    4       -5.238195   1.000000
    5        6.080388   0.000000
    6        8.719433   0.000000
    7        9.767153   0.000000
    8       10.887325   0.000000
 
 -0.1428571E+00  0.1428571E+00 -0.1079634E-16  0.5830904E-02
    1      -19.769190   1.000000
    2       -5.681164   1.000000
    3       -5.311500   1.000000
    4       -5.172464   1.000000
    5        4.844023   0.000000
    6        9.355849   0.000000
    7       10.487917   0.000000
    8       11.299494   0.000000
 
  0.0000000E+00  0.2857143E+00  0.0000000E+00  0.5830904E-02
    1      -19.738407   1.000000
    2       -5.954023   1.000000
    3       -5.221119   1.000000
    4       -5.221118   1.000000
    5        5.279871   0.000000
    6        8.991169   0.000000
    7       10.718452   0.000000
    8       10.718452   0.000000
 
  0.1428571E+00  0.2857143E+00  0.2775558E-16  0.5830904E-02
    1      -19.742102   1.000000
    2       -5.804401   1.000000
    3       -5.292005   1.000000
    4       -5.282597   1.000000
    5        5.225281   0.000000
    6        8.989064   0.000000
    7       10.296498   0.000000
    8       11.195144   0.000000
 
  0.2857143E+00  0.2857143E+00  0.5551115E-16  0.5830904E-02
    1      -19.700251   1.000000
    2       -5.906492   1.000000
    3       -5.393449   1.000000
    4       -5.393448   1.000000
    5        5.694151   0.000000
    6        8.453854   0.000000
    7        9.810329   0.000000
    8       12.069773   0.000000
 
  0.4285714E+00  0.2857143E+00  0.1110223E-15  0.5830904E-02
    1      -19.643500   1.000000
    2       -6.119775   1.000000
    3       -5.537195   1.000000
    4       -5.449663   1.000000
    5        6.412092   0.000000
    6        8.130271   0.000000
    7        9.375837   0.000000
    8       12.161068   0.000000
 
 -0.4285714E+00  0.2857143E+00 -0.3469447E-16  0.5830904E-02
    1      -19.614955   1.000000
    2       -6.137386   1.000000
    3       -5.770801   1.000000
    4       -5.421652   1.000000
    5        7.224229   0.000000
    6        7.930352   0.000000
    7        9.286731   0.000000
    8       11.697023   0.000000
 
 -0.2857143E+00  0.2857143E+00  0.7915492E-18  0.5830904E-02
    1      -19.636811   1.000000
    2       -6.068865   1.000000
    3       -5.785359   1.000000
    4       -5.328516   1.000000
    5        7.275823   0.000000
    6        8.257912   0.000000
    7        8.897461   0.000000
    8       11.313510   0.000000
 
 -0.1428571E+00  0.2857143E+00  0.0000000E+00  0.5830904E-02
    1      -19.691940   1.000000
    2       -6.081875   1.000000
    3       -5.441327   1.000000
    4       -5.238195   1.000000
    5        6.080388   0.000000
    6        8.719434   0.000000
    7        9.767153   0.000000
    8       10.887324   0.000000
 
 -0.1540744E-32  0.4285714E+00 -0.2775558E-16  0.5830904E-02
    1      -19.671066   1.000000
    2       -6.347137   1.000000
    3       -5.268240   1.000000
    4       -5.268240   1.000000
    5        6.235488   0.000000
    6        8.590742   0.000000
    7       10.334678   0.000000
    8       10.334679   0.000000
 
  0.1428571E+00  0.4285714E+00  0.0000000E+00  0.5830904E-02
    1      -19.669663   1.000000
    2       -6.202036   1.000000
    3       -5.383879   1.000000
    4       -5.332553   1.000000
    5        6.382776   0.000000
    6        8.411892   0.000000
    7        9.755058   0.000000
    8       10.863679   0.000000
 
  0.2857143E+00  0.4285714E+00  0.0000000E+00  0.5830904E-02
    1      -19.643500   1.000000
    2       -6.119775   1.000000
    3       -5.537195   1.000000
    4       -5.449663   1.000000
    5        6.412092   0.000000
    6        8.130271   0.000000
    7        9.375836   0.000000
    8       12.161068   0.000000
 
  0.4285714E+00  0.4285714E+00  0.0000000E+00  0.5830904E-02
    1      -19.611983   1.000000
    2       -6.240434   1.000000
    3       -5.530693   1.000000
    4       -5.530692   1.000000
    5        6.212396   0.000000
    6        7.732261   0.000000
    7        9.922718   0.000000
    8       13.818224   0.000000
 
 -0.4285714E+00  0.4285714E+00 -0.2714452E-16  0.5830904E-02
    1      -19.599211   1.000000
    2       -6.218880   1.000000
    3       -5.670816   1.000000
    4       -5.518151   1.000000
    5        6.487181   0.000000
    6        7.827768   0.000000
    7        9.846729   0.000000
    8       13.107160   0.000000
 
 -0.2857143E+00  0.4285714E+00 -0.6245005E-16  0.5830904E-02
    1      -19.614955   1.000000
    2       -6.137386   1.000000
    3       -5.770801   1.000000
    4       -5.421652   1.000000
    5        7.224229   0.000000
    6        7.930352   0.000000
    7        9.286731   0.000000
    8       11.697023   0.000000
 
 -0.1428571E+00  0.4285714E+00  0.0000000E+00  0.5830904E-02
    1      -19.646915   1.000000
    2       -6.313705   1.000000
    3       -5.459585   1.000000
    4       -5.309736   1.000000
    5        6.827543   0.000000
    6        8.228711   0.000000
    7        9.737986   0.000000
    8       10.649003   0.000000
 
  0.7703720E-33  0.2311116E-32  0.1428571E+00  0.5830904E-02
    1      -19.820244   1.000000
    2       -5.407026   1.000000
    3       -5.161080   1.000000
    4       -5.161079   1.000000
    5        4.070162   0.000000
    6        9.954131   0.000000
    7       10.844362   0.000000
    8       10.844363   0.000000
 
  0.1428571E+00  0.1063745E-16  0.1428571E+00  0.5830904E-02
    1      -19.808449   1.000000
    2       -5.403494   1.000000
    3       -5.215615   1.000000
    4       -5.215614   1.000000
    5        4.241274   0.000000
    6        9.734067   0.000000
    7       11.005874   0.000000
    8       11.005874   0.000000
 
  0.2857143E+00 -0.2937574E-16  0.1428571E+00  0.5830904E-02
    1      -19.742102   1.000000
    2       -5.804401   1.000000
    3       -5.292005   1.000000
    4       -5.282597   1.000000
    5        5.225281   0.000000
    6        8.989064   0.000000
    7       10.296498   0.000000
    8       11.195145   0.000000
 
  0.4285714E+00 -0.2775558E-16  0.1428571E+00  0.5830904E-02
    1      -19.669663   1.000000
    2       -6.202037   1.000000
    3       -5.383879   1.000000
    4       -5.332553   1.000000
    5        6.382776   0.000000
    6        8.411891   0.000000
    7        9.755058   0.000000
    8       10.863679   0.000000
 
 -0.4285714E+00  0.1803456E-16  0.1428571E+00  0.5830904E-02
    1      -19.646915   1.000000
    2       -6.313705   1.000000
    3       -5.459585   1.000000
    4       -5.309736   1.000000
    5        6.827544   0.000000
    6        8.228710   0.000000
    7        9.737986   0.000000
    8       10.649003   0.000000
 
 -0.2857143E+00 -0.8100847E-17  0.1428571E+00  0.5830904E-02
    1      -19.691940   1.000000
    2       -6.081875   1.000000
    3       -5.441327   1.000000
    4       -5.238195   1.000000
    5        6.080388   0.000000
    6        8.719434   0.000000
    7        9.767154   0.000000
    8       10.887325   0.000000
 
 -0.1428571E+00  0.2127490E-16  0.1428571E+00  0.5830904E-02
    1      -19.769190   1.000000
    2       -5.681164   1.000000
    3       -5.311500   1.000000
    4       -5.172464   1.000000
    5        4.844024   0.000000
    6        9.355850   0.000000
    7       10.487916   0.000000
    8       11.299494   0.000000
 
  0.3851860E-33  0.1428571E+00  0.1428571E+00  0.5830904E-02
    1      -19.808449   1.000000
    2       -5.403494   1.000000
    3       -5.215615   1.000000
    4       -5.215614   1.000000
    5        4.241274   0.000000
    6        9.734068   0.000000
    7       11.005873   0.000000
    8       11.005874   0.000000
 
  0.1428571E+00  0.1428571E+00  0.1428571E+00  0.5830904E-02
    1      -19.820244   1.000000
    2       -5.407025   1.000000
    3       -5.161080   1.000000
    4       -5.161080   1.000000
    5        4.070162   0.000000
    6        9.954131   0.000000
    7       10.844362   0.000000
    8       10.844363   0.000000
 
  0.2857143E+00  0.1428571E+00  0.1428571E+00  0.5830904E-02
    1      -19.769190   1.000000
    2       -5.681163   1.000000
    3       -5.311500   1.000000
    4       -5.172464   1.000000
    5        4.844023   0.000000
    6        9.355849   0.000000
    7       10.487917   0.000000
    8       11.299493   0.000000
 
  0.4285714E+00  0.1428571E+00  0.1428571E+00  0.5830904E-02
    1      -19.691940   1.000000
    2       -6.081875   1.000000
    3       -5.441326   1.000000
    4       -5.238195   1.000000
    5        6.080388   0.000000
    6        8.719433   0.000000
    7        9.767154   0.000000
    8       10.887324   0.000000
 
 -0.4285714E+00  0.1428571E+00  0.1428571E+00  0.5830904E-02
    1      -19.646915   1.000000
    2       -6.313705   1.000000
    3       -5.459584   1.000000
    4       -5.309736   1.000000
    5        6.827544   0.000000
    6        8.228710   0.000000
    7        9.737986   0.000000
    8       10.649003   0.000000
 
 -0.2857143E+00  0.1428571E+00  0.1428571E+00  0.5830904E-02
    1      -19.669663   1.000000
    2       -6.202037   1.000000
    3       -5.383878   1.000000
    4       -5.332553   1.000000
    5        6.382776   0.000000
    6        8.411892   0.000000
    7        9.755058   0.000000
    8       10.863679   0.000000
 
 -0.1428571E+00  0.1428571E+00  0.1428571E+00  0.5830904E-02
    1      -19.742102   1.000000
    2       -5.804402   1.000000
    3       -5.292006   1.000000
    4       -5.282596   1.000000
    5        5.225281   0.000000
    6        8.989064   0.000000
    7       10.296499   0.000000
    8       11.195144   0.000000
 
  0.1925930E-33  0.2857143E+00  0.1428571E+00  0.5830904E-02
    1      -19.742102   1.000000
    2       -5.804401   1.000000
    3       -5.292005   1.000000
    4       -5.282597   1.000000
    5        5.225281   0.000000
    6        8.989064   0.000000
    7       10.296498   0.000000
    8       11.195144   0.000000
 
  0.1428571E+00  0.2857143E+00  0.1428571E+00  0.5830904E-02
    1      -19.769190   1.000000
    2       -5.681163   1.000000
    3       -5.311500   1.000000
    4       -5.172464   1.000000
    5        4.844023   0.000000
    6        9.355850   0.000000
    7       10.487915   0.000000
    8       11.299494   0.000000
 
  0.2857143E+00  0.2857143E+00  0.1428571E+00  0.5830904E-02
    1      -19.742102   1.000000
    2       -5.804401   1.000000
    3       -5.292006   1.000000
    4       -5.282597   1.000000
    5        5.225281   0.000000
    6        8.989064   0.000000
    7       10.296498   0.000000
    8       11.195144   0.000000
 
  0.4285714E+00  0.2857143E+00  0.1428571E+00  0.5830904E-02
    1      -19.680425   1.000000
    2       -6.010669   1.000000
    3       -5.518098   1.000000
    4       -5.323565   1.000000
    5        6.202038   0.000000
    6        8.616541   0.000000
    7        9.296912   0.000000
    8       11.599393   0.000000
 
 -0.4285714E+00  0.2857143E+00  0.1428571E+00  0.5830904E-02
    1      -19.630080   1.000000
    2       -6.153487   1.000000
    3       -5.672528   1.000000
    4       -5.399277   1.000000
    5        7.242095   0.000000
    6        8.082723   0.000000
    7        9.087622   0.000000
    8       11.274245   0.000000
 
 -0.2857143E+00  0.2857143E+00  0.1428571E+00  0.5830904E-02
    1      -19.630080   1.000000
    2       -6.153488   1.000000
    3       -5.672528   1.000000
    4       -5.399277   1.000000
    5        7.242095   0.000000
    6        8.082723   0.000000
    7        9.087622   0.000000
    8       11.274245   0.000000
 
 -0.1428571E+00  0.2857143E+00  0.1428571E+00  0.5830904E-02
    1      -19.680425   1.000000
    2       -6.010670   1.000000
    3       -5.518098   1.000000
    4       -5.323565   1.000000
    5        6.202038   0.000000
    6        8.616541   0.000000
    7        9.296912   0.000000
    8       11.599393   0.000000
 
 -0.6649410E-33  0.4285714E+00  0.1428571E+00  0.5830904E-02
    1      -19.669663   1.000000
    2       -6.202036   1.000000
    3       -5.383879   1.000000
    4       -5.332553   1.000000
    5        6.382776   0.000000
    6        8.411892   0.000000
    7        9.755058   0.000000
    8       10.863679   0.000000
 
  0.1428571E+00  0.4285714E+00  0.1428571E+00  0.5830904E-02
    1      -19.691940   1.000000
    2       -6.081875   1.000000
    3       -5.441326   1.000000
    4       -5.238195   1.000000
    5        6.080388   0.000000
    6        8.719434   0.000000
    7        9.767153   0.000000
    8       10.887325   0.000000
 
  0.2857143E+00  0.4285714E+00  0.1428571E+00  0.5830904E-02
    1      -19.680425   1.000000
    2       -6.010669   1.000000
    3       -5.518098   1.000000
    4       -5.323565   1.000000
    5        6.202038   0.000000
    6        8.616541   0.000000
    7        9.296911   0.000000
    8       11.599393   0.000000
 
  0.4285714E+00  0.4285714E+00  0.1428571E+00  0.5830904E-02
    1      -19.643500   1.000000
    2       -6.119775   1.000000
    3       -5.537195   1.000000
    4       -5.449663   1.000000
    5        6.412092   0.000000
    6        8.130271   0.000000
    7        9.375836   0.000000
    8       12.161068   0.000000
 
 -0.4285714E+00  0.4285714E+00  0.1428571E+00  0.5830904E-02
    1      -19.608787   1.000000
    2       -6.146731   1.000000
    3       -5.677320   1.000000
    4       -5.537347   1.000000
    5        6.775301   0.000000
    6        8.118328   0.000000
    7        9.313586   0.000000
    8       12.040284   0.000000
 
 -0.2857143E+00  0.4285714E+00  0.1428571E+00  0.5830904E-02
    1      -19.602822   1.000000
    2       -5.987539   1.000000
    3       -5.920999   1.000000
    4       -5.517869   1.000000
    5        7.284279   0.000000
    6        8.309204   0.000000
    7        9.027486   0.000000
    8       11.264084   0.000000
 
 -0.1428571E+00  0.4285714E+00  0.1428571E+00  0.5830904E-02
    1      -19.630080   1.000000
    2       -6.153487   1.000000
    3       -5.672529   1.000000
    4       -5.399276   1.000000
    5        7.242095   0.000000
    6        8.082723   0.000000
    7        9.087622   0.000000
    8       11.274245   0.000000
 
  0.4622232E-32 -0.4285714E+00  0.1428571E+00  0.5830904E-02
    1      -19.646915   1.000000
    2       -6.313705   1.000000
    3       -5.459585   1.000000
    4       -5.309736   1.000000
    5        6.827543   0.000000
    6        8.228711   0.000000
    7        9.737986   0.000000
    8       10.649003   0.000000
 
  0.1428571E+00 -0.4285714E+00  0.1428571E+00  0.5830904E-02
    1      -19.646915   1.000000
    2       -6.313705   1.000000
    3       -5.459584   1.000000
    4       -5.309736   1.000000
    5        6.827543   0.000000
    6        8.228711   0.000000
    7        9.737985   0.000000
    8       10.649003   0.000000
 
  0.2857143E+00 -0.4285714E+00  0.1428571E+00  0.5830904E-02
    1      -19.630080   1.000000
    2       -6.153487   1.000000
    3       -5.672528   1.000000
    4       -5.399277   1.000000
    5        7.242095   0.000000
    6        8.082722   0.000000
    7        9.087621   0.000000
    8       11.274245   0.000000
 
  0.4285714E+00 -0.4285714E+00  0.1428571E+00  0.5830904E-02
    1      -19.608787   1.000000
    2       -6.146731   1.000000
    3       -5.677320   1.000000
    4       -5.537348   1.000000
    5        6.775301   0.000000
    6        8.118328   0.000000
    7        9.313585   0.000000
    8       12.040284   0.000000
 
 -0.4285714E+00 -0.4285714E+00  0.1428571E+00  0.5830904E-02
    1      -19.599211   1.000000
    2       -6.218880   1.000000
    3       -5.670816   1.000000
    4       -5.518152   1.000000
    5        6.487181   0.000000
    6        7.827768   0.000000
    7        9.846729   0.000000
    8       13.107160   0.000000
 
 -0.2857143E+00 -0.4285714E+00  0.1428571E+00  0.5830904E-02
    1      -19.608787   1.000000
    2       -6.146731   1.000000
    3       -5.677320   1.000000
    4       -5.537347   1.000000
    5        6.775301   0.000000
    6        8.118328   0.000000
    7        9.313586   0.000000
    8       12.040284   0.000000
 
 -0.1428571E+00 -0.4285714E+00  0.1428571E+00  0.5830904E-02
    1      -19.630080   1.000000
    2       -6.153487   1.000000
    3       -5.672529   1.000000
    4       -5.399276   1.000000
    5        7.242095   0.000000
    6        8.082723   0.000000
    7        9.087622   0.000000
    8       11.274245   0.000000
 
  0.1540744E-32 -0.2857143E+00  0.1428571E+00  0.5830904E-02
    1      -19.691940   1.000000
    2       -6.081875   1.000000
    3       -5.441327   1.000000
    4       -5.238195   1.000000
    5        6.080388   0.000000
    6        8.719434   0.000000
    7        9.767153   0.000000
    8       10.887324   0.000000
 
  0.1428571E+00 -0.2857143E+00  0.1428571E+00  0.5830904E-02
    1      -19.669663   1.000000
    2       -6.202037   1.000000
    3       -5.383878   1.000000
    4       -5.332553   1.000000
    5        6.382776   0.000000
    6        8.411892   0.000000
    7        9.755057   0.000000
    8       10.863679   0.000000
 
  0.2857143E+00 -0.2857143E+00  0.1428571E+00  0.5830904E-02
    1      -19.630080   1.000000
    2       -6.153487   1.000000
    3       -5.672528   1.000000
    4       -5.399277   1.000000
    5        7.242094   0.000000
    6        8.082723   0.000000
    7        9.087622   0.000000
    8       11.274245   0.000000
 
  0.4285714E+00 -0.2857143E+00  0.1428571E+00  0.5830904E-02
    1      -19.602822   1.000000
    2       -5.987539   1.000000
    3       -5.920999   1.000000
    4       -5.517869   1.000000
    5        7.284279   0.000000
    6        8.309204   0.000000
    7        9.027486   0.000000
    8       11.264084   0.000000
 
 -0.4285714E+00 -0.2857143E+00  0.1428571E+00  0.5830904E-02
    1      -19.608787   1.000000
    2       -6.146732   1.000000
    3       -5.677320   1.000000
    4       -5.537347   1.000000
    5        6.775301   0.000000
    6        8.118328   0.000000
    7        9.313586   0.000000
    8       12.040284   0.000000
 
 -0.2857143E+00 -0.2857143E+00  0.1428571E+00  0.5830904E-02
    1      -19.643500   1.000000
    2       -6.119775   1.000000
    3       -5.537194   1.000000
    4       -5.449663   1.000000
    5        6.412092   0.000000
    6        8.130271   0.000000
    7        9.375837   0.000000
    8       12.161068   0.000000
 
 -0.1428571E+00 -0.2857143E+00  0.1428571E+00  0.5830904E-02
    1      -19.680425   1.000000
    2       -6.010670   1.000000
    3       -5.518098   1.000000
    4       -5.323565   1.000000
    5        6.202038   0.000000
    6        8.616541   0.000000
    7        9.296912   0.000000
    8       11.599393   0.000000
 
  0.1540744E-32 -0.1428571E+00  0.1428571E+00  0.5830904E-02
    1      -19.769190   1.000000
    2       -5.681164   1.000000
    3       -5.311500   1.000000
    4       -5.172464   1.000000
    5        4.844023   0.000000
    6        9.355849   0.000000
    7       10.487917   0.000000
    8       11.299493   0.000000
 
  0.1428571E+00 -0.1428571E+00  0.1428571E+00  0.5830904E-02
    1      -19.742102   1.000000
    2       -5.804401   1.000000
    3       -5.292006   1.000000
    4       -5.282596   1.000000
    5        5.225281   0.000000
    6        8.989064   0.000000
    7       10.296498   0.000000
    8       11.195145   0.000000
 
  0.2857143E+00 -0.1428571E+00  0.1428571E+00  0.5830904E-02
    1      -19.680425   1.000000
    2       -6.010670   1.000000
    3       -5.518097   1.000000
    4       -5.323565   1.000000
    5        6.202038   0.000000
    6        8.616540   0.000000
    7        9.296912   0.000000
    8       11.599393   0.000000
 
  0.4285714E+00 -0.1428571E+00  0.1428571E+00  0.5830904E-02
    1      -19.630080   1.000000
    2       -6.153487   1.000000
    3       -5.672529   1.000000
    4       -5.399276   1.000000
    5        7.242095   0.000000
    6        8.082723   0.000000
    7        9.087621   0.000000
    8       11.274245   0.000000
 
 -0.4285714E+00 -0.1428571E+00  0.1428571E+00  0.5830904E-02
    1      -19.630080   1.000000
    2       -6.153487   1.000000
    3       -5.672529   1.000000
    4       -5.399276   1.000000
    5        7.242095   0.000000
    6        8.082723   0.000000
    7        9.087622   0.000000
    8       11.274245   0.000000
 
 -0.2857143E+00 -0.1428571E+00  0.1428571E+00  0.5830904E-02
    1      -19.680425   1.000000
    2       -6.010670   1.000000
    3       -5.518097   1.000000
    4       -5.323565   1.000000
    5        6.202038   0.000000
    6        8.616541   0.000000
    7        9.296912   0.000000
    8       11.599392   0.000000
 
 -0.1428571E+00 -0.1428571E+00  0.1428571E+00  0.5830904E-02
    1      -19.742102   1.000000
    2       -5.804402   1.000000
    3       -5.292006   1.000000
    4       -5.282596   1.000000
    5        5.225281   0.000000
    6        8.989064   0.000000
    7       10.296499   0.000000
    8       11.195144   0.000000
 
  0.3081488E-32  0.3081488E-32  0.2857143E+00  0.5830904E-02
    1      -19.738407   1.000000
    2       -5.954023   1.000000
    3       -5.221119   1.000000
    4       -5.221118   1.000000
    5        5.279872   0.000000
    6        8.991168   0.000000
    7       10.718452   0.000000
    8       10.718453   0.000000
 
  0.1428571E+00  0.5776941E-17  0.2857143E+00  0.5830904E-02
    1      -19.742102   1.000000
    2       -5.804401   1.000000
    3       -5.292005   1.000000
    4       -5.282597   1.000000
    5        5.225281   0.000000
    6        8.989064   0.000000
    7       10.296498   0.000000
    8       11.195145   0.000000
 
  0.2857143E+00 -0.6480678E-17  0.2857143E+00  0.5830904E-02
    1      -19.700251   1.000000
    2       -5.906492   1.000000
    3       -5.393448   1.000000
    4       -5.393448   1.000000
    5        5.694151   0.000000
    6        8.453853   0.000000
    7        9.810329   0.000000
    8       12.069773   0.000000
 
  0.4285714E+00 -0.3261608E-16  0.2857143E+00  0.5830904E-02
    1      -19.643500   1.000000
    2       -6.119775   1.000000
    3       -5.537195   1.000000
    4       -5.449663   1.000000
    5        6.412092   0.000000
    6        8.130270   0.000000
    7        9.375837   0.000000
    8       12.161068   0.000000
 
 -0.4285714E+00  0.1317405E-16  0.2857143E+00  0.5830904E-02
    1      -19.614955   1.000000
    2       -6.137386   1.000000
    3       -5.770801   1.000000
    4       -5.421652   1.000000
    5        7.224229   0.000000
    6        7.930351   0.000000
    7        9.286731   0.000000
    8       11.697023   0.000000
 
 -0.2857143E+00  0.4254980E-16  0.2857143E+00  0.5830904E-02
    1      -19.636811   1.000000
    2       -6.068865   1.000000
    3       -5.785359   1.000000
    4       -5.328516   1.000000
    5        7.275823   0.000000
    6        8.257912   0.000000
    7        8.897461   0.000000
    8       11.313510   0.000000
 
 -0.1428571E+00  0.1641439E-16  0.2857143E+00  0.5830904E-02
    1      -19.691940   1.000000
    2       -6.081875   1.000000
    3       -5.441327   1.000000
    4       -5.238195   1.000000
    5        6.080388   0.000000
    6        8.719434   0.000000
    7        9.767154   0.000000
    8       10.887325   0.000000
 
  0.1540744E-32  0.1428571E+00  0.2857143E+00  0.5830904E-02
    1      -19.742102   1.000000
    2       -5.804401   1.000000
    3       -5.292005   1.000000
    4       -5.282597   1.000000
    5        5.225281   0.000000
    6        8.989064   0.000000
    7       10.296498   0.000000
    8       11.195145   0.000000
 
  0.1428571E+00  0.1428571E+00  0.2857143E+00  0.5830904E-02
    1      -19.769190   1.000000
    2       -5.681163   1.000000
    3       -5.311500   1.000000
    4       -5.172464   1.000000
    5        4.844023   0.000000
    6        9.355849   0.000000
    7       10.487917   0.000000
    8       11.299494   0.000000
 
  0.2857143E+00  0.1428571E+00  0.2857143E+00  0.5830904E-02
    1      -19.742102   1.000000
    2       -5.804401   1.000000
    3       -5.292006   1.000000
    4       -5.282597   1.000000
    5        5.225281   0.000000
    6        8.989064   0.000000
    7       10.296498   0.000000
    8       11.195145   0.000000
 
  0.4285714E+00  0.1428571E+00  0.2857143E+00  0.5830904E-02
    1      -19.680425   1.000000
    2       -6.010669   1.000000
    3       -5.518097   1.000000
    4       -5.323565   1.000000
    5        6.202038   0.000000
    6        8.616540   0.000000
    7        9.296912   0.000000
    8       11.599393   0.000000
 
 -0.4285714E+00  0.1428571E+00  0.2857143E+00  0.5830904E-02
    1      -19.630080   1.000000
    2       -6.153487   1.000000
    3       -5.672528   1.000000
    4       -5.399277   1.000000
    5        7.242095   0.000000
    6        8.082723   0.000000
    7        9.087622   0.000000
    8       11.274245   0.000000
 
 -0.2857143E+00  0.1428571E+00  0.2857143E+00  0.5830904E-02
    1      -19.630080   1.000000
    2       -6.153488   1.000000
    3       -5.672528   1.000000
    4       -5.399277   1.000000
    5        7.242095   0.000000
    6        8.082723   0.000000
    7        9.087622   0.000000
    8       11.274245   0.000000
 
 -0.1428571E+00  0.1428571E+00  0.2857143E+00  0.5830904E-02
    1      -19.680425   1.000000
    2       -6.010670   1.000000
    3       -5.518097   1.000000
    4       -5.323565   1.000000
    5        6.202038   0.000000
    6        8.616541   0.000000
    7        9.296912   0.000000
    8       11.599392   0.000000
 
  0.1540744E-32  0.2857143E+00  0.2857143E+00  0.5830904E-02
    1      -19.700251   1.000000
    2       -5.906492   1.000000
    3       -5.393449   1.000000
    4       -5.393448   1.000000
    5        5.694151   0.000000
    6        8.453854   0.000000
    7        9.810329   0.000000
    8       12.069773   0.000000
 
  0.1428571E+00  0.2857143E+00  0.2857143E+00  0.5830904E-02
    1      -19.742102   1.000000
    2       -5.804401   1.000000
    3       -5.292006   1.000000
    4       -5.282597   1.000000
    5        5.225281   0.000000
    6        8.989064   0.000000
    7       10.296498   0.000000
    8       11.195144   0.000000
 
  0.2857143E+00  0.2857143E+00  0.2857143E+00  0.5830904E-02
    1      -19.738407   1.000000
    2       -5.954022   1.000000
    3       -5.221119   1.000000
    4       -5.221119   1.000000
    5        5.279871   0.000000
    6        8.991169   0.000000
    7       10.718452   0.000000
    8       10.718453   0.000000
 