       N       E                     dE             d eps       ncg     rms          rms(c)
DAV:   1     0.294812136795E+02    0.29481E+02   -0.27476E+03  2840   0.533E+02
DAV:   2     0.605389760218E+00   -0.28876E+02   -0.28152E+02  3704   0.109E+02
DAV:   3    -0.153905682579E-01   -0.62078E+00   -0.62078E+00  3728   0.194E+01
DAV:   4    -0.175259561335E-01   -0.21354E-02   -0.21354E-02  4448   0.113E+00
DAV:   5    -0.175277458659E-01   -0.17897E-05   -0.17897E-05  3896   0.307E-02    0.108E-01
DAV:   6    -0.180401995581E-01   -0.51245E-03   -0.26844E-04  4392   0.170E-01    0.475E-02
DAV:   7    -0.181947157434E-01   -0.15452E-03   -0.48889E-05  3552   0.682E-02    0.200E-02
DAV:   8    -0.182290564626E-01   -0.34341E-04   -0.47886E-06  3344   0.279E-02    0.175E-03
DAV:   9    -0.182289816994E-01    0.74763E-07   -0.67939E-08  4728   0.257E-03    0.782E-04
DAV:  10    -0.182290164030E-01   -0.34704E-07   -0.28192E-08  3160   0.185E-03    0.189E-04
DAV:  11    -0.182290334806E-01   -0.17078E-07   -0.10962E-09  2408   0.311E-04    0.722E-05
DAV:  12    -0.182290423534E-01   -0.88728E-08   -0.39959E-10  1824   0.172E-04
   1 F= -.25502230E+00 E0= -.25502230E+00  d E =0.000000E+00
 imaginary and real dielectric function
