       N       E                     dE             d eps       ncg     rms          rms(c)
DAV:   1    -0.131802869593E+02   -0.13180E+02   -0.18900E-09  8704   0.235E-04
DAV:   2    -0.131802869593E+02   -0.59117E-11   -0.37788E-11  6292   0.568E-05
DAV:   3    -0.131802869592E+02    0.15643E-09   -0.53317E-12  6276   0.265E-05
DAV:   4    -0.131802869594E+02   -0.19099E-09   -0.19017E-12  6192   0.158E-05
DAV:   5    -0.131802869595E+02   -0.13051E-09   -0.11233E-12  6152   0.106E-05    0.206E-05
DAV:   6    -0.131802869602E+02   -0.69440E-09   -0.11531E-08 10360   0.566E-04
   1 F= -.13620249E+02 E0= -.13620249E+02  d E =-.138053E-07  mag=     0.0017    -0.0007    -0.0005
 imaginary and real dielectric function
