 vasp.5.4.4.18Apr17-6-g9f103f2a35 (build Nov 03 2018 10:20:46) complex          
  
 executed on             LinuxIFC date 2018.12.22  12:41:46
 running on   56 total cores
 distrk:  each k-point on   14 cores,    4 groups
 distr:  one band on NCORES_PER_BAND=   7 cores,    2 groups


--------------------------------------------------------------------------------------------------------


 INCAR:
 POTCAR:    PAW Og, JanMewes Oct 18               

 ----------------------------------------------------------------------------- 
|                                                                             |
|           W    W    AA    RRRRR   N    N  II  N    N   GGGG   !!!           |
|           W    W   A  A   R    R  NN   N  II  NN   N  G    G  !!!           |
|           W    W  A    A  R    R  N N  N  II  N N  N  G       !!!           |
|           W WW W  AAAAAA  RRRRR   N  N N  II  N  N N  G  GGG   !            |
|           WW  WW  A    A  R   R   N   NN  II  N   NN  G    G                |
|           W    W  A    A  R    R  N    N  II  N    N   GGGG   !!!           |
|                                                                             |
|      You have enabled k-point parallelism (KPAR>1).                         |
|      This developmental code was originally  written by Paul Kent at ORNL,  |
|      and carefully double checked in Vienna.                                |
|      GW as well as linear response parallelism added by Martijn Marsman     |
|      and Georg Kresse.                                                      |
|      Carefully verify results versus KPAR=1.                                |
|      Report problems to Paul Kent and Vienna.                               |
|                                                                             |
 ----------------------------------------------------------------------------- 

 POTCAR:    PAW Og, JanMewes Oct 18               
   VRHFIN =Og : 10d 2s 6p, PE                                                   
   LEXCH  = PE                                                                  
   EATOM  =  2640.5573 eV,  194.0755 Ry                                         
                                                                                
   TITEL  = PAW Og, JanMewes Oct 18                                             
   LULTRA =        F    use ultrasoft PP ?                                      
   IUNSCR =        1    unscreen: 0-lin 1-nonlin 2-no                           
   RPACOR =    1.700    partial core radius                                     
   POMASS =    0.010; ZVAL   =   18.000    mass and valenz                      
   RCORE  =    2.600    outmost cutoff radius                                   
   RWIGS  =    3.500; RWIGS  =    1.852    wigner-seitz radius (au A)           
   ENMAX  =  339.336; ENMIN  =  254.502 eV                                      
   ICORE  =        3    local potential                                         
   LCOR   =        T    correct aug charges                                     
   LPAW   =        T    paw PP                                                  
   EAUG   =  361.025                                                            
   DEXC   =   -0.000                                                            
   RAUG   =    1.300    factor for augmentation sphere                          
   RDEP   =    2.775    radius for radial grids                                 
   RDEPT  =    2.135    core radius for aug-charge                              
   QCUT   =   -4.994; QGAM   =    9.988    optimization parameters              
                                                                                
   Atomic configuration                                                         
   22 entries                                                                   
     n  l   j            E        occ.                                          
     1  0  0.50   -225781.4217   2.0000                                         
     2  0  0.50    -47342.3774   2.0000                                         
     2  1  1.50    -33463.4058   6.0000                                         
     3  0  0.50    -12845.8060   2.0000                                         
     3  1  1.50     -9184.5562   6.0000                                         
     3  2  2.50     -7322.6146  10.0000                                         
     4  0  0.50     -3781.9433   2.0000                                         
     4  1  1.50     -2605.9204   6.0000                                         
     4  2  2.50     -1899.4626  10.0000                                         
     4  3  3.50     -1273.6890  14.0000                                         
     5  0  0.50     -1046.0643   2.0000                                         
     5  1  1.50      -650.9265   6.0000                                         
     5  2  2.50      -388.1490  10.0000                                         
     5  3  3.50      -152.1121  14.0000                                         
     6  0  0.50      -224.6639   2.0000                                         
     6  1  0.50      -184.3267   2.0000                                         
     6  1  1.50       -97.8537   4.0000                                         
     6  2  2.50       -35.6667  10.0000                                         
     7  0  0.50       -28.5889   2.0000                                         
     8  0  0.50        -1.3606   0.0000                                         
     7  1  1.50        -7.0827   6.0000                                         
     6  3  3.50        -0.0136   0.0000                                         
   Description                                                                  
     l       E           TYP  RCUT    TYP  RCUT                                 
     2    -35.6666962     23  2.100                                             
     2     34.0145650     23  2.300                                             
     0    -28.5889381     23  1.600                                             
     0     40.8174780     23  2.200                                             
     1     -7.0826811     23  2.200                                             
     1    148.3035034     23  1.900                                             
     3      6.8029130      7  2.600                                             
  local pseudopotential read in
  partial core-charges read in
  partial kinetic energy density read in
  kinetic energy density of atom read in
  atomic valenz-charges read in
  non local Contribution for L=           2  read in
    real space projection operators read in
  non local Contribution for L=           2  read in
    real space projection operators read in
  non local Contribution for L=           0  read in
    real space projection operators read in
  non local Contribution for L=           0  read in
    real space projection operators read in
  non local Contribution for L=           1  read in
    real space projection operators read in
  non local Contribution for L=           1  read in
    real space projection operators read in
    PAW grid and wavefunctions read in
 
   number of l-projection  operators is LMAX  =           6
   number of lm-projection operators is LMMAX =          18
 
  PAW Og, JanMewes Oct 18               :
 energy of atom  1       EATOM=-2640.5573
 kinetic energy error for atom=    0.6524 (will be added to EATOM!!)
 
 
 POSCAR: Og_FCC                                  
  positions in direct lattice
  velocities in cartesian coordinates
 exchange correlation table for  LEXCH =        8
   RHO(1)=    0.500       N(1)  =     2000
   RHO(2)=  100.500       N(2)  =     4000
 


--------------------------------------------------------------------------------------------------------


 ion  position               nearest neighbor table
   1  0.000  0.000  0.000-
 

IMPORTANT INFORMATION: All symmetrisations will be switched off!
NOSYMM: (Re-)initialisation of all symmetry stuff for point group C_1.

 
 
 KPOINTS: k-points                                

Automatic generation of k-mesh.
Space group operators:
 irot       det(A)        alpha          n_x          n_y          n_z        tau_x        tau_y        tau_z
    1     1.000000     0.000000     1.000000     0.000000     0.000000     0.000000     0.000000     0.000000
 
 Subroutine IBZKPT returns following result:
 ===========================================
 
 Found    216 irreducible k-points:
 
 Following reciprocal coordinates:
            Coordinates               Weight
  0.000000  0.000000  0.000000      1.000000
  0.166667  0.000000  0.000000      1.000000
  0.333333  0.000000  0.000000      1.000000
  0.500000  0.000000  0.000000      1.000000
 -0.333333 -0.000000  0.000000      1.000000
 -0.166667 -0.000000 -0.000000      1.000000
 -0.000000  0.166667 -0.000000      1.000000
  0.166667  0.166667  0.000000      1.000000
  0.333333  0.166667 -0.000000      1.000000
  0.500000  0.166667  0.000000      1.000000
 -0.333333  0.166667 -0.000000      1.000000
 -0.166667  0.166667 -0.000000      1.000000
  0.000000  0.333333 -0.000000      1.000000
  0.166667  0.333333  0.000000      1.000000
  0.333333  0.333333  0.000000      1.000000
  0.500000  0.333333  0.000000      1.000000
 -0.333333  0.333333 -0.000000      1.000000
 -0.166667  0.333333 -0.000000      1.000000
  0.000000  0.500000 -0.000000      1.000000
  0.166667  0.500000  0.000000      1.000000
  0.333333  0.500000  0.000000      1.000000
  0.500000  0.500000  0.000000      1.000000
 -0.333333  0.500000 -0.000000      1.000000
 -0.166667  0.500000 -0.000000      1.000000
 -0.000000 -0.333333  0.000000      1.000000
  0.166667 -0.333333  0.000000      1.000000
  0.333333 -0.333333  0.000000      1.000000
  0.500000 -0.333333  0.000000      1.000000
 -0.333333 -0.333333 -0.000000      1.000000
 -0.166667 -0.333333  0.000000      1.000000
  0.000000 -0.166667  0.000000      1.000000
  0.166667 -0.166667  0.000000      1.000000
  0.333333 -0.166667  0.000000      1.000000
  0.500000 -0.166667  0.000000      1.000000
 -0.333333 -0.166667  0.000000      1.000000
 -0.166667 -0.166667  0.000000      1.000000
  0.000000  0.000000  0.166667      1.000000
  0.166667  0.000000  0.166667      1.000000
  0.333333 -0.000000  0.166667      1.000000
  0.500000 -0.000000  0.166667      1.000000
 -0.333333 -0.000000  0.166667      1.000000
 -0.166667  0.000000  0.166667      1.000000
 -0.000000  0.166667  0.166667      1.000000
  0.166667  0.166667  0.166667      1.000000
  0.333333  0.166667  0.166667      1.000000
  0.500000  0.166667  0.166667      1.000000
 -0.333333  0.166667  0.166667      1.000000
 -0.166667  0.166667  0.166667      1.000000
 -0.000000  0.333333  0.166667      1.000000
  0.166667  0.333333  0.166667      1.000000
  0.333333  0.333333  0.166667      1.000000
  0.500000  0.333333  0.166667      1.000000
 -0.333333  0.333333  0.166667      1.000000
 -0.166667  0.333333  0.166667      1.000000
 -0.000000  0.500000  0.166667      1.000000
  0.166667  0.500000  0.166667      1.000000
  0.333333  0.500000  0.166667      1.000000
  0.500000  0.500000  0.166667      1.000000
 -0.333333  0.500000  0.166667      1.000000
 -0.166667  0.500000  0.166667      1.000000
 -0.000000 -0.333333  0.166667      1.000000
  0.166667 -0.333333  0.166667      1.000000
  0.333333 -0.333333  0.166667      1.000000
  0.500000 -0.333333  0.166667      1.000000
 -0.333333 -0.333333  0.166667      1.000000
 -0.166667 -0.333333  0.166667      1.000000
  0.000000 -0.166667  0.166667      1.000000
  0.166667 -0.166667  0.166667      1.000000
  0.333333 -0.166667  0.166667      1.000000
  0.500000 -0.166667  0.166667      1.000000
 -0.333333 -0.166667  0.166667      1.000000
 -0.166667 -0.166667  0.166667      1.000000
  0.000000  0.000000  0.333333      1.000000
  0.166667  0.000000  0.333333      1.000000
  0.333333  0.000000  0.333333      1.000000
  0.500000 -0.000000  0.333333      1.000000
 -0.333333  0.000000  0.333333      1.000000
 -0.166667  0.000000  0.333333      1.000000
 -0.000000  0.166667  0.333333      1.000000
  0.166667  0.166667  0.333333      1.000000
  0.333333  0.166667  0.333333      1.000000
  0.500000  0.166667  0.333333      1.000000
 -0.333333  0.166667  0.333333      1.000000
 -0.166667  0.166667  0.333333      1.000000
 -0.000000  0.333333  0.333333      1.000000
  0.166667  0.333333  0.333333      1.000000
  0.333333  0.333333  0.333333      1.000000
  0.500000  0.333333  0.333333      1.000000
 -0.333333  0.333333  0.333333      1.000000
 -0.166667  0.333333  0.333333      1.000000
  0.000000  0.500000  0.333333      1.000000
  0.166667  0.500000  0.333333      1.000000
  0.333333  0.500000  0.333333      1.000000
  0.500000  0.500000  0.333333      1.000000
 -0.333333  0.500000  0.333333      1.000000
 -0.166667  0.500000  0.333333      1.000000
  0.000000 -0.333333  0.333333      1.000000
  0.166667 -0.333333  0.333333      1.000000
  0.333333 -0.333333  0.333333      1.000000
  0.500000 -0.333333  0.333333      1.000000
 -0.333333 -0.333333  0.333333      1.000000
 -0.166667 -0.333333  0.333333      1.000000
  0.000000 -0.166667  0.333333      1.000000
  0.166667 -0.166667  0.333333      1.000000
  0.333333 -0.166667  0.333333      1.000000
  0.500000 -0.166667  0.333333      1.000000
 -0.333333 -0.166667  0.333333      1.000000
 -0.166667 -0.166667  0.333333      1.000000
  0.000000  0.000000  0.500000      1.000000
  0.166667  0.000000  0.500000      1.000000
  0.333333  0.000000  0.500000      1.000000
  0.500000 -0.000000  0.500000      1.000000
 -0.333333  0.000000  0.500000      1.000000
 -0.166667  0.000000  0.500000      1.000000
 -0.000000  0.166667  0.500000      1.000000
  0.166667  0.166667  0.500000      1.000000
  0.333333  0.166667  0.500000      1.000000
  0.500000  0.166667  0.500000      1.000000
 -0.333333  0.166667  0.500000      1.000000
 -0.166667  0.166667  0.500000      1.000000
  0.000000  0.333333  0.500000      1.000000
  0.166667  0.333333  0.500000      1.000000
  0.333333  0.333333  0.500000      1.000000
  0.500000  0.333333  0.500000      1.000000
 -0.333333  0.333333  0.500000      1.000000
 -0.166667  0.333333  0.500000      1.000000
 -0.000000  0.500000  0.500000      1.000000
  0.166667  0.500000  0.500000      1.000000
  0.333333  0.500000  0.500000      1.000000
  0.500000  0.500000  0.500000      1.000000
 -0.333333  0.500000  0.500000      1.000000
 -0.166667  0.500000  0.500000      1.000000
  0.000000 -0.333333  0.500000      1.000000
  0.166667 -0.333333  0.500000      1.000000
  0.333333 -0.333333  0.500000      1.000000
  0.500000 -0.333333  0.500000      1.000000
 -0.333333 -0.333333  0.500000      1.000000
 -0.166667 -0.333333  0.500000      1.000000
  0.000000 -0.166667  0.500000      1.000000
  0.166667 -0.166667  0.500000      1.000000
  0.333333 -0.166667  0.500000      1.000000
  0.500000 -0.166667  0.500000      1.000000
 -0.333333 -0.166667  0.500000      1.000000
 -0.166667 -0.166667  0.500000      1.000000
  0.000000  0.000000 -0.333333      1.000000
  0.166667 -0.000000 -0.333333      1.000000
  0.333333 -0.000000 -0.333333      1.000000
  0.500000  0.000000 -0.333333      1.000000
 -0.333333 -0.000000 -0.333333      1.000000
 -0.166667 -0.000000 -0.333333      1.000000
 -0.000000  0.166667 -0.333333      1.000000
  0.166667  0.166667 -0.333333      1.000000
  0.333333  0.166667 -0.333333      1.000000
  0.500000  0.166667 -0.333333      1.000000
 -0.333333  0.166667 -0.333333      1.000000
 -0.166667  0.166667 -0.333333      1.000000
  0.000000  0.333333 -0.333333      1.000000
  0.166667  0.333333 -0.333333      1.000000
  0.333333  0.333333 -0.333333      1.000000
  0.500000  0.333333 -0.333333      1.000000
 -0.333333  0.333333 -0.333333      1.000000
 -0.166667  0.333333 -0.333333      1.000000
 -0.000000  0.500000 -0.333333      1.000000
  0.166667  0.500000 -0.333333      1.000000
  0.333333  0.500000 -0.333333      1.000000
  0.500000  0.500000 -0.333333      1.000000
 -0.333333  0.500000 -0.333333      1.000000
 -0.166667  0.500000 -0.333333      1.000000
  0.000000 -0.333333 -0.333333      1.000000
  0.166667 -0.333333 -0.333333      1.000000
  0.333333 -0.333333 -0.333333      1.000000
  0.500000 -0.333333 -0.333333      1.000000
 -0.333333 -0.333333 -0.333333      1.000000
 -0.166667 -0.333333 -0.333333      1.000000
  0.000000 -0.166667 -0.333333      1.000000
  0.166667 -0.166667 -0.333333      1.000000
  0.333333 -0.166667 -0.333333      1.000000
  0.500000 -0.166667 -0.333333      1.000000
 -0.333333 -0.166667 -0.333333      1.000000
 -0.166667 -0.166667 -0.333333      1.000000
 -0.000000 -0.000000 -0.166667      1.000000
  0.166667 -0.000000 -0.166667      1.000000
  0.333333  0.000000 -0.166667      1.000000
  0.500000  0.000000 -0.166667      1.000000
 -0.333333  0.000000 -0.166667      1.000000
 -0.166667 -0.000000 -0.166667      1.000000
 -0.000000  0.166667 -0.166667      1.000000
  0.166667  0.166667 -0.166667      1.000000
  0.333333  0.166667 -0.166667      1.000000
  0.500000  0.166667 -0.166667      1.000000
 -0.333333  0.166667 -0.166667      1.000000
 -0.166667  0.166667 -0.166667      1.000000
  0.000000  0.333333 -0.166667      1.000000
  0.166667  0.333333 -0.166667      1.000000
  0.333333  0.333333 -0.166667      1.000000
  0.500000  0.333333 -0.166667      1.000000
 -0.333333  0.333333 -0.166667      1.000000
 -0.166667  0.333333 -0.166667      1.000000
 -0.000000  0.500000 -0.166667      1.000000
  0.166667  0.500000 -0.166667      1.000000
  0.333333  0.500000 -0.166667      1.000000
  0.500000  0.500000 -0.166667      1.000000
 -0.333333  0.500000 -0.166667      1.000000
 -0.166667  0.500000 -0.166667      1.000000
  0.000000 -0.333333 -0.166667      1.000000
  0.166667 -0.333333 -0.166667      1.000000
  0.333333 -0.333333 -0.166667      1.000000
  0.500000 -0.333333 -0.166667      1.000000
 -0.333333 -0.333333 -0.166667      1.000000
 -0.166667 -0.333333 -0.166667      1.000000
  0.000000 -0.166667 -0.166667      1.000000
  0.166667 -0.166667 -0.166667      1.000000
  0.333333 -0.166667 -0.166667      1.000000
  0.500000 -0.166667 -0.166667      1.000000
 -0.333333 -0.166667 -0.166667      1.000000
 -0.166667 -0.166667 -0.166667      1.000000
 
 Following cartesian coordinates:
            Coordinates               Weight
  0.000000  0.000000  0.000000      1.000000
  0.038382 -0.022160 -0.015669      1.000000
  0.076763 -0.044319 -0.031339      1.000000
  0.115145 -0.066479 -0.047008      1.000000
 -0.076763  0.044319  0.031339      1.000000
 -0.038382  0.022160  0.015669      1.000000
  0.000000  0.044319 -0.015669      1.000000
  0.038382  0.022160 -0.031339      1.000000
  0.076763  0.000000 -0.047008      1.000000
  0.115145 -0.022160 -0.062677      1.000000
 -0.076763  0.088639  0.015669      1.000000
 -0.038382  0.066479 -0.000000      1.000000
  0.000000  0.088639 -0.031339      1.000000
  0.038382  0.066479 -0.047008      1.000000
  0.076763  0.044319 -0.062677      1.000000
  0.115145  0.022160 -0.078346      1.000000
 -0.076763  0.132958  0.000000      1.000000
 -0.038382  0.110798 -0.015669      1.000000
  0.000000  0.132958 -0.047008      1.000000
  0.038382  0.110798 -0.062677      1.000000
  0.076763  0.088639 -0.078346      1.000000
  0.115145  0.066479 -0.094016      1.000000
 -0.076763  0.177278 -0.015669      1.000000
 -0.038382  0.155118 -0.031339      1.000000
 -0.000000 -0.088639  0.031339      1.000000
  0.038382 -0.110798  0.015669      1.000000
  0.076763 -0.132958 -0.000000      1.000000
  0.115145 -0.155118 -0.015669      1.000000
 -0.076763 -0.044319  0.062677      1.000000
 -0.038382 -0.066479  0.047008      1.000000
 -0.000000 -0.044319  0.015669      1.000000
  0.038382 -0.066479 -0.000000      1.000000
  0.076763 -0.088639 -0.015669      1.000000
  0.115145 -0.110798 -0.031339      1.000000
 -0.076763  0.000000  0.047008      1.000000
 -0.038382 -0.022160  0.031339      1.000000
 -0.000000  0.000000  0.047008      1.000000
  0.038382 -0.022160  0.031339      1.000000
  0.076763 -0.044319  0.015669      1.000000
  0.115145 -0.066479  0.000000      1.000000
 -0.076763  0.044319  0.078346      1.000000
 -0.038382  0.022160  0.062677      1.000000
 -0.000000  0.044319  0.031339      1.000000
  0.038382  0.022160  0.015669      1.000000
  0.076763  0.000000  0.000000      1.000000
  0.115145 -0.022160 -0.015669      1.000000
 -0.076763  0.088639  0.062677      1.000000
 -0.038382  0.066479  0.047008      1.000000
 -0.000000  0.088639  0.015669      1.000000
  0.038382  0.066479  0.000000      1.000000
  0.076763  0.044319 -0.015669      1.000000
  0.115145  0.022160 -0.031339      1.000000
 -0.076763  0.132958  0.047008      1.000000
 -0.038382  0.110798  0.031339      1.000000
 -0.000000  0.132958  0.000000      1.000000
  0.038382  0.110798 -0.015669      1.000000
  0.076763  0.088639 -0.031339      1.000000
  0.115145  0.066479 -0.047008      1.000000
 -0.076763  0.177278  0.031339      1.000000
 -0.038382  0.155118  0.015669      1.000000
 -0.000000 -0.088639  0.078346      1.000000
  0.038382 -0.110798  0.062677      1.000000
  0.076763 -0.132958  0.047008      1.000000
  0.115145 -0.155118  0.031339      1.000000
 -0.076763 -0.044319  0.109685      1.000000
 -0.038382 -0.066479  0.094016      1.000000
 -0.000000 -0.044319  0.062677      1.000000
  0.038382 -0.066479  0.047008      1.000000
  0.076763 -0.088639  0.031339      1.000000
  0.115145 -0.110798  0.015669      1.000000
 -0.076763  0.000000  0.094016      1.000000
 -0.038382 -0.022160  0.078346      1.000000
 -0.000000  0.000000  0.094016      1.000000
  0.038382 -0.022160  0.078346      1.000000
  0.076763 -0.044319  0.062677      1.000000
  0.115145 -0.066479  0.047008      1.000000
 -0.076763  0.044319  0.125354      1.000000
 -0.038382  0.022160  0.109685      1.000000
 -0.000000  0.044319  0.078346      1.000000
  0.038382  0.022160  0.062677      1.000000
  0.076763  0.000000  0.047008      1.000000
  0.115145 -0.022160  0.031339      1.000000
 -0.076763  0.088639  0.109685      1.000000
 -0.038382  0.066479  0.094016      1.000000
 -0.000000  0.088639  0.062677      1.000000
  0.038382  0.066479  0.047008      1.000000
  0.076763  0.044319  0.031339      1.000000
  0.115145  0.022160  0.015669      1.000000
 -0.076763  0.132958  0.094016      1.000000
 -0.038382  0.110798  0.078346      1.000000
 -0.000000  0.132958  0.047008      1.000000
  0.038382  0.110798  0.031339      1.000000
  0.076763  0.088639  0.015669      1.000000
  0.115145  0.066479 -0.000000      1.000000
 -0.076763  0.177278  0.078346      1.000000
 -0.038382  0.155118  0.062677      1.000000
 -0.000000 -0.088639  0.125354      1.000000
  0.038382 -0.110798  0.109685      1.000000
  0.076763 -0.132958  0.094016      1.000000
  0.115145 -0.155118  0.078346      1.000000
 -0.076763 -0.044319  0.156693      1.000000
 -0.038382 -0.066479  0.141023      1.000000
 -0.000000 -0.044319  0.109685      1.000000
  0.038382 -0.066479  0.094016      1.000000
  0.076763 -0.088639  0.078346      1.000000
  0.115145 -0.110798  0.062677      1.000000
 -0.076763  0.000000  0.141023      1.000000
 -0.038382 -0.022160  0.125354      1.000000
 -0.000000  0.000000  0.141023      1.000000
  0.038382 -0.022160  0.125354      1.000000
  0.076763 -0.044319  0.109685      1.000000
  0.115145 -0.066479  0.094016      1.000000
 -0.076763  0.044319  0.172362      1.000000
 -0.038382  0.022160  0.156693      1.000000
 -0.000000  0.044319  0.125354      1.000000
  0.038382  0.022160  0.109685      1.000000
  0.076763  0.000000  0.094016      1.000000
  0.115145 -0.022160  0.078346      1.000000
 -0.076763  0.088639  0.156693      1.000000
 -0.038382  0.066479  0.141023      1.000000
 -0.000000  0.088639  0.109685      1.000000
  0.038382  0.066479  0.094016      1.000000
  0.076763  0.044319  0.078346      1.000000
  0.115145  0.022160  0.062677      1.000000
 -0.076763  0.132958  0.141023      1.000000
 -0.038382  0.110798  0.125354      1.000000
 -0.000000  0.132958  0.094016      1.000000
  0.038382  0.110798  0.078346      1.000000
  0.076763  0.088639  0.062677      1.000000
  0.115145  0.066479  0.047008      1.000000
 -0.076763  0.177278  0.125354      1.000000
 -0.038382  0.155118  0.109685      1.000000
 -0.000000 -0.088639  0.172362      1.000000
  0.038382 -0.110798  0.156693      1.000000
  0.076763 -0.132958  0.141023      1.000000
  0.115145 -0.155118  0.125354      1.000000
 -0.076763 -0.044319  0.203700      1.000000
 -0.038382 -0.066479  0.188031      1.000000
 -0.000000 -0.044319  0.156693      1.000000
  0.038382 -0.066479  0.141023      1.000000
  0.076763 -0.088639  0.125354      1.000000
  0.115145 -0.110798  0.109685      1.000000
 -0.076763  0.000000  0.188031      1.000000
 -0.038382 -0.022160  0.172362      1.000000
  0.000000 -0.000000 -0.094016      1.000000
  0.038382 -0.022160 -0.109685      1.000000
  0.076763 -0.044319 -0.125354      1.000000
  0.115145 -0.066479 -0.141023      1.000000
 -0.076763  0.044319 -0.062677      1.000000
 -0.038382  0.022160 -0.078346      1.000000
  0.000000  0.044319 -0.109685      1.000000
  0.038382  0.022160 -0.125354      1.000000
  0.076763  0.000000 -0.141023      1.000000
  0.115145 -0.022160 -0.156693      1.000000
 -0.076763  0.088639 -0.078346      1.000000
 -0.038382  0.066479 -0.094016      1.000000
  0.000000  0.088639 -0.125354      1.000000
  0.038382  0.066479 -0.141023      1.000000
  0.076763  0.044319 -0.156693      1.000000
  0.115145  0.022160 -0.172362      1.000000
 -0.076763  0.132958 -0.094016      1.000000
 -0.038382  0.110798 -0.109685      1.000000
  0.000000  0.132958 -0.141023      1.000000
  0.038382  0.110798 -0.156693      1.000000
  0.076763  0.088639 -0.172362      1.000000
  0.115145  0.066479 -0.188031      1.000000
 -0.076763  0.177278 -0.109685      1.000000
 -0.038382  0.155118 -0.125354      1.000000
  0.000000 -0.088639 -0.062677      1.000000
  0.038382 -0.110798 -0.078346      1.000000
  0.076763 -0.132958 -0.094016      1.000000
  0.115145 -0.155118 -0.109685      1.000000
 -0.076763 -0.044319 -0.031339      1.000000
 -0.038382 -0.066479 -0.047008      1.000000
  0.000000 -0.044319 -0.078346      1.000000
  0.038382 -0.066479 -0.094016      1.000000
  0.076763 -0.088639 -0.109685      1.000000
  0.115145 -0.110798 -0.125354      1.000000
 -0.076763  0.000000 -0.047008      1.000000
 -0.038382 -0.022160 -0.062677      1.000000
  0.000000 -0.000000 -0.047008      1.000000
  0.038382 -0.022160 -0.062677      1.000000
  0.076763 -0.044319 -0.078346      1.000000
  0.115145 -0.066479 -0.094016      1.000000
 -0.076763  0.044319 -0.015669      1.000000
 -0.038382  0.022160 -0.031339      1.000000
  0.000000  0.044319 -0.062677      1.000000
  0.038382  0.022160 -0.078346      1.000000
  0.076763  0.000000 -0.094016      1.000000
  0.115145 -0.022160 -0.109685      1.000000
 -0.076763  0.088639 -0.031339      1.000000
 -0.038382  0.066479 -0.047008      1.000000
  0.000000  0.088639 -0.078346      1.000000
  0.038382  0.066479 -0.094016      1.000000
  0.076763  0.044319 -0.109685      1.000000
  0.115145  0.022160 -0.125354      1.000000
 -0.076763  0.132958 -0.047008      1.000000
 -0.038382  0.110798 -0.062677      1.000000
  0.000000  0.132958 -0.094016      1.000000
  0.038382  0.110798 -0.109685      1.000000
  0.076763  0.088639 -0.125354      1.000000
  0.115145  0.066479 -0.141023      1.000000
 -0.076763  0.177278 -0.062677      1.000000
 -0.038382  0.155118 -0.078346      1.000000
  0.000000 -0.088639 -0.015669      1.000000
  0.038382 -0.110798 -0.031339      1.000000
  0.076763 -0.132958 -0.047008      1.000000
  0.115145 -0.155118 -0.062677      1.000000
 -0.076763 -0.044319  0.015669      1.000000
 -0.038382 -0.066479  0.000000      1.000000
  0.000000 -0.044319 -0.031339      1.000000
  0.038382 -0.066479 -0.047008      1.000000
  0.076763 -0.088639 -0.062677      1.000000
  0.115145 -0.110798 -0.078346      1.000000
 -0.076763  0.000000  0.000000      1.000000
 -0.038382 -0.022160 -0.015669      1.000000
 


--------------------------------------------------------------------------------------------------------




 Dimension of arrays:
   k-points           NKPTS =    216   k-points in BZ     NKDIM =    216   number of bands    NBANDS=     28
   number of dos      NEDOS =    301   number of ions     NIONS =      1
   non local maximal  LDIM  =      6   non local SUM 2l+1 LMDIM =     18
   total plane-waves  NPLWV =  21952
   max r-space proj   IRMAX =      1   max aug-charges    IRDMAX= 182324
   dimension x,y,z NGX =    28 NGY =   28 NGZ =   28
   dimension x,y,z NGXF=    56 NGYF=   56 NGZF=   56
   support grid    NGXF=   112 NGYF=  112 NGZF=  112
   ions per type =               1
   NGX,Y,Z   is equivalent  to a cutoff of  10.72, 10.72, 10.72 a.u.
   NGXF,Y,Z  is equivalent  to a cutoff of  21.44, 21.44, 21.44 a.u.

 SYSTEM =  Og_FCC                                  
 POSCAR =  Og_FCC                                  

 Startparameter for this run:
   NWRITE =      2    write-flag & timer
   PREC   = accura    normal or accurate (medium, high low for compatibility)
   ISTART =      1    job   : 0-new  1-cont  2-samecut
   ICHARG =      0    charge: 1-file 2-atom 10-const
   ISPIN  =      1    spin polarized calculation?
   LNONCOLLINEAR =      T non collinear calculations
   LSORBIT =      T    spin-orbit coupling
   INIWAV =      1    electr: 0-lowe 1-rand  2-diag
   LASPH  =      F    aspherical Exc in radial PAW
   METAGGA=      F    non-selfconsistent MetaGGA calc.

 Electronic Relaxation 1
   ENCUT  =  300.0 eV  22.05 Ry    4.70 a.u.   6.13  6.13  6.13*2*pi/ulx,y,z
   ENINI  =  300.0     initial cutoff
   ENAUG  =  361.0 eV  augmentation charge cutoff
   NELM   =     50;   NELMIN=  2; NELMDL= -5     # of ELM steps 
   EDIFF  = 0.1E-07   stopping-criterion for ELM
   LREAL  =      F    real-space projection
   NLSPLINE    = F    spline interpolate recip. space projectors
   LCOMPAT=      F    compatible to vasp.4.4
   GGA_COMPAT  = F    GGA compatible to vasp.4.4-vasp.4.6
   LMAXPAW     = -100 max onsite density
   LMAXMIX     =    2 max onsite mixed and CHGCAR
   VOSKOWN=      0    Vosko Wilk Nusair interpolation
   ROPT   =    0.00000
 Ionic relaxation
   EDIFFG = 0.1E-04   stopping-criterion for IOM
   NSW    =      1    number of steps for IOM
   NBLOCK =      1;   KBLOCK =      1    inner block; outer block 
   IBRION =     -1    ionic relax: 0-MD 1-quasi-New 2-CG
   NFREE  =      5    steps in history (QN), initial steepest desc. (CG)
   ISIF   =      3    stress and relaxation
   IWAVPR =     10    prediction:  0-non 1-charg 2-wave 3-comb
   ISYM   =      0    0-nonsym 1-usesym 2-fastsym
   LCORR  =      T    Harris-Foulkes like correction to forces

   POTIM  = 0.1000    time-step for ionic-motion
   TEIN   =    0.0    initial temperature
   TEBEG  =    0.0;   TEEND  =   0.0 temperature during run
   SMASS  =  -3.00    Nose mass-parameter (am)
   estimated Nose-frequenzy (Omega)   =  0.10E-29 period in steps =****** mass=  -0.431E-27a.u.
   SCALEE = 1.0000    scale energy and forces
   NPACO  =    256;   APACO  = 16.0  distance and # of slots for P.C.
   PSTRESS=    0.0 pullay stress

  Mass of Ions in am
   POMASS =   0.01
  Ionic Valenz
   ZVAL   =  18.00
  Atomic Wigner-Seitz radii
   RWIGS  =  -1.00
  virtual crystal weights 
   VCA    =   1.00
   NELECT =      18.0000    total number of electrons
   NUPDOWN=      -1.0000    fix difference up-down

 DOS related values:
   EMIN   =  10.00;   EMAX   =-10.00  energy-range for DOS
   EFERMI =   0.00
   ISMEAR =     0;   SIGMA  =   0.00  broadening in eV -4-tet -1-fermi 0-gaus

 Electronic relaxation 2 (details)
   IALGO  =     38    algorithm
   LDIAG  =      T    sub-space diagonalisation (order eigenvalues)
   LSUBROT=      F    optimize rotation matrix (better conditioning)
   TURBO    =      0    0=normal 1=particle mesh
   IRESTART =      0    0=no restart 2=restart with 2 vectors
   NREBOOT  =      0    no. of reboots
   NMIN     =      0    reboot dimension
   EREF     =   0.00    reference energy to select bands
   IMIX   =      4    mixing-type and parameters
     AMIX     =   0.40;   BMIX     =  1.00
     AMIX_MAG =   1.60;   BMIX_MAG =  1.00
     AMIN     =   0.10
     WC   =   100.;   INIMIX=   1;  MIXPRE=   1;  MAXMIX=  50

 Intra band minimization:
   WEIMIN = 0.0000     energy-eigenvalue tresh-hold
   EBREAK =  0.89E-10  absolut break condition
   DEPER  =   0.30     relativ break condition  

   TIME   =   0.40     timestep for ELM

  volume/ion in A,a.u.               =      57.90       390.71
  Fermi-wavevector in a.u.,A,eV,Ry     =   1.109038  2.095777 16.734680  1.229964
  Thomas-Fermi vector in A             =   2.245572
 
 Write flags
   LWAVE        =      T    write WAVECAR
   LDOWNSAMPLE  =      F    k-point downsampling of WAVECAR
   LCHARG       =      F    write CHGCAR
   LVTOT        =      F    write LOCPOT, total local potential
   LVHAR        =      F    write LOCPOT, Hartree potential only
   LELF         =      F    write electronic localiz. function (ELF)
   LORBIT       =      0    0 simple, 1 ext, 2 COOP (PROOUT), +10 PAW based schemes


 Dipole corrections
   LMONO  =      F    monopole corrections only (constant potential shift)
   LDIPOL =      F    correct potential (dipole corrections)
   IDIPOL =      0    1-x, 2-y, 3-z, 4-all directions 
   EPSILON=  1.0000000 bulk dielectric constant

 Exchange correlation treatment:
   GGA     =    PE    GGA type
   LEXCH   =     8    internal setting for exchange type
   VOSKOWN=      0    Vosko Wilk Nusair interpolation
   LHFCALC =     F    Hartree Fock is set to
   LHFONE  =     F    Hartree Fock one center treatment
   AEXX    =    0.0000 exact exchange contribution

 Linear response parameters
   LEPSILON=     F    determine dielectric tensor
   LRPA    =     F    only Hartree local field effects (RPA)
   LNABLA  =     F    use nabla operator in PAW spheres
   LVEL    =     F    velocity operator in full k-point grid
   LINTERFAST=   F  fast interpolation
   KINTER  =     0    interpolate to denser k-point grid
   CSHIFT  =0.1000    complex shift for real part using Kramers Kronig
   OMEGAMAX=  -1.0    maximum frequency
   DEG_THRESHOLD= 0.2000000E-02 threshold for treating states as degnerate
   RTIME   =   -0.100 relaxation time in fs
  (WPLASMAI=    0.000 imaginary part of plasma frequency in eV, 0.658/RTIME)
   DFIELD  = 0.0000000 0.0000000 0.0000000 field for delta impulse in time
 
 Orbital magnetization related:
   ORBITALMAG=     F  switch on orbital magnetization
   LCHIMAG   =     F  perturbation theory with respect to B field
   DQ        =  0.001000  dq finite difference perturbation B field
   LLRAUG    =     F  two centre corrections for induced B field



--------------------------------------------------------------------------------------------------------


 Static calculation
 charge density and potential will be updated during run
 non collinear spin polarized calculation
 Variant of blocked Davidson
 Davidson routine will perform the subspace rotation
 perform sub-space diagonalisation
    after iterative eigenvector-optimisation
 modified Broyden-mixing scheme, WC =      100.0
 initial mixing is a Kerker type mixing with AMIX =  0.4000 and BMIX =      1.0000
 Hartree-type preconditioning will be used
 using additional bands           19
 reciprocal scheme for non local part
 use partial core corrections
 calculate Harris-corrections to forces 
   (improved forces if not selfconsistent)
 use gradient corrections 
 use of overlap-Matrix (Vanderbilt PP)
 Gauss-broadening in eV      SIGMA  =   0.00


--------------------------------------------------------------------------------------------------------


  energy-cutoff  :      300.00
  volume of cell :       57.90
      direct lattice vectors                 reciprocal lattice vectors
     4.342345876  0.000000000  0.000000000     0.230290269 -0.132958149 -0.094015609
     2.171172938  3.760581840 -0.000000000     0.000000000  0.265916298 -0.094015609
     2.171172938  1.253527280  3.545510561    -0.000000000  0.000000000  0.282046826

  length of vectors
     4.342345876  4.342345876  4.342345876     0.282046826  0.282046826  0.282046826


 
 old parameters found on file WAVECAR:
  energy-cutoff  :      300.00
  volume of cell :       57.90
      direct lattice vectors                 reciprocal lattice vectors
     4.342345876  0.000000000  0.000000000     0.230290269 -0.132958149 -0.094015609
     2.171172938  3.760581840 -0.000000000     0.000000000  0.265916298 -0.094015609
     2.171172938  1.253527280  3.545510561    -0.000000000  0.000000000  0.282046826

  length of vectors

 
 k-points in units of 2pi/SCALE and weight: k-points                                
   0.00000000  0.00000000  0.00000000       0.005
   0.03838171 -0.02215969 -0.01566927       0.005
   0.07676342 -0.04431938 -0.03133854       0.005
   0.11514513 -0.06647907 -0.04700780       0.005
  -0.07676342  0.04431938  0.03133854       0.005
  -0.03838171  0.02215969  0.01566927       0.005
   0.00000000  0.04431938 -0.01566927       0.005
   0.03838171  0.02215969 -0.03133854       0.005
   0.07676342  0.00000000 -0.04700780       0.005
   0.11514513 -0.02215969 -0.06267707       0.005
  -0.07676342  0.08863877  0.01566927       0.005
  -0.03838171  0.06647907 -0.00000000       0.005
   0.00000000  0.08863877 -0.03133854       0.005
   0.03838171  0.06647907 -0.04700780       0.005
   0.07676342  0.04431938 -0.06267707       0.005
   0.11514513  0.02215969 -0.07834634       0.005
  -0.07676342  0.13295815  0.00000000       0.005
  -0.03838171  0.11079846 -0.01566927       0.005
   0.00000000  0.13295815 -0.04700780       0.005
   0.03838171  0.11079846 -0.06267707       0.005
   0.07676342  0.08863877 -0.07834634       0.005
   0.11514513  0.06647907 -0.09401561       0.005
  -0.07676342  0.17727753 -0.01566927       0.005
  -0.03838171  0.15511784 -0.03133854       0.005
  -0.00000000 -0.08863877  0.03133854       0.005
   0.03838171 -0.11079846  0.01566927       0.005
   0.07676342 -0.13295815 -0.00000000       0.005
   0.11514513 -0.15511784 -0.01566927       0.005
  -0.07676342 -0.04431938  0.06267707       0.005
  -0.03838171 -0.06647907  0.04700780       0.005
  -0.00000000 -0.04431938  0.01566927       0.005
   0.03838171 -0.06647907 -0.00000000       0.005
   0.07676342 -0.08863877 -0.01566927       0.005
   0.11514513 -0.11079846 -0.03133854       0.005
  -0.07676342  0.00000000  0.04700780       0.005
  -0.03838171 -0.02215969  0.03133854       0.005
  -0.00000000  0.00000000  0.04700780       0.005
   0.03838171 -0.02215969  0.03133854       0.005
   0.07676342 -0.04431938  0.01566927       0.005
   0.11514513 -0.06647907  0.00000000       0.005
  -0.07676342  0.04431938  0.07834634       0.005
  -0.03838171  0.02215969  0.06267707       0.005
  -0.00000000  0.04431938  0.03133854       0.005
   0.03838171  0.02215969  0.01566927       0.005
   0.07676342  0.00000000  0.00000000       0.005
   0.11514513 -0.02215969 -0.01566927       0.005
  -0.07676342  0.08863877  0.06267707       0.005
  -0.03838171  0.06647907  0.04700780       0.005
  -0.00000000  0.08863877  0.01566927       0.005
   0.03838171  0.06647907  0.00000000       0.005
   0.07676342  0.04431938 -0.01566927       0.005
   0.11514513  0.02215969 -0.03133854       0.005
  -0.07676342  0.13295815  0.04700780       0.005
  -0.03838171  0.11079846  0.03133854       0.005
  -0.00000000  0.13295815  0.00000000       0.005
   0.03838171  0.11079846 -0.01566927       0.005
   0.07676342  0.08863877 -0.03133854       0.005
   0.11514513  0.06647907 -0.04700780       0.005
  -0.07676342  0.17727753  0.03133854       0.005
  -0.03838171  0.15511784  0.01566927       0.005
  -0.00000000 -0.08863877  0.07834634       0.005
   0.03838171 -0.11079846  0.06267707       0.005
   0.07676342 -0.13295815  0.04700780       0.005
   0.11514513 -0.15511784  0.03133854       0.005
  -0.07676342 -0.04431938  0.10968488       0.005
  -0.03838171 -0.06647907  0.09401561       0.005
  -0.00000000 -0.04431938  0.06267707       0.005
   0.03838171 -0.06647907  0.04700780       0.005
   0.07676342 -0.08863877  0.03133854       0.005
   0.11514513 -0.11079846  0.01566927       0.005
  -0.07676342  0.00000000  0.09401561       0.005
  -0.03838171 -0.02215969  0.07834634       0.005
  -0.00000000  0.00000000  0.09401561       0.005
   0.03838171 -0.02215969  0.07834634       0.005
   0.07676342 -0.04431938  0.06267707       0.005
   0.11514513 -0.06647907  0.04700780       0.005
  -0.07676342  0.04431938  0.12535414       0.005
  -0.03838171  0.02215969  0.10968488       0.005
  -0.00000000  0.04431938  0.07834634       0.005
   0.03838171  0.02215969  0.06267707       0.005
   0.07676342  0.00000000  0.04700780       0.005
   0.11514513 -0.02215969  0.03133854       0.005
  -0.07676342  0.08863877  0.10968488       0.005
  -0.03838171  0.06647907  0.09401561       0.005
  -0.00000000  0.08863877  0.06267707       0.005
   0.03838171  0.06647907  0.04700780       0.005
   0.07676342  0.04431938  0.03133854       0.005
   0.11514513  0.02215969  0.01566927       0.005
  -0.07676342  0.13295815  0.09401561       0.005
  -0.03838171  0.11079846  0.07834634       0.005
  -0.00000000  0.13295815  0.04700780       0.005
   0.03838171  0.11079846  0.03133854       0.005
   0.07676342  0.08863877  0.01566927       0.005
   0.11514513  0.06647907 -0.00000000       0.005
  -0.07676342  0.17727753  0.07834634       0.005
  -0.03838171  0.15511784  0.06267707       0.005
  -0.00000000 -0.08863877  0.12535414       0.005
   0.03838171 -0.11079846  0.10968488       0.005
   0.07676342 -0.13295815  0.09401561       0.005
   0.11514513 -0.15511784  0.07834634       0.005
  -0.07676342 -0.04431938  0.15669268       0.005
  -0.03838171 -0.06647907  0.14102341       0.005
  -0.00000000 -0.04431938  0.10968488       0.005
   0.03838171 -0.06647907  0.09401561       0.005
   0.07676342 -0.08863877  0.07834634       0.005
   0.11514513 -0.11079846  0.06267707       0.005
  -0.07676342  0.00000000  0.14102341       0.005
  -0.03838171 -0.02215969  0.12535414       0.005
  -0.00000000  0.00000000  0.14102341       0.005
   0.03838171 -0.02215969  0.12535414       0.005
   0.07676342 -0.04431938  0.10968488       0.005
   0.11514513 -0.06647907  0.09401561       0.005
  -0.07676342  0.04431938  0.17236195       0.005
  -0.03838171  0.02215969  0.15669268       0.005
  -0.00000000  0.04431938  0.12535414       0.005
   0.03838171  0.02215969  0.10968488       0.005
   0.07676342  0.00000000  0.09401561       0.005
   0.11514513 -0.02215969  0.07834634       0.005
  -0.07676342  0.08863877  0.15669268       0.005
  -0.03838171  0.06647907  0.14102341       0.005
  -0.00000000  0.08863877  0.10968488       0.005
   0.03838171  0.06647907  0.09401561       0.005
   0.07676342  0.04431938  0.07834634       0.005
   0.11514513  0.02215969  0.06267707       0.005
  -0.07676342  0.13295815  0.14102341       0.005
  -0.03838171  0.11079846  0.12535414       0.005
  -0.00000000  0.13295815  0.09401561       0.005
   0.03838171  0.11079846  0.07834634       0.005
   0.07676342  0.08863877  0.06267707       0.005
   0.11514513  0.06647907  0.04700780       0.005
  -0.07676342  0.17727753  0.12535414       0.005
  -0.03838171  0.15511784  0.10968488       0.005
  -0.00000000 -0.08863877  0.17236195       0.005
   0.03838171 -0.11079846  0.15669268       0.005
   0.07676342 -0.13295815  0.14102341       0.005
   0.11514513 -0.15511784  0.12535414       0.005
  -0.07676342 -0.04431938  0.20370049       0.005
  -0.03838171 -0.06647907  0.18803122       0.005
  -0.00000000 -0.04431938  0.15669268       0.005
   0.03838171 -0.06647907  0.14102341       0.005
   0.07676342 -0.08863877  0.12535414       0.005
   0.11514513 -0.11079846  0.10968488       0.005
  -0.07676342  0.00000000  0.18803122       0.005
  -0.03838171 -0.02215969  0.17236195       0.005
   0.00000000 -0.00000000 -0.09401561       0.005
   0.03838171 -0.02215969 -0.10968488       0.005
   0.07676342 -0.04431938 -0.12535414       0.005
   0.11514513 -0.06647907 -0.14102341       0.005
  -0.07676342  0.04431938 -0.06267707       0.005
  -0.03838171  0.02215969 -0.07834634       0.005
   0.00000000  0.04431938 -0.10968488       0.005
   0.03838171  0.02215969 -0.12535414       0.005
   0.07676342  0.00000000 -0.14102341       0.005
   0.11514513 -0.02215969 -0.15669268       0.005
  -0.07676342  0.08863877 -0.07834634       0.005
  -0.03838171  0.06647907 -0.09401561       0.005
   0.00000000  0.08863877 -0.12535414       0.005
   0.03838171  0.06647907 -0.14102341       0.005
   0.07676342  0.04431938 -0.15669268       0.005
   0.11514513  0.02215969 -0.17236195       0.005
  -0.07676342  0.13295815 -0.09401561       0.005
  -0.03838171  0.11079846 -0.10968488       0.005
   0.00000000  0.13295815 -0.14102341       0.005
   0.03838171  0.11079846 -0.15669268       0.005
   0.07676342  0.08863877 -0.17236195       0.005
   0.11514513  0.06647907 -0.18803122       0.005
  -0.07676342  0.17727753 -0.10968488       0.005
  -0.03838171  0.15511784 -0.12535414       0.005
   0.00000000 -0.08863877 -0.06267707       0.005
   0.03838171 -0.11079846 -0.07834634       0.005
   0.07676342 -0.13295815 -0.09401561       0.005
   0.11514513 -0.15511784 -0.10968488       0.005
  -0.07676342 -0.04431938 -0.03133854       0.005
  -0.03838171 -0.06647907 -0.04700780       0.005
   0.00000000 -0.04431938 -0.07834634       0.005
   0.03838171 -0.06647907 -0.09401561       0.005
   0.07676342 -0.08863877 -0.10968488       0.005
   0.11514513 -0.11079846 -0.12535414       0.005
  -0.07676342  0.00000000 -0.04700780       0.005
  -0.03838171 -0.02215969 -0.06267707       0.005
   0.00000000 -0.00000000 -0.04700780       0.005
   0.03838171 -0.02215969 -0.06267707       0.005
   0.07676342 -0.04431938 -0.07834634       0.005
   0.11514513 -0.06647907 -0.09401561       0.005
  -0.07676342  0.04431938 -0.01566927       0.005
  -0.03838171  0.02215969 -0.03133854       0.005
   0.00000000  0.04431938 -0.06267707       0.005
   0.03838171  0.02215969 -0.07834634       0.005
   0.07676342  0.00000000 -0.09401561       0.005
   0.11514513 -0.02215969 -0.10968488       0.005
  -0.07676342  0.08863877 -0.03133854       0.005
  -0.03838171  0.06647907 -0.04700780       0.005
   0.00000000  0.08863877 -0.07834634       0.005
   0.03838171  0.06647907 -0.09401561       0.005
   0.07676342  0.04431938 -0.10968488       0.005
   0.11514513  0.02215969 -0.12535414       0.005
  -0.07676342  0.13295815 -0.04700780       0.005
  -0.03838171  0.11079846 -0.06267707       0.005
   0.00000000  0.13295815 -0.09401561       0.005
   0.03838171  0.11079846 -0.10968488       0.005
   0.07676342  0.08863877 -0.12535414       0.005
   0.11514513  0.06647907 -0.14102341       0.005
  -0.07676342  0.17727753 -0.06267707       0.005
  -0.03838171  0.15511784 -0.07834634       0.005
   0.00000000 -0.08863877 -0.01566927       0.005
   0.03838171 -0.11079846 -0.03133854       0.005
   0.07676342 -0.13295815 -0.04700780       0.005
   0.11514513 -0.15511784 -0.06267707       0.005
  -0.07676342 -0.04431938  0.01566927       0.005
  -0.03838171 -0.06647907  0.00000000       0.005
   0.00000000 -0.04431938 -0.03133854       0.005
   0.03838171 -0.06647907 -0.04700780       0.005
   0.07676342 -0.08863877 -0.06267707       0.005
   0.11514513 -0.11079846 -0.07834634       0.005
  -0.07676342  0.00000000  0.00000000       0.005
  -0.03838171 -0.02215969 -0.01566927       0.005
 
 k-points in reciprocal lattice and weights: k-points                                
   0.00000000  0.00000000  0.00000000       0.005
   0.16666667  0.00000000  0.00000000       0.005
   0.33333333  0.00000000  0.00000000       0.005
   0.50000000  0.00000000  0.00000000       0.005
  -0.33333333 -0.00000000  0.00000000       0.005
  -0.16666667 -0.00000000 -0.00000000       0.005
  -0.00000000  0.16666667 -0.00000000       0.005
   0.16666667  0.16666667  0.00000000       0.005
   0.33333333  0.16666667 -0.00000000       0.005
   0.50000000  0.16666667  0.00000000       0.005
  -0.33333333  0.16666667 -0.00000000       0.005
  -0.16666667  0.16666667 -0.00000000       0.005
   0.00000000  0.33333333 -0.00000000       0.005
   0.16666667  0.33333333  0.00000000       0.005
   0.33333333  0.33333333  0.00000000       0.005
   0.50000000  0.33333333  0.00000000       0.005
  -0.33333333  0.33333333 -0.00000000       0.005
  -0.16666667  0.33333333 -0.00000000       0.005
   0.00000000  0.50000000 -0.00000000       0.005
   0.16666667  0.50000000  0.00000000       0.005
   0.33333333  0.50000000  0.00000000       0.005
   0.50000000  0.50000000  0.00000000       0.005
  -0.33333333  0.50000000 -0.00000000       0.005
  -0.16666667  0.50000000 -0.00000000       0.005
  -0.00000000 -0.33333333  0.00000000       0.005
   0.16666667 -0.33333333  0.00000000       0.005
   0.33333333 -0.33333333  0.00000000       0.005
   0.50000000 -0.33333333  0.00000000       0.005
  -0.33333333 -0.33333333 -0.00000000       0.005
  -0.16666667 -0.33333333  0.00000000       0.005
   0.00000000 -0.16666667  0.00000000       0.005
   0.16666667 -0.16666667  0.00000000       0.005
   0.33333333 -0.16666667  0.00000000       0.005
   0.50000000 -0.16666667  0.00000000       0.005
  -0.33333333 -0.16666667  0.00000000       0.005
  -0.16666667 -0.16666667  0.00000000       0.005
   0.00000000  0.00000000  0.16666667       0.005
   0.16666667  0.00000000  0.16666667       0.005
   0.33333333 -0.00000000  0.16666667       0.005
   0.50000000 -0.00000000  0.16666667       0.005
  -0.33333333 -0.00000000  0.16666667       0.005
  -0.16666667  0.00000000  0.16666667       0.005
  -0.00000000  0.16666667  0.16666667       0.005
   0.16666667  0.16666667  0.16666667       0.005
   0.33333333  0.16666667  0.16666667       0.005
   0.50000000  0.16666667  0.16666667       0.005
  -0.33333333  0.16666667  0.16666667       0.005
  -0.16666667  0.16666667  0.16666667       0.005
  -0.00000000  0.33333333  0.16666667       0.005
   0.16666667  0.33333333  0.16666667       0.005
   0.33333333  0.33333333  0.16666667       0.005
   0.50000000  0.33333333  0.16666667       0.005
  -0.33333333  0.33333333  0.16666667       0.005
  -0.16666667  0.33333333  0.16666667       0.005
  -0.00000000  0.50000000  0.16666667       0.005
   0.16666667  0.50000000  0.16666667       0.005
   0.33333333  0.50000000  0.16666667       0.005
   0.50000000  0.50000000  0.16666667       0.005
  -0.33333333  0.50000000  0.16666667       0.005
  -0.16666667  0.50000000  0.16666667       0.005
  -0.00000000 -0.33333333  0.16666667       0.005
   0.16666667 -0.33333333  0.16666667       0.005
   0.33333333 -0.33333333  0.16666667       0.005
   0.50000000 -0.33333333  0.16666667       0.005
  -0.33333333 -0.33333333  0.16666667       0.005
  -0.16666667 -0.33333333  0.16666667       0.005
   0.00000000 -0.16666667  0.16666667       0.005
   0.16666667 -0.16666667  0.16666667       0.005
   0.33333333 -0.16666667  0.16666667       0.005
   0.50000000 -0.16666667  0.16666667       0.005
  -0.33333333 -0.16666667  0.16666667       0.005
  -0.16666667 -0.16666667  0.16666667       0.005
   0.00000000  0.00000000  0.33333333       0.005
   0.16666667  0.00000000  0.33333333       0.005
   0.33333333  0.00000000  0.33333333       0.005
   0.50000000 -0.00000000  0.33333333       0.005
  -0.33333333  0.00000000  0.33333333       0.005
  -0.16666667  0.00000000  0.33333333       0.005
  -0.00000000  0.16666667  0.33333333       0.005
   0.16666667  0.16666667  0.33333333       0.005
   0.33333333  0.16666667  0.33333333       0.005
   0.50000000  0.16666667  0.33333333       0.005
  -0.33333333  0.16666667  0.33333333       0.005
  -0.16666667  0.16666667  0.33333333       0.005
  -0.00000000  0.33333333  0.33333333       0.005
   0.16666667  0.33333333  0.33333333       0.005
   0.33333333  0.33333333  0.33333333       0.005
   0.50000000  0.33333333  0.33333333       0.005
  -0.33333333  0.33333333  0.33333333       0.005
  -0.16666667  0.33333333  0.33333333       0.005
   0.00000000  0.50000000  0.33333333       0.005
   0.16666667  0.50000000  0.33333333       0.005
   0.33333333  0.50000000  0.33333333       0.005
   0.50000000  0.50000000  0.33333333       0.005
  -0.33333333  0.50000000  0.33333333       0.005
  -0.16666667  0.50000000  0.33333333       0.005
   0.00000000 -0.33333333  0.33333333       0.005
   0.16666667 -0.33333333  0.33333333       0.005
   0.33333333 -0.33333333  0.33333333       0.005
   0.50000000 -0.33333333  0.33333333       0.005
  -0.33333333 -0.33333333  0.33333333       0.005
  -0.16666667 -0.33333333  0.33333333       0.005
   0.00000000 -0.16666667  0.33333333       0.005
   0.16666667 -0.16666667  0.33333333       0.005
   0.33333333 -0.16666667  0.33333333       0.005
   0.50000000 -0.16666667  0.33333333       0.005
  -0.33333333 -0.16666667  0.33333333       0.005
  -0.16666667 -0.16666667  0.33333333       0.005
   0.00000000  0.00000000  0.50000000       0.005
   0.16666667  0.00000000  0.50000000       0.005
   0.33333333  0.00000000  0.50000000       0.005
   0.50000000 -0.00000000  0.50000000       0.005
  -0.33333333  0.00000000  0.50000000       0.005
  -0.16666667  0.00000000  0.50000000       0.005
  -0.00000000  0.16666667  0.50000000       0.005
   0.16666667  0.16666667  0.50000000       0.005
   0.33333333  0.16666667  0.50000000       0.005
   0.50000000  0.16666667  0.50000000       0.005
  -0.33333333  0.16666667  0.50000000       0.005
  -0.16666667  0.16666667  0.50000000       0.005
   0.00000000  0.33333333  0.50000000       0.005
   0.16666667  0.33333333  0.50000000       0.005
   0.33333333  0.33333333  0.50000000       0.005
   0.50000000  0.33333333  0.50000000       0.005
  -0.33333333  0.33333333  0.50000000       0.005
  -0.16666667  0.33333333  0.50000000       0.005
  -0.00000000  0.50000000  0.50000000       0.005
   0.16666667  0.50000000  0.50000000       0.005
   0.33333333  0.50000000  0.50000000       0.005
   0.50000000  0.50000000  0.50000000       0.005
  -0.33333333  0.50000000  0.50000000       0.005
  -0.16666667  0.50000000  0.50000000       0.005
   0.00000000 -0.33333333  0.50000000       0.005
   0.16666667 -0.33333333  0.50000000       0.005
   0.33333333 -0.33333333  0.50000000       0.005
   0.50000000 -0.33333333  0.50000000       0.005
  -0.33333333 -0.33333333  0.50000000       0.005
  -0.16666667 -0.33333333  0.50000000       0.005
   0.00000000 -0.16666667  0.50000000       0.005
   0.16666667 -0.16666667  0.50000000       0.005
   0.33333333 -0.16666667  0.50000000       0.005
   0.50000000 -0.16666667  0.50000000       0.005
  -0.33333333 -0.16666667  0.50000000       0.005
  -0.16666667 -0.16666667  0.50000000       0.005
   0.00000000  0.00000000 -0.33333333       0.005
   0.16666667 -0.00000000 -0.33333333       0.005
   0.33333333 -0.00000000 -0.33333333       0.005
   0.50000000  0.00000000 -0.33333333       0.005
  -0.33333333 -0.00000000 -0.33333333       0.005
  -0.16666667 -0.00000000 -0.33333333       0.005
  -0.00000000  0.16666667 -0.33333333       0.005
   0.16666667  0.16666667 -0.33333333       0.005
   0.33333333  0.16666667 -0.33333333       0.005
   0.50000000  0.16666667 -0.33333333       0.005
  -0.33333333  0.16666667 -0.33333333       0.005
  -0.16666667  0.16666667 -0.33333333       0.005
   0.00000000  0.33333333 -0.33333333       0.005
   0.16666667  0.33333333 -0.33333333       0.005
   0.33333333  0.33333333 -0.33333333       0.005
   0.50000000  0.33333333 -0.33333333       0.005
  -0.33333333  0.33333333 -0.33333333       0.005
  -0.16666667  0.33333333 -0.33333333       0.005
  -0.00000000  0.50000000 -0.33333333       0.005
   0.16666667  0.50000000 -0.33333333       0.005
   0.33333333  0.50000000 -0.33333333       0.005
   0.50000000  0.50000000 -0.33333333       0.005
  -0.33333333  0.50000000 -0.33333333       0.005
  -0.16666667  0.50000000 -0.33333333       0.005
   0.00000000 -0.33333333 -0.33333333       0.005
   0.16666667 -0.33333333 -0.33333333       0.005
   0.33333333 -0.33333333 -0.33333333       0.005
   0.50000000 -0.33333333 -0.33333333       0.005
  -0.33333333 -0.33333333 -0.33333333       0.005
  -0.16666667 -0.33333333 -0.33333333       0.005
   0.00000000 -0.16666667 -0.33333333       0.005
   0.16666667 -0.16666667 -0.33333333       0.005
   0.33333333 -0.16666667 -0.33333333       0.005
   0.50000000 -0.16666667 -0.33333333       0.005
  -0.33333333 -0.16666667 -0.33333333       0.005
  -0.16666667 -0.16666667 -0.33333333       0.005
  -0.00000000 -0.00000000 -0.16666667       0.005
   0.16666667 -0.00000000 -0.16666667       0.005
   0.33333333  0.00000000 -0.16666667       0.005
   0.50000000  0.00000000 -0.16666667       0.005
  -0.33333333  0.00000000 -0.16666667       0.005
  -0.16666667 -0.00000000 -0.16666667       0.005
  -0.00000000  0.16666667 -0.16666667       0.005
   0.16666667  0.16666667 -0.16666667       0.005
   0.33333333  0.16666667 -0.16666667       0.005
   0.50000000  0.16666667 -0.16666667       0.005
  -0.33333333  0.16666667 -0.16666667       0.005
  -0.16666667  0.16666667 -0.16666667       0.005
   0.00000000  0.33333333 -0.16666667       0.005
   0.16666667  0.33333333 -0.16666667       0.005
   0.33333333  0.33333333 -0.16666667       0.005
   0.50000000  0.33333333 -0.16666667       0.005
  -0.33333333  0.33333333 -0.16666667       0.005
  -0.16666667  0.33333333 -0.16666667       0.005
  -0.00000000  0.50000000 -0.16666667       0.005
   0.16666667  0.50000000 -0.16666667       0.005
   0.33333333  0.50000000 -0.16666667       0.005
   0.50000000  0.50000000 -0.16666667       0.005
  -0.33333333  0.50000000 -0.16666667       0.005
  -0.16666667  0.50000000 -0.16666667       0.005
   0.00000000 -0.33333333 -0.16666667       0.005
   0.16666667 -0.33333333 -0.16666667       0.005
   0.33333333 -0.33333333 -0.16666667       0.005
   0.50000000 -0.33333333 -0.16666667       0.005
  -0.33333333 -0.33333333 -0.16666667       0.005
  -0.16666667 -0.33333333 -0.16666667       0.005
   0.00000000 -0.16666667 -0.16666667       0.005
   0.16666667 -0.16666667 -0.16666667       0.005
   0.33333333 -0.16666667 -0.16666667       0.005
   0.50000000 -0.16666667 -0.16666667       0.005
  -0.33333333 -0.16666667 -0.16666667       0.005
  -0.16666667 -0.16666667 -0.16666667       0.005
 
 position of ions in fractional coordinates (direct lattice) 
   0.00000000  0.00000000  0.00000000
 
 position of ions in cartesian coordinates  (Angst):
   0.00000000  0.00000000  0.00000000
 
 Euler angles ALPHA=     0.0000000  BETA=     0.0000000

 transformation matrix from SAXIS to cartesian coordinates
 ---------------------------------------------------------
     1.0000000 m_x     0.0000000 m_y     0.0000000 m_z
     0.0000000 m_x     1.0000000 m_y     0.0000000 m_z
     0.0000000 m_x     0.0000000 m_y     1.0000000 m_z

 transformation matrix from cartesian coordinates to SAXIS
 ---------------------------------------------------------
     1.0000000 m_x     0.0000000 m_y     0.0000000 m_z
     0.0000000 m_x     1.0000000 m_y     0.0000000 m_z
     0.0000000 m_x     0.0000000 m_y     1.0000000 m_z




--------------------------------------------------------------------------------------------------------


 k-point  1 :   0.0000 0.0000 0.0000  plane waves:    1402
 k-point  2 :   0.1667 0.0000 0.0000  plane waves:    1346
 k-point  3 :   0.3333 0.0000 0.0000  plane waves:    1370
 k-point  4 :   0.5000 0.0000 0.0000  plane waves:    1400
 k-point  5 :  -0.3333-0.0000 0.0000  plane waves:    1370
 k-point  6 :  -0.1667-0.0000-0.0000  plane waves:    1346
 k-point  7 :  -0.0000 0.1667-0.0000  plane waves:    1346
 k-point  8 :   0.1667 0.1667 0.0000  plane waves:    1362
 k-point  9 :   0.3333 0.1667-0.0000  plane waves:    1360
 k-point 10 :   0.5000 0.1667 0.0000  plane waves:    1356
 k-point 11 :  -0.3333 0.1667-0.0000  plane waves:    1368
 k-point 12 :  -0.1667 0.1667-0.0000  plane waves:    1348
 k-point 13 :   0.0000 0.3333-0.0000  plane waves:    1370
 k-point 14 :   0.1667 0.3333 0.0000  plane waves:    1360
 k-point 15 :   0.3333 0.3333 0.0000  plane waves:    1386
 k-point 16 :   0.5000 0.3333 0.0000  plane waves:    1372
 k-point 17 :  -0.3333 0.3333-0.0000  plane waves:    1360
 k-point 18 :  -0.1667 0.3333-0.0000  plane waves:    1368
 k-point 19 :   0.0000 0.5000-0.0000  plane waves:    1400
 k-point 20 :   0.1667 0.5000 0.0000  plane waves:    1356
 k-point 21 :   0.3333 0.5000 0.0000  plane waves:    1372
 k-point 22 :   0.5000 0.5000 0.0000  plane waves:    1384
 k-point 23 :  -0.3333 0.5000-0.0000  plane waves:    1372
 k-point 24 :  -0.1667 0.5000-0.0000  plane waves:    1356
 k-point 25 :  -0.0000-0.3333 0.0000  plane waves:    1370
 k-point 26 :   0.1667-0.3333 0.0000  plane waves:    1368
 k-point 27 :   0.3333-0.3333 0.0000  plane waves:    1360
 k-point 28 :   0.5000-0.3333 0.0000  plane waves:    1372
 k-point 29 :  -0.3333-0.3333-0.0000  plane waves:    1386
 k-point 30 :  -0.1667-0.3333 0.0000  plane waves:    1360
 k-point 31 :   0.0000-0.1667 0.0000  plane waves:    1346
 k-point 32 :   0.1667-0.1667 0.0000  plane waves:    1348
 k-point 33 :   0.3333-0.1667 0.0000  plane waves:    1368
 k-point 34 :   0.5000-0.1667 0.0000  plane waves:    1356
 k-point 35 :  -0.3333-0.1667 0.0000  plane waves:    1360
 k-point 36 :  -0.1667-0.1667 0.0000  plane waves:    1362
 k-point 37 :   0.0000 0.0000 0.1667  plane waves:    1346
 k-point 38 :   0.1667 0.0000 0.1667  plane waves:    1362
 k-point 39 :   0.3333-0.0000 0.1667  plane waves:    1360
 k-point 40 :   0.5000-0.0000 0.1667  plane waves:    1356
 k-point 41 :  -0.3333-0.0000 0.1667  plane waves:    1368
 k-point 42 :  -0.1667 0.0000 0.1667  plane waves:    1348
 k-point 43 :  -0.0000 0.1667 0.1667  plane waves:    1362
 k-point 44 :   0.1667 0.1667 0.1667  plane waves:    1346
 k-point 45 :   0.3333 0.1667 0.1667  plane waves:    1348
 k-point 46 :   0.5000 0.1667 0.1667  plane waves:    1368
 k-point 47 :  -0.3333 0.1667 0.1667  plane waves:    1356
 k-point 48 :  -0.1667 0.1667 0.1667  plane waves:    1360
 k-point 49 :  -0.0000 0.3333 0.1667  plane waves:    1360
 k-point 50 :   0.1667 0.3333 0.1667  plane waves:    1348
 k-point 51 :   0.3333 0.3333 0.1667  plane waves:    1360
 k-point 52 :   0.5000 0.3333 0.1667  plane waves:    1352
 k-point 53 :  -0.3333 0.3333 0.1667  plane waves:    1384
 k-point 54 :  -0.1667 0.3333 0.1667  plane waves:    1352
 k-point 55 :  -0.0000 0.5000 0.1667  plane waves:    1356
 k-point 56 :   0.1667 0.5000 0.1667  plane waves:    1368
 k-point 57 :   0.3333 0.5000 0.1667  plane waves:    1352
 k-point 58 :   0.5000 0.5000 0.1667  plane waves:    1372
 k-point 59 :  -0.3333 0.5000 0.1667  plane waves:    1380
 k-point 60 :  -0.1667 0.5000 0.1667  plane waves:    1384
 k-point 61 :  -0.0000-0.3333 0.1667  plane waves:    1368
 k-point 62 :   0.1667-0.3333 0.1667  plane waves:    1356
 k-point 63 :   0.3333-0.3333 0.1667  plane waves:    1384
 k-point 64 :   0.5000-0.3333 0.1667  plane waves:    1380
 k-point 65 :  -0.3333-0.3333 0.1667  plane waves:    1372
 k-point 66 :  -0.1667-0.3333 0.1667  plane waves:    1352
 k-point 67 :   0.0000-0.1667 0.1667  plane waves:    1348
 k-point 68 :   0.1667-0.1667 0.1667  plane waves:    1360
 k-point 69 :   0.3333-0.1667 0.1667  plane waves:    1352
 k-point 70 :   0.5000-0.1667 0.1667  plane waves:    1384
 k-point 71 :  -0.3333-0.1667 0.1667  plane waves:    1352
 k-point 72 :  -0.1667-0.1667 0.1667  plane waves:    1360
 k-point 73 :   0.0000 0.0000 0.3333  plane waves:    1370
 k-point 74 :   0.1667 0.0000 0.3333  plane waves:    1360
 k-point 75 :   0.3333 0.0000 0.3333  plane waves:    1386
 k-point 76 :   0.5000-0.0000 0.3333  plane waves:    1372
 k-point 77 :  -0.3333 0.0000 0.3333  plane waves:    1360
 k-point 78 :  -0.1667 0.0000 0.3333  plane waves:    1368
 k-point 79 :  -0.0000 0.1667 0.3333  plane waves:    1360
 k-point 80 :   0.1667 0.1667 0.3333  plane waves:    1348
 k-point 81 :   0.3333 0.1667 0.3333  plane waves:    1360
 k-point 82 :   0.5000 0.1667 0.3333  plane waves:    1352
 k-point 83 :  -0.3333 0.1667 0.3333  plane waves:    1384
 k-point 84 :  -0.1667 0.1667 0.3333  plane waves:    1352
 k-point 85 :  -0.0000 0.3333 0.3333  plane waves:    1386
 k-point 86 :   0.1667 0.3333 0.3333  plane waves:    1360
 k-point 87 :   0.3333 0.3333 0.3333  plane waves:    1370
 k-point 88 :   0.5000 0.3333 0.3333  plane waves:    1368
 k-point 89 :  -0.3333 0.3333 0.3333  plane waves:    1360
 k-point 90 :  -0.1667 0.3333 0.3333  plane waves:    1372
 k-point 91 :   0.0000 0.5000 0.3333  plane waves:    1372
 k-point 92 :   0.1667 0.5000 0.3333  plane waves:    1352
 k-point 93 :   0.3333 0.5000 0.3333  plane waves:    1368
 k-point 94 :   0.5000 0.5000 0.3333  plane waves:    1356
 k-point 95 :  -0.3333 0.5000 0.3333  plane waves:    1384
 k-point 96 :  -0.1667 0.5000 0.3333  plane waves:    1380
 k-point 97 :   0.0000-0.3333 0.3333  plane waves:    1360
 k-point 98 :   0.1667-0.3333 0.3333  plane waves:    1384
 k-point 99 :   0.3333-0.3333 0.3333  plane waves:    1360
 k-point ** :   0.5000-0.3333 0.3333  plane waves:    1384
 k-point ** :  -0.3333-0.3333 0.3333  plane waves:    1360
 k-point ** :  -0.1667-0.3333 0.3333  plane waves:    1384
 k-point ** :   0.0000-0.1667 0.3333  plane waves:    1368
 k-point ** :   0.1667-0.1667 0.3333  plane waves:    1352
 k-point ** :   0.3333-0.1667 0.3333  plane waves:    1372
 k-point ** :   0.5000-0.1667 0.3333  plane waves:    1380
 k-point ** :  -0.3333-0.1667 0.3333  plane waves:    1384
 k-point ** :  -0.1667-0.1667 0.3333  plane waves:    1356
 k-point ** :   0.0000 0.0000 0.5000  plane waves:    1400
 k-point ** :   0.1667 0.0000 0.5000  plane waves:    1356
 k-point ** :   0.3333 0.0000 0.5000  plane waves:    1372
 k-point ** :   0.5000-0.0000 0.5000  plane waves:    1384
 k-point ** :  -0.3333 0.0000 0.5000  plane waves:    1372
 k-point ** :  -0.1667 0.0000 0.5000  plane waves:    1356
 k-point ** :  -0.0000 0.1667 0.5000  plane waves:    1356
 k-point ** :   0.1667 0.1667 0.5000  plane waves:    1368
 k-point ** :   0.3333 0.1667 0.5000  plane waves:    1352
 k-point ** :   0.5000 0.1667 0.5000  plane waves:    1372
 k-point ** :  -0.3333 0.1667 0.5000  plane waves:    1380
 k-point ** :  -0.1667 0.1667 0.5000  plane waves:    1384
 k-point ** :   0.0000 0.3333 0.5000  plane waves:    1372
 k-point ** :   0.1667 0.3333 0.5000  plane waves:    1352
 k-point ** :   0.3333 0.3333 0.5000  plane waves:    1368
 k-point ** :   0.5000 0.3333 0.5000  plane waves:    1356
 k-point ** :  -0.3333 0.3333 0.5000  plane waves:    1384
 k-point ** :  -0.1667 0.3333 0.5000  plane waves:    1380
 k-point ** :  -0.0000 0.5000 0.5000  plane waves:    1384
 k-point ** :   0.1667 0.5000 0.5000  plane waves:    1372
 k-point ** :   0.3333 0.5000 0.5000  plane waves:    1356
 k-point ** :   0.5000 0.5000 0.5000  plane waves:    1400
 k-point ** :  -0.3333 0.5000 0.5000  plane waves:    1356
 k-point ** :  -0.1667 0.5000 0.5000  plane waves:    1372
 k-point ** :   0.0000-0.3333 0.5000  plane waves:    1372
 k-point ** :   0.1667-0.3333 0.5000  plane waves:    1380
 k-point ** :   0.3333-0.3333 0.5000  plane waves:    1384
 k-point ** :   0.5000-0.3333 0.5000  plane waves:    1356
 k-point ** :  -0.3333-0.3333 0.5000  plane waves:    1368
 k-point ** :  -0.1667-0.3333 0.5000  plane waves:    1352
 k-point ** :   0.0000-0.1667 0.5000  plane waves:    1356
 k-point ** :   0.1667-0.1667 0.5000  plane waves:    1384
 k-point ** :   0.3333-0.1667 0.5000  plane waves:    1380
 k-point ** :   0.5000-0.1667 0.5000  plane waves:    1372
 k-point ** :  -0.3333-0.1667 0.5000  plane waves:    1352
 k-point ** :  -0.1667-0.1667 0.5000  plane waves:    1368
 k-point ** :   0.0000 0.0000-0.3333  plane waves:    1370
 k-point ** :   0.1667-0.0000-0.3333  plane waves:    1368
 k-point ** :   0.3333-0.0000-0.3333  plane waves:    1360
 k-point ** :   0.5000 0.0000-0.3333  plane waves:    1372
 k-point ** :  -0.3333-0.0000-0.3333  plane waves:    1386
 k-point ** :  -0.1667-0.0000-0.3333  plane waves:    1360
 k-point ** :  -0.0000 0.1667-0.3333  plane waves:    1368
 k-point ** :   0.1667 0.1667-0.3333  plane waves:    1356
 k-point ** :   0.3333 0.1667-0.3333  plane waves:    1384
 k-point ** :   0.5000 0.1667-0.3333  plane waves:    1380
 k-point ** :  -0.3333 0.1667-0.3333  plane waves:    1372
 k-point ** :  -0.1667 0.1667-0.3333  plane waves:    1352
 k-point ** :   0.0000 0.3333-0.3333  plane waves:    1360
 k-point ** :   0.1667 0.3333-0.3333  plane waves:    1384
 k-point ** :   0.3333 0.3333-0.3333  plane waves:    1360
 k-point ** :   0.5000 0.3333-0.3333  plane waves:    1384
 k-point ** :  -0.3333 0.3333-0.3333  plane waves:    1360
 k-point ** :  -0.1667 0.3333-0.3333  plane waves:    1384
 k-point ** :  -0.0000 0.5000-0.3333  plane waves:    1372
 k-point ** :   0.1667 0.5000-0.3333  plane waves:    1380
 k-point ** :   0.3333 0.5000-0.3333  plane waves:    1384
 k-point ** :   0.5000 0.5000-0.3333  plane waves:    1356
 k-point ** :  -0.3333 0.5000-0.3333  plane waves:    1368
 k-point ** :  -0.1667 0.5000-0.3333  plane waves:    1352
 k-point ** :   0.0000-0.3333-0.3333  plane waves:    1386
 k-point ** :   0.1667-0.3333-0.3333  plane waves:    1372
 k-point ** :   0.3333-0.3333-0.3333  plane waves:    1360
 k-point ** :   0.5000-0.3333-0.3333  plane waves:    1368
 k-point ** :  -0.3333-0.3333-0.3333  plane waves:    1370
 k-point ** :  -0.1667-0.3333-0.3333  plane waves:    1360
 k-point ** :   0.0000-0.1667-0.3333  plane waves:    1360
 k-point ** :   0.1667-0.1667-0.3333  plane waves:    1352
 k-point ** :   0.3333-0.1667-0.3333  plane waves:    1384
 k-point ** :   0.5000-0.1667-0.3333  plane waves:    1352
 k-point ** :  -0.3333-0.1667-0.3333  plane waves:    1360
 k-point ** :  -0.1667-0.1667-0.3333  plane waves:    1348
 k-point ** :  -0.0000-0.0000-0.1667  plane waves:    1346
 k-point ** :   0.1667-0.0000-0.1667  plane waves:    1348
 k-point ** :   0.3333 0.0000-0.1667  plane waves:    1368
 k-point ** :   0.5000 0.0000-0.1667  plane waves:    1356
 k-point ** :  -0.3333 0.0000-0.1667  plane waves:    1360
 k-point ** :  -0.1667-0.0000-0.1667  plane waves:    1362
 k-point ** :  -0.0000 0.1667-0.1667  plane waves:    1348
 k-point ** :   0.1667 0.1667-0.1667  plane waves:    1360
 k-point ** :   0.3333 0.1667-0.1667  plane waves:    1352
 k-point ** :   0.5000 0.1667-0.1667  plane waves:    1384
 k-point ** :  -0.3333 0.1667-0.1667  plane waves:    1352
 k-point ** :  -0.1667 0.1667-0.1667  plane waves:    1360
 k-point ** :   0.0000 0.3333-0.1667  plane waves:    1368
 k-point ** :   0.1667 0.3333-0.1667  plane waves:    1352
 k-point ** :   0.3333 0.3333-0.1667  plane waves:    1372
 k-point ** :   0.5000 0.3333-0.1667  plane waves:    1380
 k-point ** :  -0.3333 0.3333-0.1667  plane waves:    1384
 k-point ** :  -0.1667 0.3333-0.1667  plane waves:    1356
 k-point ** :  -0.0000 0.5000-0.1667  plane waves:    1356
 k-point ** :   0.1667 0.5000-0.1667  plane waves:    1384
 k-point ** :   0.3333 0.5000-0.1667  plane waves:    1380
 k-point ** :   0.5000 0.5000-0.1667  plane waves:    1372
 k-point ** :  -0.3333 0.5000-0.1667  plane waves:    1352
 k-point ** :  -0.1667 0.5000-0.1667  plane waves:    1368
 k-point ** :   0.0000-0.3333-0.1667  plane waves:    1360
 k-point ** :   0.1667-0.3333-0.1667  plane waves:    1352
 k-point ** :   0.3333-0.3333-0.1667  plane waves:    1384
 k-point ** :   0.5000-0.3333-0.1667  plane waves:    1352
 k-point ** :  -0.3333-0.3333-0.1667  plane waves:    1360
 k-point ** :  -0.1667-0.3333-0.1667  plane waves:    1348
 k-point ** :   0.0000-0.1667-0.1667  plane waves:    1362
 k-point ** :   0.1667-0.1667-0.1667  plane waves:    1360
 k-point ** :   0.3333-0.1667-0.1667  plane waves:    1356
 k-point ** :   0.5000-0.1667-0.1667  plane waves:    1368
 k-point ** :  -0.3333-0.1667-0.1667  plane waves:    1348
 k-point ** :  -0.1667-0.1667-0.1667  plane waves:    1346

 maximum and minimum number of plane-waves per node :       222      172

 maximum number of plane-waves:      1402
 maximum index in each direction: 
   IXMAX=    6   IYMAX=    6   IZMAX=    6
   IXMIN=   -6   IYMIN=   -6   IZMIN=   -6


 parallel 3D FFT for wavefunctions:
    minimum data exchange during FFTs selected (reduces bandwidth)
 parallel 3D FFT for charge:
    minimum data exchange during FFTs selected (reduces bandwidth)


 total amount of memory used by VASP MPI-rank0    52834. kBytes
=======================================================================

   base      :      30000. kBytes
   nonl-proj :       3423. kBytes
   fftplans  :       3752. kBytes
   grid      :       3211. kBytes
   one-center:         62. kBytes
   wavefun   :      12386. kBytes
 
     INWAV:  cpu time    1.0547: real time    1.0632
 Broyden mixing: mesh for mixing (old mesh)
   NGX = 13   NGY = 13   NGZ = 13
  (NGX  = 56   NGY  = 56   NGZ  = 56)
  gives a total of   2197 points

 charge density for first step will be calculated from the start-wavefunctions


--------------------------------------------------------------------------------------------------------


 Maximum index for augmentation-charges        12667 (set IRDMAX)


--------------------------------------------------------------------------------------------------------


 initial charge from wavefunction
 First call to EWALD:  gamma=   0.458
 Maximum number of real-space cells 3x 3x 3
 Maximum number of reciprocal cells 3x 3x 3

    FEWALD:  cpu time    0.0018: real time    0.0019


--------------------------------------- Iteration      1(   1)  ---------------------------------------


    POTLOK:  cpu time    0.0287: real time    0.0298
    SETDIJ:  cpu time    0.0631: real time    0.0630
     EDDAV:  cpu time    0.7771: real time    0.7773
       DOS:  cpu time    0.0020: real time    0.0020
    --------------------------------------------
      LOOP:  cpu time    0.8709: real time    0.8722

 eigenvalue-minimisations  :  8704
 total energy-change (2. order) :-0.1318029E+02  (-0.1890002E-09)
 number of electron      18.0000000 magnetization       0.0017046     -0.0006876     -0.0004938
 augmentation part        2.7617009 magnetization      -0.0001160      0.0000467      0.0000335

 Free energy of the ion-electron system (eV)
  ---------------------------------------------------
  alpha Z        PSCENC =        65.89697999
  Ewald energy   TEWEN  =     -1741.63824267
  -Hartree energ DENC   =      -672.03596706
  -exchange      EXHF   =         0.00000000
  -V(xc)+E(xc)   XCENC  =       -68.73380318
  PAW double counting   =      2336.01598153    -2260.61968163
  entropy T*S    EENTRO =        -0.00000001
  eigenvalues    EBANDS =      -311.97047800
  atomic energy  EATOM  =      2639.90492407
  Solvation  Ediel_sol  =         0.00000000
  ---------------------------------------------------
  free energy    TOTEN  =       -13.18028696 eV

  energy without entropy =      -13.18028695  energy(sigma->0) =      -13.18028695


--------------------------------------------------------------------------------------------------------




--------------------------------------- Iteration      1(   2)  ---------------------------------------


     EDDAV:  cpu time    0.6488: real time    0.6499
       DOS:  cpu time    0.0018: real time    0.0017
    --------------------------------------------
      LOOP:  cpu time    0.6506: real time    0.6516

 eigenvalue-minimisations  :  6292
 total energy-change (2. order) :-0.5911716E-11  (-0.3778758E-11)
 number of electron      18.0000000 magnetization       0.0017046     -0.0006876     -0.0004938
 augmentation part        2.7617009 magnetization      -0.0001160      0.0000467      0.0000335

 Free energy of the ion-electron system (eV)
  ---------------------------------------------------
  alpha Z        PSCENC =        65.89697999
  Ewald energy   TEWEN  =     -1741.63824267
  -Hartree energ DENC   =      -672.03596706
  -exchange      EXHF   =         0.00000000
  -V(xc)+E(xc)   XCENC  =       -68.73380318
  PAW double counting   =      2336.01598153    -2260.61968163
  entropy T*S    EENTRO =        -0.00000001
  eigenvalues    EBANDS =      -311.97047800
  atomic energy  EATOM  =      2639.90492407
  Solvation  Ediel_sol  =         0.00000000
  ---------------------------------------------------
  free energy    TOTEN  =       -13.18028696 eV

  energy without entropy =      -13.18028695  energy(sigma->0) =      -13.18028695


--------------------------------------------------------------------------------------------------------




--------------------------------------- Iteration      1(   3)  ---------------------------------------


     EDDAV:  cpu time    0.6461: real time    0.6454
       DOS:  cpu time    0.0020: real time    0.0020
    --------------------------------------------
      LOOP:  cpu time    0.6482: real time    0.6474

 eigenvalue-minimisations  :  6276
 total energy-change (2. order) : 0.1564331E-09  (-0.5331667E-12)
 number of electron      18.0000000 magnetization       0.0017046     -0.0006876     -0.0004938
 augmentation part        2.7617009 magnetization      -0.0001160      0.0000467      0.0000335

 Free energy of the ion-electron system (eV)
  ---------------------------------------------------
  alpha Z        PSCENC =        65.89697999
  Ewald energy   TEWEN  =     -1741.63824267
  -Hartree energ DENC   =      -672.03596706
  -exchange      EXHF   =         0.00000000
  -V(xc)+E(xc)   XCENC  =       -68.73380318
  PAW double counting   =      2336.01598153    -2260.61968163
  entropy T*S    EENTRO =        -0.00000001
  eigenvalues    EBANDS =      -311.97047800
  atomic energy  EATOM  =      2639.90492407
  Solvation  Ediel_sol  =         0.00000000
  ---------------------------------------------------
  free energy    TOTEN  =       -13.18028696 eV

  energy without entropy =      -13.18028695  energy(sigma->0) =      -13.18028695


--------------------------------------------------------------------------------------------------------




--------------------------------------- Iteration      1(   4)  ---------------------------------------


     EDDAV:  cpu time    0.6504: real time    0.6499
       DOS:  cpu time    0.0019: real time    0.0019
    --------------------------------------------
      LOOP:  cpu time    0.6523: real time    0.6518

 eigenvalue-minimisations  :  6192
 total energy-change (2. order) :-0.1909939E-09  (-0.1901663E-12)
 number of electron      18.0000000 magnetization       0.0017046     -0.0006876     -0.0004938
 augmentation part        2.7617009 magnetization      -0.0001160      0.0000467      0.0000335

 Free energy of the ion-electron system (eV)
  ---------------------------------------------------
  alpha Z        PSCENC =        65.89697999
  Ewald energy   TEWEN  =     -1741.63824267
  -Hartree energ DENC   =      -672.03596706
  -exchange      EXHF   =         0.00000000
  -V(xc)+E(xc)   XCENC  =       -68.73380318
  PAW double counting   =      2336.01598153    -2260.61968163
  entropy T*S    EENTRO =        -0.00000001
  eigenvalues    EBANDS =      -311.97047800
  atomic energy  EATOM  =      2639.90492407
  Solvation  Ediel_sol  =         0.00000000
  ---------------------------------------------------
  free energy    TOTEN  =       -13.18028696 eV

  energy without entropy =      -13.18028695  energy(sigma->0) =      -13.18028695


--------------------------------------------------------------------------------------------------------




--------------------------------------- Iteration      1(   5)  ---------------------------------------


[...]
    0.000000  181.670716  181.669115  181.667047   14.052710  -48.381437   19.583371
    0.547509    4.196808    4.196537    4.196427   -0.633362    2.191165   -0.882877
    1.095017    1.694659    1.694230    1.694105   -0.073176    0.259811   -0.102045
    1.642526    8.882635    8.867885    8.863761   -0.018080    0.010467   -0.017502
    2.190035    1.588433    1.588700    1.588768   -0.010726    0.041041   -0.015190
    2.737543    9.964648    9.964654    9.964642   -0.005105    0.018164   -0.007124
    3.285052    4.173932    4.173805    4.173710   -0.003226    0.010795   -0.004394
    3.832561    6.506886    6.495350    6.488983   -0.014086    0.017052   -0.011033
    4.380069    9.124191    9.148012    9.154055    0.018399   -0.005605    0.011927
    4.927578    2.566530    2.566030    2.565927   -0.002270    0.006614   -0.002915
    5.475087    7.578398    7.578352    7.578343   -0.001919    0.006390   -0.002658
    6.022595    5.442845    5.442834    5.442833   -0.002806    0.009209   -0.003928
    6.570104    5.016283    5.016274    5.016275   -0.006651    0.020995   -0.009317
    7.117613    3.261686    3.261685    3.261689    0.022425   -0.067129    0.031524
    7.665121    2.242937    2.242668    2.242687   -0.003147    0.008522   -0.004379
    8.212630    3.100582    3.099977    3.099407   -0.002865    0.006867   -0.003521
    8.760139    1.890033    1.890023    1.890013   -0.000109    0.000137   -0.000144
    9.307647    0.658074    0.658075    0.658132   -0.000348    0.001005   -0.000559
    9.855156    0.953498    0.953385    0.953327   -0.000421    0.000959   -0.000534
   10.402665    0.958221    0.957949    0.957899   -0.000750    0.001789   -0.000961
   10.950173    0.458873    0.458869    0.458868   -0.000059    0.000118   -0.000085
   11.497682    0.155872    0.155872    0.155872   -0.000032    0.000060   -0.000046
   12.045190    0.291900    0.291899    0.291900   -0.000045    0.000106   -0.000064
   12.592699    0.186180    0.186180    0.186180    0.000023   -0.000099    0.000031
   13.140208    0.165645    0.165645    0.165645    0.000015   -0.000071    0.000020
   13.687716    0.186331    0.186331    0.186331    0.000020   -0.000083    0.000027
   14.235225    0.554628    0.554628    0.554627    0.000026   -0.000101    0.000035
   14.782734    0.311265    0.311266    0.311266    0.000041   -0.000145    0.000056
   15.330242    0.169181    0.169184    0.169184    0.000053   -0.000175    0.000072
   15.877751    0.246989    0.247044    0.247029    0.000078   -0.000162    0.000093
   16.425260    0.460774    0.460788    0.460813    0.000054   -0.000083    0.000054
   16.972768    0.251302    0.250814    0.250673   -0.000262   -0.000065   -0.000112
   17.520277    0.357625    0.357833    0.357916    0.000268   -0.000436    0.000258
   18.067786    0.454062    0.454282    0.454450    0.000638   -0.001500    0.000718
   18.615294    0.504576    0.503279    0.503116   -0.000864    0.000446   -0.000663
   19.162803    0.229664    0.229705    0.229709    0.000148   -0.000392    0.000189
   19.710312    0.066864    0.066868    0.066868    0.000062   -0.000200    0.000085
   20.257820    0.285407    0.285408    0.285408    0.000050   -0.000173    0.000069
   20.805329    0.066376    0.066376    0.066376    0.000050   -0.000171    0.000068
   21.352838    0.089825    0.089826    0.089825    0.000061   -0.000212    0.000085
   21.900346    0.008194    0.008194    0.008194    0.000077   -0.000267    0.000107
   22.447855    0.004705    0.004705    0.004705    0.000102   -0.000353    0.000142
   22.995364    0.003679    0.003678    0.003677    0.000150   -0.000522    0.000209
   23.542872    0.003641    0.003635    0.003629    0.000278   -0.000980    0.000393
   24.090381    0.018174    0.017708    0.017302    0.000210   -0.002130    0.000700
   24.637890    0.004264    0.004278    0.004291   -0.000368    0.001308   -0.000525
   25.185398    0.005400    0.005401    0.005402   -0.000195    0.000674   -0.000273
   25.732907    0.061907    0.061907    0.061907   -0.000143    0.000491   -0.000200
   26.280416    0.052883    0.052883    0.052883   -0.000127    0.000435   -0.000177
   26.827924    0.089858    0.089858    0.089858   -0.000133    0.000455   -0.000186
   27.375433    0.064757    0.064757    0.064757   -0.000220    0.000750   -0.000307
   27.922942    0.022298    0.022299    0.022299    0.000249   -0.000848    0.000347
   28.470450    0.031149    0.031149    0.031149    0.000052   -0.000176    0.000072
   29.017959    0.089971    0.089971    0.089971    0.000019   -0.000066    0.000027
   29.565468    0.072705    0.072695    0.072686   -0.000005    0.000000   -0.000002
   30.112976    0.039399    0.039413    0.039431    0.000034   -0.000046    0.000029
   30.660485    0.157835    0.157835    0.157835   -0.000009    0.000025   -0.000012
   31.207994    0.060427    0.060397    0.060381   -0.000025    0.000023   -0.000018
   31.755502    0.079410    0.079418    0.079423   -0.000001    0.000025   -0.000007
   32.303011    0.055151    0.055149    0.055149   -0.000008    0.000026   -0.000012
   32.850520    0.162969    0.163035    0.163083    0.000124   -0.000240    0.000124
   33.398028    0.079020    0.079017    0.079014   -0.000011    0.000026   -0.000013
   33.945537    0.087587    0.087586    0.087586    0.000006   -0.000020    0.000009
   34.493046    0.086140    0.086143    0.086144   -0.000035    0.000116   -0.000050
   35.040554    0.108400    0.108436    0.108444   -0.000095    0.000353   -0.000147
   35.588063    0.074877    0.074866    0.074860   -0.000018    0.000037   -0.000019
   36.135571    0.036157    0.036155    0.036155   -0.000008    0.000024   -0.000011
   36.683080    0.158026    0.158026    0.158026   -0.000007    0.000026   -0.000011
   37.230589    0.076144    0.076144    0.076144   -0.000003    0.000012   -0.000005
   37.778097    0.116138    0.116139    0.116140   -0.000002    0.000011   -0.000005
   38.325606    0.014299    0.014300    0.014300    0.000004   -0.000007    0.000002
   38.873115    0.033568    0.033552    0.033552   -0.000128    0.000398   -0.000179
   39.420623    0.022273    0.022273    0.022274   -0.000000   -0.000002    0.000003
   39.968132    0.012132    0.012132    0.012132   -0.000003    0.000006   -0.000002
   40.515641    0.007985    0.007984    0.007984   -0.000004    0.000009   -0.000003
   41.063149    0.025550    0.025551    0.025552   -0.000003    0.000009   -0.000003
   41.610658    0.018200    0.018200    0.018200   -0.000004    0.000012   -0.000004
   42.158167    0.035853    0.035853    0.035853   -0.000003    0.000008   -0.000003
   42.705675    0.018010    0.018010    0.018009   -0.000006    0.000017   -0.000007
   43.253184    0.067049    0.067049    0.067049   -0.000006    0.000018   -0.000007
   43.800693    0.029844    0.029840    0.029837   -0.000008    0.000017   -0.000007
   44.348201    0.038177    0.038169    0.038169   -0.000010    0.000023   -0.000011
   44.895710    0.004269    0.004269    0.004270   -0.000006    0.000019   -0.000007
   45.443219    0.010040    0.010042    0.010042   -0.000004    0.000007    0.000001
   45.990727    0.001295    0.001295    0.001295   -0.000002    0.000011   -0.000005
   46.538236    0.000591    0.000591    0.000591   -0.000002    0.000009   -0.000004
   47.085745    0.000396    0.000396    0.000396   -0.000002    0.000008   -0.000004
   47.633253    0.000297    0.000297    0.000297   -0.000002    0.000008   -0.000003
   48.180762    0.000235    0.000235    0.000235   -0.000002    0.000007   -0.000003
   48.728271    0.000193    0.000193    0.000193   -0.000002    0.000007   -0.000003
   49.275779    0.000163    0.000163    0.000163   -0.000002    0.000006   -0.000003
   49.823288    0.000139    0.000139    0.000139   -0.000002    0.000006   -0.000003
   50.370797    0.000121    0.000121    0.000121   -0.000002    0.000006   -0.000003
   50.918305    0.000106    0.000106    0.000106   -0.000002    0.000006   -0.000002
   51.465814    0.000094    0.000094    0.000094   -0.000002    0.000005   -0.000002
   52.013323    0.000084    0.000084    0.000084   -0.000002    0.000005   -0.000002
   52.560831    0.000075    0.000075    0.000075   -0.000001    0.000005   -0.000002
   53.108340    0.000068    0.000068    0.000068   -0.000001    0.000005   -0.000002
   53.655849    0.000061    0.000061    0.000061   -0.000001    0.000005   -0.000002
   54.203357    0.000056    0.000056    0.000056   -0.000001    0.000005   -0.000002

  frequency dependent      REAL DIELECTRIC FUNCTION (independent particle, no local field effects) current-current (2nd set in vasprun.xml)
     E(ev)        X           Y           Z          XY          YZ          ZX
  --------------------------------------------------------------------------------------------------------------
    0.000000   28.481345   28.480522   28.479993   -3.106773   10.710652   -4.329874
    0.547509   -8.437862   -8.438121   -8.438028    0.146488   -0.507308    0.204443
    1.095017    4.871234    4.870280    4.870026    0.076996   -0.270123    0.107881
    1.642526    9.969416    9.973235    9.974287    0.083142   -0.374348    0.117183
    2.190035    5.199729    5.199280    5.199121    0.019262   -0.065588    0.027026
    2.737543    1.859196    1.859190    1.859123    0.012705   -0.043716    0.017743
    3.285052    6.331848    6.331685    6.331465    0.008980   -0.031384    0.012713
    3.832561    7.532106    7.536266    7.538166    0.009711   -0.022955    0.010745
    4.380069    7.796388    7.789978    7.788190    0.000675   -0.017437    0.004874
    4.927578    1.154200    1.155344    1.155590    0.005014   -0.014574    0.006359
    5.475087    1.056404    1.056610    1.056656    0.003505   -0.011545    0.004771
    6.022595    3.109712    3.109784    3.109806    0.003283   -0.011047    0.004537
    6.570104   -1.888884   -1.888864   -1.888845    0.005177   -0.016804    0.007227
    7.117613   -2.747713   -2.747624   -2.747600    0.002673   -0.009419    0.003662
    7.665121   -2.037895   -2.038052   -2.038000   -0.000001   -0.001172   -0.000015
    8.212630   -1.627102   -1.628399   -1.629438    0.000742   -0.005404    0.001998
    8.760139   -3.170039   -3.170011   -3.169972    0.001360   -0.004614    0.001869
    9.307647   -0.771974   -0.771969   -0.772069    0.000898   -0.003513    0.001335
    9.855156   -0.890173   -0.890091   -0.890060    0.001288   -0.004182    0.001757
   10.402665   -0.947367   -0.947294   -0.947277   -0.001046    0.002609   -0.001530
   10.950173   -0.739199   -0.739185   -0.739180    0.000785   -0.002718    0.001088
   11.497682   -0.235655   -0.235650   -0.235647    0.000747   -0.002574    0.001038
   12.045190   -0.147129   -0.147126   -0.147123    0.000698   -0.002401    0.000971
   12.592699   -0.056575   -0.056573   -0.056571    0.000642   -0.002209    0.000894
   13.140208    0.289523    0.289525    0.289526    0.000584   -0.002011    0.000813
   13.687716    0.457187    0.457190    0.457191    0.000539   -0.001854    0.000750
   14.235225    0.482830    0.482835    0.482838    0.000502   -0.001722    0.000698
   14.782734    0.397754    0.397760    0.397761    0.000462   -0.001581    0.000642
   15.330242    0.540755    0.540769    0.540769    0.000429   -0.001452    0.000592
   15.877751    0.824290    0.824355    0.824345    0.000413   -0.001329    0.000557
   16.425260    0.199779    0.199889    0.199898    0.000394   -0.001164    0.000504
   16.972768    0.204927    0.205073    0.205118    0.000700   -0.001749    0.000870
   17.520277    0.762408    0.762346    0.762339    0.000440   -0.001578    0.000643
   18.067786    0.329066    0.328616    0.328309   -0.000105   -0.000781    0.000157
   18.615294    0.529944    0.530253    0.530303   -0.000351    0.001268   -0.000585
   19.162803    0.154872    0.154783    0.154776    0.000276   -0.001087    0.000419
   19.710312    0.427780    0.427761    0.427760    0.000250   -0.000893    0.000356
   20.257820    0.371573    0.371565    0.371565    0.000248   -0.000858    0.000348
   20.805329    0.399485    0.399481    0.399481    0.000221   -0.000770    0.000309
   21.352838    0.500969    0.500966    0.500965    0.000216   -0.000750    0.000303
   21.900346    0.554510    0.554507    0.554506    0.000202   -0.000702    0.000283
   22.447855    0.607776    0.607772    0.607770    0.000187   -0.000656    0.000264
   22.995364    0.648078    0.648071    0.648066    0.000166   -0.000593    0.000237
   23.542872    0.683209    0.683189    0.683172    0.000105   -0.000423    0.000164
   24.090381    0.720269    0.720382    0.720481   -0.001007    0.003833   -0.001502
   24.637890    0.733590    0.733559    0.733532    0.000052   -0.000275    0.000100
   25.185398    0.768292    0.768285    0.768279    0.000134   -0.000482    0.000192
   25.732907    0.791048    0.791045    0.791042    0.000132   -0.000464    0.000186
   26.280416    0.790643    0.790642    0.790640    0.000140   -0.000485    0.000196
   26.827924    0.850402    0.850401    0.850401    0.000137   -0.000475    0.000192
   27.375433    0.750840    0.750840    0.750839    0.000171   -0.000589    0.000238
   27.922942    0.790437    0.790436    0.790436    0.000303   -0.001040    0.000423
   28.470450    0.851949    0.851949    0.851949    0.000134   -0.000463    0.000187
   29.017959    0.833499    0.833499    0.833498    0.000119   -0.000416    0.000168
   29.565468    0.852633    0.852613    0.852592    0.000092   -0.000384    0.000148
   30.112976    0.875533    0.875560    0.875592    0.000158   -0.000436    0.000187
   30.660485    0.871439    0.871435    0.871434    0.000101   -0.000356    0.000143
   31.207994    0.844474    0.844462    0.844456    0.000088   -0.000330    0.000129
   31.755502    0.823708    0.823696    0.823691    0.000082   -0.000308    0.000120
   32.303011    0.868660    0.868656    0.868657    0.000096   -0.000335    0.000135
   32.850520    0.854329    0.854272    0.854203    0.000025   -0.000304    0.000101
   33.398028    0.836847    0.836851    0.836855    0.000092   -0.000307    0.000125
   33.945537    0.915916    0.915917    0.915918    0.000084   -0.000288    0.000116
   34.493046    0.794779    0.794780    0.794781    0.000028   -0.000105    0.000038
   35.040554    0.900042    0.899977    0.899961    0.000024   -0.000222    0.000067
   35.588063    0.799178    0.799178    0.799177    0.000073   -0.000254    0.000102
   36.135571    0.827162    0.827162    0.827162    0.000077   -0.000267    0.000108
   36.683080    0.843724    0.843724    0.843724    0.000079   -0.000272    0.000110
   37.230589    0.801519    0.801520    0.801520    0.000069   -0.000241    0.000097
   37.778097    0.830663    0.830664    0.830664    0.000072   -0.000249    0.000101
   38.325606    0.806107    0.806109    0.806108    0.000067   -0.000230    0.000093
   38.873115    0.840061    0.840032    0.840037    0.000097   -0.000366    0.000150
   39.420623    0.841691    0.841692    0.841692    0.000066   -0.000229    0.000093
   39.968132    0.853456    0.853456    0.853457    0.000063   -0.000216    0.000088
   40.515641    0.871430    0.871430    0.871430    0.000061   -0.000211    0.000085
   41.063149    0.870212    0.870211    0.870211    0.000057   -0.000200    0.000081
   41.610658    0.891829    0.891828    0.891828    0.000056   -0.000194    0.000078
   42.158167    0.870337    0.870337    0.870337    0.000053   -0.000183    0.000074
   42.705675    0.873053    0.873053    0.873054    0.000054   -0.000186    0.000076
   43.253184    0.912761    0.912760    0.912760    0.000054   -0.000186    0.000075
   43.800693    0.867884    0.867885    0.867886    0.000058   -0.000196    0.000080
   44.348201    0.888293    0.888290    0.888290    0.000060   -0.000216    0.000086
   44.895710    0.866572    0.866571    0.866572    0.000049   -0.000168    0.000068
   45.443219    0.885038    0.885037    0.885038    0.000060   -0.000197    0.000077
   45.990727    0.883432    0.883432    0.883432    0.000047   -0.000162    0.000065
   46.538236    0.890625    0.890625    0.890625    0.000046   -0.000159    0.000064
   47.085745    0.895740    0.895740    0.895740    0.000045   -0.000155    0.000063
   47.633253    0.899968    0.899968    0.899968    0.000044   -0.000152    0.000061
   48.180762    0.903655    0.903655    0.903655    0.000043   -0.000148    0.000060
   48.728271    0.906961    0.906961    0.906961    0.000042   -0.000145    0.000059
   49.275779    0.909976    0.909976    0.909976    0.000041   -0.000142    0.000057
   49.823288    0.912758    0.912758    0.912758    0.000040   -0.000139    0.000056
   50.370797    0.915347    0.915347    0.915347    0.000039   -0.000136    0.000055
   50.918305    0.917771    0.917771    0.917771    0.000039   -0.000133    0.000054
   51.465814    0.920052    0.920052    0.920052    0.000038   -0.000130    0.000053
   52.013323    0.922206    0.922206    0.922206    0.000037   -0.000127    0.000052
   52.560831    0.924248    0.924248    0.924248    0.000036   -0.000125    0.000050
   53.108340    0.926189    0.926189    0.926189    0.000035   -0.000122    0.000049
   53.655849    0.928037    0.928037    0.928037    0.000035   -0.000120    0.000048
   54.203357    0.929801    0.929801    0.929801    0.000034   -0.000117    0.000047
 
 The outermost node in the dielectric function lies at epsilon=  12.7


--------------------------------------------------------------------------------------------------------


    OPTICS:  cpu time    0.3626: real time    0.3716
    4ORBIT:  cpu time    0.0000: real time    0.0000

 Spin-Orbit-Coupling matrix elements

 Ion:    1  E_soc:    -33.0180586
 l=   1
     0.0000000    -5.0847675    -5.0847674
    -5.0847675     0.0000000    -5.0847675
    -5.0847674    -5.0847675     0.0000000
 l=   2
     0.0000000    -0.0836554     0.0000000    -0.0836554    -0.3345753
    -0.0836554     0.0000000    -0.2509315    -0.0836670    -0.0836554
     0.0000000    -0.2509315     0.0000000    -0.2509315     0.0000000
    -0.0836554    -0.0836670    -0.2509315     0.0000000    -0.0836554
    -0.3345753    -0.0836554     0.0000000    -0.0836554     0.0000000
 l=   3
     0.0000000     0.0000000     0.0000000     0.0000000     0.0000000     0.0000000     0.0000000
     0.0000000     0.0000000     0.0000000     0.0000000     0.0000000     0.0000000     0.0000000
     0.0000000     0.0000000     0.0000000     0.0000000     0.0000000     0.0000000     0.0000000
     0.0000000     0.0000000     0.0000000     0.0000000     0.0000000     0.0000000     0.0000000
     0.0000000     0.0000000     0.0000000     0.0000000     0.0000000     0.0000000     0.0000000
     0.0000000     0.0000000     0.0000000     0.0000000     0.0000000     0.0000000     0.0000000
     0.0000000     0.0000000     0.0000000     0.0000000     0.0000000     0.0000000     0.0000000

 total amount of memory used by VASP MPI-rank0    52834. kBytes
=======================================================================

   base      :      30000. kBytes
   nonl-proj :       3423. kBytes
   fftplans  :       3752. kBytes
   grid      :       3211. kBytes
   one-center:         62. kBytes
   wavefun   :      12386. kBytes
 
  
  
 General timing and accounting informations for this job:
 ========================================================
  
                  Total CPU time used (sec):       11.146
                            User time (sec):        9.390
                          System time (sec):        1.756
                         Elapsed time (sec):       11.246
  
                   Maximum memory used (kb):      173768.
                   Average memory used (kb):           0.
  
                          Minor page faults:        94837
                          Major page faults:            0
                 Voluntary context switches:         3707
