    1    1    1    1
  0.1628488E+02  0.2845115E-09  0.2845115E-09  0.2845115E-09  0.1000000E-15
  1.000000000000000E-004
  CAR 
 Og_FCC                                  
      2    216     12
 
  0.0000000E+00  0.0000000E+00  0.0000000E+00  0.4629630E-02
    1      -15.809071   1.000000
    2      -15.809062   1.000000
    3        3.750105   0.000000
    4        3.750208   0.000000
    5       20.703537   0.000000
    6       20.703542   0.000000
    7       20.704156   0.000000
    8       20.704163   0.000000
    9       20.704164   0.000000
   10       20.704165   0.000000
   11       24.011088   0.000000
   12       24.011091   0.000000
 
  0.1666667E+00 -0.1387779E-16  0.1387779E-16  0.4629630E-02
    1      -15.589673   1.000000
    2      -15.589666   1.000000
    3        3.575342   0.000000
    4        3.575444   0.000000
    5       16.133080   0.000000
    6       16.133103   0.000000
    7       19.550934   0.000000
    8       19.550938   0.000000
    9       19.551249   0.000000
   10       19.551252   0.000000
   11       24.281493   0.000000
   12       24.281541   0.000000
 
  0.3333333E+00 -0.5551115E-16  0.4163336E-16  0.4629630E-02
    1      -15.118898   1.000000
    2      -15.118894   1.000000
    3        3.255158   0.000000
    4        3.255258   0.000000
    5       11.719190   0.000000
    6       11.719222   0.000000
    7       18.666145   0.000000
    8       18.666148   0.000000
    9       18.666461   0.000000
   10       18.666463   0.000000
   11       23.347072   0.000000
   12       23.347084   0.000000
 
  0.5000000E+00 -0.5551115E-16  0.0000000E+00  0.4629630E-02
    1      -14.850160   1.000000
    2      -14.850156   1.000000
    3        3.107359   0.000000
    4        3.107456   0.000000
    5       10.119261   0.000000
    6       10.119294   0.000000
    7       18.530629   0.000000
    8       18.530631   0.000000
    9       18.530981   0.000000
   10       18.530984   0.000000
   11       22.034750   0.000000
   12       22.035925   0.000000
 
 -0.3333333E+00  0.5551115E-16 -0.4163336E-16  0.4629630E-02
    1      -15.118898   1.000000
    2      -15.118894   1.000000
    3        3.255158   0.000000
    4        3.255258   0.000000
    5       11.719190   0.000000
    6       11.719222   0.000000
    7       18.666146   0.000000
    8       18.666148   0.000000
    9       18.666460   0.000000
   10       18.666463   0.000000
   11       23.347072   0.000000
   12       23.347084   0.000000
 
 -0.1666667E+00  0.1387779E-16 -0.1387779E-16  0.4629630E-02
    1      -15.589673   1.000000
    2      -15.589666   1.000000
    3        3.575342   0.000000
    4        3.575444   0.000000
    5       16.133080   0.000000
    6       16.133103   0.000000
    7       19.550934   0.000000
    8       19.550938   0.000000
    9       19.551249   0.000000
   10       19.551252   0.000000
   11       24.281493   0.000000
   12       24.281541   0.000000
 
  0.0000000E+00  0.1666667E+00 -0.6938894E-17  0.4629630E-02
    1      -15.589673   1.000000
    2      -15.589666   1.000000
    3        3.575342   0.000000
    4        3.575444   0.000000
    5       16.133080   0.000000
    6       16.133103   0.000000
    7       19.550934   0.000000
    8       19.550937   0.000000
    9       19.551248   0.000000
   10       19.551253   0.000000
   11       24.281493   0.000000
   12       24.281541   0.000000
 
  0.1666667E+00  0.1666667E+00  0.1387779E-16  0.4629630E-02
    1      -15.521753   1.000000
    2      -15.521746   1.000000
    3        3.590245   0.000000
    4        3.590345   0.000000
    5       17.132795   0.000000
    6       17.132802   0.000000
    7       17.133044   0.000000
    8       17.133051   0.000000
    9       19.440460   0.000000
   10       19.440502   0.000000
   11       21.491525   0.000000
   12       21.491589   0.000000
 
  0.3333333E+00  0.1666667E+00  0.2775558E-16  0.4629630E-02
    1      -15.142580   1.000000
    2      -15.142575   1.000000
    3        3.554274   0.000000
    4        3.554368   0.000000
    5       12.550163   0.000000
    6       12.550192   0.000000
    7       15.906748   0.000000
    8       15.906760   0.000000
    9       17.895101   0.000000
   10       17.895218   0.000000
   11       21.220989   0.000000
   12       21.221017   0.000000
 
  0.5000000E+00  0.1666667E+00  0.0000000E+00  0.4629630E-02
    1      -14.810111   1.000000
    2      -14.810107   1.000000
    3        3.746898   0.000000
    4        3.746992   0.000000
    5        9.360485   0.000000
    6        9.360517   0.000000
    7       16.014524   0.000000
    8       16.014625   0.000000
    9       16.110241   0.000000
   10       16.110253   0.000000
   11       21.508924   0.000000
   12       21.509011   0.000000
 
 -0.3333333E+00  0.1666667E+00 -0.4163336E-16  0.4629630E-02
    1      -14.891628   1.000000
    2      -14.891624   1.000000
    3        3.673072   0.000000
    4        3.673169   0.000000
    5        9.716609   0.000000
    6        9.716637   0.000000
    7       15.741798   0.000000
    8       15.741868   0.000000
    9       17.700662   0.000000
   10       17.700671   0.000000
   11       21.852679   0.000000
   12       21.852833   0.000000
 
 -0.1666667E+00  0.1666667E+00 -0.8680612E-17  0.4629630E-02
    1      -15.297978   1.000000
    2      -15.297972   1.000000
    3        3.483483   0.000000
    4        3.483581   0.000000
    5       13.077495   0.000000
    6       13.077519   0.000000
    7       16.753751   0.000000
    8       16.753785   0.000000
    9       20.160647   0.000000
   10       20.160652   0.000000
   11       23.602581   0.000000
   12       23.602798   0.000000
 
  0.0000000E+00  0.3333333E+00  0.0000000E+00  0.4629630E-02
    1      -15.118898   1.000000
    2      -15.118894   1.000000
    3        3.255158   0.000000
    4        3.255258   0.000000
    5       11.719190   0.000000
    6       11.719222   0.000000
    7       18.666145   0.000000
    8       18.666148   0.000000
    9       18.666460   0.000000
   10       18.666464   0.000000
   11       23.347071   0.000000
   12       23.347084   0.000000
 
  0.1666667E+00  0.3333333E+00  0.0000000E+00  0.4629630E-02
    1      -15.142580   1.000000
    2      -15.142575   1.000000
    3        3.554274   0.000000
    4        3.554368   0.000000
    5       12.550163   0.000000
    6       12.550192   0.000000
    7       15.906748   0.000000
    8       15.906760   0.000000
    9       17.895101   0.000000
   10       17.895218   0.000000
   11       21.220989   0.000000
   12       21.221017   0.000000
 
  0.3333333E+00  0.3333333E+00  0.5551115E-16  0.4629630E-02
    1      -14.929610   1.000000
    2      -14.929605   1.000000
    3        3.950092   0.000000
    4        3.950169   0.000000
    5       13.827221   0.000000
    6       13.827386   0.000000
    7       14.196747   0.000000
    8       14.196756   0.000000
    9       14.196963   0.000000
   10       14.196972   0.000000
   11       16.358800   0.000000
   12       16.358842   0.000000
 
  0.5000000E+00  0.3333333E+00  0.5551115E-16  0.4629630E-02
    1      -14.691839   1.000000
    2      -14.691835   1.000000
    3        4.810112   0.000000
    4        4.810172   0.000000
    5        9.211363   0.000000
    6        9.211450   0.000000
    7       12.941469   0.000000
    8       12.941578   0.000000
    9       13.943315   0.000000
   10       13.943328   0.000000
   11       19.804204   0.000000
   12       19.804237   0.000000
 
 -0.3333333E+00  0.3333333E+00 -0.1736122E-16  0.4629630E-02
    1      -14.656808   1.000000
    2      -14.656805   1.000000
    3        5.427665   0.000000
    4        5.427766   0.000000
    5        7.017245   0.000000
    6        7.017271   0.000000
    7       13.405118   0.000000
    8       13.405231   0.000000
    9       15.163513   0.000000
   10       15.163526   0.000000
   11       23.140614   0.000000
   12       23.140699   0.000000
 
 -0.1666667E+00  0.3333333E+00  0.2081668E-16  0.4629630E-02
    1      -14.891628   1.000000
    2      -14.891624   1.000000
    3        3.673072   0.000000
    4        3.673169   0.000000
    5        9.716609   0.000000
    6        9.716637   0.000000
    7       15.741798   0.000000
    8       15.741868   0.000000
    9       17.700662   0.000000
   10       17.700671   0.000000
   11       21.852679   0.000000
   12       21.852833   0.000000
 
  0.0000000E+00  0.5000000E+00  0.0000000E+00  0.4629630E-02
    1      -14.850160   1.000000
    2      -14.850156   1.000000
    3        3.107359   0.000000
    4        3.107456   0.000000
    5       10.119261   0.000000
    6       10.119294   0.000000
    7       18.530629   0.000000
    8       18.530631   0.000000
    9       18.530982   0.000000
   10       18.530983   0.000000
   11       22.034585   0.000000
   12       22.035086   0.000000
 
  0.1666667E+00  0.5000000E+00  0.2775558E-16  0.4629630E-02
    1      -14.810111   1.000000
    2      -14.810107   1.000000
    3        3.746898   0.000000
    4        3.746992   0.000000
    5        9.360485   0.000000
    6        9.360517   0.000000
    7       16.014524   0.000000
    8       16.014625   0.000000
    9       16.110241   0.000000
   10       16.110253   0.000000
   11       21.508924   0.000000
   12       21.509011   0.000000
 
  0.3333333E+00  0.5000000E+00  0.1110223E-15  0.4629630E-02
    1      -14.691839   1.000000
    2      -14.691835   1.000000
    3        4.810112   0.000000
    4        4.810172   0.000000
    5        9.211363   0.000000
    6        9.211450   0.000000
    7       12.941469   0.000000
    8       12.941578   0.000000
    9       13.943315   0.000000
   10       13.943328   0.000000
   11       19.804204   0.000000
   12       19.804237   0.000000
 
  0.5000000E+00  0.5000000E+00  0.5551115E-16  0.4629630E-02
    1      -14.609831   1.000000
    2      -14.609827   1.000000
    3        4.977990   0.000000
    4        4.978017   0.000000
    5       10.057339   0.000000
    6       10.057559   0.000000
    7       13.201136   0.000000
    8       13.201146   0.000000
    9       13.201343   0.000000
   10       13.201352   0.000000
   11       15.329610   0.000000
   12       15.329652   0.000000
 
 -0.3333333E+00  0.5000000E+00 -0.3469447E-16  0.4629630E-02
    1      -14.691839   1.000000
    2      -14.691835   1.000000
    3        4.810112   0.000000
    4        4.810172   0.000000
    5        9.211363   0.000000
    6        9.211450   0.000000
    7       12.941469   0.000000
    8       12.941578   0.000000
    9       13.943315   0.000000
   10       13.943328   0.000000
   11       19.804204   0.000000
   12       19.804237   0.000000
 
 -0.1666667E+00  0.5000000E+00 -0.1387779E-16  0.4629630E-02
    1      -14.810111   1.000000
    2      -14.810107   1.000000
    3        3.746898   0.000000
    4        3.746992   0.000000
    5        9.360485   0.000000
    6        9.360517   0.000000
    7       16.014524   0.000000
    8       16.014625   0.000000
    9       16.110241   0.000000
   10       16.110253   0.000000
   11       21.508924   0.000000
   12       21.509011   0.000000
 
  0.0000000E+00 -0.3333333E+00  0.0000000E+00  0.4629630E-02
    1      -15.118898   1.000000
    2      -15.118894   1.000000
    3        3.255158   0.000000
    4        3.255258   0.000000
    5       11.719190   0.000000
    6       11.719222   0.000000
    7       18.666146   0.000000
    8       18.666149   0.000000
    9       18.666460   0.000000
   10       18.666464   0.000000
   11       23.347071   0.000000
   12       23.347084   0.000000
 
  0.1666667E+00 -0.3333333E+00 -0.2081668E-16  0.4629630E-02
    1      -14.891628   1.000000
    2      -14.891624   1.000000
    3        3.673072   0.000000
    4        3.673169   0.000000
    5        9.716609   0.000000
    6        9.716637   0.000000
    7       15.741798   0.000000
    8       15.741868   0.000000
    9       17.700662   0.000000
   10       17.700671   0.000000
   11       21.852679   0.000000
   12       21.852833   0.000000
 
  0.3333333E+00 -0.3333333E+00  0.1736122E-16  0.4629630E-02
    1      -14.656808   1.000000
    2      -14.656805   1.000000
    3        5.427665   0.000000
    4        5.427766   0.000000
    5        7.017245   0.000000
    6        7.017271   0.000000
    7       13.405118   0.000000
    8       13.405231   0.000000
    9       15.163513   0.000000
   10       15.163526   0.000000
   11       23.140614   0.000000
   12       23.140699   0.000000
 
  0.5000000E+00 -0.3333333E+00 -0.6938894E-17  0.4629630E-02
    1      -14.691839   1.000000
    2      -14.691835   1.000000
    3        4.810112   0.000000
    4        4.810172   0.000000
    5        9.211363   0.000000
    6        9.211450   0.000000
    7       12.941469   0.000000
    8       12.941578   0.000000
    9       13.943315   0.000000
   10       13.943328   0.000000
   11       19.804204   0.000000
   12       19.804237   0.000000
 
 -0.3333333E+00 -0.3333333E+00 -0.5551115E-16  0.4629630E-02
    1      -14.929610   1.000000
    2      -14.929605   1.000000
    3        3.950092   0.000000
    4        3.950169   0.000000
    5       13.827221   0.000000
    6       13.827386   0.000000
    7       14.196747   0.000000
    8       14.196756   0.000000
    9       14.196963   0.000000
   10       14.196972   0.000000
   11       16.358800   0.000000
   12       16.358842   0.000000
 
 -0.1666667E+00 -0.3333333E+00  0.0000000E+00  0.4629630E-02
    1      -15.142580   1.000000
    2      -15.142575   1.000000
    3        3.554274   0.000000
    4        3.554368   0.000000
    5       12.550163   0.000000
    6       12.550192   0.000000
    7       15.906748   0.000000
    8       15.906760   0.000000
    9       17.895101   0.000000
   10       17.895218   0.000000
   11       21.220989   0.000000
   12       21.221017   0.000000
 
  0.0000000E+00 -0.1666667E+00  0.6938894E-17  0.4629630E-02
    1      -15.589673   1.000000
    2      -15.589666   1.000000
    3        3.575342   0.000000
    4        3.575444   0.000000
    5       16.133080   0.000000
    6       16.133103   0.000000
    7       19.550934   0.000000
    8       19.550938   0.000000
    9       19.551248   0.000000
   10       19.551252   0.000000
   11       24.281493   0.000000
   12       24.281541   0.000000
 
  0.1666667E+00 -0.1666667E+00  0.1363969E-16  0.4629630E-02
    1      -15.297978   1.000000
    2      -15.297972   1.000000
    3        3.483483   0.000000
    4        3.483581   0.000000
    5       13.077495   0.000000
    6       13.077519   0.000000
    7       16.753751   0.000000
    8       16.753785   0.000000
    9       20.160647   0.000000
   10       20.160652   0.000000
   11       23.602581   0.000000
   12       23.602798   0.000000
 
  0.3333333E+00 -0.1666667E+00  0.4163336E-16  0.4629630E-02
    1      -14.891628   1.000000
    2      -14.891624   1.000000
    3        3.673072   0.000000
    4        3.673169   0.000000
    5        9.716609   0.000000
    6        9.716637   0.000000
    7       15.741798   0.000000
    8       15.741868   0.000000
    9       17.700662   0.000000
   10       17.700671   0.000000
   11       21.852679   0.000000
   12       21.852833   0.000000
 
  0.5000000E+00 -0.1666667E+00  0.0000000E+00  0.4629630E-02
    1      -14.810111   1.000000
    2      -14.810107   1.000000
    3        3.746898   0.000000
    4        3.746992   0.000000
    5        9.360485   0.000000
    6        9.360517   0.000000
    7       16.014524   0.000000
    8       16.014625   0.000000
    9       16.110241   0.000000
   10       16.110253   0.000000
   11       21.508924   0.000000
   12       21.509011   0.000000
 
 -0.3333333E+00 -0.1666667E+00 -0.2775558E-16  0.4629630E-02
    1      -15.142580   1.000000
    2      -15.142575   1.000000
    3        3.554274   0.000000
    4        3.554368   0.000000
    5       12.550163   0.000000
    6       12.550192   0.000000
    7       15.906748   0.000000
    8       15.906760   0.000000
    9       17.895101   0.000000
   10       17.895218   0.000000
   11       21.220989   0.000000
   12       21.221017   0.000000
 
 -0.1666667E+00 -0.1666667E+00 -0.1387779E-16  0.4629630E-02
    1      -15.521753   1.000000
    2      -15.521746   1.000000
    3        3.590245   0.000000
    4        3.590345   0.000000
    5       17.132795   0.000000
    6       17.132802   0.000000
    7       17.133044   0.000000
    8       17.133051   0.000000
    9       19.440460   0.000000
   10       19.440502   0.000000
   11       21.491525   0.000000
   12       21.491589   0.000000
 
  0.0000000E+00  0.0000000E+00  0.1666667E+00  0.4629630E-02
    1      -15.589673   1.000000
    2      -15.589666   1.000000
    3        3.575342   0.000000
    4        3.575444   0.000000
    5       16.133080   0.000000
    6       16.133103   0.000000
    7       19.550934   0.000000
    8       19.550938   0.000000
    9       19.551248   0.000000
   10       19.551253   0.000000
   11       24.281493   0.000000
   12       24.281541   0.000000
 
  0.1666667E+00 -0.1387779E-16  0.1666667E+00  0.4629630E-02
    1      -15.521753   1.000000
    2      -15.521746   1.000000
    3        3.590245   0.000000
    4        3.590345   0.000000
    5       17.132797   0.000000
    6       17.132801   0.000000
    7       17.133046   0.000000
    8       17.133049   0.000000
    9       19.440460   0.000000
   10       19.440502   0.000000
   11       21.491525   0.000000
   12       21.491589   0.000000
 
  0.3333333E+00 -0.5551115E-16  0.1666667E+00  0.4629630E-02
    1      -15.142580   1.000000
    2      -15.142575   1.000000
    3        3.554274   0.000000
    4        3.554368   0.000000
    5       12.550163   0.000000
    6       12.550192   0.000000
    7       15.906748   0.000000
    8       15.906760   0.000000
    9       17.895100   0.000000
   10       17.895218   0.000000
   11       21.220989   0.000000
   12       21.221017   0.000000
 
  0.5000000E+00 -0.5551115E-16  0.1666667E+00  0.4629630E-02
    1      -14.810111   1.000000
    2      -14.810107   1.000000
    3        3.746898   0.000000
    4        3.746992   0.000000
    5        9.360485   0.000000
    6        9.360517   0.000000
    7       16.014524   0.000000
    8       16.014625   0.000000
    9       16.110241   0.000000
   10       16.110253   0.000000
   11       21.508925   0.000000
   12       21.509011   0.000000
 
 -0.3333333E+00  0.5551115E-16  0.1666667E+00  0.4629630E-02
    1      -14.891628   1.000000
    2      -14.891624   1.000000
    3        3.673072   0.000000
    4        3.673169   0.000000
    5        9.716609   0.000000
    6        9.716637   0.000000
    7       15.741798   0.000000
    8       15.741868   0.000000
    9       17.700662   0.000000
   10       17.700671   0.000000
   11       21.852679   0.000000
   12       21.852833   0.000000
 
 -0.1666667E+00  0.1387779E-16  0.1666667E+00  0.4629630E-02
    1      -15.297978   1.000000
    2      -15.297972   1.000000
    3        3.483483   0.000000
    4        3.483581   0.000000
    5       13.077495   0.000000
    6       13.077519   0.000000
    7       16.753751   0.000000
    8       16.753785   0.000000
    9       20.160647   0.000000
   10       20.160652   0.000000
   11       23.602581   0.000000
   12       23.602798   0.000000
 
  0.0000000E+00  0.1666667E+00  0.1666667E+00  0.4629630E-02
    1      -15.521753   1.000000
    2      -15.521746   1.000000
    3        3.590245   0.000000
    4        3.590345   0.000000
    5       17.132795   0.000000
    6       17.132803   0.000000
    7       17.133043   0.000000
    8       17.133052   0.000000
    9       19.440460   0.000000
   10       19.440502   0.000000
   11       21.491525   0.000000
   12       21.491589   0.000000
 
  0.1666667E+00  0.1666667E+00  0.1666667E+00  0.4629630E-02
    1      -15.589672   1.000000
    2      -15.589665   1.000000
    3        3.575344   0.000000
    4        3.575445   0.000000
    5       16.133075   0.000000
    6       16.133102   0.000000
    7       19.550937   0.000000
    8       19.550941   0.000000
    9       19.551252   0.000000
   10       19.551255   0.000000
   11       24.281487   0.000000
   12       24.281533   0.000000
 
  0.3333333E+00  0.1666667E+00  0.1666667E+00  0.4629630E-02
    1      -15.297978   1.000000
    2      -15.297972   1.000000
    3        3.483485   0.000000
    4        3.483581   0.000000
    5       13.077495   0.000000
    6       13.077519   0.000000
    7       16.753744   0.000000
    8       16.753785   0.000000
    9       20.160653   0.000000
   10       20.160656   0.000000
   11       23.602578   0.000000
   12       23.602794   0.000000
 
  0.5000000E+00  0.1666667E+00  0.1666667E+00  0.4629630E-02
    1      -14.891628   1.000000
    2      -14.891623   1.000000
    3        3.673073   0.000000
    4        3.673168   0.000000
    5        9.716610   0.000000
    6        9.716637   0.000000
    7       15.741788   0.000000
    8       15.741866   0.000000
    9       17.700667   0.000000
   10       17.700675   0.000000
   11       21.852679   0.000000
   12       21.852827   0.000000
 
 -0.3333333E+00  0.1666667E+00  0.1666667E+00  0.4629630E-02
    1      -14.810111   1.000000
    2      -14.810107   1.000000
    3        3.746898   0.000000
    4        3.746993   0.000000
    5        9.360486   0.000000
    6        9.360516   0.000000
    7       16.014515   0.000000
    8       16.014624   0.000000
    9       16.110246   0.000000
   10       16.110257   0.000000
   11       21.508925   0.000000
   12       21.509005   0.000000
 
 -0.1666667E+00  0.1666667E+00  0.1666667E+00  0.4629630E-02
    1      -15.142580   1.000000
    2      -15.142575   1.000000
    3        3.554274   0.000000
    4        3.554368   0.000000
    5       12.550162   0.000000
    6       12.550190   0.000000
    7       15.906753   0.000000
    8       15.906765   0.000000
    9       17.895094   0.000000
   10       17.895217   0.000000
   11       21.220992   0.000000
   12       21.221013   0.000000
 
  0.0000000E+00  0.3333333E+00  0.1666667E+00  0.4629630E-02
    1      -15.142580   1.000000
    2      -15.142575   1.000000
    3        3.554274   0.000000
    4        3.554368   0.000000
    5       12.550163   0.000000
    6       12.550192   0.000000
    7       15.906748   0.000000
    8       15.906761   0.000000
    9       17.895100   0.000000
   10       17.895218   0.000000
   11       21.220989   0.000000
   12       21.221017   0.000000
 
  0.1666667E+00  0.3333333E+00  0.1666667E+00  0.4629630E-02
    1      -15.297978   1.000000
    2      -15.297972   1.000000
    3        3.483485   0.000000
    4        3.483581   0.000000
    5       13.077495   0.000000
    6       13.077519   0.000000
    7       16.753744   0.000000
    8       16.753785   0.000000
    9       20.160654   0.000000
   10       20.160655   0.000000
   11       23.602578   0.000000
   12       23.602794   0.000000
 
  0.3333333E+00  0.3333333E+00  0.1666667E+00  0.4629630E-02
    1      -15.142580   1.000000
    2      -15.142575   1.000000
    3        3.554275   0.000000
    4        3.554368   0.000000
    5       12.550158   0.000000
    6       12.550190   0.000000
    7       15.906753   0.000000
    8       15.906765   0.000000
    9       17.895096   0.000000
   10       17.895218   0.000000
   11       21.220990   0.000000
   12       21.221015   0.000000
 
  0.5000000E+00  0.3333333E+00  0.1666667E+00  0.4629630E-02
    1      -14.838503   1.000000
    2      -14.838499   1.000000
    3        4.154590   0.000000
    4        4.154676   0.000000
    5       10.054002   0.000000
    6       10.054027   0.000000
    7       12.537202   0.000000
    8       12.537297   0.000000
    9       17.738909   0.000000
   10       17.738953   0.000000
   11       22.520078   0.000000
   12       22.520107   0.000000
 
 -0.3333333E+00  0.3333333E+00  0.1666667E+00  0.4629630E-02
    1      -14.674010   1.000000
    2      -14.674006   1.000000
    3        5.133870   0.000000
    4        5.133960   0.000000
    5        7.889550   0.000000
    6        7.889575   0.000000
    7       11.278959   0.000000
    8       11.279058   0.000000
    9       17.899029   0.000000
   10       17.899050   0.000000
   11       22.026832   0.000000
   12       22.026957   0.000000
 
 -0.1666667E+00  0.3333333E+00  0.1666667E+00  0.4629630E-02
    1      -14.838503   1.000000
    2      -14.838499   1.000000
    3        4.154589   0.000000
    4        4.154676   0.000000
    5       10.054002   0.000000
    6       10.054027   0.000000
    7       12.537206   0.000000
    8       12.537296   0.000000
    9       17.738909   0.000000
   10       17.738953   0.000000
   11       22.520078   0.000000
   12       22.520108   0.000000
 
  0.0000000E+00  0.5000000E+00  0.1666667E+00  0.4629630E-02
    1      -14.810111   1.000000
    2      -14.810107   1.000000
    3        3.746898   0.000000
    4        3.746992   0.000000
    5        9.360485   0.000000
    6        9.360517   0.000000
    7       16.014524   0.000000
    8       16.014625   0.000000
    9       16.110241   0.000000
   10       16.110253   0.000000
   11       21.508925   0.000000
   12       21.509011   0.000000
 
  0.1666667E+00  0.5000000E+00  0.1666667E+00  0.4629630E-02
    1      -14.891628   1.000000
    2      -14.891623   1.000000
    3        3.673073   0.000000
    4        3.673168   0.000000
    5        9.716610   0.000000
    6        9.716637   0.000000
    7       15.741788   0.000000
    8       15.741866   0.000000
    9       17.700667   0.000000
   10       17.700675   0.000000
   11       21.852679   0.000000
   12       21.852827   0.000000
 
  0.3333333E+00  0.5000000E+00  0.1666667E+00  0.4629630E-02
    1      -14.838503   1.000000
    2      -14.838499   1.000000
    3        4.154590   0.000000
    4        4.154676   0.000000
    5       10.054002   0.000000
    6       10.054027   0.000000
    7       12.537202   0.000000
    8       12.537297   0.000000
    9       17.738909   0.000000
   10       17.738953   0.000000
   11       22.520078   0.000000
   12       22.520107   0.000000
 
  0.5000000E+00  0.5000000E+00  0.1666667E+00  0.4629630E-02
    1      -14.691839   1.000000
    2      -14.691835   1.000000
    3        4.810113   0.000000
    4        4.810171   0.000000
    5        9.211363   0.000000
    6        9.211450   0.000000
    7       12.941460   0.000000
    8       12.941576   0.000000
    9       13.943320   0.000000
   10       13.943333   0.000000
   11       19.804205   0.000000
   12       19.804235   0.000000
 
 -0.3333333E+00  0.5000000E+00  0.1666667E+00  0.4629630E-02
    1      -14.624340   1.000000
    2      -14.624336   1.000000
    3        5.997040   0.000000
    4        5.997067   0.000000
    5        8.476709   0.000000
    6        8.476877   0.000000
    7        9.037844   0.000000
    8        9.037870   0.000000
    9       16.734029   0.000000
   10       16.734072   0.000000
   11       21.523607   0.000000
   12       21.523637   0.000000
 
 -0.1666667E+00  0.5000000E+00  0.1666667E+00  0.4629630E-02
    1      -14.674010   1.000000
    2      -14.674006   1.000000
    3        5.133870   0.000000
    4        5.133960   0.000000
    5        7.889547   0.000000
    6        7.889576   0.000000
    7       11.278963   0.000000
    8       11.279056   0.000000
    9       17.899030   0.000000
   10       17.899050   0.000000
   11       22.026829   0.000000
   12       22.026958   0.000000
 
  0.0000000E+00 -0.3333333E+00  0.1666667E+00  0.4629630E-02
    1      -14.891628   1.000000
    2      -14.891624   1.000000
    3        3.673072   0.000000
    4        3.673169   0.000000
    5        9.716609   0.000000
    6        9.716637   0.000000
    7       15.741798   0.000000
    8       15.741868   0.000000
    9       17.700662   0.000000
   10       17.700671   0.000000
   11       21.852679   0.000000
   12       21.852833   0.000000
 
  0.1666667E+00 -0.3333333E+00  0.1666667E+00  0.4629630E-02
    1      -14.810111   1.000000
    2      -14.810107   1.000000
    3        3.746898   0.000000
    4        3.746993   0.000000
    5        9.360486   0.000000
    6        9.360516   0.000000
    7       16.014515   0.000000
    8       16.014624   0.000000
    9       16.110246   0.000000
   10       16.110257   0.000000
   11       21.508925   0.000000
   12       21.509005   0.000000
 
  0.3333333E+00 -0.3333333E+00  0.1666667E+00  0.4629630E-02
    1      -14.674010   1.000000
    2      -14.674006   1.000000
    3        5.133870   0.000000
    4        5.133960   0.000000
    5        7.889550   0.000000
    6        7.889575   0.000000
    7       11.278959   0.000000
    8       11.279058   0.000000
    9       17.899029   0.000000
   10       17.899050   0.000000
   11       22.026832   0.000000
   12       22.026957   0.000000
 
  0.5000000E+00 -0.3333333E+00  0.1666667E+00  0.4629630E-02
    1      -14.624340   1.000000
    2      -14.624336   1.000000
    3        5.997040   0.000000
    4        5.997067   0.000000
    5        8.476709   0.000000
    6        8.476877   0.000000
    7        9.037844   0.000000
    8        9.037870   0.000000
    9       16.734029   0.000000
   10       16.734072   0.000000
   11       21.523607   0.000000
   12       21.523637   0.000000
 
 -0.3333333E+00 -0.3333333E+00  0.1666667E+00  0.4629630E-02
    1      -14.691839   1.000000
    2      -14.691835   1.000000
    3        4.810111   0.000000
    4        4.810172   0.000000
    5        9.211367   0.000000
    6        9.211449   0.000000
    7       12.941459   0.000000
    8       12.941577   0.000000
    9       13.943320   0.000000
   10       13.943332   0.000000
   11       19.804206   0.000000