Og_FCC                                  
           1
     2.845115    0.000000    0.000000
     1.422558    2.463942    0.000000
     1.422558    0.821314    2.323027
   He
   1
Direct configuration=     1
   0.00000000  0.00000000  0.00000000
