Rn_FCC                                  
   1.00000000000000     
     4.520565    0.000000    0.000000
     2.260282    3.914924   -0.000000
     2.260282    1.304975    3.691026
   Rn
     1
Direct
  0.000000  0.000000  0.000000
 
   56   56   56
  890.76      871.40      816.12      732.46      630.66      521.34      413.87      315.48      231.31      164.29    
  115.18      82.251      61.644      47.895      36.927      28.208      21.489      16.371      12.467      9.4964    
  7.2301      5.5165      4.2248      3.2704      2.5730      2.0860      1.7613      1.5797      1.5183      1.5797    
  1.7613      2.0860      2.5730      3.2704      4.2248      5.5165      7.2301      9.4964      12.467      16.371    
  21.489      28.208      36.927      47.895      61.644      82.251      115.18      164.29      231.31      315.48    
  413.87      521.34      630.66      732.46      816.12      871.40      871.40      834.10      764.73      672.28    
  567.24      459.58      357.52      267.20      192.62      135.63      95.738      70.065      53.861      41.842    
  32.061      24.469      18.636      14.207      10.819      8.2443      6.2797      4.8019      3.6927      2.8810    
  2.2963      1.8977      1.6478      1.5284      1.5285      1.6477      1.8978      2.2962      2.8809      3.6924    
  4.8016      6.2792      8.2437      10.818      14.206      18.634      24.467      32.058      41.838      53.856    
  70.059      95.732      135.62      192.62      267.20      357.53      459.58      567.25      672.29      764.74    
  834.11      871.41      816.12      764.73      686.80      591.76      489.46      388.69      296.39      217.54    
  154.96      109.33      78.849      59.684      46.529      35.887      27.458      20.948      15.984      12.186    
  9.2941      7.0815      5.4091      4.1451      3.2125      2.5289      2.0529      1.7338      1.5567      1.4956    
  1.5567      1.7337      2.0528      2.5286      3.2122      4.1445      5.4084      7.0803      9.2927      12.184    
  15.981      20.943      27.453      35.880      46.521      59.673      78.837      109.32      154.95      217.53    
  296.40      388.70      489.47      591.78      686.82      764.75      816.13      834.11      732.46      672.28    
  591.76      499.85      405.29      315.48      236.10      170.90      121.50      87.238      65.213      50.773    
  39.490      30.335      23.219      17.743      13.560      10.352      7.9023      6.0320      4.6191      3.5597    
  2.7814      2.2217      1.8387      1.5989      1.4842      1.4839      1.5990      1.8384      2.2216      2.7808    
  3.5593      4.6181      6.0310      7.9003      10.350      13.556      17.738      23.212      30.327      39.479    
  50.759      65.196      87.222      121.48      170.88      236.10      315.49      405.30      499.88      591.78    
  672.30      732.48      764.75      764.74      630.66      567.24      489.46      405.29      322.12      246.02    
  181.39      130.69      94.238      70.069      54.405      42.656      32.967      25.343      19.420      14.885    
  11.388      8.7145      6.6573      5.0997      3.9174      3.0452      2.4031      1.9567      1.6558      1.4897    
  1.4314      1.4897      1.6557      1.9566      2.4028      3.0447      3.9166      5.0985      6.6554      8.7119    
  11.385      14.880      19.414      25.334      32.956      42.641      54.386      70.047      94.214      130.67    
  181.38      246.02      322.13      405.31      489.49      567.27      630.69      672.30      686.82      672.29    
  521.34      459.58      388.69      315.48      246.02      185.05      135.64      98.891      73.727      57.236    
  45.199      35.209      27.211      20.943      16.109      12.367      9.4890      7.2667      5.5708      4.2776    
  3.3111      2.5946      2.0819      1.7276      1.5072      1.4007      1.4006      1.5072      1.7273      2.0817    
  2.5941      3.3105      4.2765      5.5693      7.2642      9.4857      12.362      16.102      20.934      27.199    
  35.194      45.181      57.213      73.702      98.863      135.62      185.04      246.02      315.49      388.70    
  459.60      521.37      567.27      591.78      591.78      567.25      413.87      357.52      296.39      236.10    
  181.39      135.64      100.52      75.700      59.055      46.981      36.922      28.721      22.231      17.176    
  13.244      10.198      7.8360      6.0194      4.6258      3.5743      2.7865      2.2139      1.8063      1.5390    
  1.3839      1.3358      1.3839      1.5390      1.8061      2.2137      2.7859      3.5735      4.6243      6.0176    
  7.8329      10.194      13.238      17.168      22.220      28.707      36.903      46.960      59.027      75.673    
  100.49      135.61      181.37      236.10      296.40      357.54      413.89      459.60      489.49      499.88    
  489.47      459.58      315.48      267.20      217.54      170.90      130.69      98.891      75.700      59.684    
  47.899      37.995      29.784      23.211      18.033      13.978      10.812      8.3428      6.4279      4.9506    
  3.8239      2.9740      2.3453      1.8912      1.5784      1.3823      1.2878      1.2879      1.3821      1.5785    
  1.8909      2.3452      2.9733      3.8232      4.9489      6.4258      8.3391      10.807      13.971      18.025    
  23.198      29.770      37.974      47.877      59.653      75.672      98.858      130.66      170.88      217.52    
  267.20      315.49      357.54      388.70      405.31      405.30      388.70      357.53      231.31      192.62    
  154.96      121.50      94.238      73.727      59.055      47.899      38.361      30.334      23.825      18.634    
  14.533      11.302      8.7645      6.7800      5.2384      4.0517      3.1487      2.4725      1.9760      1.6243    
  1.3900      1.2566      1.2128      1.2567      1.3899      1.6244      1.9757      2.4724      3.1478      4.0510    
  5.2363      6.7781      8.7602      11.297      14.525      18.625      23.810      30.319      38.337      47.877    
  59.022      73.699      94.204      121.47      154.95      192.61      231.30      267.20      296.40      315.49    
  322.13      315.49      296.40      267.20      164.29      135.63      109.33      87.238      70.069      57.236    
  46.981      37.995      30.334      24.033      18.944      14.879      11.644      9.0814      7.0601      5.4772    
  4.2476      3.3039      2.5888      2.0574      1.6717      1.4053      1.2374      1.1570      1.1565      1.2380    
  1.4049      1.6723      2.0568      2.5893      3.3028      4.2474      5.4748      7.0585      9.0766      11.639    
  14.870      18.936      24.017      30.320      37.970      46.960      57.205      70.037      87.215      109.30    
  135.61      164.27      192.61      217.52      236.10      246.02      246.02      236.10      217.53      192.62    
  115.18      95.738      78.849      65.213      54.405      45.199      36.922      29.784      23.825      18.944    
  14.996      11.819      9.2783      7.2549      5.6562      4.4033      3.4325      2.6897      2.1303      1.7180    
  1.4240      1.2283      1.1157      1.0796      1.1157      1.2286      1.4240      1.7186      2.1301      2.6903    
  3.4317      4.4033      5.6540      7.2536      9.2734      11.815      14.987      18.936      23.809      29.771    
  36.899      45.176      54.382      65.174      78.831      95.706      115.16      135.61      154.95      170.88    
  181.37      185.04      181.38      170.88      154.95      135.62      82.251      70.065      59.684      50.773    
  42.656      35.209      28.721      23.211      18.634      14.879      11.819      9.3450      7.3548      5.7673    
  4.5113      3.5292      2.7698      2.1918      1.7591      1.4442      1.2250      1.0873      1.0205      1.0208    
  1.0873      1.2256      1.4444      1.7598      2.1920      2.7705      3.5289      4.5114      5.7659      7.3533    
  9.3412      11.815      14.871      18.626      23.198      28.705      35.194      42.626      50.763      59.645    
  70.043      82.235      95.706      109.30      121.47      130.66      135.61      135.62      130.67      121.48    
  109.32      95.732      61.644      53.861      46.529      39.490      32.967      27.211      22.231      18.033    
  14.533      11.644      9.2783      7.3548      5.8049      4.5668      3.5890      2.8256      2.2381      1.7926    
  1.4626      1.2260      1.0679     0.97691     0.94761     0.97710      1.0683      1.2265      1.4634      1.7934    
  2.2391      2.8262      3.5897      4.5668      5.8047      7.3534      9.2759      11.640      14.527      18.024    
  22.223      27.192      32.961      39.460      46.515      53.848      61.606      70.043      78.831      87.215    
  94.204      98.858      100.49      98.863      94.214      87.222      78.837      70.059      47.895      41.842    
  35.887      30.335      25.343      20.943      17.176      13.978      11.302      9.0814      7.2549      5.7673    
  4.5668      3.6093      2.8541      2.2669      1.8163      1.4772      1.2287      1.0554     0.94576     0.89291    
 0.89298     0.94624      1.0560      1.2297      1.4782      1.8176      2.2681      2.8557      3.6104      4.5678    
  5.7675      7.2547      9.0797      11.299      13.974      17.167      20.938      25.326      30.328      35.875    
  41.812      47.891      53.848      59.645      65.174      70.037      73.699      75.672      75.673      73.702    
  70.047      65.196      59.673      53.856      36.927      32.061      27.458      23.219      19.420      16.109    
  13.244      10.812      8.7645      7.0601      5.6562      4.5113      3.5890      2.8541      2.2766      1.8284    
  1.4866      1.2314      1.0479     0.92456     0.85376     0.83073     0.85410     0.92526      1.0489      1.2327    
  1.4882      1.8304      2.2786      2.8564      3.5910      4.5133      5.6575      7.0610      8.7642      10.810    
  13.242      16.101      19.419      23.208      27.445      32.059      36.913      41.812      46.515      50.763    
  54.382      57.205      59.022      59.653      59.027      57.213      54.386      50.759      46.521      41.838    
  28.208      24.469      20.948      17.743      14.885      12.367      10.198      8.3428      6.7800      5.4772    
  4.4033      3.5292      2.8256      2.2669      1.8284      1.4898      1.2330      1.0440     0.91149     0.82765    
 0.78706     0.78731     0.82825     0.91257      1.0454      1.2349      1.4920      1.8311      2.2696      2.8286    
  3.5321      4.4063      5.4797      6.7821      8.3444      10.197      12.368      14.879      17.741      20.945    
  24.456      28.200      32.059      35.875      39.460      42.626      45.176      46.960      47.877      47.877    
  46.960      45.181      42.641      39.479      35.880      32.058      21.489      18.636      15.984      13.560    
  11.388      9.4890      7.8360      6.4279      5.2384      4.2476      3.4325      2.7698      2.2381      1.8163    
  1.4866      1.2330      1.0428     0.90529     0.81275     0.75943     0.74223     0.75994     0.81373     0.90679    
  1.0448      1.2355      1.4895      1.8197      2.2417      2.7739      3.4366      4.2518      5.2423      6.4311    
  7.8401      9.4890      11.393      13.558      15.980      18.638      21.487      24.456      27.445      30.328    
  32.961      35.194      36.899      37.970      38.337      37.974      36.903      35.194      32.956      30.327    
  27.453      24.467      16.371      14.207      12.186      10.352      8.7145      7.2667      6.0194      4.9506    
  4.0517      3.3039      2.6897      2.1918      1.7926      1.4772      1.2314      1.0440     0.90529     0.80791    
 0.74607     0.71625     0.71651     0.74695     0.80931     0.90732      1.0466      1.2346      1.4808      1.7969    
  2.1964      2.6948      3.3091      4.0570      4.9562      6.0234      7.2730      8.7157      10.356      12.191    
  14.205      16.370      18.638      20.945      23.208      25.326      27.192      28.705      29.771      30.320    
  30.319      29.770      28.708      27.199      25.334      23.212      20.944      18.634      12.467      10.819    
  9.2941      7.9023      6.6573      5.5708      4.6258      3.8239      3.1487      2.5888      2.1303      1.7591    
  1.4626      1.2287      1.0479     0.91149     0.81275     0.74607     0.70776     0.69543     0.70840     0.74737    
 0.81467     0.91411      1.0511      1.2326      1.4670      1.7643      2.1361      2.5951      3.1552      3.8303    
  4.6335      5.5760      6.6659      7.9071      9.2971      10.825      12.472      14.205      15.980      17.741    
  19.419      20.938      22.223      23.198      23.809      24.017      23.810      23.198      22.220      20.934    
  19.414      17.738      15.981      14.206      9.4964      8.2443      7.0815      6.0320      5.0997      4.2776    
  3.5743      2.9740      2.4725      2.0574      1.7180      1.4442      1.2260      1.0554     0.92456     0.82765    
 0.75943     0.71625     0.69543     0.69580     0.71731     0.76125     0.83016     0.92785      1.0593      1.2308    
  1.4496      1.7241      2.0639      2.4796      2.9819      3.5812      4.2869      5.1055      6.0405      7.0906    
  8.2489      9.5012      10.825      12.191      13.558      14.879      16.101      17.167      18.024      18.626    
  18.936      18.936      18.625      18.025      17.168      16.102      14.880      13.556      12.184      10.818    
  7.2301      6.2797      5.4091      4.6191      3.9174      3.3111      2.7865      2.3453      1.9760      1.6717    
  1.4240      1.2250      1.0679     0.94576     0.85376     0.78706     0.74223     0.71651     0.70840     0.71731    
 0.74381     0.78947     0.85693     0.94980      1.0726      1.2307      1.4305      1.6789      1.9838      2.3535    
  2.7961      3.3193      3.9287      4.6278      5.4164      6.2902      7.2394      8.2489      9.2971      10.356    
  11.393      12.368      13.242      13.974      14.527      14.871      14.987      14.870      14.525      13.971    
  13.238      12.362      11.385      10.350      9.2927      8.2437      5.5165      4.8019      4.1451      3.5597    
  3.0452      2.5946      2.2139      1.8912      1.6243      1.4053      1.2283      1.0873     0.97691     0.89291    
 0.83073     0.78731     0.75994     0.74695     0.74737     0.76125     0.78947     0.83379     0.89680     0.98180    
  1.0928      1.2346      1.4124      1.6322      1.9000      2.2224      2.6052      3.0534      3.5705      4.1570    
  4.8106      5.5251      6.2902      7.0906      7.9071      8.7157      9.4890      10.197      10.810      11.299    
  11.640      11.815      11.815      11.639      11.297      10.807      10.194      9.4857      8.7119      7.9003    
  7.0803      6.2792      4.2248      3.6927      3.2125      2.7814      2.4031      2.0819      1.8063      1.5784    
  1.3900      1.2374      1.1157      1.0205     0.94761     0.89298     0.85410     0.82825     0.81373     0.80931    
 0.81467     0.83016     0.85693     0.89680     0.95221      1.0262      1.1224      1.2450      1.3983      1.5873    
  1.8168      2.0915      2.4156      2.7920      3.2221      3.7049      4.2367      4.8106      5.4164      6.0405    
  6.6659      7.2730      7.8401      8.3444      8.7642      9.0797      9.2759      9.3412      9.2734      9.0766    
  8.7602      8.3391      7.8329      7.2642      6.6554      6.0310      5.4084      4.8016      3.2704      2.8810    
  2.5289      2.2217      1.9567      1.7276      1.5390      1.3823      1.2566      1.1570      1.0796      1.0208    
 0.97710     0.94624     0.92526     0.91257     0.90679     0.90732     0.91411     0.92785     0.94980     0.98180    
  1.0262      1.0859      1.1642      1.2647      1.3914      1.5480      1.7384      1.9660      2.2334      2.5420    
  2.8919      3.2809      3.7049      4.1570      4.6278      5.1055      5.5760      6.0234      6.4311      6.7821    
  7.0610      7.2547      7.3534      7.3533      7.2536      7.0585      6.7781      6.4258      6.0176      5.5693    
  5.0985      4.6181      4.1445      3.6924      2.5730      2.2963      2.0529      1.8387      1.6558      1.5072    
  1.3839      1.2878      1.2128      1.1565      1.1157      1.0873      1.0683      1.0560      1.0489      1.0454    
  1.0448      1.0466      1.0511      1.0593      1.0726      1.0928      1.1224      1.1642      1.2213      1.2970    
  1.3947      1.5176      1.6686      1.8501      2.0634      2.3091      2.5861      2.8919      3.2221      3.5705    
  3.9287      4.2869      4.6335      4.9562      5.2423      5.4797      5.6575      5.7675      5.8047      5.7659    
  5.6540      5.4748      5.2363      4.9489      4.6243      4.2765      3.9166      3.5593      3.2122      2.8809    
  2.0860      1.8977      1.7338      1.5989      1.4897      1.4007      1.3358      1.2879      1.2567      1.2380    
  1.2286      1.2256      1.2265      1.2297      1.2327      1.2349      1.2355      1.2346      1.2326      1.2308    
  1.2307      1.2346      1.2450      1.2647      1.2970      1.3449      1.4115      1.4994      1.6108      1.7473    
  1.9096      2.0973      2.3091      2.5420      2.7920      3.0534      3.3193      3.5812      3.8303      4.0570    
  4.2518      4.4063      4.5133      4.5678      4.5668      4.5114      4.4033      4.2474      4.0510      3.8232    
  3.5735      3.3105      3.0447      2.7808      2.5286      2.2962      1.7613      1.6478      1.5567      1.4842    
  1.4314      1.4006      1.3839      1.3821      1.3899      1.4049      1.4240      1.4444      1.4634      1.4782    
  1.4882      1.4920      1.4895      1.4808      1.4670      1.4496      1.4305      1.4124      1.3983      1.3914    
  1.3947      1.4115      1.4444      1.4959      1.5675      1.6605      1.7747      1.9096      2.0634      2.2334    
  2.4156      2.6052      2.7961      2.9819      3.1552      3.3091      3.4366      3.5321      3.5910      3.6104    
  3.5897      3.5289      3.4317      3.3028      3.1478      2.9733      2.7859      2.5941      2.4028      2.2216    
  2.0528      1.8978      1.5797      1.5284      1.4956      1.4839      1.4897      1.5072      1.5390      1.5785    
  1.6244      1.6723      1.7186      1.7598      1.7934      1.8176      1.8304      1.8311      1.8197      1.7969    
  1.7643      1.7241      1.6789      1.6322      1.5873      1.5480      1.5176      1.4994      1.4959      1.5092    
  1.5408      1.5913      1.6605      1.7473      1.8501      1.9660      2.0915      2.2224      2.3535      2.4796    
  2.5951      2.6948      2.7739      2.8286      2.8564      2.8557      2.8262      2.7705      2.6903      2.5893    
  2.4724      2.3452      2.2137      2.0817      1.9566      1.8384      1.7337      1.6477      1.5183      1.5285    
  1.5567      1.5990      1.6557      1.7273      1.8061      1.8909      1.9757      2.0568      2.1301      2.1920    
  2.2391      2.2681      2.2786      2.2696      2.2417      2.1964      2.1361      2.0639      1.9838      1.9000    
  1.8168      1.7384      1.6686      1.6108      1.5675      1.5408      1.5318      1.5408      1.5675      1.6108    
  1.6686      1.7384      1.8168      1.9000      1.9838      2.0639      2.1361      2.1964      2.2417      2.2696    
  2.2786      2.2681      2.2391      2.1920      2.1301      2.0568      1.9757      1.8909      1.8061      1.7273    
  1.6557      1.5990      1.5567      1.5285      1.5797      1.6477      1.7337      1.8384      1.9566      2.0817    
  2.2137      2.3452      2.4724      2.5893      2.6903      2.7705      2.8262      2.8557      2.8564      2.8286    
  2.7739      2.6948      2.5951      2.4796      2.3535      2.2224      2.0915      1.9660      1.8501      1.7473    
  1.6605      1.5913      1.5408      1.5092      1.4959      1.4994      1.5176      1.5480      1.5873      1.6322    
  1.6789      1.7241      1.7643      1.7969      1.8197      1.8311      1.8304      1.8176      1.7934      1.7598    
  1.7186      1.6723      1.6244      1.5785      1.5390      1.5072      1.4897      1.4839      1.4956      1.5284    
  1.7613      1.8978      2.0528      2.2216      2.4028      2.5941      2.7859      2.9733      3.1478      3.3028    
  3.4317      3.5289      3.5897      3.6104      3.5910      3.5321      3.4366      3.3091      3.1552      2.9819    
  2.7961      2.6052      2.4156      2.2334      2.0634      1.9096      1.7747      1.6605      1.5675      1.4959    
  1.4444      1.4115      1.3947      1.3914      1.3983      1.4124      1.4305      1.4496      1.4670      1.4808    
  1.4895      1.4920      1.4882      1.4782      1.4634      1.4444      1.4240      1.4049      1.3899      1.3821    
  1.3839      1.4006      1.4314      1.4842      1.5567      1.6478      2.0860      2.2962      2.5286      2.7808    
  3.0447      3.3105      3.5735      3.8232      4.0510      4.2474      4.4033      4.5114      4.5668      4.5678    
  4.5133      4.4063      4.2518      4.0570      3.8303      3.5812      3.3193      3.0534      2.7920      2.5420    
  2.3091      2.0973      1.9096      1.7473      1.6108      1.4994      1.4115      1.3449      1.2970      1.2647    
  1.2450      1.2346      1.2307      1.2308      1.2326      1.2346      1.2355      1.2349      1.2327      1.2297    
  1.2265      1.2256      1.2286      1.2380      1.2567      1.2879      1.3358      1.4007      1.4897      1.5989    
  1.7338      1.8977      2.5730      2.8809      3.2122      3.5593      3.9166      4.2765      4.6243      4.9489    
  5.2363      5.4748      5.6540      5.7659      5.8047      5.7675      5.6575      5.4797      5.2423      4.9562    
  4.6335      4.2869      3.9287      3.5705      3.2221      2.8919      2.5861      2.3091      2.0634      1.8501    
  1.6686      1.5176      1.3947      1.2970      1.2213      1.1642      1.1224      1.0928      1.0726      1.0593    
  1.0511      1.0466      1.0448      1.0454      1.0489      1.0560      1.0683      1.0873      1.1157      1.1565    
  1.2128      1.2878      1.3839      1.5072      1.6558      1.8387      2.0529      2.2963      3.2704      3.6924    
  4.1445      4.6181      5.0985      5.5693      6.0176      6.4258      6.7781      7.0585      7.2536      7.3533    
  7.3534      7.2547      7.0610      6.7821      6.4311      6.0234      5.5760      5.1055      4.6278      4.1570    
  3.7049      3.2809      2.8919      2.5420      2.2334      1.9660      1.7384      1.5480      1.3914      1.2647    
  1.1642      1.0859      1.0262     0.98180     0.94980     0.92785     0.91411     0.90732     0.90679     0.91257    
 0.92526     0.94624     0.97710      1.0208      1.0796      1.1570      1.2566      1.3823      1.5390      1.7276    
  1.9567      2.2217      2.5289      2.8810      4.2248      4.8016      5.4084      6.0310      6.6554      7.2642    
  7.8329      8.3391      8.7602      9.0766      9.2734      9.3412      9.2759      9.0797      8.7642      8.3444    
  7.8401      7.2730      6.6659      6.0405      5.4164      4.8106      4.2367      3.7049      3.2221      2.7920    
  2.4156      2.0915      1.8168      1.5873      1.3983      1.2450      1.1224      1.0262     0.95221     0.89680    
 0.85693     0.83016     0.81467     0.80931     0.81373     0.82825     0.85410     0.89298     0.94761      1.0205    
  1.1157      1.2374      1.3900      1.5784      1.8063      2.0819      2.4031      2.7814      3.2125      3.6927    
  5.5165      6.2792      7.0803      7.9003      8.7119      9.4857      10.194      10.807      11.297      11.639    
  11.815      11.815      11.640      11.299      10.810      10.197      9.4890      8.7157      7.9071      7.0906    
  6.2902      5.5251      4.8106      4.1570      3.5705      3.0534      2.6052      2.2224      1.9000      1.6322    
  1.4124      1.2346      1.0928     0.98180     0.89680     0.83379     0.78947     0.76125     0.74737     0.74695    
 0.75994     0.78731     0.83073     0.89291     0.97691      1.0873      1.2283      1.4053      1.6243      1.8912    
  2.2139      2.5946      3.0452      3.5597      4.1451      4.8019      7.2301      8.2437      9.2927      10.350    
  11.385      12.362      13.238      13.971      14.525      14.870      14.987      14.871      14.527      13.974    
  13.242      12.368      11.393      10.356      9.2971      8.2489      7.2394      6.2902      5.4164      4.6278    
  3.9287      3.3193      2.7961      2.3535      1.9838      1.6789      1.4305      1.2307      1.0726     0.94980    
 0.85693     0.78947     0.74381     0.71731     0.70840     0.71651     0.74223     0.78706     0.85376     0.94576    
  1.0679      1.2250      1.4240      1.6717      1.9760      2.3453      2.7865      3.3111      3.9174      4.6191    
  5.4091      6.2797      9.4964      10.818      12.184      13.556      14.880      16.102      17.168      18.025    
  18.625      18.936      18.936      18.626      18.024      17.167      16.101      14.879      13.558      12.191    
  10.825      9.5012      8.2489      7.0906      6.0405      5.1055      4.2869      3.5812      2.9819      2.4796    
  2.0639      1.7241      1.4496      1.2308      1.0593     0.92785     0.83016     0.76125     0.71731     0.69580    
 0.69543     0.71625     0.75943     0.82765     0.92456      1.0554      1.2260      1.4442      1.7180      2.0574    
  2.4725      2.9740      3.5743      4.2776      5.0997      6.0320      7.0815      8.2443      12.467      14.206    
  15.981      17.738      19.414      20.934      22.220      23.198      23.810      24.017      23.809      23.198    
  22.223      20.938      19.419      17.741      15.980      14.205      12.472      10.825      9.2971      7.9071    
  6.6659      5.5760      4.6335      3.8303      3.1552      2.5951      2.1361      1.7643      1.4670      1.2326    
  1.0511     0.91411     0.81467     0.74737     0.70840     0.69543     0.70776     0.74607     0.81275     0.91149    
  1.0479      1.2287      1.4626      1.7591      2.1303      2.5888      3.1487      3.8239      4.6258      5.5708    
  6.6573      7.9023      9.2941      10.819      16.371      18.634      20.944      23.212      25.334      27.199    
  28.708      29.770      30.319      30.320      29.771      28.705      27.192      25.326      23.208      20.945    
  18.638      16.370      14.205      12.191      10.356      8.7157      7.2730      6.0234      4.9562      4.0570    
  3.3091      2.6948      2.1964      1.7969      1.4808      1.2346      1.0466     0.90732     0.80931     0.74695    
 0.71651     0.71625     0.74607     0.80791     0.90529      1.0440      1.2314      1.4772      1.7926      2.1918    
  2.6897      3.3039      4.0517      4.9506      6.0194      7.2667      8.7145      10.352      12.186      14.207    
  21.489      24.467      27.453      30.327      32.956      35.194      36.903      37.974      38.337      37.970    
  36.899      35.194      32.961      30.328      27.445      24.456      21.487      18.638      15.980      13.558    
  11.393      9.4890      7.8401      6.4311      5.2423      4.2518      3.4366      2.7739      2.2417      1.8197    
  1.4895      1.2355      1.0448     0.90679     0.81373     0.75994     0.74223     0.75943     0.81275     0.90529    
  1.0428      1.2330      1.4866      1.8163      2.2381      2.7698      3.4325      4.2476      5.2384      6.4279    
  7.8360      9.4890      11.388      13.560      15.984      18.636      28.208      32.058      35.880      39.479    
  42.641      45.181      46.960      47.877      47.877      46.960      45.176      42.626      39.460      35.875    
  32.059      28.200      24.456      20.945      17.741      14.879      12.368      10.197      8.3444      6.7821    
  5.4797      4.4063      3.5321      2.8286      2.2696      1.8311      1.4920      1.2349      1.0454     0.91257    
 0.82825     0.78731     0.78706     0.82765     0.91149      1.0440      1.2330      1.4898      1.8284      2.2669    
  2.8256      3.5292      4.4033      5.4772      6.7800      8.3428      10.198      12.367      14.885      17.743    
  20.948      24.469      36.927      41.838      46.521      50.759      54.386      57.213      59.027      59.653    
  59.022      57.205      54.382      50.763      46.515      41.812      36.913      32.059      27.445      23.208    
  19.419      16.101      13.242      10.810      8.7642      7.0610      5.6575      4.5133      3.5910      2.8564    
  2.2786      1.8304      1.4882      1.2327      1.0489     0.92526     0.85410     0.83073     0.85376     0.92456    
  1.0479      1.2314      1.4866      1.8284      2.2766      2.8541      3.5890      4.5113      5.6562      7.0601    
  8.7645      10.812      13.244      16.109      19.420      23.219      27.458      32.061      47.895      53.856    
  59.673      65.196      70.047      73.702      75.673      75.672      73.699      70.037      65.174      59.645    
  53.848      47.891      41.812      35.875      30.328      25.326      20.938      17.167      13.974      11.299    
  9.0797      7.2547      5.7675      4.5678      3.6104      2.8557      2.2681      1.8176      1.4782      1.2297    
  1.0560     0.94624     0.89298     0.89291     0.94576      1.0554      1.2287      1.4772      1.8163      2.2669    