   1   1   0   0
  0.6532254E+02  0.4520565E-09  0.4520565E-09  0.4520565E-09  0.1000000E-15
  1.000000000000000E-004
  CAR 
 Rn_FCC                                  
     31.29894299    -46.00488597  301     -2.65032189      1.00000000
    -46.005  0.0000E+00  0.0000E+00
    -45.747  0.0000E+00  0.0000E+00
    -45.490  0.0000E+00  0.0000E+00
    -45.232  0.0000E+00  0.0000E+00
    -44.974  0.0000E+00  0.0000E+00
    -44.716  0.0000E+00  0.0000E+00
    -44.459  0.0000E+00  0.0000E+00
    -44.201  0.0000E+00  0.0000E+00
    -43.943  0.0000E+00  0.0000E+00
    -43.686  0.0000E+00  0.0000E+00
    -43.428  0.0000E+00  0.0000E+00
    -43.170  0.0000E+00  0.0000E+00
    -42.913  0.0000E+00  0.0000E+00
    -42.655  0.5571E-04  0.1436E-04
    -42.397  0.3863E+02  0.9954E+01
    -42.140  0.1772E+00  0.1000E+02
    -41.882  0.0000E+00  0.1000E+02
    -41.624  0.0000E+00  0.1000E+02
    -41.367  0.0000E+00  0.1000E+02
    -41.109  0.0000E+00  0.1000E+02
    -40.851  0.0000E+00  0.1000E+02
    -40.594  0.0000E+00  0.1000E+02
    -40.336  0.0000E+00  0.1000E+02
    -40.078  0.0000E+00  0.1000E+02
    -39.821  0.0000E+00  0.1000E+02
    -39.563  0.0000E+00  0.1000E+02
    -39.305  0.0000E+00  0.1000E+02
    -39.048  0.0000E+00  0.1000E+02
    -38.790  0.0000E+00  0.1000E+02
    -38.532  0.0000E+00  0.1000E+02
    -38.275  0.0000E+00  0.1000E+02
    -38.017  0.0000E+00  0.1000E+02
    -37.759  0.0000E+00  0.1000E+02
    -37.501  0.0000E+00  0.1000E+02
    -37.244  0.0000E+00  0.1000E+02
    -36.986  0.0000E+00  0.1000E+02
    -36.728  0.0000E+00  0.1000E+02
    -36.471  0.0000E+00  0.1000E+02
    -36.213  0.0000E+00  0.1000E+02
    -35.955  0.0000E+00  0.1000E+02
    -35.698  0.0000E+00  0.1000E+02
    -35.440  0.0000E+00  0.1000E+02
    -35.182  0.0000E+00  0.1000E+02
    -34.925  0.0000E+00  0.1000E+02
    -34.667  0.0000E+00  0.1000E+02
    -34.409  0.0000E+00  0.1000E+02
    -34.152  0.0000E+00  0.1000E+02
    -33.894  0.0000E+00  0.1000E+02
    -33.636  0.0000E+00  0.1000E+02
    -33.379  0.0000E+00  0.1000E+02
    -33.121  0.0000E+00  0.1000E+02
    -32.863  0.0000E+00  0.1000E+02
    -32.606  0.0000E+00  0.1000E+02
    -32.348  0.0000E+00  0.1000E+02
    -32.090  0.0000E+00  0.1000E+02
    -31.833  0.0000E+00  0.1000E+02
    -31.575  0.0000E+00  0.1000E+02
    -31.317  0.0000E+00  0.1000E+02
    -31.059  0.0000E+00  0.1000E+02
    -30.802  0.0000E+00  0.1000E+02
    -30.544  0.0000E+00  0.1000E+02
    -30.286  0.0000E+00  0.1000E+02
    -30.029  0.0000E+00  0.1000E+02
    -29.771  0.0000E+00  0.1000E+02
    -29.513  0.0000E+00  0.1000E+02
    -29.256  0.0000E+00  0.1000E+02
    -28.998  0.0000E+00  0.1000E+02
    -28.740  0.0000E+00  0.1000E+02
    -28.483  0.0000E+00  0.1000E+02
    -28.225  0.0000E+00  0.1000E+02
    -27.967  0.0000E+00  0.1000E+02
    -27.710  0.0000E+00  0.1000E+02
    -27.452  0.0000E+00  0.1000E+02
    -27.194  0.0000E+00  0.1000E+02
    -26.937  0.0000E+00  0.1000E+02
    -26.679  0.0000E+00  0.1000E+02
    -26.421  0.0000E+00  0.1000E+02
    -26.164  0.0000E+00  0.1000E+02
    -25.906  0.0000E+00  0.1000E+02
    -25.648  0.0000E+00  0.1000E+02
    -25.391  0.0000E+00  0.1000E+02
    -25.133  0.0000E+00  0.1000E+02
    -24.875  0.0000E+00  0.1000E+02
    -24.617  0.0000E+00  0.1000E+02
    -24.360  0.0000E+00  0.1000E+02
    -24.102  0.0000E+00  0.1000E+02
    -23.844  0.0000E+00  0.1000E+02
    -23.587  0.0000E+00  0.1000E+02
    -23.329  0.0000E+00  0.1000E+02
    -23.071  0.0000E+00  0.1000E+02
    -22.814  0.0000E+00  0.1000E+02
    -22.556  0.0000E+00  0.1000E+02
    -22.298  0.0000E+00  0.1000E+02
    -22.041  0.0000E+00  0.1000E+02
    -21.783  0.0000E+00  0.1000E+02
    -21.525  0.0000E+00  0.1000E+02
    -21.268  0.0000E+00  0.1000E+02
    -21.010  0.0000E+00  0.1000E+02
    -20.752  0.0000E+00  0.1000E+02
    -20.495  0.0000E+00  0.1000E+02
    -20.237  0.0000E+00  0.1000E+02
    -19.979  0.0000E+00  0.1000E+02
    -19.722  0.0000E+00  0.1000E+02
    -19.464  0.0000E+00  0.1000E+02
    -19.206  0.0000E+00  0.1000E+02
    -18.949  0.0000E+00  0.1000E+02
    -18.691  0.0000E+00  0.1000E+02
    -18.433  0.5732E-11  0.1000E+02
    -18.176  0.3313E+00  0.1009E+02
    -17.918  0.7428E+01  0.1200E+02
    -17.660  0.2600E-02  0.1200E+02
    -17.402  0.0000E+00  0.1200E+02
    -17.145  0.0000E+00  0.1200E+02
    -16.887  0.0000E+00  0.1200E+02
    -16.629  0.0000E+00  0.1200E+02
    -16.372  0.0000E+00  0.1200E+02
    -16.114  0.0000E+00  0.1200E+02
    -15.856  0.0000E+00  0.1200E+02
    -15.599  0.0000E+00  0.1200E+02
    -15.341  0.0000E+00  0.1200E+02
    -15.083  0.0000E+00  0.1200E+02
    -14.826  0.0000E+00  0.1200E+02
    -14.568  0.0000E+00  0.1200E+02
    -14.310  0.0000E+00  0.1200E+02
    -14.053  0.0000E+00  0.1200E+02
    -13.795  0.0000E+00  0.1200E+02
    -13.537  0.0000E+00  0.1200E+02
    -13.280  0.0000E+00  0.1200E+02
    -13.022  0.0000E+00  0.1200E+02
    -12.764  0.0000E+00  0.1200E+02
    -12.507  0.0000E+00  0.1200E+02
    -12.249  0.0000E+00  0.1200E+02
    -11.991  0.0000E+00  0.1200E+02
    -11.734  0.0000E+00  0.1200E+02
    -11.476  0.0000E+00  0.1200E+02
    -11.218  0.0000E+00  0.1200E+02
    -10.960  0.0000E+00  0.1200E+02
    -10.703  0.0000E+00  0.1200E+02
    -10.445  0.0000E+00  0.1200E+02
    -10.187  0.0000E+00  0.1200E+02
     -9.930  0.0000E+00  0.1200E+02
     -9.672  0.0000E+00  0.1200E+02
     -9.414  0.0000E+00  0.1200E+02
     -9.157  0.0000E+00  0.1200E+02
     -8.899  0.0000E+00  0.1200E+02
     -8.641  0.0000E+00  0.1200E+02
     -8.384  0.0000E+00  0.1200E+02
     -8.126  0.0000E+00  0.1200E+02
     -7.868  0.0000E+00  0.1200E+02
     -7.611  0.0000E+00  0.1200E+02
     -7.353  0.0000E+00  0.1200E+02
     -7.095  0.0000E+00  0.1200E+02
     -6.838  0.0000E+00  0.1200E+02
     -6.580  0.0000E+00  0.1200E+02
     -6.322  0.0000E+00  0.1200E+02
     -6.065  0.0000E+00  0.1200E+02
     -5.807  0.0000E+00  0.1200E+02
     -5.549  0.0000E+00  0.1200E+02
     -5.292  0.0000E+00  0.1200E+02
     -5.034  0.0000E+00  0.1200E+02
     -4.776  0.9711E-07  0.1200E+02
     -4.518  0.1351E+00  0.1203E+02
     -4.261  0.3263E+01  0.1288E+02
     -4.003  0.3534E+01  0.1379E+02
     -3.745  0.1878E+01  0.1427E+02
     -3.488  0.2486E+01  0.1491E+02
     -3.230  0.5855E+01  0.1642E+02
     -2.972  0.5072E+01  0.1773E+02
     -2.715  0.1062E+01  0.1800E+02
     -2.457  0.0000E+00  0.1800E+02
     -2.199  0.0000E+00  0.1800E+02
     -1.942  0.0000E+00  0.1800E+02
     -1.684  0.0000E+00  0.1800E+02
     -1.426  0.0000E+00  0.1800E+02
     -1.169  0.0000E+00  0.1800E+02
     -0.911  0.0000E+00  0.1800E+02
     -0.653  0.0000E+00  0.1800E+02
     -0.396  0.0000E+00  0.1800E+02
     -0.138  0.0000E+00  0.1800E+02
      0.120  0.0000E+00  0.1800E+02
      0.377  0.0000E+00  0.1800E+02
      0.635  0.0000E+00  0.1800E+02
      0.893  0.0000E+00  0.1800E+02
      1.150  0.0000E+00  0.1800E+02
      1.408  0.0000E+00  0.1800E+02
      1.666  0.0000E+00  0.1800E+02
      1.923  0.0000E+00  0.1800E+02
      2.181  0.0000E+00  0.1800E+02
      2.439  0.3206E-15  0.1800E+02
      2.697  0.1274E-01  0.1800E+02
      2.954  0.2336E-01  0.1801E+02
      3.212  0.1002E-15  0.1801E+02
      3.470  0.6259E-01  0.1803E+02
      3.727  0.2464E+00  0.1809E+02
      3.985  0.1965E+00  0.1814E+02
      4.243  0.3921E-01  0.1815E+02
      4.500  0.6594E+00  0.1832E+02
      4.758  0.1273E+01  0.1865E+02
      5.016  0.9634E+00  0.1890E+02
      5.273  0.1861E+01  0.1938E+02
      5.531  0.1566E+01  0.1978E+02
      5.789  0.1080E+01  0.2006E+02
      6.046  0.9684E+00  0.2031E+02
      6.304  0.1268E+01  0.2063E+02
      6.562  0.2620E+01  0.2131E+02
      6.819  0.2416E+01  0.2193E+02
      7.077  0.4111E+00  0.2204E+02
      7.335  0.1157E+01  0.2234E+02
      7.592  0.2179E+01  0.2290E+02
      7.850  0.9436E+00  0.2314E+02
      8.108  0.1967E+01  0.2365E+02
      8.365  0.3714E+01  0.2460E+02
      8.623  0.6846E+00  0.2478E+02
      8.881  0.2785E+01  0.2550E+02
      9.139  0.3990E+00  0.2560E+02
      9.396  0.9004E+00  0.2583E+02
      9.654  0.2385E-01  0.2584E+02
      9.912  0.2734E+01  0.2654E+02
     10.169  0.1263E+01  0.2687E+02
     10.427  0.1575E+01  0.2727E+02
     10.685  0.2345E+01  0.2788E+02
     10.942  0.2004E+01  0.2840E+02
     11.200  0.1273E+00  0.2843E+02
     11.458  0.1732E+01  0.2887E+02
     11.715  0.1612E+01  0.2929E+02
     11.973  0.1505E+01  0.2968E+02
     12.231  0.2876E+01  0.3042E+02
     12.488  0.1084E+01  0.3070E+02
     12.746  0.1789E+01  0.3116E+02
     13.004  0.1149E+01  0.3146E+02
     13.261  0.2066E+01  0.3199E+02
     13.519  0.5649E+01  0.3344E+02
     13.777  0.2558E+01  0.3410E+02
     14.034  0.1495E+01  0.3449E+02
     14.292  0.1403E+01  0.3485E+02
     14.550  0.2080E+01  0.3538E+02
     14.807  0.4268E+00  0.3549E+02
     15.065  0.9499E+00  0.3574E+02
     15.323  0.1156E+01  0.3604E+02
     15.580  0.1927E+01  0.3653E+02
     15.838  0.3352E+01  0.3740E+02
     16.096  0.5183E+01  0.3873E+02
     16.354  0.4932E+01  0.4000E+02
     16.611  0.4220E+01  0.4109E+02
     16.869  0.3808E+01  0.4207E+02
     17.127  0.2190E+01  0.4264E+02
     17.384  0.2563E+01  0.4330E+02
     17.642  0.3167E+01  0.4411E+02
     17.900  0.3234E+00  0.4420E+02
     18.157  0.1433E+01  0.4457E+02
     18.415  0.1732E+01  0.4501E+02
     18.673  0.1977E+01  0.4552E+02
     18.930  0.1924E+01  0.4602E+02
     19.188  0.2576E+01  0.4668E+02
     19.446  0.2545E+01  0.4734E+02
     19.703  0.1953E+01  0.4784E+02
     19.961  0.3639E+01  0.4878E+02
     20.219  0.1663E+01  0.4921E+02
     20.476  0.3803E+01  0.5019E+02
     20.734  0.5173E+00  0.5032E+02
     20.992  0.2851E+01  0.5106E+02
     21.249  0.2343E+01  0.5166E+02
     21.507  0.3871E+01  0.5266E+02
     21.765  0.2378E+01  0.5327E+02
     22.022  0.4071E+01  0.5432E+02
     22.280  0.3185E+01  0.5514E+02
     22.538  0.1727E+01  0.5558E+02
     22.796  0.4018E+01  0.5662E+02
     23.053  0.2703E+01  0.5732E+02
     23.311  0.1233E+01  0.5763E+02
     23.569  0.9912E+00  0.5789E+02
     23.826  0.1047E+01  0.5816E+02
     24.084  0.1706E+01  0.5860E+02
     24.342  0.3725E+01  0.5956E+02
     24.599  0.9731E+00  0.5981E+02
     24.857  0.3221E+01  0.6064E+02
     25.115  0.2615E+01  0.6131E+02
     25.372  0.6445E+00  0.6148E+02
     25.630  0.3238E+01  0.6231E+02
     25.888  0.2178E+01  0.6287E+02
     26.145  0.7349E+00  0.6306E+02
     26.403  0.1700E+01  0.6350E+02
     26.661  0.5248E+00  0.6364E+02
     26.918  0.1038E+01  0.6390E+02
     27.176  0.1535E+00  0.6394E+02
     27.434  0.1173E-07  0.6394E+02
     27.691  0.2111E+00  0.6400E+02
     27.949  0.5502E-02  0.6400E+02
     28.207  0.0000E+00  0.6400E+02
     28.464  0.0000E+00  0.6400E+02
     28.722  0.0000E+00  0.6400E+02
     28.980  0.0000E+00  0.6400E+02
     29.238  0.0000E+00  0.6400E+02
     29.495  0.0000E+00  0.6400E+02
     29.753  0.0000E+00  0.6400E+02
     30.011  0.0000E+00  0.6400E+02
     30.268  0.0000E+00  0.6400E+02
     30.526  0.0000E+00  0.6400E+02
     30.784  0.0000E+00  0.6400E+02
     31.041  0.0000E+00  0.6400E+02
     31.299  0.0000E+00  0.6400E+02
