 vasp.5.4.4.18Apr17-6-g9f103f2a35 (build Nov 03 2018 10:20:46) complex          
  
 executed on             LinuxIFC date 2018.12.06  11:53:17
 running on   16 total cores
 distrk:  each k-point on    4 cores,    4 groups
 distr:  one band on NCORES_PER_BAND=   4 cores,    1 groups


--------------------------------------------------------------------------------------------------------


 INCAR:
 POTCAR:    PAW_PBE Rn_d_GW 14Apr2014             

 ----------------------------------------------------------------------------- 
|                                                                             |
|           W    W    AA    RRRRR   N    N  II  N    N   GGGG   !!!           |
|           W    W   A  A   R    R  NN   N  II  NN   N  G    G  !!!           |
|           W    W  A    A  R    R  N N  N  II  N N  N  G       !!!           |
|           W WW W  AAAAAA  RRRRR   N  N N  II  N  N N  G  GGG   !            |
|           WW  WW  A    A  R   R   N   NN  II  N   NN  G    G                |
|           W    W  A    A  R    R  N    N  II  N    N   GGGG   !!!           |
|                                                                             |
|      You have enabled k-point parallelism (KPAR>1).                         |
|      This developmental code was originally  written by Paul Kent at ORNL,  |
|      and carefully double checked in Vienna.                                |
|      GW as well as linear response parallelism added by Martijn Marsman     |
|      and Georg Kresse.                                                      |
|      Carefully verify results versus KPAR=1.                                |
|      Report problems to Paul Kent and Vienna.                               |
|                                                                             |
 ----------------------------------------------------------------------------- 

 POTCAR:    PAW_PBE Rn_d_GW 14Apr2014             
   VRHFIN =Rn:                                                                  
   LEXCH  = PE                                                                  
   EATOM  =  3030.7130 eV,  222.7511 Ry                                         
                                                                                
   TITEL  = PAW_PBE Rn_d_GW 14Apr2014                                           
   LULTRA =        F    use ultrasoft PP ?                                      
   IUNSCR =        1    unscreen: 0-lin 1-nonlin 2-no                           
   RPACOR =    1.800    partial core radius                                     
   POMASS =  220.170; ZVAL   =   18.000    mass and valenz                      
   RCORE  =    2.500    outmost cutoff radius                                   
   RWIGS  =    2.500; RWIGS  =    1.323    wigner-seitz radius (au A)           
   ENMAX  =  268.495; ENMIN  =  201.371 eV                                      
   RCLOC  =    1.808    cutoff for local pot                                    
   LCOR   =        T    correct aug charges                                     
   LPAW   =        T    paw PP                                                  
   EAUG   =  715.607                                                            
   DEXC   =    0.000                                                            
   RMAX   =    2.556    core radius for proj-oper                               
   RAUG   =    1.300    factor for augmentation sphere                          
   RDEP   =    2.531    radius for radial grids                                 
   RDEPT  =    1.947    core radius for aug-charge                              
                                                                                
   Atomic configuration                                                         
   16 entries                                                                   
     n  l   j            E        occ.                                          
     1  0  0.50    -98595.8050   2.0000                                         
     2  0  0.50    -17950.5082   2.0000                                         
     2  1  1.50    -15211.8638   6.0000                                         
     3  0  0.50     -4402.4302   2.0000                                         
     3  1  1.50     -3628.5852   6.0000                                         
     3  2  2.50     -2889.7488  10.0000                                         
     4  0  0.50     -1049.6607   2.0000                                         
     4  1  1.50      -796.4440   6.0000                                         
     4  2  2.50      -519.0207  10.0000                                         
     4  3  3.50      -216.6456  14.0000                                         
     5  0  0.50      -201.5459   2.0000                                         
     5  1  1.50      -127.7069   6.0000                                         
     5  2  2.50       -46.2584  10.0000                                         
     6  0  0.50       -21.8730   2.0000                                         
     6  1  0.50        -7.7135   6.0000                                         
     5  3  2.50        -2.7212   0.0000                                         
   Description                                                                  
     l       E           TYP  RCUT    TYP  RCUT                                 
     2    -46.2583946     23  2.400                                             
     2    -47.6189772     23  2.400                                             
     2     40.8174780     23  2.400                                             
     0    -21.8730472     23  1.700                                             
     0     81.6349560     23  1.700                                             
     1     -7.7135306     23  2.300                                             
     1     68.0291300     23  2.300                                             
     3      6.8029130     23  2.500                                             
     3     27.2116520     23  2.500                                             
  local pseudopotential read in
  partial core-charges read in
  partial kinetic energy density read in
  kinetic energy density of atom read in
  atomic valenz-charges read in
  non local Contribution for L=           2  read in
    real space projection operators read in
  non local Contribution for L=           2  read in
    real space projection operators read in
  non local Contribution for L=           2  read in
    real space projection operators read in
  non local Contribution for L=           0  read in
    real space projection operators read in
  non local Contribution for L=           0  read in
    real space projection operators read in
  non local Contribution for L=           1  read in
    real space projection operators read in
  non local Contribution for L=           1  read in
    real space projection operators read in
  non local Contribution for L=           3  read in
    real space projection operators read in
  non local Contribution for L=           3  read in
    real space projection operators read in
    PAW grid and wavefunctions read in
 
   number of l-projection  operators is LMAX  =           9
   number of lm-projection operators is LMMAX =          37
 
  PAW_PBE Rn_d_GW 14Apr2014             :
 energy of atom  1       EATOM=-3030.7130
 kinetic energy error for atom=    0.0889 (will be added to EATOM!!)
 
 
 POSCAR: Rn_FCC                                  
  positions in direct lattice
  velocities in cartesian coordinates

 METAGGA = SCAN     LMAXTAU =  0    LMIXTAU =  F

 exchange correlation table for  LEXCH =        8
   RHO(1)=    0.500       N(1)  =     2000
   RHO(2)=  100.500       N(2)  =     4000
 


--------------------------------------------------------------------------------------------------------


 ion  position               nearest neighbor table
   1  0.000  0.000  0.000-
 

IMPORTANT INFORMATION: All symmetrisations will be switched off!
NOSYMM: (Re-)initialisation of all symmetry stuff for point group C_1.

 
 
 KPOINTS: Automatically generated mesh + R-points 
  k-points in reciprocal lattice
Space group operators:
 irot       det(A)        alpha          n_x          n_y          n_z        tau_x        tau_y        tau_z
    1     1.000000     0.000000     1.000000     0.000000     0.000000     0.000000     0.000000     0.000000


--------------------------------------------------------------------------------------------------------




 Dimension of arrays:
   k-points           NKPTS =    152   k-points in BZ     NKDIM =    152   number of bands    NBANDS=     32
   number of dos      NEDOS =    301   number of ions     NIONS =      1
   non local maximal  LDIM  =      9   non local SUM 2l+1 LMDIM =     37
   total plane-waves  NPLWV =  21952
   max r-space proj   IRMAX =      1   max aug-charges    IRDMAX= 103641
   dimension x,y,z NGX =    28 NGY =   28 NGZ =   28
   dimension x,y,z NGXF=    56 NGYF=   56 NGZF=   56
   support grid    NGXF=   112 NGYF=  112 NGZF=  112
   ions per type =               1
   NGX,Y,Z   is equivalent  to a cutoff of  10.30, 10.30, 10.30 a.u.
   NGXF,Y,Z  is equivalent  to a cutoff of  20.59, 20.59, 20.59 a.u.

 SYSTEM =  Rn_FCC                                  
 POSCAR =  Rn_FCC                                  

 Startparameter for this run:
   NWRITE =      2    write-flag & timer
   PREC   = accura    normal or accurate (medium, high low for compatibility)
   ISTART =      1    job   : 0-new  1-cont  2-samecut
   ICHARG =      0    charge: 1-file 2-atom 10-const
   ISPIN  =      1    spin polarized calculation?
   LNONCOLLINEAR =      F non collinear calculations
   LSORBIT =      F    spin-orbit coupling
   INIWAV =      1    electr: 0-lowe 1-rand  2-diag
   LASPH  =      F    aspherical Exc in radial PAW
   METAGGA=      F    non-selfconsistent MetaGGA calc.

 Electronic Relaxation 1
   ENCUT  =  300.0 eV  22.05 Ry    4.70 a.u.   6.38  6.38  6.38*2*pi/ulx,y,z
   ENINI  =  300.0     initial cutoff
   ENAUG  =  715.6 eV  augmentation charge cutoff
   NELM   =     50;   NELMIN=  2; NELMDL= -5     # of ELM steps 
   EDIFF  = 0.1E-07   stopping-criterion for ELM
   LREAL  =      F    real-space projection
   NLSPLINE    = F    spline interpolate recip. space projectors
   LCOMPAT=      F    compatible to vasp.4.4
   GGA_COMPAT  = F    GGA compatible to vasp.4.4-vasp.4.6
   LMAXPAW     = -100 max onsite density
   LMAXMIX     =    2 max onsite mixed and CHGCAR
   VOSKOWN=      0    Vosko Wilk Nusair interpolation
   ROPT   =    0.00000
 Ionic relaxation
   EDIFFG = 0.1E-04   stopping-criterion for IOM
   NSW    =      1    number of steps for IOM
   NBLOCK =      1;   KBLOCK =      1    inner block; outer block 
   IBRION =     -1    ionic relax: 0-MD 1-quasi-New 2-CG
   NFREE  =      5    steps in history (QN), initial steepest desc. (CG)
   ISIF   =      3    stress and relaxation
   IWAVPR =     10    prediction:  0-non 1-charg 2-wave 3-comb
   ISYM   =      0    0-nonsym 1-usesym 2-fastsym
   LCORR  =      T    Harris-Foulkes like correction to forces

   POTIM  = 0.1000    time-step for ionic-motion
   TEIN   =    0.0    initial temperature
   TEBEG  =    0.0;   TEEND  =   0.0 temperature during run
   SMASS  =  -3.00    Nose mass-parameter (am)
   estimated Nose-frequenzy (Omega)   =  0.10E-29 period in steps =****** mass=  -0.467E-27a.u.
   SCALEE = 1.0000    scale energy and forces
   NPACO  =    256;   APACO  = 16.0  distance and # of slots for P.C.
   PSTRESS=    0.0 pullay stress

  Mass of Ions in am
   POMASS = 220.17
  Ionic Valenz
   ZVAL   =  18.00
  Atomic Wigner-Seitz radii
   RWIGS  =  -1.00
  virtual crystal weights 
   VCA    =   1.00
   NELECT =      18.0000    total number of electrons
   NUPDOWN=      -1.0000    fix difference up-down

 DOS related values:
   EMIN   =  10.00;   EMAX   =-10.00  energy-range for DOS
   EFERMI =   0.00
   ISMEAR =     0;   SIGMA  =   0.05  broadening in eV -4-tet -1-fermi 0-gaus

 Electronic relaxation 2 (details)
   IALGO  =     38    algorithm
   LDIAG  =      T    sub-space diagonalisation (order eigenvalues)
   LSUBROT=      F    optimize rotation matrix (better conditioning)
   TURBO    =      0    0=normal 1=particle mesh
   IRESTART =      0    0=no restart 2=restart with 2 vectors
   NREBOOT  =      0    no. of reboots
   NMIN     =      0    reboot dimension
   EREF     =   0.00    reference energy to select bands
   IMIX   =      4    mixing-type and parameters
     AMIX     =   0.40;   BMIX     =  1.00
     AMIX_MAG =   1.60;   BMIX_MAG =  1.00
     AMIN     =   0.10
     WC   =   100.;   INIMIX=   1;  MIXPRE=   1;  MAXMIX=  50

 Intra band minimization:
   WEIMIN = 0.0000     energy-eigenvalue tresh-hold
   EBREAK =  0.78E-10  absolut break condition
   DEPER  =   0.30     relativ break condition  

   TIME   =   0.40     timestep for ELM

  volume/ion in A,a.u.               =      65.32       440.82
  Fermi-wavevector in a.u.,A,eV,Ry     =   1.065315  2.013153 15.441193  1.134896
  Thomas-Fermi vector in A             =   2.200862
 
 Write flags
   LWAVE        =      T    write WAVECAR
   LDOWNSAMPLE  =      F    k-point downsampling of WAVECAR
   LCHARG       =      T    write CHGCAR
   LVTOT        =      F    write LOCPOT, total local potential
   LVHAR        =      F    write LOCPOT, Hartree potential only
   LELF         =      F    write electronic localiz. function (ELF)
   LORBIT       =      0    0 simple, 1 ext, 2 COOP (PROOUT), +10 PAW based schemes


 Dipole corrections
   LMONO  =      F    monopole corrections only (constant potential shift)
   LDIPOL =      F    correct potential (dipole corrections)
   IDIPOL =      0    1-x, 2-y, 3-z, 4-all directions 
   EPSILON=  1.0000000 bulk dielectric constant

 Exchange correlation treatment:
   GGA     =    --    GGA type
   LEXCH   =     8    internal setting for exchange type
   VOSKOWN=      0    Vosko Wilk Nusair interpolation
   LHFCALC =     F    Hartree Fock is set to
   LHFONE  =     F    Hartree Fock one center treatment
   AEXX    =    0.0000 exact exchange contribution

 Linear response parameters
   LEPSILON=     F    determine dielectric tensor
   LRPA    =     F    only Hartree local field effects (RPA)
   LNABLA  =     F    use nabla operator in PAW spheres
   LVEL    =     F    velocity operator in full k-point grid
   LINTERFAST=   F  fast interpolation
   KINTER  =     0    interpolate to denser k-point grid
   CSHIFT  =0.1000    complex shift for real part using Kramers Kronig
   OMEGAMAX=  -1.0    maximum frequency
   DEG_THRESHOLD= 0.2000000E-02 threshold for treating states as degnerate
   RTIME   =   -0.100 relaxation time in fs
  (WPLASMAI=    0.000 imaginary part of plasma frequency in eV, 0.658/RTIME)
   DFIELD  = 0.0000000 0.0000000 0.0000000 field for delta impulse in time
 
 Orbital magnetization related:
   ORBITALMAG=     F  switch on orbital magnetization
   LCHIMAG   =     F  perturbation theory with respect to B field
   DQ        =  0.001000  dq finite difference perturbation B field
   LLRAUG    =     F  two centre corrections for induced B field



--------------------------------------------------------------------------------------------------------


 Static calculation
 charge density and potential will be updated during run
 non-spin polarized calculation
 Variant of blocked Davidson
 Davidson routine will perform the subspace rotation
 perform sub-space diagonalisation
    after iterative eigenvector-optimisation
 modified Broyden-mixing scheme, WC =      100.0
 initial mixing is a Kerker type mixing with AMIX =  0.4000 and BMIX =      1.0000
 Hartree-type preconditioning will be used
 using additional bands           23
 reciprocal scheme for non local part
 use partial core corrections
 calculate Harris-corrections to forces 
   (improved forces if not selfconsistent)
 use gradient corrections 
 use of overlap-Matrix (Vanderbilt PP)
 Gauss-broadening in eV      SIGMA  =   0.05


--------------------------------------------------------------------------------------------------------


  energy-cutoff  :      300.00
  volume of cell :       65.32
      direct lattice vectors                 reciprocal lattice vectors
     4.520564769  0.000000000  0.000000000     0.221211298 -0.127716402 -0.090309134
     2.260282385  3.914923930 -0.000000000     0.000000000  0.255432805 -0.090309134
     2.260282385  1.304974643  3.691025678    -0.000000000  0.000000000  0.270927403

  length of vectors
     4.520564769  4.520564769  4.520564769     0.270927403  0.270927403  0.270927403


 
 old parameters found on file WAVECAR:
  energy-cutoff  :      300.00
  volume of cell :       65.32
      direct lattice vectors                 reciprocal lattice vectors
     4.520564769  0.000000000  0.000000000     0.221211298 -0.127716402 -0.090309134
     2.260282385  3.914923930 -0.000000000     0.000000000  0.255432805 -0.090309134
     2.260282385  1.304974643  3.691025678    -0.000000000  0.000000000  0.270927403

  length of vectors

 
 k-points in units of 2pi/SCALE and weight: Automatically generated mesh + R-points 
   0.11060565  0.06385820  0.04515457       0.000
   0.10507537  0.06066529  0.04289684       0.000
   0.09954508  0.05747238  0.04063911       0.000
   0.09401480  0.05427947  0.03838138       0.000
   0.08848452  0.05108656  0.03612365       0.000
   0.08295424  0.04789365  0.03386593       0.000
   0.07742395  0.04470074  0.03160820       0.000
   0.07189367  0.04150783  0.02935047       0.000
   0.06636339  0.03831492  0.02709274       0.000
   0.06083311  0.03512201  0.02483501       0.000
   0.05530282  0.03192910  0.02257728       0.000
   0.04977254  0.02873619  0.02031956       0.000
   0.04424226  0.02554328  0.01806183       0.000
   0.03871198  0.02235037  0.01580410       0.000
   0.03318169  0.01915746  0.01354637       0.000
   0.02765141  0.01596455  0.01128864       0.000
   0.02212113  0.01277164  0.00903091       0.000
   0.01659085  0.00957873  0.00677319       0.000
   0.01106056  0.00638582  0.00451546       0.000
   0.00553028  0.00319291  0.00225773       0.000
   0.00000000  0.00000000  0.00000000       0.000
  -0.00000000  0.00638582  0.00451546       0.000
  -0.00000000  0.01277164  0.00903091       0.000
  -0.00000000  0.01915746  0.01354637       0.000
  -0.00000000  0.02554328  0.01806183       0.000
  -0.00000000  0.03192910  0.02257728       0.000
  -0.00000000  0.03831492  0.02709274       0.000
  -0.00000000  0.04470074  0.03160820       0.000
  -0.00000000  0.05108656  0.03612365       0.000
  -0.00000000  0.05747238  0.04063911       0.000
  -0.00000000  0.06385820  0.04515457       0.000
  -0.00000000  0.07024402  0.04967002       0.000
  -0.00000000  0.07662984  0.05418548       0.000
  -0.00000000  0.08301566  0.05870094       0.000
  -0.00000000  0.08940148  0.06321639       0.000
  -0.00000000  0.09578730  0.06773185       0.000
  -0.00000000  0.10217312  0.07224731       0.000
  -0.00000000  0.10855894  0.07676276       0.000
  -0.00000000  0.11494476  0.08127822       0.000
  -0.00000000  0.12133058  0.08579368       0.000
  -0.00000000  0.12771640  0.09030913       0.000
   0.00000000  0.00000000  0.00000000       0.005
   0.03686855 -0.02128607 -0.01505152       0.009
   0.07373710 -0.04257213 -0.03010304       0.009
   0.11060565 -0.06385820 -0.04515457       0.005
   0.00000000  0.04257213 -0.01505152       0.009
   0.03686855  0.02128607 -0.03010304       0.009
   0.07373710  0.00000000 -0.04515457       0.009
   0.11060565 -0.02128607 -0.06020609       0.009
  -0.07373710  0.08514427  0.01505152       0.009
  -0.03686855  0.06385820  0.00000000       0.009
   0.00000000  0.08514427 -0.03010304       0.009
   0.03686855  0.06385820 -0.04515457       0.009
   0.07373710  0.04257213 -0.06020609       0.009
   0.11060565  0.02128607 -0.07525761       0.009
  -0.07373710  0.12771640  0.00000000       0.009
  -0.03686855  0.10643034 -0.01505152       0.009
   0.00000000  0.12771640 -0.04515457       0.005
   0.03686855  0.10643034 -0.06020609       0.009
   0.07373710  0.08514427 -0.07525761       0.009
   0.11060565  0.06385820 -0.09030913       0.005
  -0.00000000  0.00000000  0.04515457       0.009
   0.03686855 -0.02128607  0.03010304       0.009
   0.07373710 -0.04257213  0.01505152       0.009
   0.11060565 -0.06385820  0.00000000       0.009
  -0.07373710  0.04257213  0.07525761       0.009
  -0.03686855  0.02128607  0.06020609       0.009
  -0.00000000  0.04257213  0.03010304       0.009
   0.03686855  0.02128607  0.01505152       0.009
   0.07373710  0.00000000  0.00000000       0.009
   0.11060565 -0.02128607 -0.01505152       0.009
  -0.07373710  0.08514427  0.06020609       0.009
  -0.03686855  0.06385820  0.04515457       0.009
  -0.00000000  0.08514427  0.01505152       0.009
   0.03686855  0.06385820  0.00000000       0.009
   0.07373710  0.04257213 -0.01505152       0.009
   0.11060565  0.02128607 -0.03010304       0.009
  -0.07373710  0.12771640  0.04515457       0.009
  -0.03686855  0.10643034  0.03010304       0.009
  -0.00000000  0.12771640  0.00000000       0.009
   0.03686855  0.10643034 -0.01505152       0.009
   0.07373710  0.08514427 -0.03010304       0.009
   0.11060565  0.06385820 -0.04515457       0.009
  -0.07373710  0.17028854  0.03010304       0.009
  -0.03686855  0.14900247  0.01505152       0.009
  -0.00000000 -0.08514427  0.07525761       0.009
   0.03686855 -0.10643034  0.06020609       0.009
   0.07373710 -0.12771640  0.04515457       0.009
   0.11060565 -0.14900247  0.03010304       0.009
  -0.07373710 -0.04257213  0.10536066       0.009
  -0.03686855 -0.06385820  0.09030913       0.009
  -0.00000000 -0.04257213  0.06020609       0.009
   0.03686855 -0.06385820  0.04515457       0.009
   0.07373710 -0.08514427  0.03010304       0.009
   0.11060565 -0.10643034  0.01505152       0.009
  -0.07373710 -0.00000000  0.09030913       0.009
  -0.03686855 -0.02128607  0.07525761       0.009
  -0.00000000  0.00000000  0.09030913       0.009
   0.03686855 -0.02128607  0.07525761       0.009
   0.07373710 -0.04257213  0.06020609       0.009
   0.11060565 -0.06385820  0.04515457       0.009
  -0.07373710  0.04257213  0.12041218       0.009
  -0.03686855  0.02128607  0.10536066       0.009
  -0.00000000  0.04257213  0.07525761       0.009
   0.03686855  0.02128607  0.06020609       0.009
   0.07373710  0.00000000  0.04515457       0.009
   0.11060565 -0.02128607  0.03010304       0.009
  -0.07373710  0.08514427  0.10536066       0.009
  -0.03686855  0.06385820  0.09030913       0.009
  -0.00000000  0.08514427  0.06020609       0.009
   0.03686855  0.06385820  0.04515457       0.009
   0.07373710  0.04257213  0.03010304       0.009
   0.11060565  0.02128607  0.01505152       0.009
  -0.07373710  0.12771640  0.09030913       0.009
  -0.03686855  0.10643034  0.07525761       0.009
  -0.00000000  0.12771640  0.04515457       0.009
   0.03686855  0.10643034  0.03010304       0.009
   0.07373710  0.08514427  0.01505152       0.009
   0.11060565  0.06385820 -0.00000000       0.009
  -0.07373710  0.17028854  0.07525761       0.009
  -0.03686855  0.14900247  0.06020609       0.009
  -0.00000000 -0.08514427  0.12041218       0.009
   0.03686855 -0.10643034  0.10536066       0.009
   0.07373710 -0.12771640  0.09030913       0.009
   0.11060565 -0.14900247  0.07525761       0.009
  -0.07373710 -0.04257213  0.15051522       0.009
  -0.03686855 -0.06385820  0.13546370       0.009
  -0.00000000 -0.04257213  0.10536066       0.009
   0.03686855 -0.06385820  0.09030913       0.009
   0.07373710 -0.08514427  0.07525761       0.009
   0.11060565 -0.10643034  0.06020609       0.009
  -0.07373710 -0.00000000  0.13546370       0.009
  -0.03686855 -0.02128607  0.12041218       0.009
  -0.00000000  0.00000000  0.13546370       0.005
   0.03686855 -0.02128607  0.12041218       0.009
   0.07373710 -0.04257213  0.10536066       0.009
   0.11060565 -0.06385820  0.09030913       0.005
  -0.00000000  0.04257213  0.12041218       0.009
   0.03686855  0.02128607  0.10536066       0.009
   0.07373710  0.00000000  0.09030913       0.009
   0.11060565 -0.02128607  0.07525761       0.009
  -0.07373710  0.08514427  0.15051522       0.009
  -0.03686855  0.06385820  0.13546370       0.009
  -0.00000000  0.08514427  0.10536066       0.009
   0.03686855  0.06385820  0.09030913       0.009
   0.07373710  0.04257213  0.07525761       0.009
   0.11060565  0.02128607  0.06020609       0.009
  -0.07373710  0.12771640  0.13546370       0.009
  -0.03686855  0.10643034  0.12041218       0.009
  -0.00000000  0.12771640  0.09030913       0.005
   0.03686855  0.10643034  0.07525761       0.009
   0.07373710  0.08514427  0.06020609       0.009
 
 k-points in reciprocal lattice and weights: Automatically generated mesh + R-points 
   0.50000000  0.50000000  0.50000000       0.000
   0.47500000  0.47500000  0.47500000       0.000
   0.45000000  0.45000000  0.45000000       0.000
   0.42500000  0.42500000  0.42500000       0.000
   0.40000000  0.40000000  0.40000000       0.000
   0.37500000  0.37500000  0.37500000       0.000
   0.35000000  0.35000000  0.35000000       0.000
   0.32500000  0.32500000  0.32500000       0.000
   0.30000000  0.30000000  0.30000000       0.000
   0.27500000  0.27500000  0.27500000       0.000
   0.25000000  0.25000000  0.25000000       0.000
   0.22500000  0.22500000  0.22500000       0.000
   0.20000000  0.20000000  0.20000000       0.000
   0.17500000  0.17500000  0.17500000       0.000
   0.15000000  0.15000000  0.15000000       0.000
   0.12500000  0.12500000  0.12500000       0.000
   0.10000000  0.10000000  0.10000000       0.000
   0.07500000  0.07500000  0.07500000       0.000
   0.05000000  0.05000000  0.05000000       0.000
   0.02500000  0.02500000  0.02500000       0.000
   0.00000000  0.00000000  0.00000000       0.000
   0.00000000  0.02500000  0.02500000       0.000
   0.00000000  0.05000000  0.05000000       0.000
   0.00000000  0.07500000  0.07500000       0.000
   0.00000000  0.10000000  0.10000000       0.000
   0.00000000  0.12500000  0.12500000       0.000
   0.00000000  0.15000000  0.15000000       0.000
   0.00000000  0.17500000  0.17500000       0.000
   0.00000000  0.20000000  0.20000000       0.000
   0.00000000  0.22500000  0.22500000       0.000
   0.00000000  0.25000000  0.25000000       0.000
   0.00000000  0.27500000  0.27500000       0.000
   0.00000000  0.30000000  0.30000000       0.000
   0.00000000  0.32500000  0.32500000       0.000
   0.00000000  0.35000000  0.35000000       0.000
   0.00000000  0.37500000  0.37500000       0.000
   0.00000000  0.40000000  0.40000000       0.000
   0.00000000  0.42500000  0.42500000       0.000
   0.00000000  0.45000000  0.45000000       0.000
   0.00000000  0.47500000  0.47500000       0.000
   0.00000000  0.50000000  0.50000000       0.000
   0.00000000  0.00000000  0.00000000       0.005
   0.16666667  0.00000000  0.00000000       0.009
   0.33333333  0.00000000  0.00000000       0.009
   0.50000000  0.00000000  0.00000000       0.005
   0.00000000  0.16666667  0.00000000       0.009
   0.16666667  0.16666667  0.00000000       0.009
   0.33333333  0.16666667  0.00000000       0.009
   0.50000000  0.16666667  0.00000000       0.009
  -0.33333333  0.16666667  0.00000000       0.009
  -0.16666667  0.16666667  0.00000000       0.009
   0.00000000  0.33333333  0.00000000       0.009
   0.16666667  0.33333333  0.00000000       0.009
   0.33333333  0.33333333  0.00000000       0.009
   0.50000000  0.33333333  0.00000000       0.009
  -0.33333333  0.33333333  0.00000000       0.009
  -0.16666667  0.33333333  0.00000000       0.009
   0.00000000  0.50000000  0.00000000       0.005
   0.16666667  0.50000000  0.00000000       0.009
   0.33333333  0.50000000  0.00000000       0.009
   0.50000000  0.50000000  0.00000000       0.005
   0.00000000  0.00000000  0.16666667       0.009
   0.16666667  0.00000000  0.16666667       0.009
   0.33333333  0.00000000  0.16666667       0.009
   0.50000000  0.00000000  0.16666667       0.009
  -0.33333333  0.00000000  0.16666667       0.009
  -0.16666667  0.00000000  0.16666667       0.009
   0.00000000  0.16666667  0.16666667       0.009
   0.16666667  0.16666667  0.16666667       0.009
   0.33333333  0.16666667  0.16666667       0.009
   0.50000000  0.16666667  0.16666667       0.009
  -0.33333333  0.16666667  0.16666667       0.009
  -0.16666667  0.16666667  0.16666667       0.009
   0.00000000  0.33333333  0.16666667       0.009
   0.16666667  0.33333333  0.16666667       0.009
   0.33333333  0.33333333  0.16666667       0.009
   0.50000000  0.33333333  0.16666667       0.009
  -0.33333333  0.33333333  0.16666667       0.009
  -0.16666667  0.33333333  0.16666667       0.009
   0.00000000  0.50000000  0.16666667       0.009
   0.16666667  0.50000000  0.16666667       0.009
   0.33333333  0.50000000  0.16666667       0.009
   0.50000000  0.50000000  0.16666667       0.009
  -0.33333333  0.50000000  0.16666667       0.009
  -0.16666667  0.50000000  0.16666667       0.009
   0.00000000 -0.33333333  0.16666667       0.009
   0.16666667 -0.33333333  0.16666667       0.009
   0.33333333 -0.33333333  0.16666667       0.009
   0.50000000 -0.33333333  0.16666667       0.009
  -0.33333333 -0.33333333  0.16666667       0.009
  -0.16666667 -0.33333333  0.16666667       0.009
   0.00000000 -0.16666667  0.16666667       0.009
   0.16666667 -0.16666667  0.16666667       0.009
   0.33333333 -0.16666667  0.16666667       0.009
   0.50000000 -0.16666667  0.16666667       0.009
  -0.33333333 -0.16666667  0.16666667       0.009
  -0.16666667 -0.16666667  0.16666667       0.009
   0.00000000  0.00000000  0.33333333       0.009
   0.16666667  0.00000000  0.33333333       0.009
   0.33333333  0.00000000  0.33333333       0.009
   0.50000000  0.00000000  0.33333333       0.009
  -0.33333333  0.00000000  0.33333333       0.009
  -0.16666667  0.00000000  0.33333333       0.009
   0.00000000  0.16666667  0.33333333       0.009
   0.16666667  0.16666667  0.33333333       0.009
   0.33333333  0.16666667  0.33333333       0.009
   0.50000000  0.16666667  0.33333333       0.009
  -0.33333333  0.16666667  0.33333333       0.009
  -0.16666667  0.16666667  0.33333333       0.009
   0.00000000  0.33333333  0.33333333       0.009
   0.16666667  0.33333333  0.33333333       0.009
   0.33333333  0.33333333  0.33333333       0.009
   0.50000000  0.33333333  0.33333333       0.009
  -0.33333333  0.33333333  0.33333333       0.009
  -0.16666667  0.33333333  0.33333333       0.009
   0.00000000  0.50000000  0.33333333       0.009
   0.16666667  0.50000000  0.33333333       0.009
   0.33333333  0.50000000  0.33333333       0.009
   0.50000000  0.50000000  0.33333333       0.009
  -0.33333333  0.50000000  0.33333333       0.009
  -0.16666667  0.50000000  0.33333333       0.009
   0.00000000 -0.33333333  0.33333333       0.009
   0.16666667 -0.33333333  0.33333333       0.009
   0.33333333 -0.33333333  0.33333333       0.009
   0.50000000 -0.33333333  0.33333333       0.009
  -0.33333333 -0.33333333  0.33333333       0.009
  -0.16666667 -0.33333333  0.33333333       0.009
   0.00000000 -0.16666667  0.33333333       0.009
   0.16666667 -0.16666667  0.33333333       0.009
   0.33333333 -0.16666667  0.33333333       0.009
   0.50000000 -0.16666667  0.33333333       0.009
  -0.33333333 -0.16666667  0.33333333       0.009
  -0.16666667 -0.16666667  0.33333333       0.009
   0.00000000  0.00000000  0.50000000       0.005
   0.16666667  0.00000000  0.50000000       0.009
   0.33333333  0.00000000  0.50000000       0.009
   0.50000000  0.00000000  0.50000000       0.005
   0.00000000  0.16666667  0.50000000       0.009
   0.16666667  0.16666667  0.50000000       0.009
   0.33333333  0.16666667  0.50000000       0.009
   0.50000000  0.16666667  0.50000000       0.009
  -0.33333333  0.16666667  0.50000000       0.009
  -0.16666667  0.16666667  0.50000000       0.009
   0.00000000  0.33333333  0.50000000       0.009
   0.16666667  0.33333333  0.50000000       0.009
   0.33333333  0.33333333  0.50000000       0.009
   0.50000000  0.33333333  0.50000000       0.009
  -0.33333333  0.33333333  0.50000000       0.009
  -0.16666667  0.33333333  0.50000000       0.009
   0.00000000  0.50000000  0.50000000       0.005
   0.16666667  0.50000000  0.50000000       0.009
   0.33333333  0.50000000  0.50000000       0.009
 
 position of ions in fractional coordinates (direct lattice) 
   0.00000000  0.00000000  0.00000000
 
 position of ions in cartesian coordinates  (Angst):
   0.00000000  0.00000000  0.00000000
 


--------------------------------------------------------------------------------------------------------


 k-point  1 :   0.5000 0.5000 0.5000  plane waves:     778
 k-point  2 :   0.4750 0.4750 0.4750  plane waves:     778
 k-point  3 :   0.4500 0.4500 0.4500  plane waves:     772
 k-point  4 :   0.4250 0.4250 0.4250  plane waves:     769
 k-point  5 :   0.4000 0.4000 0.4000  plane waves:     769
 k-point  6 :   0.3750 0.3750 0.3750  plane waves:     769
 k-point  7 :   0.3500 0.3500 0.3500  plane waves:     769
 k-point  8 :   0.3250 0.3250 0.3250  plane waves:     769
 k-point  9 :   0.3000 0.3000 0.3000  plane waves:     769
 k-point 10 :   0.2750 0.2750 0.2750  plane waves:     775
 k-point 11 :   0.2500 0.2500 0.2500  plane waves:     778
 k-point 12 :   0.2250 0.2250 0.2250  plane waves:     784
 k-point 13 :   0.2000 0.2000 0.2000  plane waves:     776
 k-point 14 :   0.1750 0.1750 0.1750  plane waves:     785
 k-point 15 :   0.1500 0.1500 0.1500  plane waves:     779
 k-point 16 :   0.1250 0.1250 0.1250  plane waves:     773
 k-point 17 :   0.1000 0.1000 0.1000  plane waves:     770
 k-point 18 :   0.0750 0.0750 0.0750  plane waves:     752
 k-point 19 :   0.0500 0.0500 0.0500  plane waves:     755
 k-point 20 :   0.0250 0.0250 0.0250  plane waves:     749
 k-point 21 :   0.0000 0.0000 0.0000  plane waves:     749
 k-point 22 :   0.0000 0.0250 0.0250  plane waves:     749
 k-point 23 :   0.0000 0.0500 0.0500  plane waves:     749
 k-point 24 :   0.0000 0.0750 0.0750  plane waves:     757
 k-point 25 :   0.0000 0.1000 0.1000  plane waves:     769
 k-point 26 :   0.0000 0.1250 0.1250  plane waves:     769
 k-point 27 :   0.0000 0.1500 0.1500  plane waves:     777
 k-point 28 :   0.0000 0.1750 0.1750  plane waves:     785
 k-point 29 :   0.0000 0.2000 0.2000  plane waves:     785
 k-point 30 :   0.0000 0.2250 0.2250  plane waves:     777
 k-point 31 :   0.0000 0.2500 0.2500  plane waves:     769
 k-point 32 :   0.0000 0.2750 0.2750  plane waves:     777
 k-point 33 :   0.0000 0.3000 0.3000  plane waves:     781
 k-point 34 :   0.0000 0.3250 0.3250  plane waves:     769
 k-point 35 :   0.0000 0.3500 0.3500  plane waves:     769
 k-point 36 :   0.0000 0.3750 0.3750  plane waves:     765
 k-point 37 :   0.0000 0.4000 0.4000  plane waves:     773
 k-point 38 :   0.0000 0.4250 0.4250  plane waves:     769
 k-point 39 :   0.0000 0.4500 0.4500  plane waves:     769
 k-point 40 :   0.0000 0.4750 0.4750  plane waves:     773
 k-point 41 :   0.0000 0.5000 0.5000  plane waves:     774
 k-point 42 :   0.0000 0.0000 0.0000  plane waves:     749
 k-point 43 :   0.1667 0.0000 0.0000  plane waves:     785
 k-point 44 :   0.3333 0.0000 0.0000  plane waves:     769
 k-point 45 :   0.5000 0.0000 0.0000  plane waves:     778
 k-point 46 :   0.0000 0.1667 0.0000  plane waves:     785
 k-point 47 :   0.1667 0.1667 0.0000  plane waves:     785
 k-point 48 :   0.3333 0.1667 0.0000  plane waves:     773
 k-point 49 :   0.5000 0.1667 0.0000  plane waves:     772
 k-point 50 :  -0.3333 0.1667 0.0000  plane waves:     773
 k-point 51 :  -0.1667 0.1667 0.0000  plane waves:     767
 k-point 52 :   0.0000 0.3333 0.0000  plane waves:     769
 k-point 53 :   0.1667 0.3333 0.0000  plane waves:     773
 k-point 54 :   0.3333 0.3333 0.0000  plane waves:     769
 k-point 55 :   0.5000 0.3333 0.0000  plane waves:     769
 k-point 56 :  -0.3333 0.3333 0.0000  plane waves:     776
 k-point 57 :  -0.1667 0.3333 0.0000  plane waves:     773
 k-point 58 :   0.0000 0.5000 0.0000  plane waves:     778
 k-point 59 :   0.1667 0.5000 0.0000  plane waves:     772
 k-point 60 :   0.3333 0.5000 0.0000  plane waves:     769
 k-point 61 :   0.5000 0.5000 0.0000  plane waves:     774
 k-point 62 :   0.0000 0.0000 0.1667  plane waves:     785
 k-point 63 :   0.1667 0.0000 0.1667  plane waves:     785
 k-point 64 :   0.3333 0.0000 0.1667  plane waves:     773
 k-point 65 :   0.5000 0.0000 0.1667  plane waves:     772
 k-point 66 :  -0.3333 0.0000 0.1667  plane waves:     773
 k-point 67 :  -0.1667 0.0000 0.1667  plane waves:     767
 k-point 68 :   0.0000 0.1667 0.1667  plane waves:     785
 k-point 69 :   0.1667 0.1667 0.1667  plane waves:     785
 k-point 70 :   0.3333 0.1667 0.1667  plane waves:     767
 k-point 71 :   0.5000 0.1667 0.1667  plane waves:     773
 k-point 72 :  -0.3333 0.1667 0.1667  plane waves:     772
 k-point 73 :  -0.1667 0.1667 0.1667  plane waves:     773
 k-point 74 :   0.0000 0.3333 0.1667  plane waves:     773
 k-point 75 :   0.1667 0.3333 0.1667  plane waves:     767
 k-point 76 :   0.3333 0.3333 0.1667  plane waves:     773
 k-point 77 :   0.5000 0.3333 0.1667  plane waves:     763
 k-point 78 :  -0.3333 0.3333 0.1667  plane waves:     760
 k-point 79 :  -0.1667 0.3333 0.1667  plane waves:     763
 k-point 80 :   0.0000 0.5000 0.1667  plane waves:     772
 k-point 81 :   0.1667 0.5000 0.1667  plane waves:     773
 k-point 82 :   0.3333 0.5000 0.1667  plane waves:     763
 k-point 83 :   0.5000 0.5000 0.1667  plane waves:     769
 k-point 84 :  -0.3333 0.5000 0.1667  plane waves:     768
 k-point 85 :  -0.1667 0.5000 0.1667  plane waves:     760
 k-point 86 :   0.0000-0.3333 0.1667  plane waves:     773
 k-point 87 :   0.1667-0.3333 0.1667  plane waves:     772
 k-point 88 :   0.3333-0.3333 0.1667  plane waves:     760
 k-point 89 :   0.5000-0.3333 0.1667  plane waves:     768
 k-point 90 :  -0.3333-0.3333 0.1667  plane waves:     769
 k-point 91 :  -0.1667-0.3333 0.1667  plane waves:     763
 k-point 92 :   0.0000-0.1667 0.1667  plane waves:     767
 k-point 93 :   0.1667-0.1667 0.1667  plane waves:     773
 k-point 94 :   0.3333-0.1667 0.1667  plane waves:     763
 k-point 95 :   0.5000-0.1667 0.1667  plane waves:     760
 k-point 96 :  -0.3333-0.1667 0.1667  plane waves:     763
 k-point 97 :  -0.1667-0.1667 0.1667  plane waves:     773
 k-point 98 :   0.0000 0.0000 0.3333  plane waves:     769
 k-point 99 :   0.1667 0.0000 0.3333  plane waves:     773
 k-point ** :   0.3333 0.0000 0.3333  plane waves:     769
 k-point ** :   0.5000 0.0000 0.3333  plane waves:     769
 k-point ** :  -0.3333 0.0000 0.3333  plane waves:     776
 k-point ** :  -0.1667 0.0000 0.3333  plane waves:     773
 k-point ** :   0.0000 0.1667 0.3333  plane waves:     773
 k-point ** :   0.1667 0.1667 0.3333  plane waves:     767
 k-point ** :   0.3333 0.1667 0.3333  plane waves:     773
 k-point ** :   0.5000 0.1667 0.3333  plane waves:     763
 k-point ** :  -0.3333 0.1667 0.3333  plane waves:     760
 k-point ** :  -0.1667 0.1667 0.3333  plane waves:     763
 k-point ** :   0.0000 0.3333 0.3333  plane waves:     769
 k-point ** :   0.1667 0.3333 0.3333  plane waves:     773
 k-point ** :   0.3333 0.3333 0.3333  plane waves:     769
 k-point ** :   0.5000 0.3333 0.3333  plane waves:     773
 k-point ** :  -0.3333 0.3333 0.3333  plane waves:     776
 k-point ** :  -0.1667 0.3333 0.3333  plane waves:     769
 k-point ** :   0.0000 0.5000 0.3333  plane waves:     769
 k-point ** :   0.1667 0.5000 0.3333  plane waves:     763
 k-point ** :   0.3333 0.5000 0.3333  plane waves:     773
 k-point ** :   0.5000 0.5000 0.3333  plane waves:     772
 k-point ** :  -0.3333 0.5000 0.3333  plane waves:     760
 k-point ** :  -0.1667 0.5000 0.3333  plane waves:     768
 k-point ** :   0.0000-0.3333 0.3333  plane waves:     776
 k-point ** :   0.1667-0.3333 0.3333  plane waves:     760
 k-point ** :   0.3333-0.3333 0.3333  plane waves:     776
 k-point ** :   0.5000-0.3333 0.3333  plane waves:     760
 k-point ** :  -0.3333-0.3333 0.3333  plane waves:     776
 k-point ** :  -0.1667-0.3333 0.3333  plane waves:     760
 k-point ** :   0.0000-0.1667 0.3333  plane waves:     773
 k-point ** :   0.1667-0.1667 0.3333  plane waves:     763
 k-point ** :   0.3333-0.1667 0.3333  plane waves:     769
 k-point ** :   0.5000-0.1667 0.3333  plane waves:     768
 k-point ** :  -0.3333-0.1667 0.3333  plane waves:     760
 k-point ** :  -0.1667-0.1667 0.3333  plane waves:     772
 k-point ** :   0.0000 0.0000 0.5000  plane waves:     778
 k-point ** :   0.1667 0.0000 0.5000  plane waves:     772
 k-point ** :   0.3333 0.0000 0.5000  plane waves:     769
 k-point ** :   0.5000 0.0000 0.5000  plane waves:     774
 k-point ** :   0.0000 0.1667 0.5000  plane waves:     772
 k-point ** :   0.1667 0.1667 0.5000  plane waves:     773
 k-point ** :   0.3333 0.1667 0.5000  plane waves:     763
 k-point ** :   0.5000 0.1667 0.5000  plane waves:     769
 k-point ** :  -0.3333 0.1667 0.5000  plane waves:     768
 k-point ** :  -0.1667 0.1667 0.5000  plane waves:     760
 k-point ** :   0.0000 0.3333 0.5000  plane waves:     769
 k-point ** :   0.1667 0.3333 0.5000  plane waves:     763
 k-point ** :   0.3333 0.3333 0.5000  plane waves:     773
 k-point ** :   0.5000 0.3333 0.5000  plane waves:     772
 k-point ** :  -0.3333 0.3333 0.5000  plane waves:     760
 k-point ** :  -0.1667 0.3333 0.5000  plane waves:     768
 k-point ** :   0.0000 0.5000 0.5000  plane waves:     774
 k-point ** :   0.1667 0.5000 0.5000  plane waves:     769
 k-point ** :   0.3333 0.5000 0.5000  plane waves:     772

 maximum and minimum number of plane-waves per node :       205      179

 maximum number of plane-waves:       785
 maximum index in each direction: 
   IXMAX=    6   IYMAX=    6   IZMAX=    6
   IXMIN=   -6   IYMIN=   -6   IZMIN=   -6


 parallel 3D FFT for wavefunctions:
    minimum data exchange during FFTs selected (reduces bandwidth)
 parallel 3D FFT for charge:
    minimum data exchange during FFTs selected (reduces bandwidth)


 total amount of memory used by VASP MPI-rank0    74573. kBytes
=======================================================================

   base      :      30000. kBytes
   nonl-proj :       8866. kBytes
   fftplans  :      12955. kBytes
   grid      :       4477. kBytes
   one-center:         65. kBytes
   wavefun   :      18210. kBytes
 
     INWAV:  cpu time    0.3001: real time    0.3001
 Broyden mixing: mesh for mixing (old mesh)
   NGX = 13   NGY = 13   NGZ = 13
  (NGX  = 56   NGY  = 56   NGZ  = 56)
  gives a total of   2197 points

 charge density for first step will be calculated from the start-wavefunctions


--------------------------------------------------------------------------------------------------------


 Maximum index for augmentation-charges        25067 (set IRDMAX)


--------------------------------------------------------------------------------------------------------


 initial charge from wavefunction
 First call to EWALD:  gamma=   0.440
 Maximum number of real-space cells 3x 3x 3
 Maximum number of reciprocal cells 3x 3x 3

    FEWALD:  cpu time    0.0022: real time    0.0022


--------------------------------------- Iteration      1(   1)  ---------------------------------------


    POTLOK:  cpu time    0.1325: real time    0.1332
    SETDIJ:  cpu time    0.0908: real time    0.0908
     EDDAV:  cpu time    3.5507: real time    3.5495
       DOS:  cpu time    0.0010: real time    0.0010
    --------------------------------------------
      LOOP:  cpu time    3.7750: real time    3.7745

 eigenvalue-minimisations  : 11016
 total energy-change (2. order) :-0.8098461E+02  (-0.6947961E-09)
 number of electron      18.0000001 magnetization 
 augmentation part        7.1399232 magnetization 

 Free energy of the ion-electron system (eV)
  ---------------------------------------------------
  alpha Z        PSCENC =        64.91123397
  Ewald energy   TEWEN  =     -1672.97583954
  -Hartree energ DENC   =     -1019.44437425
  -exchange      EXHF   =         0.00000000
  -V(xc)+E(xc)   XCENC  =        59.19928495
  PAW double counting   =      2390.05319219    -2450.60298632
  entropy T*S    EENTRO =        -0.00000000
  eigenvalues    EBANDS =      -482.74922537
  atomic energy  EATOM  =      3030.62410580
  Solvation  Ediel_sol  =         0.00000000
  ---------------------------------------------------
  free energy    TOTEN  =       -80.98460857 eV

  energy without entropy =      -80.98460857  energy(sigma->0) =      -80.98460857


--------------------------------------------------------------------------------------------------------




--------------------------------------- Iteration      1(   2)  ---------------------------------------


     EDDAV:  cpu time    3.0889: real time    3.0877
       DOS:  cpu time    0.0009: real time    0.0009
    --------------------------------------------
      LOOP:  cpu time    3.0898: real time    3.0886

 eigenvalue-minimisations  :  8544
 total energy-change (2. order) :-0.1728040E-10  (-0.1532397E-11)
 number of electron      18.0000001 magnetization 
 augmentation part        7.1399232 magnetization 

 Free energy of the ion-electron system (eV)
  ---------------------------------------------------
  alpha Z        PSCENC =        64.91123397
  Ewald energy   TEWEN  =     -1672.97583954
  -Hartree energ DENC   =     -1019.44437425
  -exchange      EXHF   =         0.00000000
  -V(xc)+E(xc)   XCENC  =        59.19928495
  PAW double counting   =      2390.05319219    -2450.60298632
  entropy T*S    EENTRO =        -0.00000000
  eigenvalues    EBANDS =      -482.74922537
  atomic energy  EATOM  =      3030.62410580
  Solvation  Ediel_sol  =         0.00000000
  ---------------------------------------------------
  free energy    TOTEN  =       -80.98460857 eV

  energy without entropy =      -80.98460857  energy(sigma->0) =      -80.98460857


--------------------------------------------------------------------------------------------------------




--------------------------------------- Iteration      1(   3)  ---------------------------------------


     EDDAV:  cpu time    3.1696: real time    3.1686
       DOS:  cpu time    0.0009: real time    0.0009
    --------------------------------------------
      LOOP:  cpu time    3.1705: real time    3.1695

 eigenvalue-minimisations  :  8832
 total energy-change (2. order) : 0.2455636E-10  (-0.1534648E-12)
 number of electron      18.0000001 magnetization 
 augmentation part        7.1399232 magnetization 

 Free energy of the ion-electron system (eV)
  ---------------------------------------------------
  alpha Z        PSCENC =        64.91123397
  Ewald energy   TEWEN  =     -1672.97583954
  -Hartree energ DENC   =     -1019.44437425
  -exchange      EXHF   =         0.00000000
  -V(xc)+E(xc)   XCENC  =        59.19928495
  PAW double counting   =      2390.05319219    -2450.60298632
  entropy T*S    EENTRO =        -0.00000000
  eigenvalues    EBANDS =      -482.74922537
  atomic energy  EATOM  =      3030.62410580
  Solvation  Ediel_sol  =         0.00000000
  ---------------------------------------------------
  free energy    TOTEN  =       -80.98460857 eV

  energy without entropy =      -80.98460857  energy(sigma->0) =      -80.98460857


--------------------------------------------------------------------------------------------------------




--------------------------------------- Iteration      1(   4)  ---------------------------------------


     EDDAV:  cpu time    3.1109: real time    3.1101
       DOS:  cpu time    0.0009: real time    0.0009
    --------------------------------------------
      LOOP:  cpu time    3.1119: real time    3.1110

 eigenvalue-minimisations  :  8392
 total energy-change (2. order) :-0.5456968E-11  ( 0.7654859E-14)
 number of electron      18.0000001 magnetization 
 augmentation part        7.1399232 magnetization 

 Free energy of the ion-electron system (eV)
  ---------------------------------------------------
  alpha Z        PSCENC =        64.91123397
  Ewald energy   TEWEN  =     -1672.97583954
  -Hartree energ DENC   =     -1019.44437425
  -exchange      EXHF   =         0.00000000
  -V(xc)+E(xc)   XCENC  =        59.19928495
  PAW double counting   =      2390.05319219    -2450.60298632
  entropy T*S    EENTRO =        -0.00000000
  eigenvalues    EBANDS =      -482.74922537
  atomic energy  EATOM  =      3030.62410580
  Solvation  Ediel_sol  =         0.00000000
  ---------------------------------------------------
  free energy    TOTEN  =       -80.98460857 eV

  energy without entropy =      -80.98460857  energy(sigma->0) =      -80.98460857


--------------------------------------------------------------------------------------------------------




--------------------------------------- Iteration      1(   5)  ---------------------------------------


     EDDAV:  cpu time    3.1270: real time    3.1256
       DOS:  cpu time    0.0008: real time    0.0008
    CHARGE:  cpu time    0.6503: real time    0.6500
    MIXING:  cpu time    0.0020: real time    0.0020
    --------------------------------------------
      LOOP:  cpu time    3.7801: real time    3.7785

 eigenvalue-minimisations  :  8608
 total energy-change (2. order) : 0.1455192E-10  (-0.8448023E-14)
 number of electron      18.0000001 magnetization 
 augmentation part        7.1399216 magnetization 

 Broyden mixing:
  rms(total) = 0.29368E-05    rms(broyden)= 0.29358E-05
  rms(prec ) = 0.50373E-05
  weight for this iteration     100.00

 Free energy of the ion-electron system (eV)
  ---------------------------------------------------
  alpha Z        PSCENC =        64.91123397
  Ewald energy   TEWEN  =     -1672.97583954
  -Hartree energ DENC   =     -1019.44437425
  -exchange      EXHF   =         0.00000000
  -V(xc)+E(xc)   XCENC  =        59.19928495
  PAW double counting   =      2390.05319219    -2450.60298632
  entropy T*S    EENTRO =        -0.00000000
  eigenvalues    EBANDS =      -482.74922537
  atomic energy  EATOM  =      3030.62410580
  Solvation  Ediel_sol  =         0.00000000
  ---------------------------------------------------
  free energy    TOTEN  =       -80.98460857 eV

  energy without entropy =      -80.98460857  energy(sigma->0) =      -80.98460857


--------------------------------------------------------------------------------------------------------




--------------------------------------- Iteration      1(   6)  ---------------------------------------


    POTLOK:  cpu time    0.1274: real time    0.1275
    SETDIJ:  cpu time    0.0908: real time    0.0908
     EDDAV:  cpu time    3.2130: real time    3.2118
       DOS:  cpu time    0.0008: real time    0.0008
    --------------------------------------------
      LOOP:  cpu time    3.4321: real time    3.4308

 eigenvalue-minimisations  :  9120
 total energy-change (2. order) : 0.8620191E-08  (-0.2756513E-09)
 number of electron      18.0000001 magnetization 
 augmentation part        7.1399216 magnetization 

 Free energy of the ion-electron system (eV)
  ---------------------------------------------------
  alpha Z        PSCENC =        64.91123397
  Ewald energy   TEWEN  =     -1672.97583954
  -Hartree energ DENC   =     -1019.44436568
  -exchange      EXHF   =         0.00000000
  -V(xc)+E(xc)   XCENC  =        59.19929042
  PAW double counting   =      2390.05643418    -2450.60626217
  entropy T*S    EENTRO =        -0.00000000
  eigenvalues    EBANDS =      -482.74920554
  atomic energy  EATOM  =      3030.62410580
  Solvation  Ediel_sol  =         0.00000000
  ---------------------------------------------------
  free energy    TOTEN  =       -80.98460856 eV

  energy without entropy =      -80.98460856  energy(sigma->0) =      -80.98460856


--------------------------------------------------------------------------------------------------------




 average (electrostatic) potential at core
  the test charge radii are     1.0367
  (the norm of the test charge is              1.0000)
       1 -90.8908
 
 
 
 E-fermi :  -2.6503     XC(G=0):  -7.4103     alpha+bet : -4.5354


 k-point     1 :       0.5000    0.5000    0.5000
  band No.  band energies     occupation 
      1     -42.4907      2.00000
      2     -42.4907      2.00000
      3     -42.4890      2.00000
      4     -42.4888      2.00000
      5     -42.4888      2.00000
      6     -18.0676      2.00000
      7      -4.6067      2.00000
      8      -3.0756      2.00000
      9      -3.0755      2.00000
     10       4.5343      0.00000
     11       7.6263      0.00000
     12       7.6263      0.00000
     13       7.9817      0.00000
     14      10.0840      0.00000
     15      12.5469      0.00000
     16      12.5469      0.00000
     17      12.9589      0.00000
     18      12.9589      0.00000
     19      13.4960      0.00000
     20      17.1958      0.00000
     21      17.6230      0.00000
     22      17.6230      0.00000
     23      19.2890      0.00000
     24      20.1329      0.00000
     25      21.2146      0.00000
     26      21.5302      0.00000
     27      21.5302      0.00000
     28      22.6009      0.00000
     29      22.6009      0.00000
     30      24.6008      0.00000
     31      25.1604      0.00000
     32      26.4463      0.00000

 k-point     2 :       0.4750    0.4750    0.4750
  band No.  band energies     occupation 
      1     -42.4907      2.00000
      2     -42.4907      2.00000
      3     -42.4890      2.00000
      4     -42.4888      2.00000
      5     -42.4888      2.00000
      6     -18.0685      2.00000
      7      -4.5985      2.00000
      8      -3.0743      2.00000
      9      -3.0743      2.00000
     10       4.5339      0.00000
     11       7.6327      0.00000
     12       7.6327      0.00000
     13       7.9693      0.00000
     14      10.0532      0.00000
     15      12.3286      0.00000
     16      12.3286      0.00000
     17      13.1896      0.00000
     18      13.1896      0.00000
     19      13.5681      0.00000
     20      17.0954      0.00000
     21      17.5734      0.00000
     22      17.5734      0.00000
     23      19.2874      0.00000
     24      20.1928      0.00000
     25      21.1802      0.00000
     26      21.5468      0.00000
     27      21.5468      0.00000
     28      22.6207      0.00000
     29      22.6207      0.00000
     30      24.5636      0.00000
     31      25.2189      0.00000
     32      26.4430      0.00000

 k-point     3 :       0.4500    0.4500    0.4500
  band No.  band energies     occupation 
      1     -42.4907      2.00000
      2     -42.4907      2.00000
      3     -42.4890      2.00000
      4     -42.4887      2.00000
      5     -42.4887      2.00000
      6     -18.0709      2.00000
      7      -4.5738      2.00000
      8      -3.0706      2.00000
      9      -3.0706      2.00000
     10       4.5324      0.00000
     11       7.6518      0.00000
     12       7.6518      0.00000
     13       7.9307      0.00000
     14       9.9737      0.00000
     15      11.9956      0.00000
     16      11.9956      0.00000
     17      13.5599      0.00000
     18      13.5599      0.00000
     19      13.7731      0.00000
     20      16.8256      0.00000
     21      17.4310      0.00000
     22      17.4310      0.00000
     23      19.2825      0.00000
     24      20.2994      0.00000
     25      21.1246      0.00000
     26      21.5892      0.00000
     27      21.5893      0.00000
     28      22.6814      0.00000
     29      22.6814      0.00000
     30      24.4871      0.00000
     31      25.3590      0.00000
     32      26.4323      0.00000

 k-point     4 :       0.4250    0.4250    0.4250
  band No.  band energies     occupation 
      1     -42.4906      2.00000
      2     -42.4906      2.00000
      3     -42.4890      2.00000
      4     -42.4887      2.00000
      5     -42.4887      2.00000
      6     -18.0753      2.00000
      7      -4.5330      2.00000
      8      -3.0644      2.00000
      9      -3.0644      2.00000
     10       4.5281      0.00000
     11       7.6833      0.00000
     12       7.6833      0.00000
     13       7.8633      0.00000
     14       9.8754      0.00000
     15      11.6620      0.00000
     16      11.6620      0.00000
     17      13.9552      0.00000
     18      13.9552      0.00000
     19      14.0850      0.00000
     20      16.4470      0.00000
     21      17.2113      0.00000
     22      17.2113      0.00000
     23      19.2743      0.00000
     24      20.2617      0.00000
     25      21.1950      0.00000
     26      21.6406      0.00000
     27      21.6407      0.00000
     28      22.7837      0.00000
     29      22.7838      0.00000
     30      24.4125      0.00000
     31      25.5420      0.00000
     32      26.4154      0.00000

 k-point     5 :       0.4000    0.4000    0.4000
  band No.  band energies     occupation 
      1     -42.4906      2.00000
      2     -42.4906      2.00000
      3     -42.4890      2.00000
      4     -42.4888      2.00000
      5     -42.4888      2.00000
      6     -18.0813      2.00000
      7      -4.4764      2.00000
      8      -3.0560      2.00000
      9      -3.0560      2.00000
     10       4.5185      0.00000
     11       7.7266      0.00000
     12       7.7266      0.00000
     13       7.7658      0.00000
     14       9.7888      0.00000
     15      11.3410      0.00000
     16      11.3410      0.00000
     17      14.3621      0.00000
     18      14.3621      0.00000
     19      14.4764      0.00000
     20      16.0086      0.00000
     21      16.9333      0.00000
     22      16.9333      0.00000
     23      19.2632      0.00000
     24      20.0115      0.00000
     25      21.4311      0.00000
     26      21.6858      0.00000
     27      21.6858      0.00000
     28      22.9242      0.00000
     29      22.9242      0.00000
     30      24.3533      0.00000
     31      25.7556      0.00000
     32      26.3923      0.00000

 k-point     6 :       0.3750    0.3750    0.3750
  band No.  band energies     occupation 
      1     -42.4906      2.00000
      2     -42.4906      2.00000
      3     -42.4891      2.00000
      4     -42.4888      2.00000
      5     -42.4888      2.00000
      6     -18.0889      2.00000
      7      -4.4049      2.00000
      8      -3.0456      2.00000
      9      -3.0456      2.00000
     10       4.4997      0.00000
     11       7.6424      0.00000
     12       7.7809      0.00000
     13       7.7809      0.00000
     14       9.7345      0.00000
     15      11.0368      0.00000
     16      11.0368      0.00000
     17      14.7751      0.00000
     18      14.7751      0.00000
     19      14.9194      0.00000
     20      15.5464      0.00000
     21      16.6151      0.00000
     22      16.6151      0.00000
     23      19.2495      0.00000
     24      19.6444      0.00000
     25      21.7181      0.00000
     26      21.7181      0.00000
     27      21.7268      0.00000
     28      23.0926      0.00000
     29      23.0927      0.00000
     30      24.3107      0.00000
     31      25.9867      0.00000
     32      26.3646      0.00000

 k-point     7 :       0.3500    0.3500    0.3500
  band No.  band energies     occupation 
      1     -42.4906      2.00000
      2     -42.4906      2.00000
      3     -42.4891      2.00000
      4     -42.4888      2.00000
      5     -42.4888      2.00000
      6     -18.0976      2.00000
      7      -4.3193      2.00000
      8      -3.0332      2.00000
      9      -3.0332      2.00000
     10       4.4666      0.00000
     11       7.5043      0.00000
     12       7.8448      0.00000
     13       7.8448      0.00000
     14       9.7212      0.00000
     15      10.7526      0.00000
     16      10.7526      0.00000
     17      15.0175      0.00000
     18      15.1876      0.00000
     19      15.1876      0.00000
     20      15.4596      0.00000
     21      16.2734      0.00000
     22      16.2734      0.00000
     23      19.2206      0.00000
     24      19.2336      0.00000
     25      21.7387      0.00000
     26      21.7388      0.00000
     27      22.0215      0.00000
     28      23.2764      0.00000
     29      23.2764      0.00000
     30      24.2819      0.00000
     31      26.2138      0.00000
     32      26.3325      0.00000

 k-point     8 :       0.3250    0.3250    0.3250
  band No.  band energies     occupation 
      1     -42.4906      2.00000
      2     -42.4906      2.00000
      3     -42.4892      2.00000
      4     -42.4889      2.00000
      5     -42.4889      2.00000
      6     -18.1075      2.00000
      7      -4.2207      2.00000
      8      -3.0193      2.00000
      9      -3.0193      2.00000
     10       4.4137      0.00000
     11       7.3672      0.00000
     12       7.9163      0.00000
     13       7.9163      0.00000
     14       9.7487      0.00000
     15      10.4915      0.00000
     16      10.4915      0.00000
     17      14.5454      0.00000
     18      15.5642      0.00000
     19      15.5642      0.00000
     20      15.9511      0.00000
     21      15.9511      0.00000
     22      15.9739      0.00000
     23      18.7679      0.00000
     24      19.2159      0.00000
     25      21.7522      0.00000
     26      21.7523      0.00000
     27      22.2923      0.00000
     28      23.4633      0.00000
     29      23.4634      0.00000
     30      24.2637      0.00000
     31      26.2968      0.00000
     32      26.4109      0.00000

 k-point     9 :       0.3000    0.3000    0.3000
  band No.  band energies     occupation 
      1     -42.4906      2.00000
      2     -42.4906      2.00000
      3     -42.4892      2.00000
      4     -42.4890      2.00000
      5     -42.4890      2.00000
      6     -18.1181      2.00000
      7      -4.1104      2.00000
      8      -3.0041      2.00000
      9      -3.0041      2.00000
     10       4.3353      0.00000
     11       7.2479      0.00000
     12       7.9924      0.00000
     13       7.9924      0.00000
     14       9.8124      0.00000
     15      10.2571      0.00000
     16      10.2571      0.00000
     17      14.0625      0.00000
     18      15.4719      0.00000
     19      15.4719      0.00000
     20      16.0853      0.00000
     21      16.0853      0.00000
     22      16.5283      0.00000
     23      18.3030      0.00000
     24      19.1968      0.00000
     25      21.7639      0.00000
     26      21.7639      0.00000
     27      22.5317      0.00000
     28      23.6451      0.00000
     29      23.6451      0.00000
     30      24.2538      0.00000
     31      26.2581      0.00000
     32      26.5687      0.00000

 k-point    10 :       0.2750    0.2750    0.2750
  band No.  band energies     occupation 
      1     -42.4907      2.00000
      2     -42.4907      2.00000
      3     -42.4893      2.00000
      4     -42.4892      2.00000
      5     -42.4892      2.00000
      6     -18.1294      2.00000
      7      -3.9902      2.00000
      8      -2.9880      2.00000
      9      -2.9880      2.00000
     10       4.2280      0.00000
     11       7.1601      0.00000
     12       8.0686      0.00000
     13       8.0686      0.00000
     14       9.9067      0.00000
     15      10.0546      0.00000
     16      10.0546      0.00000
     17      13.5871      0.00000
     18      15.1106      0.00000
     19      15.1106      0.00000
     20      16.4780      0.00000
     21      16.4780      0.00000
     22      17.0962      0.00000
     23      17.8439      0.00000
     24      19.1769      0.00000
     25      21.7787      0.00000
     26      21.7787      0.00000
     27      22.7397      0.00000
     28      23.8162      0.00000
     29      23.8162      0.00000
     30      24.2504      0.00000
     31      26.2174      0.00000
     32      26.4323      0.00000

 k-point    11 :       0.2500    0.2500    0.2500
  band No.  band energies     occupation 
      1     -42.4907      2.00000
      2     -42.4907      2.00000
      3     -42.4894      2.00000
      4     -42.4893      2.00000
      5     -42.4893      2.00000
      6     -18.1409      2.00000
      7      -3.8619      2.00000
      8      -2.9713      2.00000
      9      -2.9713      2.00000
     10       4.0915      0.00000
     11       7.1124      0.00000
     12       8.1384      0.00000
     13       8.1384      0.00000
     14       9.8908      0.00000
     15       9.8908      0.00000
     16      10.0258      0.00000
     17      13.1250      0.00000
     18      14.7343      0.00000
     19      14.7343      0.00000
     20      16.8744      0.00000
     21      16.8744      0.00000
     22      17.3079      0.00000
     23      17.7614      0.00000
     24      19.1568      0.00000
     25      21.8020      0.00000
     26      21.8020      0.00000
     27      22.9191      0.00000
     28      23.9756      0.00000
     29      23.9756      0.00000
     30      24.2526      0.00000
     31      26.1752      0.00000
     32      26.1779      0.00000

 k-point    12 :       0.2250    0.2250    0.2250
  band No.  band energies     occupation 
      1     -42.4907      2.00000
      2     -42.4907      2.00000
      3     -42.4895      2.00000
      4     -42.4894      2.00000
      5     -42.4894      2.00000
      6     -18.1524      2.00000
      7      -3.7279      2.00000
      8      -2.9545      2.00000
      9      -2.9545      2.00000
     10       3.9296      0.00000
     11       7.1078      0.00000
     12       8.1935      0.00000
     13       8.1935      0.00000
     14       9.7744      0.00000
     15       9.7744      0.00000
     16      10.1640      0.00000
     17      12.6812      0.00000
     18      14.3588      0.00000
     19      14.3588      0.00000
     20      16.8739      0.00000
     21      17.2568      0.00000
     22      17.2568      0.00000
     23      18.3453      0.00000
     24      19.1368      0.00000
     25      21.8379      0.00000
     26      21.8379      0.00000
     27      23.0739      0.00000
     28      24.1236      0.00000
     29      24.1237      0.00000
     30      24.2604      0.00000
     31      26.1325      0.00000
     32      26.1335      0.00000

 k-point    13 :       0.2000    0.2000    0.2000
  band No.  band energies     occupation 
      1     -42.4907      2.00000
      2     -42.4907      2.00000
      3     -42.4895      2.00000
      4     -42.4894      2.00000
      5     -42.4894      2.00000
      6     -18.1630      2.00000
      7      -3.5909      2.00000
      8      -2.9379      2.00000
      9      -2.9379      2.00000
     10       3.7496      0.00000
     11       7.1445      0.00000
     12       8.2254      0.00000
     13       8.2254      0.00000
     14       9.7140      0.00000
     15       9.7140      0.00000
     16      10.3136      0.00000
     17      12.2629      0.00000
     18      13.9891      0.00000
     19      13.9891      0.00000
     20      16.4264      0.00000
     21      17.6166      0.00000
     22      17.6166      0.00000
     23      18.9632      0.00000
     24      19.1177      0.00000
     25      21.8914      0.00000
     26      21.8914      0.00000
     27      23.2092      0.00000
     28      24.2626      0.00000
     29      24.2626      0.00000
     30      24.2750      0.00000
     31      26.0902      0.00000
     32      26.0905      0.00000

 k-point    14 :       0.1750    0.1750    0.1750
  band No.  band energies     occupation 
      1     -42.4908      2.00000
      2     -42.4908      2.00000
      3     -42.4896      2.00000
      4     -42.4896      2.00000
      5     -42.4896      2.00000
      6     -18.1738      2.00000
      7      -3.4542      2.00000
      8      -2.9221      2.00000
      9      -2.9221      2.00000
     10       3.5604      0.00000
     11       7.2178      0.00000
     12       8.2292      0.00000
     13       8.2292      0.00000
     14       9.7136      0.00000
     15       9.7136      0.00000
     16      10.4609      0.00000
     17      11.8832      0.00000
     18      13.6288      0.00000
     19      13.6288      0.00000
     20      15.9907      0.00000
     21      17.9458      0.00000
     22      17.9459      0.00000
     23      19.0992      0.00000
     24      19.5874      0.00000
     25      21.9648      0.00000
     26      21.9648      0.00000
     27      23.3253      0.00000
     28      24.2962      0.00000
     29      24.3934      0.00000
     30      24.3934      0.00000
     31      26.0495      0.00000
     32      26.0495      0.00000

 k-point    15 :       0.1500    0.1500    0.1500
  band No.  band energies     occupation 
      1     -42.4907      2.00000
      2     -42.4907      2.00000
      3     -42.4896      2.00000
      4     -42.4896      2.00000
      5     -42.4896      2.00000
      6     -18.1830      2.00000
      7      -3.3215      2.00000
      8      -2.9073      2.00000
      9      -2.9073      2.00000
     10       3.3716      0.00000
     11       7.3219      0.00000
     12       8.2078      0.00000
     13       8.2078      0.00000
     14       9.7697      0.00000
     15       9.7697      0.00000
     16      10.5723      0.00000
     17      11.5754      0.00000
     18      13.2811      0.00000
     19      13.2811      0.00000
     20      15.5729      0.00000
     21      18.2376      0.00000
     22      18.2376      0.00000
     23      19.0827      0.00000
     24      20.2082      0.00000
     25      22.0595      0.00000
     26      22.0595      0.00000
     27      23.4274      0.00000
     28      24.3306      0.00000
     29      24.5211      0.00000
     30      24.5211      0.00000
     31      26.0118      0.00000
     32      26.0118      0.00000

 k-point    16 :       0.1250    0.1250    0.1250
  band No.  band energies     occupation 
      1     -42.4907      2.00000
      2     -42.4907      2.00000
      3     -42.4896      2.00000
      4     -42.4896      2.00000
      5     -42.4896      2.00000
      6     -18.1912      2.00000
      7      -3.1971      2.00000
      8      -2.8941      2.00000
      9      -2.8941      2.00000
     10       3.1924      0.00000
     11       7.4499      0.00000
     12       8.1699      0.00000
     13       8.1699      0.00000
     14       9.8713      0.00000
     15       9.8714      0.00000
     16      10.5692      0.00000
     17      11.4172      0.00000
     18      12.9498      0.00000
     19      12.9498      0.00000
     20      15.1783      0.00000
     21      18.4861      0.00000
     22      18.4861      0.00000
     23      19.0679      0.00000
     24      20.8131      0.00000
     25      22.1727      0.00000
     26      22.1727      0.00000
     27      23.5148      0.00000
     28      24.3832      0.00000
     29      24.6483      0.00000
     30      24.6483      0.00000
     31      25.9788      0.00000
     32      25.9789      0.00000

 k-point    17 :       0.1000    0.1000    0.1000
  band No.  band energies     occupation 
      1     -42.4907      2.00000
      2     -42.4907      2.00000
      3     -42.4897      2.00000
      4     -42.4896      2.00000
      5     -42.4896      2.00000
      6     -18.1982      2.00000
      7      -3.0856      2.00000
      8      -2.8827      2.00000
      9      -2.8827      2.00000
     10       3.0315      0.00000
     11       7.5938      0.00000
     12       8.1257      0.00000
     13       8.1257      0.00000
     14      10.0045      0.00000
     15      10.0045      0.00000
     16      10.4082      0.00000
     17      11.4515      0.00000
     18      12.6402      0.00000
     19      12.6402      0.00000
     20      14.8137      0.00000
     21      18.6876      0.00000
     22      18.6876      0.00000
     23      19.0553      0.00000
     24      21.3828      0.00000
     25      22.2968      0.00000
     26      22.2969      0.00000
     27      23.5877      0.00000
     28      24.4663      0.00000
     29      24.7767      0.00000
     30      24.7767      0.00000
     31      25.9530      0.00000
     32      25.9533      0.00000

 k-point    18 :       0.0750    0.0750    0.0750
  band No.  band energies     occupation 
      1     -42.4906      2.00000
      2     -42.4906      2.00000
      3     -42.4896      2.00000
      4     -42.4894      2.00000
      5     -42.4894      2.00000
      6     -18.2032      2.00000
      7      -2.9919      2.00000
      8      -2.8735      2.00000
      9      -2.8735      2.00000
     10       2.8968      0.00000
     11       7.7427      0.00000
     12       8.0840      0.00000
     13       8.0840      0.00000
     14      10.1534      0.00000
     15      10.1534      0.00000
     16      10.1805      0.00000
     17      11.5855      0.00000
     18      12.3604      0.00000
     19      12.3604      0.00000
     20      14.4897      0.00000
     21      18.8415      0.00000
     22      18.8415      0.00000
     23      19.0453      0.00000
     24      21.8873      0.00000
     25      22.4202      0.00000
     26      22.4203      0.00000
     27      23.6482      0.00000
     28      24.5965      0.00000
     29      24.9078      0.00000
     30      24.9080      0.00000
     31      25.9382      0.00000
     32      25.9393      0.00000

 k-point    19 :       0.0500    0.0500    0.0500
  band No.  band energies     occupation 
      1     -42.4906      2.00000
      2     -42.4906      2.00000
      3     -42.4897      2.00000
      4     -42.4895      2.00000
      5     -42.4895      2.00000
      6     -18.2076      2.00000
      7      -2.9208      2.00000
      8      -2.8668      2.00000
      9      -2.8667      2.00000
     10       2.7949      0.00000
     11       7.8803      0.00000
     12       8.0505      0.00000
     13       8.0506      0.00000
     14       9.9673      0.00000
     15      10.2982      0.00000
     16      10.2982      0.00000
     17      11.7358      0.00000
     18      12.1250      0.00000
     19      12.1251      0.00000
     20      14.2237      0.00000
     21      18.9485      0.00000
     22      18.9485      0.00000
     23      19.0379      0.00000
     24      22.2850      0.00000
     25      22.5249      0.00000
     26      22.5249      0.00000
     27      23.6915      0.00000
     28      24.7897      0.00000
     29      25.0321      0.00000
     30      25.0321      0.00000
     31      25.9370      0.00000
     32      25.9378      0.00000

 k-point    20 :       0.0250    0.0250    0.0250
  band No.  band energies     occupation 
      1     -42.4906      2.00000
      2     -42.4906      2.00000
      3     -42.4895      2.00000
      4     -42.4894      2.00000
      5     -42.4894      2.00000
      6     -18.2099      2.00000
      7      -2.8762      2.00000
      8      -2.8626      2.00000
      9      -2.8626      2.00000
     10       2.7315      0.00000
     11       7.9828      0.00000
     12       8.0292      0.00000
     13       8.0292      0.00000
     14       9.8151      0.00000
     15      10.4106      0.00000
     16      10.4106      0.00000
     17      11.8528      0.00000
     18      11.9594      0.00000
     19      11.9594      0.00000
     20      14.0421      0.00000
     21      19.0116      0.00000
     22      19.0116      0.00000
     23      19.0334      0.00000
     24      22.5365      0.00000
     25      22.5959      0.00000
     26      22.5959      0.00000
     27      23.7195      0.00000
     28      25.0290      0.00000
     29      25.1303      0.00000
     30      25.1303      0.00000
     31      25.9519      0.00000
     32      26.0579      0.00000

 k-point    21 :       0.0000    0.0000    0.0000
  band No.  band energies     occupation 
      1     -42.4906      2.00000
      2     -42.4906      2.00000
      3     -42.4895      2.00000
      4     -42.4894      2.00000
      5     -42.4894      2.00000
      6     -18.2107      2.00000
      7      -2.8612      2.00000
      8      -2.8612      2.00000
      9      -2.8611      2.00000
     10       2.7099      0.00000
     11       8.0216      0.00000
     12       8.0218      0.00000
     13       8.0218      0.00000
     14       9.7590      0.00000
     15      10.4546      0.00000
     16      10.4546      0.00000
     17      11.8975      0.00000
     18      11.8978      0.00000
     19      11.8978      0.00000
     20      13.9764      0.00000
     21      19.0319      0.00000
     22      19.0323      0.00000
     23      19.0323      0.00000
     24      22.6210      0.00000
     25      22.6210      0.00000
     26      22.6215      0.00000
     27      23.7285      0.00000
     28      25.1692      0.00000
     29      25.1692      0.00000
     30      25.1692      0.00000
     31      25.9652      0.00000
     32      25.9662      0.00000

 k-point    22 :       0.0000    0.0250    0.0250
  band No.  band energies     occupation 
      1     -42.4906      2.00000
      2     -42.4906      2.00000
      3     -42.4895      2.00000
      4     -42.4894      2.00000
      5     -42.4894      2.00000
      6     -18.2096      2.00000
      7      -2.8766      2.00000
      8      -2.8655      2.00000
      9      -2.8654      2.00000
     10       2.7387      0.00000
     11       7.9637      0.00000
     12       8.0350      0.00000
     13       8.0351      0.00000
     14       9.8333      0.00000
     15      10.3328      0.00000
     16      10.4619      0.00000
     17      11.9139      0.00000
     18      11.9141      0.00000
     19      11.9653      0.00000
     20      14.0653      0.00000
     21      19.0042      0.00000
     22      19.0194      0.00000
     23      19.0197      0.00000
     24      22.5479      0.00000
     25      22.5679      0.00000
     26      22.5681      0.00000
     27      23.7165      0.00000
     28      25.0303      0.00000
     29      25.0305      0.00000
     30      25.1804      0.00000
     31      25.7359      0.00000
     32      26.1630      0.00000

 k-point    23 :       0.0000    0.0500    0.0500
  band No.  band energies     occupation 
      1     -42.4906      2.00000
      2     -42.4905      2.00000
      3     -42.4895      2.00000
      4     -42.4894      2.00000
      5     -42.4894      2.00000
      6     -18.2062      2.00000
      7      -2.9216      2.00000
      8      -2.8781      2.00000
      9      -2.8781      2.00000
     10       2.8235      0.00000
     11       7.8131      0.00000
     12       8.0748      0.00000
     13       8.0749      0.00000
     14      10.0324      0.00000
     15      10.0351      0.00000
     16      10.4840      0.00000
     17      11.9626      0.00000
     18      11.9628      0.00000
     19      12.1106      0.00000
     20      14.3213      0.00000
     21      18.9215      0.00000
     22      18.9800      0.00000
     23      18.9803      0.00000
     24      22.3313      0.00000
     25      22.4172      0.00000
     26      22.4175      0.00000
     27      23.6815      0.00000
     28      24.7917      0.00000
     29      24.7919      0.00000
     30      25.2128      0.00000
     31      25.3826      0.00000
     32      26.5327      0.00000

 k-point    24 :       0.0000    0.0750    0.0750
  band No.  band energies     occupation 
      1     -42.4906      2.00000
      2     -42.4906      2.00000
      3     -42.4895      2.00000
      4     -42.4895      2.00000
      5     -42.4894      2.00000
      6     -18.2009      2.00000
      7      -2.9929      2.00000
      8      -2.8988      2.00000
      9      -2.8987      2.00000
     10       2.9599      0.00000
     11       7.6116      0.00000
[...]
     28      21.9428      0.00000
     29      22.7065      0.00000
     30      22.9213      0.00000
     31      24.6145      0.00000
     32      25.7255      0.00000

 k-point   149 :      -0.1667    0.3333    0.5000
  band No.  band energies     occupation 
      1     -42.4905      2.00000
      2     -42.4897      2.00000
      3     -42.4895      2.00000
      4     -42.4889      2.00000
      5     -42.4884      2.00000
      6     -18.0194      2.00000
      7      -4.2513      2.00000
      8      -3.7668      2.00000
      9      -3.5366      2.00000
     10       5.0592      0.00000
     11       6.2032      0.00000
     12       8.2677      0.00000
     13       8.7047      0.00000
     14      11.9519      0.00000
     15      12.6647      0.00000
     16      13.2097      0.00000
     17      13.4108      0.00000
     18      15.5547      0.00000
     19      16.0435      0.00000
     20      16.1454      0.00000
     21      16.6241      0.00000
     22      16.8287      0.00000
     23      16.8696      0.00000
     24      19.0757      0.00000
     25      19.4909      0.00000
     26      20.0321      0.00000
     27      20.9888      0.00000
     28      21.4403      0.00000
     29      21.7730      0.00000
     30      24.6974      0.00000
     31      24.7157      0.00000
     32      25.5417      0.00000

 k-point   150 :       0.0000    0.5000    0.5000
  band No.  band energies     occupation 
      1     -42.4911      2.00000
      2     -42.4898      2.00000
      3     -42.4894      2.00000
      4     -42.4886      2.00000
      5     -42.4883      2.00000
      6     -18.0201      2.00000
      7      -4.4634      2.00000
      8      -3.4829      2.00000
      9      -3.4828      2.00000
     10       4.2551      0.00000
     11       5.3201      0.00000
     12       9.7039      0.00000
     13      11.6250      0.00000
     14      11.6250      0.00000
     15      12.6595      0.00000
     16      13.3736      0.00000
     17      13.3738      0.00000
     18      13.6802      0.00000
     19      14.4212      0.00000
     20      16.6039      0.00000
     21      16.6040      0.00000
     22      16.7521      0.00000
     23      17.1539      0.00000
     24      17.4611      0.00000
     25      20.2931      0.00000
     26      20.2934      0.00000
     27      20.4191      0.00000
     28      20.9770      0.00000
     29      20.9776      0.00000
     30      24.2779      0.00000
     31      26.5326      0.00000
     32      26.9054      0.00000

 k-point   151 :       0.1667    0.5000    0.5000
  band No.  band energies     occupation 
      1     -42.4908      2.00000
      2     -42.4898      2.00000
      3     -42.4895      2.00000
      4     -42.4885      2.00000
      5     -42.4885      2.00000
      6     -18.0318      2.00000
      7      -4.3278      2.00000
      8      -3.6309      2.00000
      9      -3.3875      2.00000
     10       4.7541      0.00000
     11       5.8813      0.00000
     12       8.2662      0.00000
     13       9.9034      0.00000
     14      10.9007      0.00000
     15      12.7823      0.00000
     16      13.5185      0.00000
     17      13.5712      0.00000
     18      14.2262      0.00000
     19      15.8885      0.00000
     20      16.3557      0.00000
     21      16.5025      0.00000
     22      16.6051      0.00000
     23      16.9447      0.00000
     24      18.7090      0.00000
     25      19.6277      0.00000
     26      20.9154      0.00000
     27      20.9970      0.00000
     28      21.4206      0.00000
     29      21.8792      0.00000
     30      24.2065      0.00000
     31      25.6389      0.00000
     32      26.2553      0.00000

 k-point   152 :       0.3333    0.5000    0.5000
  band No.  band energies     occupation 
      1     -42.4908      2.00000
      2     -42.4904      2.00000
      3     -42.4891      2.00000
      4     -42.4888      2.00000
      5     -42.4886      2.00000
      6     -18.0556      2.00000
      7      -4.4483      2.00000
      8      -3.3823      2.00000
      9      -3.1843      2.00000
     10       5.1560      0.00000
     11       6.4689      0.00000
     12       7.9078      0.00000
     13       8.2466      0.00000
     14      10.6563      0.00000
     15      11.7378      0.00000
     16      12.4934      0.00000
     17      13.2704      0.00000
     18      13.3649      0.00000
     19      16.2460      0.00000
     20      16.8617      0.00000
     21      16.8720      0.00000
     22      17.3203      0.00000
     23      18.5460      0.00000
     24      19.9272      0.00000
     25      20.3178      0.00000
     26      20.7889      0.00000
     27      21.2820      0.00000
     28      22.5290      0.00000
     29      22.6751      0.00000
     30      24.7770      0.00000
     31      25.0378      0.00000
     32      25.6577      0.00000


--------------------------------------------------------------------------------------------------------


 soft charge-density along one line, spin component           1
         0         1         2         3         4         5         6         7         8         9
 total charge-density along one line
 
 pseudopotential strength for first ion, spin component:           1
-44.749   0.000   0.000   0.000  -0.000   0.000   0.000   0.000   0.000   0.000 -42.826   0.000   0.000   0.000  -0.000   0.000
  0.000   0.000 -44.750   0.000   0.000   0.000   0.000   0.000  -0.000   0.000   0.000   0.000 -42.826   0.000   0.000   0.000
 -0.000   0.000   0.000   0.000 -44.750   0.000   0.000   0.000  -0.000   0.000  -0.000   0.000   0.000   0.000 -42.826   0.000
  0.000   0.000   0.000   0.000   0.000   0.000 -44.749   0.000   0.000   0.000   0.000   0.000   0.000   0.000   0.000   0.000
  0.000   0.000  -0.000   0.000  -0.000   0.000   0.000   0.000 -44.749   0.000   0.000   0.000  -0.000   0.000  -0.000   0.000
-42.826   0.000   0.000   0.000  -0.000   0.000   0.000   0.000   0.000   0.000 -41.049   0.000   0.000   0.000  -0.000   0.000
  0.000   0.000 -42.826   0.000   0.000   0.000   0.000   0.000  -0.000   0.000   0.000   0.000 -41.050   0.000   0.000   0.000
 -0.000   0.000   0.000   0.000 -42.826   0.000   0.000   0.000  -0.000   0.000  -0.000   0.000   0.000   0.000 -41.050   0.000
  0.000   0.000   0.000   0.000   0.000   0.000 -42.826   0.000   0.000   0.000   0.000   0.000   0.000   0.000   0.000   0.000
  0.000   0.000  -0.000   0.000  -0.000   0.000   0.000   0.000 -42.826   0.000   0.000   0.000  -0.000   0.000  -0.000   0.000
  4.155   0.000   0.000   0.000  -0.000   0.000   0.000   0.000   0.000   0.000   2.959   0.000   0.000   0.000  -0.000   0.000
  0.000   0.000   4.155   0.000   0.000   0.000   0.000   0.000  -0.000   0.000   0.000   0.000   2.959   0.000   0.000   0.000
 -0.000   0.000   0.000   0.000   4.155   0.000   0.000   0.000  -0.000   0.000  -0.000   0.000   0.000   0.000   2.959   0.000
  0.000   0.000   0.000   0.000   0.000   0.000   4.155   0.000   0.000   0.000   0.000   0.000   0.000   0.000   0.000   0.000
  0.000   0.000  -0.000   0.000  -0.000   0.000   0.000   0.000   4.155   0.000   0.000   0.000  -0.000   0.000  -0.000   0.000
  0.000   0.000   0.000   0.000  -0.000   0.000   0.000   0.000   0.000   0.000   0.000   0.000   0.000   0.000  -0.000   0.000
  0.000   0.000   0.000   0.000  -0.000   0.000   0.000   0.000   0.000   0.000   0.000   0.000   0.000   0.000  -0.000   0.000
 -0.000   0.000   0.000   0.000   0.000   0.000   0.000   0.000   0.000   0.000  -0.000   0.000   0.000   0.000   0.000   0.000
  0.000   0.000  -0.000   0.000   0.000   0.000  -0.000   0.000   0.000   0.000   0.000   0.000  -0.000   0.000   0.000   0.000
 -0.000   0.000   0.000   0.000   0.000   0.000   0.000   0.000  -0.000   0.000  -0.000   0.000   0.000   0.000   0.000   0.000
  0.000   0.000  -0.000   0.000  -0.000   0.000  -0.000   0.000  -0.000   0.000   0.000   0.000  -0.000   0.000  -0.000   0.000
 -0.000   0.000   0.000   0.000  -0.000   0.000   0.000   0.000  -0.000   0.000  -0.000   0.000   0.000   0.000  -0.000   0.000
  0.000   0.000  -0.000   0.000  -0.000   0.000  -0.000   0.000   0.000   0.000   0.000   0.000  -0.000   0.000  -0.000   0.000
  0.000   0.000  -0.000   0.000   0.000   0.000   0.000   0.000   0.000   0.000   0.000   0.000  -0.000   0.000   0.000   0.000
 -0.000   0.000   0.000   0.000   0.000   0.000   0.000   0.000  -0.000   0.000  -0.000   0.000   0.000   0.000   0.000   0.000
 -0.000   0.000  -0.000   0.000   0.000   0.000   0.000   0.000   0.000   0.000  -0.000   0.000  -0.000   0.000   0.000   0.000
 -0.000   0.000  -0.000   0.000  -0.000   0.000  -0.000   0.000   0.000   0.000  -0.000   0.000  -0.000   0.000  -0.000   0.000
 -0.000   0.000   0.000   0.000   0.000   0.000  -0.000   0.000  -0.000   0.000  -0.000   0.000   0.000   0.000   0.000   0.000
 -0.000   0.000  -0.000   0.000   0.000   0.000   0.000   0.000  -0.000   0.000  -0.000   0.000  -0.000   0.000   0.000   0.000
 -0.000   0.000  -0.000   0.000  -0.000   0.000  -0.000   0.000   0.000   0.000  -0.000   0.000  -0.000   0.000  -0.000   0.000
 -0.000   0.000   0.000   0.000  -0.000   0.000  -0.000   0.000  -0.000   0.000  -0.000   0.000   0.000   0.000  -0.000   0.000
  0.000   0.000  -0.000   0.000  -0.000   0.000  -0.000   0.000   0.000   0.000   0.000   0.000  -0.000   0.000  -0.000   0.000
  0.000   0.000   0.000   0.000  -0.000   0.000  -0.000   0.000  -0.000   0.000   0.000   0.000   0.000   0.000  -0.000   0.000
  0.000   0.000   0.000   0.000   0.000   0.000   0.000   0.000  -0.000   0.000   0.000   0.000   0.000   0.000   0.000   0.000
  0.000   0.000  -0.000   0.000  -0.000   0.000   0.000   0.000   0.000   0.000   0.000   0.000  -0.000   0.000  -0.000   0.000
  0.000   0.000   0.000   0.000  -0.000   0.000  -0.000   0.000   0.000   0.000   0.000   0.000   0.000   0.000  -0.000   0.000
  0.000   0.000   0.000   0.000   0.000   0.000   0.000   0.000  -0.000   0.000   0.000   0.000   0.000   0.000   0.000   0.000
 total augmentation occupancy for first ion, spin component:           1
  1.677   0.000  -0.000   0.004   0.000   0.151  -0.000   0.000  -0.004  -0.000   0.010  -0.000   0.000   0.000   0.000  -0.000
  0.000   1.674  -0.000   0.000   0.004  -0.000   0.154   0.000   0.000  -0.004  -0.000   0.010  -0.000  -0.000   0.000  -0.000
 -0.000  -0.000   1.679  -0.000  -0.000   0.000   0.000   0.149   0.000   0.000   0.000  -0.000   0.010  -0.000   0.000   0.000
  0.004   0.000  -0.000   1.674   0.000  -0.004   0.000   0.000   0.154  -0.000   0.000  -0.000  -0.000   0.010  -0.000  -0.000
  0.000   0.004  -0.000   0.000   1.677  -0.000  -0.004   0.000  -0.000   0.151   0.000   0.000   0.000  -0.000   0.010  -0.000
  0.151  -0.000   0.000  -0.004  -0.000   0.034  -0.000   0.000   0.004   0.000   0.000  -0.000   0.000  -0.000  -0.000   0.000
 -0.000   0.154   0.000   0.000  -0.004  -0.000   0.032  -0.000  -0.000   0.004  -0.000   0.000   0.000  -0.000  -0.000   0.000
  0.000   0.000   0.149   0.000   0.000   0.000  -0.000   0.037  -0.000   0.000   0.000   0.000   0.000   0.000   0.000  -0.000
 -0.004   0.000   0.000   0.154  -0.000   0.004  -0.000  -0.000   0.032  -0.000  -0.000  -0.000   0.000   0.000  -0.000   0.000
 -0.000  -0.004   0.000  -0.000   0.151   0.000   0.004   0.000  -0.000   0.034  -0.000  -0.000   0.000  -0.000   0.000   0.000
  0.010  -0.000   0.000   0.000   0.000   0.000  -0.000   0.000  -0.000  -0.000   0.000  -0.000   0.000   0.000   0.000   0.000
 -0.000   0.010  -0.000  -0.000   0.000  -0.000   0.000   0.000  -0.000  -0.000  -0.000   0.000  -0.000  -0.000   0.000   0.000
  0.000  -0.000   0.010  -0.000   0.000   0.000   0.000   0.000   0.000   0.000   0.000  -0.000   0.000  -0.000   0.000  -0.000
  0.000  -0.000  -0.000   0.010  -0.000  -0.000  -0.000   0.000   0.000  -0.000   0.000  -0.000  -0.000   0.000  -0.000   0.000
  0.000   0.000   0.000  -0.000   0.010  -0.000  -0.000   0.000  -0.000   0.000   0.000   0.000   0.000  -0.000   0.000   0.000
 -0.000  -0.000   0.000  -0.000  -0.000   0.000   0.000  -0.000   0.000   0.000   0.000   0.000  -0.000   0.000   0.000   1.513
 -0.000  -0.000   0.000  -0.000  -0.000   0.000   0.000  -0.000   0.000   0.000   0.000   0.000  -0.000   0.000   0.000   0.198
  0.000  -0.000  -0.000   0.000  -0.000  -0.000   0.000   0.000  -0.000   0.000   0.000  -0.000  -0.000   0.000  -0.000  -0.000
  0.000   0.000  -0.000   0.000  -0.000  -0.000  -0.000   0.000  -0.000   0.000   0.000   0.000  -0.000   0.000  -0.000   0.000
  0.000   0.000  -0.000  -0.000   0.000  -0.000  -0.000   0.000   0.000  -0.000   0.000   0.000  -0.000  -0.000   0.000  -0.000
  0.000  -0.000  -0.000  -0.000  -0.000   0.000  -0.000  -0.000  -0.000  -0.000   0.000   0.000   0.000  -0.000   0.000   0.000
  0.000   0.000  -0.000   0.000   0.000  -0.000   0.000  -0.000   0.000  -0.000  -0.000  -0.000   0.000   0.000   0.000  -0.000
  0.000  -0.000  -0.000  -0.000   0.000   0.000  -0.000  -0.000  -0.000   0.000  -0.000  -0.000  -0.000   0.000  -0.000   0.000
  0.000   0.000   0.000   0.000   0.000   0.000   0.000  -0.000   0.000   0.000   0.000  -0.000   0.000   0.000   0.000   0.000
 -0.000   0.000   0.000   0.000   0.000  -0.000   0.000   0.000   0.000   0.000  -0.000   0.000   0.000   0.000   0.000  -0.000
  0.000  -0.000   0.000  -0.000   0.000   0.000  -0.000   0.000  -0.000   0.000  -0.000  -0.000   0.000  -0.000   0.000   0.000
 -0.000  -0.000  -0.000  -0.000  -0.000  -0.000  -0.000  -0.000  -0.000  -0.000  -0.000  -0.000  -0.000  -0.000  -0.000  -0.000
 -0.000   0.000   0.000  -0.000  -0.000  -0.000  -0.000   0.000  -0.000  -0.000  -0.000   0.000   0.000  -0.000  -0.000   0.000
 -0.000  -0.000   0.000   0.000  -0.000  -0.000  -0.000   0.000   0.000  -0.000  -0.000  -0.000   0.000   0.000  -0.000   0.000
 -0.000  -0.000  -0.000  -0.000   0.000  -0.000  -0.000  -0.000   0.000   0.000  -0.000  -0.000  -0.000   0.000   0.000  -0.000
  0.000   0.000   0.000   0.000   0.000   0.000   0.000   0.000   0.000   0.000   0.000   0.000   0.000   0.000   0.000  -0.000
 -0.000   0.000   0.000   0.000   0.000  -0.000   0.000   0.000   0.000   0.000  -0.000   0.000   0.000   0.000   0.000  -0.000
 -0.000  -0.000   0.000  -0.000   0.000   0.000  -0.000   0.000  -0.000   0.000  -0.000  -0.000   0.000  -0.000   0.000   0.000
 -0.000  -0.000  -0.000  -0.000  -0.000  -0.000  -0.000  -0.000  -0.000  -0.000  -0.000  -0.000  -0.000  -0.000  -0.000  -0.000
 -0.000   0.000   0.000  -0.000  -0.000  -0.000   0.000   0.000  -0.000  -0.000  -0.000   0.000   0.000  -0.000  -0.000   0.000
 -0.000  -0.000   0.000   0.000  -0.000  -0.000  -0.000   0.000   0.000  -0.000  -0.000  -0.000   0.000   0.000  -0.000   0.000
 -0.000  -0.000  -0.000   0.000   0.000  -0.000  -0.000  -0.000   0.000   0.000  -0.000  -0.000  -0.000   0.000   0.000  -0.000


------------------------ aborting loop because EDIFF is reached ----------------------------------------


    CHARGE:  cpu time    0.0836: real time    0.0837
    FORLOC:  cpu time    0.0026: real time    0.0026
    FORNL :  cpu time    0.4152: real time    0.4150
    STRESS:  cpu time   12.3145: real time   12.3128
    FORCOR:  cpu time    0.1256: real time    0.1255
    FORHAR:  cpu time    0.0105: real time    0.0105
    MIXING:  cpu time    0.0020: real time    0.0020
    OFIELD:  cpu time    0.0000: real time    0.0000

  FORCE on cell =-STRESS in cart. coord.  units (eV):
  Direction    XX          YY          ZZ          XY          YZ          ZX
  --------------------------------------------------------------------------------------
  Alpha Z    64.91123    64.91123    64.91123
  Ewald    -557.65863  -557.65863  -557.65863    -0.00000    -0.00000    -0.00000
  Hartree   339.80824   339.81695   339.81913    -0.00755    -0.00308    -0.00534
  E(xc)    -110.86854  -110.86888  -110.86897     0.00030     0.00012     0.00021
  Local     -74.14705   -74.14047   -74.13883    -0.00569    -0.00232    -0.00402
  n-local    73.99161    73.97839    73.97509     0.01145     0.00467     0.00810
  augment   105.89100   105.89353   105.89420    -0.00218    -0.00089    -0.00154
  Kinetic   158.00850   157.98034   157.97333     0.02438     0.00994     0.01724
  Fock        0.00000     0.00000     0.00000     0.00000     0.00000     0.00000
  -------------------------------------------------------------------------------------
  Total      -0.06363    -0.08753    -0.09344     0.02070     0.00844     0.01464
  in kB      -1.56057    -2.14685    -2.29182     0.50768     0.20695     0.35914
  external pressure =       -2.00 kB  Pullay stress =        0.00 kB


 VOLUME and BASIS-vectors are now :
 -----------------------------------------------------------------------------
  energy-cutoff  :      300.00
  volume of cell :       65.32
      direct lattice vectors                 reciprocal lattice vectors
     4.520564769  0.000000000  0.000000000     0.221211298 -0.127716402 -0.090309134
     2.260282385  3.914923930 -0.000000000     0.000000000  0.255432805 -0.090309134
     2.260282385  1.304974643  3.691025678    -0.000000000  0.000000000  0.270927403

  length of vectors
     4.520564769  4.520564769  4.520564769     0.270927403  0.270927403  0.270927403


 FORCES acting on ions
    electron-ion (+dipol)            ewald-force                    non-local-force                 convergence-correction
 -----------------------------------------------------------------------------------------------
   -.344E-06 -.474E-05 0.161E-04   -.116E-14 0.583E-15 0.129E-14   -.322E-06 -.129E-05 0.418E-05   0.582E-06 0.547E-05 -.184E-04
 -----------------------------------------------------------------------------------------------
   -.347E-06 -.477E-05 0.163E-04   -.116E-14 0.583E-15 0.129E-14   -.322E-06 -.129E-05 0.418E-05   0.582E-06 0.547E-05 -.184E-04
 
 
 POSITION                                       TOTAL-FORCE (eV/Angst)
 -----------------------------------------------------------------------------------
      0.00000      0.00000      0.00000        -0.000000     -0.000001      0.000002
 -----------------------------------------------------------------------------------
    total drift:                               -0.000000     -0.000001      0.000002


--------------------------------------------------------------------------------------------------------



  FREE ENERGIE OF THE ION-ELECTRON SYSTEM (eV)
  ---------------------------------------------------
  free  energy   TOTEN  =       -80.98460856 eV

  energy  without entropy=      -80.98460856  energy(sigma->0) =      -80.98460856
 


--------------------------------------------------------------------------------------------------------


    POTLOK:  cpu time    0.2190: real time    0.2191


--------------------------------------------------------------------------------------------------------


 writing wavefunctions
     LOOP+:  cpu time   33.9597: real time   34.0123
    4ORBIT:  cpu time    0.0000: real time    0.0000

 total amount of memory used by VASP MPI-rank0    74573. kBytes
=======================================================================

   base      :      30000. kBytes
   nonl-proj :       8866. kBytes
   fftplans  :      12955. kBytes
   grid      :       4477. kBytes
   one-center:         65. kBytes
   wavefun   :      18210. kBytes
 
  
  
 General timing and accounting informations for this job:
 ========================================================
  
                  Total CPU time used (sec):       36.504
                            User time (sec):       35.675
                          System time (sec):        0.829
                         Elapsed time (sec):       36.458
  
                   Maximum memory used (kb):      140932.
                   Average memory used (kb):           0.
  
                          Minor page faults:        42153
                          Major page faults:            0
                 Voluntary context switches:         1295
