<?xml version="1.0" encoding="ISO-8859-1"?>
<modeling>
 <generator>
  <i name="program" type="string">vasp </i>
  <i name="version" type="string">5.4.4.18Apr17-6-g9f103f2a35  </i>
  <i name="subversion" type="string">(build Nov 03 2018 10:20:46) complex            parallel </i>
  <i name="platform" type="string">LinuxIFC </i>
  <i name="date" type="string">2018 12 06 </i>
  <i name="time" type="string">11:53:17 </i>
 </generator>
 <incar>
  <i type="string" name="SYSTEM">   Rn_FCC</i>
  <i type="string" name="PREC">accurate</i>
  <i type="string" name="ALGO">   Normal</i>
  <i type="logical" name="ADDGRID"> T  </i>
  <i type="logical" name="LSORBIT"> F  </i>
  <i type="int" name="ISPIN">     1</i>
  <i type="int" name="MAXMIX">    50</i>
  <i type="int" name="NELM">    50</i>
  <i type="int" name="NELMDL">    -5</i>
  <i type="int" name="NELMIN">     2</i>
  <i type="int" name="IBRION">    -1</i>
  <i type="int" name="NFREE">     5</i>
  <i name="EDIFF">      0.00000001</i>
  <i name="EDIFFG">      0.00001000</i>
  <i type="int" name="NSW">     1</i>
  <i type="int" name="ISIF">     3</i>
  <i type="int" name="ISYM">     0</i>
  <i name="SYMPREC">      0.00000010</i>
  <i name="ENCUT">    300.00000000</i>
  <i type="int" name="NBANDS">    32</i>
  <i name="POTIM">      0.10000000</i>
  <i type="logical" name="LREAL"> F  </i>
  <i type="int" name="ISMEAR">     0</i>
  <i name="SIGMA">      0.05000000</i>
  <i type="int" name="NWRITE">     2</i>
  <i type="logical" name="LWAVE"> T  </i>
  <i type="logical" name="LCHARG"> T  </i>
  <i type="logical" name="LVTOT"> F  </i>
  <i type="logical" name="GGA_COMPAT"> F  </i>
  <v type="int" name="KPOINT_BSE">    -1     0     0     0</v>
  <i type="int" name="NELM">    50</i>
  <i type="string" name="METAGGA"> SCAN</i>
 </incar>
 <structure name="primitive_cell" >
  <crystal>
   <varray name="basis" >
    <v>       4.52056477       0.00000000       0.00000000 </v>
    <v>       2.26028238       3.91492393      -0.00000000 </v>
    <v>       2.26028238       1.30497464       3.69102568 </v>
   </varray>
   <i name="volume">     65.32254404 </i>
   <varray name="rec_basis" >
    <v>       0.22121130      -0.12771640      -0.09030913 </v>
    <v>       0.00000000       0.25543280      -0.09030913 </v>
    <v>      -0.00000000       0.00000000       0.27092740 </v>
   </varray>
  </crystal>
  <varray name="positions" >
   <v>       0.00000000       0.00000000       0.00000000 </v>
  </varray>
 </structure>
 <varray name="primitive_index" >
  <v type="int" >        1 </v>
 </varray>
 <kpoints>
  <varray name="kpointlist" >
   <v>       0.50000000       0.50000000       0.50000000 </v>
   <v>       0.47500000       0.47500000       0.47500000 </v>
   <v>       0.45000000       0.45000000       0.45000000 </v>
   <v>       0.42500000       0.42500000       0.42500000 </v>
   <v>       0.40000000       0.40000000       0.40000000 </v>
   <v>       0.37500000       0.37500000       0.37500000 </v>
   <v>       0.35000000       0.35000000       0.35000000 </v>
   <v>       0.32500000       0.32500000       0.32500000 </v>
   <v>       0.30000000       0.30000000       0.30000000 </v>
   <v>       0.27500000       0.27500000       0.27500000 </v>
   <v>       0.25000000       0.25000000       0.25000000 </v>
   <v>       0.22500000       0.22500000       0.22500000 </v>
   <v>       0.20000000       0.20000000       0.20000000 </v>
   <v>       0.17500000       0.17500000       0.17500000 </v>
   <v>       0.15000000       0.15000000       0.15000000 </v>
   <v>       0.12500000       0.12500000       0.12500000 </v>
   <v>       0.10000000       0.10000000       0.10000000 </v>
   <v>       0.07500000       0.07500000       0.07500000 </v>
   <v>       0.05000000       0.05000000       0.05000000 </v>
   <v>       0.02500000       0.02500000       0.02500000 </v>
   <v>       0.00000000       0.00000000       0.00000000 </v>
   <v>       0.00000000       0.02500000       0.02500000 </v>
   <v>       0.00000000       0.05000000       0.05000000 </v>
   <v>       0.00000000       0.07500000       0.07500000 </v>
   <v>       0.00000000       0.10000000       0.10000000 </v>
   <v>       0.00000000       0.12500000       0.12500000 </v>
   <v>       0.00000000       0.15000000       0.15000000 </v>
   <v>       0.00000000       0.17500000       0.17500000 </v>
   <v>       0.00000000       0.20000000       0.20000000 </v>
   <v>       0.00000000       0.22500000       0.22500000 </v>
   <v>       0.00000000       0.25000000       0.25000000 </v>
   <v>       0.00000000       0.27500000       0.27500000 </v>
   <v>       0.00000000       0.30000000       0.30000000 </v>
   <v>       0.00000000       0.32500000       0.32500000 </v>
   <v>       0.00000000       0.35000000       0.35000000 </v>
   <v>       0.00000000       0.37500000       0.37500000 </v>
   <v>       0.00000000       0.40000000       0.40000000 </v>
   <v>       0.00000000       0.42500000       0.42500000 </v>
   <v>       0.00000000       0.45000000       0.45000000 </v>
   <v>       0.00000000       0.47500000       0.47500000 </v>
   <v>       0.00000000       0.50000000       0.50000000 </v>
   <v>       0.00000000       0.00000000       0.00000000 </v>
   <v>       0.16666667       0.00000000       0.00000000 </v>
   <v>       0.33333333       0.00000000       0.00000000 </v>
   <v>       0.50000000       0.00000000       0.00000000 </v>
   <v>       0.00000000       0.16666667       0.00000000 </v>
   <v>       0.16666667       0.16666667       0.00000000 </v>
   <v>       0.33333333       0.16666667       0.00000000 </v>
   <v>       0.50000000       0.16666667       0.00000000 </v>
   <v>      -0.33333333       0.16666667       0.00000000 </v>
   <v>      -0.16666667       0.16666667       0.00000000 </v>
   <v>       0.00000000       0.33333333       0.00000000 </v>
   <v>       0.16666667       0.33333333       0.00000000 </v>
   <v>       0.33333333       0.33333333       0.00000000 </v>
   <v>       0.50000000       0.33333333       0.00000000 </v>
   <v>      -0.33333333       0.33333333       0.00000000 </v>
   <v>      -0.16666667       0.33333333       0.00000000 </v>
   <v>       0.00000000       0.50000000       0.00000000 </v>
   <v>       0.16666667       0.50000000       0.00000000 </v>
   <v>       0.33333333       0.50000000       0.00000000 </v>
   <v>       0.50000000       0.50000000       0.00000000 </v>
   <v>       0.00000000       0.00000000       0.16666667 </v>
   <v>       0.16666667       0.00000000       0.16666667 </v>
   <v>       0.33333333       0.00000000       0.16666667 </v>
   <v>       0.50000000       0.00000000       0.16666667 </v>
   <v>      -0.33333333       0.00000000       0.16666667 </v>
   <v>      -0.16666667       0.00000000       0.16666667 </v>
   <v>       0.00000000       0.16666667       0.16666667 </v>
   <v>       0.16666667       0.16666667       0.16666667 </v>
   <v>       0.33333333       0.16666667       0.16666667 </v>
   <v>       0.50000000       0.16666667       0.16666667 </v>
   <v>      -0.33333333       0.16666667       0.16666667 </v>
   <v>      -0.16666667       0.16666667       0.16666667 </v>
   <v>       0.00000000       0.33333333       0.16666667 </v>
   <v>       0.16666667       0.33333333       0.16666667 </v>
   <v>       0.33333333       0.33333333       0.16666667 </v>
   <v>       0.50000000       0.33333333       0.16666667 </v>
   <v>      -0.33333333       0.33333333       0.16666667 </v>
   <v>      -0.16666667       0.33333333       0.16666667 </v>
   <v>       0.00000000       0.50000000       0.16666667 </v>
   <v>       0.16666667       0.50000000       0.16666667 </v>
   <v>       0.33333333       0.50000000       0.16666667 </v>
   <v>       0.50000000       0.50000000       0.16666667 </v>
   <v>      -0.33333333       0.50000000       0.16666667 </v>
   <v>      -0.16666667       0.50000000       0.16666667 </v>
   <v>       0.00000000      -0.33333333       0.16666667 </v>
   <v>       0.16666667      -0.33333333       0.16666667 </v>
   <v>       0.33333333      -0.33333333       0.16666667 </v>
   <v>       0.50000000      -0.33333333       0.16666667 </v>
   <v>      -0.33333333      -0.33333333       0.16666667 </v>
   <v>      -0.16666667      -0.33333333       0.16666667 </v>
   <v>       0.00000000      -0.16666667       0.16666667 </v>
   <v>       0.16666667      -0.16666667       0.16666667 </v>
   <v>       0.33333333      -0.16666667       0.16666667 </v>
   <v>       0.50000000      -0.16666667       0.16666667 </v>
   <v>      -0.33333333      -0.16666667       0.16666667 </v>
   <v>      -0.16666667      -0.16666667       0.16666667 </v>
   <v>       0.00000000       0.00000000       0.33333333 </v>
   <v>       0.16666667       0.00000000       0.33333333 </v>
   <v>       0.33333333       0.00000000       0.33333333 </v>
   <v>       0.50000000       0.00000000       0.33333333 </v>
   <v>      -0.33333333       0.00000000       0.33333333 </v>
   <v>      -0.16666667       0.00000000       0.33333333 </v>
   <v>       0.00000000       0.16666667       0.33333333 </v>
   <v>       0.16666667       0.16666667       0.33333333 </v>
   <v>       0.33333333       0.16666667       0.33333333 </v>
   <v>       0.50000000       0.16666667       0.33333333 </v>
   <v>      -0.33333333       0.16666667       0.33333333 </v>
   <v>      -0.16666667       0.16666667       0.33333333 </v>
   <v>       0.00000000       0.33333333       0.33333333 </v>
   <v>       0.16666667       0.33333333       0.33333333 </v>
   <v>       0.33333333       0.33333333       0.33333333 </v>
   <v>       0.50000000       0.33333333       0.33333333 </v>
   <v>      -0.33333333       0.33333333       0.33333333 </v>
   <v>      -0.16666667       0.33333333       0.33333333 </v>
   <v>       0.00000000       0.50000000       0.33333333 </v>
   <v>       0.16666667       0.50000000       0.33333333 </v>
   <v>       0.33333333       0.50000000       0.33333333 </v>
   <v>       0.50000000       0.50000000       0.33333333 </v>
   <v>      -0.33333333       0.50000000       0.33333333 </v>
   <v>      -0.16666667       0.50000000       0.33333333 </v>
   <v>       0.00000000      -0.33333333       0.33333333 </v>
   <v>       0.16666667      -0.33333333       0.33333333 </v>
   <v>       0.33333333      -0.33333333       0.33333333 </v>
   <v>       0.50000000      -0.33333333       0.33333333 </v>
   <v>      -0.33333333      -0.33333333       0.33333333 </v>
   <v>      -0.16666667      -0.33333333       0.33333333 </v>
   <v>       0.00000000      -0.16666667       0.33333333 </v>
   <v>       0.16666667      -0.16666667       0.33333333 </v>
   <v>       0.33333333      -0.16666667       0.33333333 </v>
   <v>       0.50000000      -0.16666667       0.33333333 </v>
   <v>      -0.33333333      -0.16666667       0.33333333 </v>
   <v>      -0.16666667      -0.16666667       0.33333333 </v>
   <v>       0.00000000       0.00000000       0.50000000 </v>
   <v>       0.16666667       0.00000000       0.50000000 </v>
   <v>       0.33333333       0.00000000       0.50000000 </v>
   <v>       0.50000000       0.00000000       0.50000000 </v>
   <v>       0.00000000       0.16666667       0.50000000 </v>
   <v>       0.16666667       0.16666667       0.50000000 </v>
   <v>       0.33333333       0.16666667       0.50000000 </v>
   <v>       0.50000000       0.16666667       0.50000000 </v>
   <v>      -0.33333333       0.16666667       0.50000000 </v>
   <v>      -0.16666667       0.16666667       0.50000000 </v>
   <v>       0.00000000       0.33333333       0.50000000 </v>
   <v>       0.16666667       0.33333333       0.50000000 </v>
   <v>       0.33333333       0.33333333       0.50000000 </v>
   <v>       0.50000000       0.33333333       0.50000000 </v>
   <v>      -0.33333333       0.33333333       0.50000000 </v>
   <v>      -0.16666667       0.33333333       0.50000000 </v>
   <v>       0.00000000       0.50000000       0.50000000 </v>
   <v>       0.16666667       0.50000000       0.50000000 </v>
   <v>       0.33333333       0.50000000       0.50000000 </v>
  </varray>
  <varray name="weights" >
   <v>       0.00000000 </v>
   <v>       0.00000000 </v>
   <v>       0.00000000 </v>
   <v>       0.00000000 </v>
   <v>       0.00000000 </v>
   <v>       0.00000000 </v>
   <v>       0.00000000 </v>
   <v>       0.00000000 </v>
   <v>       0.00000000 </v>
   <v>       0.00000000 </v>
   <v>       0.00000000 </v>
   <v>       0.00000000 </v>
   <v>       0.00000000 </v>
   <v>       0.00000000 </v>
   <v>       0.00000000 </v>
   <v>       0.00000000 </v>
   <v>       0.00000000 </v>
   <v>       0.00000000 </v>
   <v>       0.00000000 </v>
   <v>       0.00000000 </v>
   <v>       0.00000000 </v>
   <v>       0.00000000 </v>
   <v>       0.00000000 </v>
   <v>       0.00000000 </v>
   <v>       0.00000000 </v>
   <v>       0.00000000 </v>
   <v>       0.00000000 </v>
   <v>       0.00000000 </v>
   <v>       0.00000000 </v>
   <v>       0.00000000 </v>
   <v>       0.00000000 </v>
   <v>       0.00000000 </v>
   <v>       0.00000000 </v>
   <v>       0.00000000 </v>
   <v>       0.00000000 </v>
   <v>       0.00000000 </v>
   <v>       0.00000000 </v>
   <v>       0.00000000 </v>
   <v>       0.00000000 </v>
   <v>       0.00000000 </v>
   <v>       0.00000000 </v>
   <v>       0.00465116 </v>
   <v>       0.00930233 </v>
   <v>       0.00930233 </v>
   <v>       0.00465116 </v>
   <v>       0.00930233 </v>
   <v>       0.00930233 </v>
   <v>       0.00930233 </v>
   <v>       0.00930233 </v>
   <v>       0.00930233 </v>
   <v>       0.00930233 </v>
   <v>       0.00930233 </v>
   <v>       0.00930233 </v>
   <v>       0.00930233 </v>
   <v>       0.00930233 </v>
   <v>       0.00930233 </v>
   <v>       0.00930233 </v>
   <v>       0.00465116 </v>
   <v>       0.00930233 </v>
   <v>       0.00930233 </v>
   <v>       0.00465116 </v>
   <v>       0.00930233 </v>
   <v>       0.00930233 </v>
   <v>       0.00930233 </v>
   <v>       0.00930233 </v>
   <v>       0.00930233 </v>
   <v>       0.00930233 </v>
   <v>       0.00930233 </v>
   <v>       0.00930233 </v>
   <v>       0.00930233 </v>
   <v>       0.00930233 </v>
   <v>       0.00930233 </v>
   <v>       0.00930233 </v>
   <v>       0.00930233 </v>
   <v>       0.00930233 </v>
   <v>       0.00930233 </v>
   <v>       0.00930233 </v>
   <v>       0.00930233 </v>
   <v>       0.00930233 </v>
   <v>       0.00930233 </v>
   <v>       0.00930233 </v>
   <v>       0.00930233 </v>
   <v>       0.00930233 </v>
   <v>       0.00930233 </v>
   <v>       0.00930233 </v>
   <v>       0.00930233 </v>
   <v>       0.00930233 </v>
   <v>       0.00930233 </v>
   <v>       0.00930233 </v>
   <v>       0.00930233 </v>
   <v>       0.00930233 </v>
   <v>       0.00930233 </v>
   <v>       0.00930233 </v>
   <v>       0.00930233 </v>
   <v>       0.00930233 </v>
   <v>       0.00930233 </v>
   <v>       0.00930233 </v>
   <v>       0.00930233 </v>
   <v>       0.00930233 </v>
   <v>       0.00930233 </v>
   <v>       0.00930233 </v>
   <v>       0.00930233 </v>
   <v>       0.00930233 </v>
   <v>       0.00930233 </v>
   <v>       0.00930233 </v>
   <v>       0.00930233 </v>
   <v>       0.00930233 </v>
   <v>       0.00930233 </v>
   <v>       0.00930233 </v>
   <v>       0.00930233 </v>
   <v>       0.00930233 </v>
   <v>       0.00930233 </v>
   <v>       0.00930233 </v>
   <v>       0.00930233 </v>
   <v>       0.00930233 </v>
   <v>       0.00930233 </v>
   <v>       0.00930233 </v>
   <v>       0.00930233 </v>
   <v>       0.00930233 </v>
   <v>       0.00930233 </v>
   <v>       0.00930233 </v>
   <v>       0.00930233 </v>
   <v>       0.00930233 </v>
   <v>       0.00930233 </v>
   <v>       0.00930233 </v>
   <v>       0.00930233 </v>
   <v>       0.00930233 </v>
   <v>       0.00930233 </v>
   <v>       0.00930233 </v>
   <v>       0.00930233 </v>
   <v>       0.00930233 </v>
   <v>       0.00930233 </v>
   <v>       0.00930233 </v>
   <v>       0.00465116 </v>
   <v>       0.00930233 </v>
   <v>       0.00930233 </v>
   <v>       0.00465116 </v>
   <v>       0.00930233 </v>
   <v>       0.00930233 </v>
   <v>       0.00930233 </v>
   <v>       0.00930233 </v>
   <v>       0.00930233 </v>
   <v>       0.00930233 </v>
   <v>       0.00930233 </v>
   <v>       0.00930233 </v>
   <v>       0.00930233 </v>
   <v>       0.00930233 </v>
   <v>       0.00930233 </v>
   <v>       0.00930233 </v>
   <v>       0.00465116 </v>
   <v>       0.00930233 </v>
   <v>       0.00930233 </v>
  </varray>
 </kpoints>
 <parameters>
  <separator name="general" >
   <i type="string" name="SYSTEM">Rn_FCC</i>
   <i type="logical" name="LCOMPAT"> F  </i>
  </separator>
  <separator name="electronic" >
   <i type="string" name="PREC">accura</i>
   <i name="ENMAX">    300.00000000</i>
   <i name="ENAUG">    715.60700000</i>
   <i name="EDIFF">      0.00000001</i>
   <i type="int" name="IALGO">    38</i>
   <i type="int" name="IWAVPR">    10</i>
   <i type="int" name="NBANDS">    32</i>
   <i name="NELECT">     18.00000000</i>
   <i type="int" name="TURBO">     0</i>
   <i type="int" name="IRESTART">     0</i>
   <i type="int" name="NREBOOT">     0</i>
   <i type="int" name="NMIN">     0</i>
   <i name="EREF">      0.00000000</i>
   <separator name="electronic smearing" >
    <i type="int" name="ISMEAR">     0</i>
    <i name="SIGMA">      0.05000000</i>
    <i name="KSPACING">      0.50000000</i>
    <i type="logical" name="KGAMMA"> T  </i>
   </separator>
   <separator name="electronic projectors" >
    <i type="logical" name="LREAL"> F  </i>
    <v name="ROPT">      0.00000000</v>
    <i type="int" name="LMAXPAW">  -100</i>
    <i type="int" name="LMAXMIX">     2</i>
    <i type="logical" name="NLSPLINE"> F  </i>
   </separator>
   <separator name="electronic startup" >
    <i type="int" name="ISTART">     1</i>
    <i type="int" name="ICHARG">     0</i>
    <i type="int" name="INIWAV">     1</i>
   </separator>
   <separator name="electronic spin" >
    <i type="int" name="ISPIN">     1</i>
    <i type="logical" name="LNONCOLLINEAR"> F  </i>
    <v name="MAGMOM">      1.00000000</v>
    <i name="NUPDOWN">     -1.00000000</i>
    <i type="logical" name="LSORBIT"> F  </i>
    <v name="SAXIS">      0.00000000      0.00000000      1.00000000</v>
    <i type="logical" name="LSPIRAL"> F  </i>
    <v name="QSPIRAL">      0.00000000      0.00000000      0.00000000</v>
    <i type="logical" name="LZEROZ"> F  </i>
   </separator>
   <separator name="electronic exchange-correlation" >
    <i type="logical" name="LASPH"> F  </i>
    <i type="logical" name="LMETAGGA"> F  </i>
   </separator>
   <separator name="electronic convergence" >
    <i type="int" name="NELM">    50</i>
    <i type="int" name="NELMDL">    -5</i>
    <i type="int" name="NELMIN">     2</i>
    <i name="ENINI">    300.00000000</i>
    <separator name="electronic convergence detail" >
     <i type="logical" name="LDIAG"> T  </i>
     <i type="logical" name="LSUBROT"> F  </i>
     <i name="WEIMIN">      0.00000000</i>
     <i name="EBREAK">      0.00000000</i>
     <i name="DEPER">      0.30000000</i>
     <i type="int" name="NRMM">     4</i>
     <i name="TIME">      0.40000000</i>
    </separator>
   </separator>
   <separator name="electronic mixer" >
    <i name="AMIX">      0.40000000</i>
    <i name="BMIX">      1.00000000</i>
    <i name="AMIN">      0.10000000</i>
    <i name="AMIX_MAG">      1.60000000</i>
    <i name="BMIX_MAG">      1.00000000</i>
    <separator name="electronic mixer details" >
     <i type="int" name="IMIX">     4</i>
     <i type="logical" name="MIXFIRST"> F  </i>
     <i type="int" name="MAXMIX">    50</i>
     <i name="WC">    100.00000000</i>
     <i type="int" name="INIMIX">     1</i>
     <i type="int" name="MIXPRE">     1</i>
     <i type="int" name="MREMOVE">     5</i>
    </separator>
   </separator>
   <separator name="electronic dipolcorrection" >
    <i type="logical" name="LDIPOL"> F  </i>
    <i type="logical" name="LMONO"> F  </i>
    <i type="int" name="IDIPOL">     0</i>
    <i name="EPSILON">      1.00000000</i>
    <v name="DIPOL">   -100.00000000   -100.00000000   -100.00000000</v>
    <i name="EFIELD">      0.00000000</i>
   </separator>
  </separator>
  <separator name="grids" >
   <i type="int" name="NGX">    28</i>
   <i type="int" name="NGY">    28</i>
   <i type="int" name="NGZ">    28</i>
   <i type="int" name="NGXF">    56</i>
   <i type="int" name="NGYF">    56</i>
   <i type="int" name="NGZF">    56</i>
   <i type="logical" name="ADDGRID"> T  </i>
  </separator>
  <separator name="ionic" >
   <i type="int" name="NSW">     1</i>
   <i type="int" name="IBRION">    -1</i>
   <i type="int" name="MDALGO">     0</i>
   <i type="int" name="ISIF">     3</i>
   <i name="PSTRESS">      0.00000000</i>
   <i name="EDIFFG">      0.00001000</i>
   <i type="int" name="NFREE">     5</i>
   <i name="POTIM">      0.10000000</i>
   <i name="SMASS">     -3.00000000</i>
   <i name="SCALEE">      1.00000000</i>
  </separator>
  <separator name="ionic md" >
   <i name="TEBEG">      0.00010000</i>
   <i name="TEEND">      0.00010000</i>
   <i type="int" name="NBLOCK">     1</i>
   <i type="int" name="KBLOCK">     1</i>
   <i type="int" name="NPACO">   256</i>
   <i name="APACO">     16.00000000</i>
  </separator>
  <separator name="symmetry" >
   <i type="int" name="ISYM">     0</i>
   <i name="SYMPREC">      0.00000010</i>
  </separator>
  <separator name="dos" >
   <i type="int" name="LORBIT">     0</i>
   <v name="RWIGS">     -1.00000000</v>
   <i type="int" name="NEDOS">   301</i>
   <i name="EMIN">     10.00000000</i>
   <i name="EMAX">    -10.00000000</i>
   <i name="EFERMI">      0.00000000</i>
  </separator>
  <separator name="writing" >
   <i type="int" name="NWRITE">     2</i>
   <i type="logical" name="LWAVE"> T  </i>
   <i type="logical" name="LDOWNSAMPLE"> F  </i>
   <i type="logical" name="LCHARG"> T  </i>
   <i type="logical" name="LPARD"> F  </i>
   <i type="logical" name="LVTOT"> F  </i>
   <i type="logical" name="LVHAR"> F  </i>
   <i type="logical" name="LELF"> F  </i>
   <i type="logical" name="LOPTICS"> F  </i>
   <v name="STM">      0.00000000      0.00000000      0.00000000      0.00000000      0.00000000      0.00000000      0.00000000</v>
  </separator>
  <separator name="performance" >
   <i type="int" name="NPAR">     1</i>
   <i type="int" name="NSIM">     4</i>
   <i type="int" name="NBLK">    -1</i>
   <i type="logical" name="LPLANE"> T  </i>
   <i type="logical" name="LSCALAPACK"> T  </i>
   <i type="logical" name="LSCAAWARE"> F  </i>
   <i type="logical" name="LSCALU"> F  </i>
   <i type="logical" name="LASYNC"> F  </i>
   <i type="logical" name="LORBITALREAL"> F  </i>
  </separator>
  <separator name="miscellaneous" >
   <i type="int" name="IDIOT">     3</i>
   <i type="int" name="ISPECIAL">     0</i>
   <i type="logical" name="LMUSIC"> F  </i>
   <v name="POMASS">    220.17000000</v>
   <v name="DARWINR">      0.00000000</v>
   <v name="DARWINV">      1.00000000</v>
   <i type="logical" name="LCORR"> T  </i>
  </separator>
  <i type="logical" name="GGA_COMPAT"> F  </i>
  <i type="logical" name="LBERRY"> F  </i>
  <i type="int" name="ICORELEVEL">     0</i>
  <i type="logical" name="LDAU"> F  </i>
  <i type="int" name="I_CONSTRAINED_M">     0</i>
  <separator name="electronic exchange-correlation" >
   <i type="string" name="GGA">--</i>
   <i type="int" name="VOSKOWN">     0</i>
   <i type="logical" name="LHFCALC"> F  </i>
   <i type="string" name="PRECFOCK"></i>
   <i type="logical" name="LSYMGRAD"> F  </i>
   <i type="logical" name="LHFONE"> F  </i>
   <i type="logical" name="LRHFCALC"> F  </i>
   <i type="logical" name="LTHOMAS"> F  </i>
   <i type="logical" name="LMODELHF"> F  </i>
   <i name="ENCUT4O">     -1.00000000</i>
   <i type="int" name="EXXOEP">     0</i>
   <i type="int" name="FOURORBIT">     0</i>
   <i name="AEXX">      0.00000000</i>
   <i name="HFALPHA">      0.00000000</i>
   <i name="MCALPHA">      0.00000000</i>
   <i name="ALDAX">      1.00000000</i>
   <i name="AGGAX">      1.00000000</i>
   <i name="ALDAC">      1.00000000</i>
   <i name="AGGAC">      1.00000000</i>
   <i type="int" name="NKREDX">     1</i>
   <i type="int" name="NKREDY">     1</i>
   <i type="int" name="NKREDZ">     1</i>
   <i type="logical" name="SHIFTRED"> F  </i>
   <i type="logical" name="ODDONLY"> F  </i>
   <i type="logical" name="EVENONLY"> F  </i>
   <i type="int" name="LMAXFOCK">     0</i>
   <i type="int" name="NMAXFOCKAE">     0</i>
   <i type="logical" name="LFOCKAEDFT"> F  </i>
   <i name="HFSCREEN">      0.00000000</i>
   <i name="HFSCREENC">      0.00000000</i>
   <i type="int" name="NBANDSGWLOW">     0</i>
  </separator>
  <separator name="vdW DFT" >
   <i type="logical" name="LUSE_VDW"> F  </i>
   <i name="Zab_VDW">     -0.84910000</i>
   <i name="PARAM1">      0.12340000</i>
   <i name="PARAM2">      1.00000000</i>
   <i name="PARAM3">      0.00000000</i>
  </separator>
  <separator name="model GW" >
   <i type="int" name="MODEL_GW">     0</i>
   <i name="MODEL_EPS0">     39.19352642</i>
   <i name="MODEL_ALPHA">      1.00000000</i>
  </separator>
  <separator name="linear response parameters" >
   <i type="logical" name="LEPSILON"> F  </i>
   <i type="logical" name="LRPA"> F  </i>
   <i type="logical" name="LNABLA"> F  </i>
   <i type="logical" name="LVEL"> F  </i>
   <i type="int" name="KINTER">     0</i>
   <i name="CSHIFT">      0.10000000</i>
   <i name="OMEGAMAX">     -1.00000000</i>
   <i name="DEG_THRESHOLD">      0.00200000</i>
   <i name="RTIME">     -0.10000000</i>
   <i name="WPLASMAI">      0.00000000</i>
   <v name="DFIELD">      0.00000000      0.00000000      0.00000000</v>
   <v name="WPLASMA">      0.00000000      0.00000000      0.00000000      0.00000000      0.00000000      0.00000000      0.00000000      0.00000000      0.00000000</v>
  </separator>
  <separator name="orbital magnetization" >
   <i type="logical" name="NUCIND"> F  </i>
   <v name="MAGPOS">      0.00000000      0.00000000      0.00000000</v>
   <i type="logical" name="LNICSALL"> T  </i>
   <i type="logical" name="ORBITALMAG"> F  </i>
   <i type="logical" name="LMAGBLOCH"> F  </i>
   <i type="logical" name="LCHIMAG"> F  </i>
   <i type="logical" name="LGAUGE"> T  </i>
   <i type="int" name="MAGATOM">     0</i>
   <v name="MAGDIPOL">      0.00000000      0.00000000      0.00000000</v>
   <v name="AVECCONST">      0.00000000      0.00000000      0.00000000</v>
  </separator>
  <separator name="response functions" >
   <i type="logical" name="LADDER"> F  </i>
   <i type="logical" name="LRPAFORCE"> F  </i>
   <i type="logical" name="LFXC"> F  </i>
   <i type="logical" name="LHARTREE"> T  </i>
   <i type="int" name="IBSE">     0</i>
   <v type="int" name="KPOINT">    -1     0     0     0</v>
   <i type="logical" name="LTCTE"> F  </i>
   <i type="logical" name="LTETE"> F  </i>
   <i type="logical" name="LTRIPLET"> F  </i>
   <i type="logical" name="LFXCEPS"> F  </i>
   <i type="logical" name="LFXHEG"> F  </i>
   <i type="int" name="NATURALO">     2</i>
   <i type="logical" name="L2ORDER"> F  </i>
   <i type="logical" name="LMP2LT"> F  </i>
   <i type="logical" name="LUSEW"> F  </i>
   <i name="ENCUTGW">     -2.00000000</i>
   <i name="ENCUTGWSOFT">     -2.00000000</i>
   <i name="ENCUTLF">     -1.00000000</i>
   <i type="int" name="LMAXMP2">    -1</i>
   <i name="SCISSOR">      0.00000000</i>
   <i type="int" name="NOMEGA">     0</i>
   <i type="int" name="NOMEGAR">     0</i>
   <i type="int" name="NBANDSGW">    -1</i>
   <i type="int" name="NBANDSO">    -1</i>
   <i type="int" name="NBANDSV">    -1</i>
   <i type="int" name="NELM">    50</i>
   <i type="int" name="NELMHF">     1</i>
   <i type="int" name="DIM">     3</i>
   <i type="int" name="ANTIRES">     0</i>
   <i name="OMEGAMAX">    -30.00000000</i>
   <i name="OMEGAMIN">    -30.00000000</i>
   <i name="OMEGATL">   -200.00000000</i>
   <i type="int" name="OMEGAGRID">   140</i>
   <i name="CSHIFT">     -0.10000000</i>
   <i type="logical" name="SELFENERGY"> F  </i>
   <i type="logical" name="LSPECTRAL"> F  </i>
   <i type="logical" name="LSPECTRALGW"> F  </i>
   <i type="logical" name="LSINGLES"> F  </i>
   <i type="logical" name="LFERMIGW"> F  </i>
   <i type="logical" name="ODDONLYGW"> F  </i>
   <i type="logical" name="EVENONLYGW"> F  </i>
   <i type="int" name="NKREDLFX">     1</i>
   <i type="int" name="NKREDLFY">     1</i>
   <i type="int" name="NKREDLFZ">     1</i>
   <i type="int" name="MAXMEM">  2800</i>
   <i type="int" name="TELESCOPE">     0</i>
   <i type="int" name="TAUPAR">     1</i>
   <i type="int" name="OMEGAPAR">    -1</i>
   <i name="LAMBDA">      1.00000000</i>
  </separator>
  <separator name="External order field" >
   <i name="OFIELD_KAPPA">      0.00000000</i>
   <v name="OFIELD_K">      0.00000000      0.00000000      0.00000000</v>
   <i name="OFIELD_Q6_NEAR">      0.00000000</i>
   <i name="OFIELD_Q6_FAR">      0.00000000</i>
   <i name="OFIELD_A">      0.00000000</i>
  </separator>
 </parameters>
 <atominfo>
  <atoms>       1 </atoms>
  <types>       1 </types>
  <array name="atoms" >
   <dimension dim="1">ion</dimension>
   <field type="string">element</field>
   <field type="int">atomtype</field>
   <set>
    <rc><c>Rn</c><c>   1</c></rc>
   </set>
  </array>
  <array name="atomtypes" >
   <dimension dim="1">type</dimension>
   <field type="int">atomspertype</field>
   <field type="string">element</field>
   <field>mass</field>
   <field>valence</field>
   <field type="string">pseudopotential</field>
   <set>
    <rc><c>   1</c><c>Rn</c><c>    220.17000000</c><c>     18.00000000</c><c>  PAW_PBE Rn_d_GW 14Apr2014             </c></rc>
   </set>
  </array>
 </atominfo>
 <structure name="initialpos" >
  <crystal>
   <varray name="basis" >
    <v>       4.52056477       0.00000000       0.00000000 </v>
    <v>       2.26028238       3.91492393      -0.00000000 </v>
    <v>       2.26028238       1.30497464       3.69102568 </v>
   </varray>
   <i name="volume">     65.32254404 </i>
   <varray name="rec_basis" >
    <v>       0.22121130      -0.12771640      -0.09030913 </v>
    <v>       0.00000000       0.25543280      -0.09030913 </v>
    <v>      -0.00000000       0.00000000       0.27092740 </v>
   </varray>
  </crystal>
  <varray name="positions" >
   <v>       0.00000000       0.00000000       0.00000000 </v>
  </varray>
  <varray name="velocities" >
   <v>       0.00000000       0.00000000       0.00000000 </v>
  </varray>
 </structure>
 <calculation>
  <scstep>
   <time name="dav">    3.55    3.55</time>
   <time name="total">    3.78    3.77</time>
   <energy>
    <i name="alphaZ">     64.91123397 </i>
    <i name="ewald">  -1672.97583954 </i>
    <i name="hartreedc">  -1019.44437425 </i>
    <i name="XCdc">     59.19928495 </i>
    <i name="pawpsdc">   2390.05319219 </i>
    <i name="pawaedc">  -2450.60298632 </i>
    <i name="eentropy">     -0.00000000 </i>
    <i name="bandstr">   -482.74922537 </i>
    <i name="atom">   3030.62410580 </i>
    <i name="e_fr_energy">    -80.98460857 </i>
    <i name="e_wo_entrp">    -80.98460857 </i>
    <i name="e_0_energy">    -80.98460857 </i>
   </energy>
  </scstep>
  <scstep>
   <time name="dav">    3.09    3.09</time>
   <time name="total">    3.09    3.09</time>
   <energy>
    <i name="e_fr_energy">    -80.98460857 </i>
    <i name="e_wo_entrp">    -80.98460857 </i>
    <i name="e_0_energy">    -80.98460857 </i>
   </energy>
  </scstep>
  <scstep>
   <time name="dav">    3.17    3.17</time>
   <time name="total">    3.17    3.17</time>
   <energy>
    <i name="e_fr_energy">    -80.98460857 </i>
    <i name="e_wo_entrp">    -80.98460857 </i>
    <i name="e_0_energy">    -80.98460857 </i>
   </energy>
  </scstep>
  <scstep>
   <time name="dav">    3.11    3.11</time>
   <time name="total">    3.11    3.11</time>
   <energy>
    <i name="e_fr_energy">    -80.98460857 </i>
    <i name="e_wo_entrp">    -80.98460857 </i>
    <i name="e_0_energy">    -80.98460857 </i>
   </energy>
  </scstep>
  <scstep>
   <time name="dav">    3.13    3.13</time>
   <time name="total">    3.78    3.78</time>
   <energy>
    <i name="e_fr_energy">    -80.98460857 </i>
    <i name="e_wo_entrp">    -80.98460857 </i>
    <i name="e_0_energy">    -80.98460857 </i>
   </energy>
  </scstep>
  <scstep>
   <time name="dav">    3.21    3.21</time>
   <time name="total">    3.43    3.43</time>
   <energy>
    <i name="alphaZ">     64.91123397 </i>
    <i name="ewald">  -1672.97583954 </i>
    <i name="hartreedc">  -1019.44436568 </i>
    <i name="XCdc">     59.19929042 </i>
    <i name="pawpsdc">   2390.05643418 </i>
    <i name="pawaedc">  -2450.60626217 </i>
    <i name="eentropy">     -0.00000000 </i>
    <i name="bandstr">   -482.74920554 </i>
    <i name="atom">   3030.62410580 </i>
    <i name="e_fr_energy">    -80.98460856 </i>
    <i name="e_wo_entrp">    -80.98460856 </i>
    <i name="e_0_energy">    -80.98460856 </i>
   </energy>
  </scstep>
  <structure>
   <crystal>
    <varray name="basis" >
     <v>       4.52056477       0.00000000       0.00000000 </v>
     <v>       2.26028238       3.91492393      -0.00000000 </v>
     <v>       2.26028238       1.30497464       3.69102568 </v>
    </varray>
    <i name="volume">     65.32254404 </i>
    <varray name="rec_basis" >
     <v>       0.22121130      -0.12771640      -0.09030913 </v>
     <v>       0.00000000       0.25543280      -0.09030913 </v>
     <v>      -0.00000000       0.00000000       0.27092740 </v>
    </varray>
   </crystal>
   <varray name="positions" >
    <v>       0.00000000       0.00000000       0.00000000 </v>
   </varray>
  </structure>
  <varray name="forces" >
   <v>      -0.00000009      -0.00000059       0.00000203 </v>
  </varray>
  <varray name="stress" >
   <v>      -1.56057120       0.50767651       0.35914398 </v>
   <v>       0.50767688      -2.14685232       0.20695523 </v>
   <v>       0.35914345       0.20695465      -2.29182353 </v>
  </varray>
  <energy>
   <i name="e_fr_energy">    -80.98460856 </i>
   <i name="e_wo_entrp">    -80.98460856 </i>
   <i name="e_0_energy">     -0.00000000 </i>
  </energy>
  <time name="totalsc">   33.96   34.01</time>
  <eigenvalues>
   <array>
    <dimension dim="1">band</dimension>
    <dimension dim="2">kpoint</dimension>
    <dimension dim="3">spin</dimension>
    <field>eigene</field>
    <field>occ</field>
    <set>
     <set comment="spin 1">
      <set comment="kpoint 1">
       <r>  -42.4907    1.0000 </r>
       <r>  -42.4907    1.0000 </r>
       <r>  -42.4890    1.0000 </r>
       <r>  -42.4888    1.0000 </r>
       <r>  -42.4888    1.0000 </r>
       <r>  -18.0676    1.0000 </r>
       <r>   -4.6067    1.0000 </r>
       <r>   -3.0756    1.0000 </r>
       <r>   -3.0755    1.0000 </r>
       <r>    4.5343    0.0000 </r>
       <r>    7.6263    0.0000 </r>
       <r>    7.6263    0.0000 </r>
       <r>    7.9817    0.0000 </r>
       <r>   10.0840    0.0000 </r>
       <r>   12.5469    0.0000 </r>
       <r>   12.5469    0.0000 </r>
       <r>   12.9589    0.0000 </r>
       <r>   12.9589    0.0000 </r>
       <r>   13.4960    0.0000 </r>
       <r>   17.1958    0.0000 </r>
       <r>   17.6230    0.0000 </r>
       <r>   17.6230    0.0000 </r>
       <r>   19.2890    0.0000 </r>
       <r>   20.1329    0.0000 </r>
       <r>   21.2146    0.0000 </r>
       <r>   21.5302    0.0000 </r>
       <r>   21.5302    0.0000 </r>
       <r>   22.6009    0.0000 </r>
       <r>   22.6009    0.0000 </r>
       <r>   24.6008    0.0000 </r>
       <r>   25.1604    0.0000 </r>
       <r>   26.4463    0.0000 </r>
      </set>
      <set comment="kpoint 2">
       <r>  -42.4907    1.0000 </r>
       <r>  -42.4907    1.0000 </r>
       <r>  -42.4890    1.0000 </r>
       <r>  -42.4888    1.0000 </r>
       <r>  -42.4888    1.0000 </r>
       <r>  -18.0685    1.0000 </r>
       <r>   -4.5985    1.0000 </r>
       <r>   -3.0743    1.0000 </r>
       <r>   -3.0743    1.0000 </r>
       <r>    4.5339    0.0000 </r>
       <r>    7.6327    0.0000 </r>
       <r>    7.6327    0.0000 </r>
       <r>    7.9693    0.0000 </r>
       <r>   10.0532    0.0000 </r>
       <r>   12.3286    0.0000 </r>
       <r>   12.3286    0.0000 </r>
       <r>   13.1896    0.0000 </r>
       <r>   13.1896    0.0000 </r>
       <r>   13.5681    0.0000 </r>
       <r>   17.0954    0.0000 </r>
       <r>   17.5734    0.0000 </r>
       <r>   17.5734    0.0000 </r>
       <r>   19.2874    0.0000 </r>
       <r>   20.1928    0.0000 </r>
       <r>   21.1802    0.0000 </r>
       <r>   21.5468    0.0000 </r>
       <r>   21.5468    0.0000 </r>
       <r>   22.6207    0.0000 </r>
       <r>   22.6207    0.0000 </r>
       <r>   24.5636    0.0000 </r>
       <r>   25.2189    0.0000 </r>
       <r>   26.4430    0.0000 </r>
      </set>
      <set comment="kpoint 3">
       <r>  -42.4907    1.0000 </r>
       <r>  -42.4907    1.0000 </r>
       <r>  -42.4890    1.0000 </r>
       <r>  -42.4887    1.0000 </r>
       <r>  -42.4887    1.0000 </r>
       <r>  -18.0709    1.0000 </r>
       <r>   -4.5738    1.0000 </r>
       <r>   -3.0706    1.0000 </r>
       <r>   -3.0706    1.0000 </r>
       <r>    4.5324    0.0000 </r>
       <r>    7.6518    0.0000 </r>
       <r>    7.6518    0.0000 </r>
       <r>    7.9307    0.0000 </r>
       <r>    9.9737    0.0000 </r>
       <r>   11.9956    0.0000 </r>
       <r>   11.9956    0.0000 </r>
       <r>   13.5599    0.0000 </r>
       <r>   13.5599    0.0000 </r>
       <r>   13.7731    0.0000 </r>
       <r>   16.8256    0.0000 </r>
       <r>   17.4310    0.0000 </r>
       <r>   17.4310    0.0000 </r>
       <r>   19.2825    0.0000 </r>
       <r>   20.2994    0.0000 </r>
       <r>   21.1246    0.0000 </r>
       <r>   21.5892    0.0000 </r>
       <r>   21.5893    0.0000 </r>
       <r>   22.6814    0.0000 </r>
       <r>   22.6814    0.0000 </r>
       <r>   24.4871    0.0000 </r>
       <r>   25.3590    0.0000 </r>
       <r>   26.4323    0.0000 </r>
      </set>
      <set comment="kpoint 4">
       <r>  -42.4906    1.0000 </r>
       <r>  -42.4906    1.0000 </r>
       <r>  -42.4890    1.0000 </r>
       <r>  -42.4887    1.0000 </r>
       <r>  -42.4887    1.0000 </r>
       <r>  -18.0753    1.0000 </r>
       <r>   -4.5330    1.0000 </r>
       <r>   -3.0644    1.0000 </r>
       <r>   -3.0644    1.0000 </r>
       <r>    4.5281    0.0000 </r>
       <r>    7.6833    0.0000 </r>
       <r>    7.6833    0.0000 </r>
       <r>    7.8633    0.0000 </r>
       <r>    9.8754    0.0000 </r>
       <r>   11.6620    0.0000 </r>
       <r>   11.6620    0.0000 </r>
       <r>   13.9552    0.0000 </r>
       <r>   13.9552    0.0000 </r>
       <r>   14.0850    0.0000 </r>
       <r>   16.4470    0.0000 </r>
       <r>   17.2113    0.0000 </r>
       <r>   17.2113    0.0000 </r>
       <r>   19.2743    0.0000 </r>
       <r>   20.2617    0.0000 </r>
       <r>   21.1950    0.0000 </r>
       <r>   21.6406    0.0000 </r>
       <r>   21.6407    0.0000 </r>
       <r>   22.7837    0.0000 </r>
       <r>   22.7838    0.0000 </r>
       <r>   24.4125    0.0000 </r>
       <r>   25.5420    0.0000 </r>
       <r>   26.4154    0.0000 </r>
      </set>
      <set comment="kpoint 5">
       <r>  -42.4906    1.0000 </r>
       <r>  -42.4906    1.0000 </r>
       <r>  -42.4890    1.0000 </r>
       <r>  -42.4888    1.0000 </r>
       <r>  -42.4888    1.0000 </r>
       <r>  -18.0813    1.0000 </r>
       <r>   -4.4764    1.0000 </r>
       <r>   -3.0560    1.0000 </r>
       <r>   -3.0560    1.0000 </r>
       <r>    4.5185    0.0000 </r>
       <r>    7.7266    0.0000 </r>
       <r>    7.7266    0.0000 </r>
       <r>    7.7658    0.0000 </r>
       <r>    9.7888    0.0000 </r>
       <r>   11.3410    0.0000 </r>
       <r>   11.3410    0.0000 </r>
       <r>   14.3621    0.0000 </r>
       <r>   14.3621    0.0000 </r>
       <r>   14.4764    0.0000 </r>
       <r>   16.0086    0.0000 </r>
       <r>   16.9333    0.0000 </r>
       <r>   16.9333    0.0000 </r>
       <r>   19.2632    0.0000 </r>
       <r>   20.0115    0.0000 </r>
       <r>   21.4311    0.0000 </r>
       <r>   21.6858    0.0000 </r>
       <r>   21.6858    0.0000 </r>
       <r>   22.9242    0.0000 </r>
       <r>   22.9242    0.0000 </r>
       <r>   24.3533    0.0000 </r>
       <r>   25.7556    0.0000 </r>
       <r>   26.3923    0.0000 </r>
      </set>
      <set comment="kpoint 6">
       <r>  -42.4906    1.0000 </r>
       <r>  -42.4906    1.0000 </r>
       <r>  -42.4891    1.0000 </r>
       <r>  -42.4888    1.0000 </r>
       <r>  -42.4888    1.0000 </r>
       <r>  -18.0889    1.0000 </r>
       <r>   -4.4049    1.0000 </r>
       <r>   -3.0456    1.0000 </r>
       <r>   -3.0456    1.0000 </r>
       <r>    4.4997    0.0000 </r>
       <r>    7.6424    0.0000 </r>
       <r>    7.7809    0.0000 </r>
       <r>    7.7809    0.0000 </r>
       <r>    9.7345    0.0000 </r>
       <r>   11.0368    0.0000 </r>
       <r>   11.0368    0.0000 </r>
       <r>   14.7751    0.0000 </r>
       <r>   14.7751    0.0000 </r>
       <r>   14.9194    0.0000 </r>
       <r>   15.5464    0.0000 </r>
       <r>   16.6151    0.0000 </r>
       <r>   16.6151    0.0000 </r>
       <r>   19.2495    0.0000 </r>
       <r>   19.6444    0.0000 </r>
       <r>   21.7181    0.0000 </r>
       <r>   21.7181    0.0000 </r>
       <r>   21.7268    0.0000 </r>
       <r>   23.0926    0.0000 </r>
       <r>   23.0927    0.0000 </r>
       <r>   24.3107    0.0000 </r>
       <r>   25.9867    0.0000 </r>
       <r>   26.3646    0.0000 </r>
      </set>
      <set comment="kpoint 7">
       <r>  -42.4906    1.0000 </r>
       <r>  -42.4906    1.0000 </r>
       <r>  -42.4891    1.0000 </r>
       <r>  -42.4888    1.0000 </r>
       <r>  -42.4888    1.0000 </r>
       <r>  -18.0976    1.0000 </r>
       <r>   -4.3193    1.0000 </r>
       <r>   -3.0332    1.0000 </r>
       <r>   -3.0332    1.0000 </r>
       <r>    4.4666    0.0000 </r>
       <r>    7.5043    0.0000 </r>
       <r>    7.8448    0.0000 </r>
       <r>    7.8448    0.0000 </r>
       <r>    9.7212    0.0000 </r>
       <r>   10.7526    0.0000 </r>
       <r>   10.7526    0.0000 </r>
       <r>   15.0175    0.0000 </r>
       <r>   15.1876    0.0000 </r>
       <r>   15.1876    0.0000 </r>
       <r>   15.4596    0.0000 </r>
       <r>   16.2734    0.0000 </r>
       <r>   16.2734    0.0000 </r>
       <r>   19.2206    0.0000 </r>
       <r>   19.2336    0.0000 </r>
       <r>   21.7387    0.0000 </r>
       <r>   21.7388    0.0000 </r>
       <r>   22.0215    0.0000 </r>
       <r>   23.2764    0.0000 </r>
       <r>   23.2764    0.0000 </r>
       <r>   24.2819    0.0000 </r>
       <r>   26.2138    0.0000 </r>
       <r>   26.3325    0.0000 </r>
      </set>
      <set comment="kpoint 8">
       <r>  -42.4906    1.0000 </r>
       <r>  -42.4906    1.0000 </r>
       <r>  -42.4892    1.0000 </r>
       <r>  -42.4889    1.0000 </r>
       <r>  -42.4889    1.0000 </r>
       <r>  -18.1075    1.0000 </r>
       <r>   -4.2207    1.0000 </r>
       <r>   -3.0193    1.0000 </r>
       <r>   -3.0193    1.0000 </r>
       <r>    4.4137    0.0000 </r>
       <r>    7.3672    0.0000 </r>
       <r>    7.9163    0.0000 </r>
       <r>    7.9163    0.0000 </r>
       <r>    9.7487    0.0000 </r>
       <r>   10.4915    0.0000 </r>
       <r>   10.4915    0.0000 </r>
       <r>   14.5454    0.0000 </r>
       <r>   15.5642    0.0000 </r>
       <r>   15.5642    0.0000 </r>
       <r>   15.9511    0.0000 </r>
       <r>   15.9511    0.0000 </r>
       <r>   15.9739    0.0000 </r>
       <r>   18.7679    0.0000 </r>
       <r>   19.2159    0.0000 </r>
       <r>   21.7522    0.0000 </r>
       <r>   21.7523    0.0000 </r>
       <r>   22.2923    0.0000 </r>
       <r>   23.4633    0.0000 </r>
       <r>   23.4634    0.0000 </r>
       <r>   24.2637    0.0000 </r>
       <r>   26.2968    0.0000 </r>
       <r>   26.4109    0.0000 </r>
      </set>
      <set comment="kpoint 9">
       <r>  -42.4906    1.0000 </r>
       <r>  -42.4906    1.0000 </r>
       <r>  -42.4892    1.0000 </r>
       <r>  -42.4890    1.0000 </r>
       <r>  -42.4890    1.0000 </r>
       <r>  -18.1181    1.0000 </r>
       <r>   -4.1104    1.0000 </r>
       <r>   -3.0041    1.0000 </r>
       <r>   -3.0041    1.0000 </r>
       <r>    4.3353    0.0000 </r>
       <r>    7.2479    0.0000 </r>
       <r>    7.9924    0.0000 </r>
       <r>    7.9924    0.0000 </r>
       <r>    9.8124    0.0000 </r>
       <r>   10.2571    0.0000 </r>
       <r>   10.2571    0.0000 </r>
       <r>   14.0625    0.0000 </r>
       <r>   15.4719    0.0000 </r>
       <r>   15.4719    0.0000 </r>
       <r>   16.0853    0.0000 </r>
       <r>   16.0853    0.0000 </r>
       <r>   16.5283    0.0000 </r>
       <r>   18.3030    0.0000 </r>
       <r>   19.1968    0.0000 </r>
       <r>   21.7639    0.0000 </r>
       <r>   21.7639    0.0000 </r>
       <r>   22.5317    0.0000 </r>
       <r>   23.6451    0.0000 </r>
       <r>   23.6451    0.0000 </r>
       <r>   24.2538    0.0000 </r>
       <r>   26.2581    0.0000 </r>
       <r>   26.5687    0.0000 </r>
      </set>
      <set comment="kpoint 10">
       <r>  -42.4907    1.0000 </r>
       <r>  -42.4907    1.0000 </r>
       <r>  -42.4893    1.0000 </r>
       <r>  -42.4892    1.0000 </r>
       <r>  -42.4892    1.0000 </r>
       <r>  -18.1294    1.0000 </r>
       <r>   -3.9902    1.0000 </r>
       <r>   -2.9880    1.0000 </r>
       <r>   -2.9880    1.0000 </r>
       <r>    4.2280    0.0000 </r>
       <r>    7.1601    0.0000 </r>
       <r>    8.0686    0.0000 </r>
       <r>    8.0686    0.0000 </r>
       <r>    9.9067    0.0000 </r>
       <r>   10.0546    0.0000 </r>
       <r>   10.0546    0.0000 </r>
       <r>   13.5871    0.0000 </r>
       <r>   15.1106    0.0000 </r>
       <r>   15.1106    0.0000 </r>
       <r>   16.4780    0.0000 </r>
       <r>   16.4780    0.0000 </r>
       <r>   17.0962    0.0000 </r>
       <r>   17.8439    0.0000 </r>
       <r>   19.1769    0.0000 </r>
       <r>   21.7787    0.0000 </r>
       <r>   21.7787    0.0000 </r>
       <r>   22.7397    0.0000 </r>
       <r>   23.8162    0.0000 </r>
       <r>   23.8162    0.0000 </r>
       <r>   24.2504    0.0000 </r>
       <r>   26.2174    0.0000 </r>
       <r>   26.4323    0.0000 </r>
      </set>
      <set comment="kpoint 11">
       <r>  -42.4907    1.0000 </r>
       <r>  -42.4907    1.0000 </r>
       <r>  -42.4894    1.0000 </r>
       <r>  -42.4893    1.0000 </r>
       <r>  -42.4893    1.0000 </r>
       <r>  -18.1409    1.0000 </r>
       <r>   -3.8619    1.0000 </r>
       <r>   -2.9713    1.0000 </r>
       <r>   -2.9713    1.0000 </r>
       <r>    4.0915    0.0000 </r>
       <r>    7.1124    0.0000 </r>
       <r>    8.1384    0.0000 </r>
       <r>    8.1384    0.0000 </r>
       <r>    9.8908    0.0000 </r>
       <r>    9.8908    0.0000 </r>
       <r>   10.0258    0.0000 </r>
       <r>   13.1250    0.0000 </r>
       <r>   14.7343    0.0000 </r>
       <r>   14.7343    0.0000 </r>
       <r>   16.8744    0.0000 </r>
       <r>   16.8744    0.0000 </r>
       <r>   17.3079    0.0000 </r>
       <r>   17.7614    0.0000 </r>
       <r>   19.1568    0.0000 </r>
       <r>   21.8020    0.0000 </r>
       <r>   21.8020    0.0000 </r>
       <r>   22.9191    0.0000 </r>
       <r>   23.9756    0.0000 </r>
       <r>   23.9756    0.0000 </r>
       <r>   24.2526    0.0000 </r>
       <r>   26.1752    0.0000 </r>
       <r>   26.1779    0.0000 </r>
      </set>
      <set comment="kpoint 12">
       <r>  -42.4907    1.0000 </r>
       <r>  -42.4907    1.0000 </r>
       <r>  -42.4895    1.0000 </r>
       <r>  -42.4894    1.0000 </r>
       <r>  -42.4894    1.0000 </r>
       <r>  -18.1524    1.0000 </r>
       <r>   -3.7279    1.0000 </r>
       <r>   -2.9545    1.0000 </r>
       <r>   -2.9545    1.0000 </r>
       <r>    3.9296    0.0000 </r>
       <r>    7.1078    0.0000 </r>
       <r>    8.1935    0.0000 </r>
       <r>    8.1935    0.0000 </r>
       <r>    9.7744    0.0000 </r>
       <r>    9.7744    0.0000 </r>
       <r>   10.1640    0.0000 </r>
       <r>   12.6812    0.0000 </r>
       <r>   14.3588    0.0000 </r>
       <r>   14.3588    0.0000 </r>
       <r>   16.8739    0.0000 </r>
       <r>   17.2568    0.0000 </r>
       <r>   17.2568    0.0000 </r>
       <r>   18.3453    0.0000 </r>
       <r>   19.1368    0.0000 </r>
       <r>   21.8379    0.0000 </r>
       <r>   21.8379    0.0000 </r>
       <r>   23.0739    0.0000 </r>
       <r>   24.1236    0.0000 </r>
       <r>   24.1237    0.0000 </r>
       <r>   24.2604    0.0000 </r>
       <r>   26.1325    0.0000 </r>
       <r>   26.1335    0.0000 </r>
      </set>
      <set comment="kpoint 13">
       <r>  -42.4907    1.0000 </r>
       <r>  -42.4907    1.0000 </r>
       <r>  -42.4895    1.0000 </r>
       <r>  -42.4894    1.0000 </r>
       <r>  -42.4894    1.0000 </r>
       <r>  -18.1630    1.0000 </r>
       <r>   -3.5909    1.0000 </r>
       <r>   -2.9379    1.0000 </r>
       <r>   -2.9379    1.0000 </r>
       <r>    3.7496    0.0000 </r>
       <r>    7.1445    0.0000 </r>
       <r>    8.2254    0.0000 </r>
       <r>    8.2254    0.0000 </r>
       <r>    9.7140    0.0000 </r>
       <r>    9.7140    0.0000 </r>
       <r>   10.3136    0.0000 </r>
       <r>   12.2629    0.0000 </r>
       <r>   13.9891    0.0000 </r>
       <r>   13.9891    0.0000 </r>
       <r>   16.4264    0.0000 </r>
       <r>   17.6166    0.0000 </r>
       <r>   17.6166    0.0000 </r>
       <r>   18.9632    0.0000 </r>
       <r>   19.1177    0.0000 </r>
       <r>   21.8914    0.0000 </r>
       <r>   21.8914    0.0000 </r>
       <r>   23.2092    0.0000 </r>
       <r>   24.2626    0.0000 </r>
       <r>   24.2626    0.0000 </r>
       <r>   24.2750    0.0000 </r>
       <r>   26.0902    0.0000 </r>
       <r>   26.0905    0.0000 </r>
      </set>
      <set comment="kpoint 14">
       <r>  -42.4908    1.0000 </r>
       <r>  -42.4908    1.0000 </r>
       <r>  -42.4896    1.0000 </r>
       <r>  -42.4896    1.0000 </r>
       <r>  -42.4896    1.0000 </r>
       <r>  -18.1738    1.0000 </r>
       <r>   -3.4542    1.0000 </r>
       <r>   -2.9221    1.0000 </r>
       <r>   -2.9221    1.0000 </r>
       <r>    3.5604    0.0000 </r>
       <r>    7.2178    0.0000 </r>
       <r>    8.2292    0.0000 </r>
       <r>    8.2292    0.0000 </r>
       <r>    9.7136    0.0000 </r>
       <r>    9.7136    0.0000 </r>
       <r>   10.4609    0.0000 </r>
       <r>   11.8832    0.0000 </r>
       <r>   13.6288    0.0000 </r>
       <r>   13.6288    0.0000 </r>
       <r>   15.9907    0.0000 </r>
       <r>   17.9458    0.0000 </r>
       <r>   17.9459    0.0000 </r>
       <r>   19.0992    0.0000 </r>
       <r>   19.5874    0.0000 </r>
       <r>   21.9648    0.0000 </r>
       <r>   21.9648    0.0000 </r>
       <r>   23.3253    0.0000 </r>
       <r>   24.2962    0.0000 </r>
       <r>   24.3934    0.0000 </r>
       <r>   24.3934    0.0000 </r>
       <r>   26.0495    0.0000 </r>
       <r>   26.0495    0.0000 </r>
      </set>
      <set comment="kpoint 15">
       <r>  -42.4907    1.0000 </r>
       <r>  -42.4907    1.0000 </r>
       <r>  -42.4896    1.0000 </r>
       <r>  -42.4896    1.0000 </r>
       <r>  -42.4896    1.0000 </r>
       <r>  -18.1830    1.0000 </r>
       <r>   -3.3215    1.0000 </r>
       <r>   -2.9073    1.0000 </r>
       <r>   -2.9073    1.0000 </r>
       <r>    3.3716    0.0000 </r>
       <r>    7.3219    0.0000 </r>
       <r>    8.2078    0.0000 </r>
       <r>    8.2078    0.0000 </r>
       <r>    9.7697    0.0000 </r>
       <r>    9.7697    0.0000 </r>
       <r>   10.5723    0.0000 </r>
       <r>   11.5754    0.0000 </r>
       <r>   13.2811    0.0000 </r>
       <r>   13.2811    0.0000 </r>
       <r>   15.5729    0.0000 </r>
       <r>   18.2376    0.0000 </r>
       <r>   18.2376    0.0000 </r>
       <r>   19.0827    0.0000 </r>
       <r>   20.2082    0.0000 </r>
       <r>   22.0595    0.0000 </r>
       <r>   22.0595    0.0000 </r>
       <r>   23.4274    0.0000 </r>
       <r>   24.3306    0.0000 </r>
       <r>   24.5211    0.0000 </r>
       <r>   24.5211    0.0000 </r>
       <r>   26.0118    0.0000 </r>
       <r>   26.0118    0.0000 </r>
      </set>
      <set comment="kpoint 16">
       <r>  -42.4907    1.0000 </r>
       <r>  -42.4907    1.0000 </r>
       <r>  -42.4896    1.0000 </r>
       <r>  -42.4896    1.0000 </r>
       <r>  -42.4896    1.0000 </r>
       <r>  -18.1912    1.0000 </r>
       <r>   -3.1971    1.0000 </r>
       <r>   -2.8941    1.0000 </r>
       <r>   -2.8941    1.0000 </r>
       <r>    3.1924    0.0000 </r>
       <r>    7.4499    0.0000 </r>
       <r>    8.1699    0.0000 </r>
       <r>    8.1699    0.0000 </r>
       <r>    9.8713    0.0000 </r>
       <r>    9.8714    0.0000 </r>
       <r>   10.5692    0.0000 </r>
       <r>   11.4172    0.0000 </r>
       <r>   12.9498    0.0000 </r>
       <r>   12.9498    0.0000 </r>
       <r>   15.1783    0.0000 </r>
       <r>   18.4861    0.0000 </r>
       <r>   18.4861    0.0000 </r>
       <r>   19.0679    0.0000 </r>
       <r>   20.8131    0.0000 </r>
       <r>   22.1727    0.0000 </r>
       <r>   22.1727    0.0000 </r>
       <r>   23.5148    0.0000 </r>
       <r>   24.3832    0.0000 </r>
       <r>   24.6483    0.0000 </r>
       <r>   24.6483    0.0000 </r>
       <r>   25.9788    0.0000 </r>
       <r>   25.9789    0.0000 </r>
      </set>
      <set comment="kpoint 17">
       <r>  -42.4907    1.0000 </r>
       <r>  -42.4907    1.0000 </r>
       <r>  -42.4897    1.0000 </r>
       <r>  -42.4896    1.0000 </r>
       <r>  -42.4896    1.0000 </r>
       <r>  -18.1982    1.0000 </r>
       <r>   -3.0856    1.0000 </r>
       <r>   -2.8827    1.0000 </r>
       <r>   -2.8827    1.0000 </r>
       <r>    3.0315    0.0000 </r>
       <r>    7.5938    0.0000 </r>
       <r>    8.1257    0.0000 </r>
       <r>    8.1257    0.0000 </r>
       <r>   10.0045    0.0000 </r>
       <r>   10.0045    0.0000 </r>
       <r>   10.4082    0.0000 </r>
       <r>   11.4515    0.0000 </r>
       <r>   12.6402    0.0000 </r>
       <r>   12.6402    0.0000 </r>
       <r>   14.8137    0.0000 </r>
       <r>   18.6876    0.0000 </r>
       <r>   18.6876    0.0000 </r>
       <r>   19.0553    0.0000 </r>
       <r>   21.3828    0.0000 </r>
       <r>   22.2968    0.0000 </r>
       <r>   22.2969    0.0000 </r>
       <r>   23.5877    0.0000 </r>
       <r>   24.4663    0.0000 </r>
       <r>   24.7767    0.0000 </r>
       <r>   24.7767    0.0000 </r>
       <r>   25.9530    0.0000 </r>
       <r>   25.9533    0.0000 </r>
      </set>
      <set comment="kpoint 18">
       <r>  -42.4906    1.0000 </r>
       <r>  -42.4906    1.0000 </r>
       <r>  -42.4896    1.0000 </r>
       <r>  -42.4894    1.0000 </r>
       <r>  -42.4894    1.0000 </r>
       <r>  -18.2032    1.0000 </r>
       <r>   -2.9919    1.0000 </r>
       <r>   -2.8735    1.0000 </r>
       <r>   -2.8735    1.0000 </r>
       <r>    2.8968    0.0000 </r>
       <r>    7.7427    0.0000 </r>
       <r>    8.0840    0.0000 </r>
       <r>    8.0840    0.0000 </r>
       <r>   10.1534    0.0000 </r>
       <r>   10.1534    0.0000 </r>
       <r>   10.1805    0.0000 </r>
       <r>   11.5855    0.0000 </r>
       <r>   12.3604    0.0000 </r>
       <r>   12.3604    0.0000 </r>
       <r>   14.4897    0.0000 </r>
       <r>   18.8415    0.0000 </r>
       <r>   18.8415    0.0000 </r>
       <r>   19.0453    0.0000 </r>
       <r>   21.8873    0.0000 </r>
       <r>   22.4202    0.0000 </r>
       <r>   22.4203    0.0000 </r>
       <r>   23.6482    0.0000 </r>
       <r>   24.5965    0.0000 </r>
       <r>   24.9078    0.0000 </r>
       <r>   24.9080    0.0000 </r>
       <r>   25.9382    0.0000 </r>
       <r>   25.9393    0.0000 </r>
      </set>
      <set comment="kpoint 19">
       <r>  -42.4906    1.0000 </r>
       <r>  -42.4906    1.0000 </r>
       <r>  -42.4897    1.0000 </r>
       <r>  -42.4895    1.0000 </r>
       <r>  -42.4895    1.0000 </r>
       <r>  -18.2076    1.0000 </r>
       <r>   -2.9208    1.0000 </r>
       <r>   -2.8668    1.0000 </r>
       <r>   -2.8667    1.0000 </r>
       <r>    2.7949    0.0000 </r>
       <r>    7.8803    0.0000 </r>
       <r>    8.0505    0.0000 </r>
       <r>    8.0506    0.0000 </r>
       <r>    9.9673    0.0000 </r>
       <r>   10.2982    0.0000 </r>
       <r>   10.2982    0.0000 </r>
       <r>   11.7358    0.0000 </r>
       <r>   12.1250    0.0000 </r>
       <r>   12.1251    0.0000 </r>
       <r>   14.2237    0.0000 </r>
       <r>   18.9485    0.0000 </r>
       <r>   18.9485    0.0000 </r>
       <r>   19.0379    0.0000 </r>
       <r>   22.2850    0.0000 </r>
       <r>   22.5249    0.0000 </r>
       <r>   22.5249    0.0000 </r>
       <r>   23.6915    0.0000 </r>
       <r>   24.7897    0.0000 </r>
       <r>   25.0321    0.0000 </r>
       <r>   25.0321    0.0000 </r>
       <r>   25.9370    0.0000 </r>
       <r>   25.9378    0.0000 </r>
      </set>
      <set comment="kpoint 20">
       <r>  -42.4906    1.0000 </r>
       <r>  -42.4906    1.0000 </r>
       <r>  -42.4895    1.0000 </r>
       <r>  -42.4894    1.0000 </r>
       <r>  -42.4894    1.0000 </r>
       <r>  -18.2099    1.0000 </r>
       <r>   -2.8762    1.0000 </r>
       <r>   -2.8626    1.0000 </r>
       <r>   -2.8626    1.0000 </r>
       <r>    2.7315    0.0000 </r>
       <r>    7.9828    0.0000 </r>
       <r>    8.0292    0.0000 </r>
       <r>    8.0292    0.0000 </r>
       <r>    9.8151    0.0000 </r>
       <r>   10.4106    0.0000 </r>
       <r>   10.4106    0.0000 </r>
       <r>   11.8528    0.0000 </r>
       <r>   11.9594    0.0000 </r>
       <r>   11.9594    0.0000 </r>
       <r>   14.0421    0.0000 </r>
       <r>   19.0116    0.0000 </r>
       <r>   19.0116    0.0000 </r>
       <r>   19.0334    0.0000 </r>
       <r>   22.5365    0.0000 </r>
       <r>   22.5959    0.0000 </r>
       <r>   22.5959    0.0000 </r>
       <r>   23.7195    0.0000 </r>
       <r>   25.0290    0.0000 </r>
       <r>   25.1303    0.0000 </r>
       <r>   25.1303    0.0000 </r>
       <r>   25.9519    0.0000 </r>
       <r>   26.0579    0.0000 </r>
      </set>
      <set comment="kpoint 21">
       <r>  -42.4906    1.0000 </r>
       <r>  -42.4906    1.0000 </r>
       <r>  -42.4895    1.0000 </r>
       <r>  -42.4894    1.0000 </r>
       <r>  -42.4894    1.0000 </r>
       <r>  -18.2107    1.0000 </r>
       <r>   -2.8612    1.0000 </r>
       <r>   -2.8612    1.0000 </r>
       <r>   -2.8611    1.0000 </r>
       <r>    2.7099    0.0000 </r>
       <r>    8.0216    0.0000 </r>
       <r>    8.0218    0.0000 </r>
       <r>    8.0218    0.0000 </r>
       <r>    9.7590    0.0000 </r>
       <r>   10.4546    0.0000 </r>
       <r>   10.4546    0.0000 </r>
       <r>   11.8975    0.0000 </r>
       <r>   11.8978    0.0000 </r>
       <r>   11.8978    0.0000 </r>
       <r>   13.9764    0.0000 </r>
       <r>   19.0319    0.0000 </r>
       <r>   19.0323    0.0000 </r>
       <r>   19.0323    0.0000 </r>
       <r>   22.6210    0.0000 </r>
       <r>   22.6210    0.0000 </r>
       <r>   22.6215    0.0000 </r>
       <r>   23.7285    0.0000 </r>
       <r>   25.1692    0.0000 </r>
       <r>   25.1692    0.0000 </r>
       <r>   25.1692    0.0000 </r>
       <r>   25.9652    0.0000 </r>
       <r>   25.9662    0.0000 </r>
      </set>
      <set comment="kpoint 22">
       <r>  -42.4906    1.0000 </r>
       <r>  -42.4906    1.0000 </r>
       <r>  -42.4895    1.0000 </r>
       <r>  -42.4894    1.0000 </r>
       <r>  -42.4894    1.0000 </r>
       <r>  -18.2096    1.0000 </r>
       <r>   -2.8766    1.0000 </r>
       <r>   -2.8655    1.0000 </r>
       <r>   -2.8654    1.0000 </r>
       <r>    2.7387    0.0000 </r>
       <r>    7.9637    0.0000 </r>
       <r>    8.0350    0.0000 </r>
       <r>    8.0351    0.0000 </r>
       <r>    9.8333    0.0000 </r>
       <r>   10.3328    0.0000 </r>
       <r>   10.4619    0.0000 </r>
       <r>   11.9139    0.0000 </r>
       <r>   11.9141    0.0000 </r>
       <r>   11.9653    0.0000 </r>
       <r>   14.0653    0.0000 </r>
       <r>   19.0042    0.0000 </r>
       <r>   19.0194    0.0000 </r>
       <r>   19.0197    0.0000 </r>
       <r>   22.5479    0.0000 </r>
       <r>   22.5679    0.0000 </r>
       <r>   22.5681    0.0000 </r>
       <r>   23.7165    0.0000 </r>
       <r>   25.0303    0.0000 </r>
       <r>   25.0305    0.0000 </r>
       <r>   25.1804    0.0000 </r>
       <r>   25.7359    0.0000 </r>
       <r>   26.1630    0.0000 </r>
      </set>
      <set comment="kpoint 23">
       <r>  -42.4906    1.0000 </r>
       <r>  -42.4905    1.0000 </r>
       <r>  -42.4895    1.0000 </r>
       <r>  -42.4894    1.0000 </r>
       <r>  -42.4894    1.0000 </r>
       <r>  -18.2062    1.0000 </r>
       <r>   -2.9216    1.0000 </r>
       <r>   -2.8781    1.0000 </r>
       <r>   -2.8781    1.0000 </r>
       <r>    2.8235    0.0000 </r>
       <r>    7.8131    0.0000 </r>
       <r>    8.0748    0.0000 </r>
       <r>    8.0749    0.0000 </r>
       <r>   10.0324    0.0000 </r>
       <r>   10.0351    0.0000 </r>
       <r>   10.4840    0.0000 </r>
       <r>   11.9626    0.0000 </r>
       <r>   11.9628    0.0000 </r>
       <r>   12.1106    0.0000 </r>
       <r>   14.3213    0.0000 </r>
       <r>   18.9215    0.0000 </r>
       <r>   18.9800    0.0000 </r>
       <r>   18.9803    0.0000 </r>
       <r>   22.3313    0.0000 </r>
       <r>   22.4172    0.0000 </r>
       <r>   22.4175    0.0000 </r>
       <r>   23.6815    0.0000 </r>
       <r>   24.7917    0.0000 </r>
       <r>   24.7919    0.0000 </r>
       <r>   25.2128    0.0000 </r>
       <r>   25.3826    0.0000 </r>
       <r>   26.5327    0.0000 </r>
      </set>
      <set comment="kpoint 24">
       <r>  -42.4906    1.0000 </r>
       <r>  -42.4906    1.0000 </r>
       <r>  -42.4895    1.0000 </r>
       <r>  -42.4895    1.0000 </r>
       <r>  -42.4894    1.0000 </r>
       <r>  -18.2009    1.0000 </r>
       <r>   -2.9929    1.0000 </r>
       <r>   -2.8988    1.0000 </r>
       <r>   -2.8987    1.0000 </r>
       <r>    2.9599    0.0000 </r>
       <r>    7.6116    0.0000 </r>
       <r>    8.1404    0.0000 </r>
       <r>    8.1405    0.0000 </r>
       <r>    9.6585    0.0000 </r>
       <r>   10.3143    0.0000 </r>
       <r>   10.5207    0.0000 </r>
       <r>   12.0436    0.0000 </r>
       <r>   12.0438    0.0000 </r>
       <r>   12.2665    0.0000 </r>
       <r>   14.7146    0.0000 </r>
       <r>   18.7875    0.0000 </r>
       <r>   18.9088    0.0000 </r>
       <r>   18.9090    0.0000 </r>
       <r>   21.9876    0.0000 </r>
       <r>   22.1940    0.0000 </r>
       <r>   22.1943    0.0000 </r>
       <r>   23.6236    0.0000 </r>
       <r>   24.5695    0.0000 </r>
       <r>   24.5697    0.0000 </r>
       <r>   25.0704    0.0000 </r>
       <r>   25.2637    0.0000 </r>
       <r>   26.5835    0.0000 </r>
      </set>
      <set comment="kpoint 25">
       <r>  -42.4907    1.0000 </r>
       <r>  -42.4907    1.0000 </r>
       <r>  -42.4896    1.0000 </r>
       <r>  -42.4896    1.0000 </r>
       <r>  -42.4894    1.0000 </r>
       <r>  -18.1937    1.0000 </r>
       <r>   -3.0858    1.0000 </r>
       <r>   -2.9267    1.0000 </r>
       <r>   -2.9266    1.0000 </r>
       <r>    3.1413    0.0000 </r>
       <r>    7.3893    0.0000 </r>
       <r>    8.2313    0.0000 </r>
       <r>    8.2314    0.0000 </r>
       <r>    9.2577    0.0000 </r>
       <r>   10.5720    0.0000 </r>
       <r>   10.6491    0.0000 </r>
       <r>   12.1565    0.0000 </r>
       <r>   12.1567    0.0000 </r>
       <r>   12.4162    0.0000 </r>
       <r>   15.2067    0.0000 </r>
       <r>   18.6077    0.0000 </r>
       <r>   18.7984    0.0000 </r>
       <r>   18.7985    0.0000 </r>
       <r>   21.5437    0.0000 </r>
       <r>   21.9340    0.0000 </r>
       <r>   21.9343    0.0000 </r>
       <r>   23.5467    0.0000 </r>
       <r>   24.3752    0.0000 </r>
       <r>   24.3755    0.0000 </r>
       <r>   24.8116    0.0000 </r>
       <r>   25.3294    0.0000 </r>
       <r>   26.6574    0.0000 </r>
      </set>
      <set comment="kpoint 26">
       <r>  -42.4907    1.0000 </r>
       <r>  -42.4906    1.0000 </r>
       <r>  -42.4896    1.0000 </r>
       <r>  -42.4895    1.0000 </r>
       <r>  -42.4894    1.0000 </r>
       <r>  -18.1841    1.0000 </r>
       <r>   -3.1949    1.0000 </r>
       <r>   -2.9611    1.0000 </r>
       <r>   -2.9610    1.0000 </r>
       <r>    3.3590    0.0000 </r>
       <r>    7.1627    0.0000 </r>
       <r>    8.3465    0.0000 </r>
       <r>    8.3466    0.0000 </r>
       <r>    8.8614    0.0000 </r>
       <r>   10.6378    0.0000 </r>
       <r>   11.0200    0.0000 </r>
       <r>   12.3008    0.0000 </r>
       <r>   12.3010    0.0000 </r>
       <r>   12.5650    0.0000 </r>
       <r>   15.7633    0.0000 </r>
       <r>   18.3886    0.0000 </r>
       <r>   18.6401    0.0000 </r>
       <r>   18.6402    0.0000 </r>
       <r>   21.0328    0.0000 </r>
       <r>   21.6729    0.0000 </r>
       <r>   21.6733    0.0000 </r>
       <r>   23.4560    0.0000 </r>
       <r>   24.1995    0.0000 </r>
       <r>   24.1998    0.0000 </r>
       <r>   24.5911    0.0000 </r>
       <r>   25.4062    0.0000 </r>
       <r>   26.7462    0.0000 </r>
      </set>
      <set comment="kpoint 27">
       <r>  -42.4908    1.0000 </r>
       <r>  -42.4906    1.0000 </r>
       <r>  -42.4897    1.0000 </r>
       <r>  -42.4895    1.0000 </r>
       <r>  -42.4893    1.0000 </r>
       <r>  -18.1733    1.0000 </r>
       <r>   -3.3148    1.0000 </r>
       <r>   -3.0008    1.0000 </r>
       <r>   -3.0007    1.0000 </r>
       <r>    3.6029    0.0000 </r>
       <r>    6.9401    0.0000 </r>
       <r>    8.4847    0.0000 </r>
       <r>    8.4849    0.0000 </r>
       <r>    8.4873    0.0000 </r>
       <r>   10.7179    0.0000 </r>
       <r>   11.4178    0.0000 </r>
       <r>   12.4757    0.0000 </r>
       <r>   12.4759    0.0000 </r>
       <r>   12.7209    0.0000 </r>
       <r>   16.3570    0.0000 </r>
       <r>   18.1368    0.0000 </r>
       <r>   18.4263    0.0000 </r>
       <r>   18.4264    0.0000 </r>
       <r>   20.4838    0.0000 </r>
       <r>   21.4388    0.0000 </r>
       <r>   21.4392    0.0000 </r>
       <r>   23.3495    0.0000 </r>
       <r>   24.0277    0.0000 </r>
       <r>   24.0280    0.0000 </r>
       <r>   24.3866    0.0000 </r>
       <r>   25.4910    0.0000 </r>
       <r>   26.8522    0.0000 </r>
      </set>
      <set comment="kpoint 28">
       <r>  -42.4909    1.0000 </r>
       <r>  -42.4906    1.0000 </r>
       <r>  -42.4897    1.0000 </r>
       <r>  -42.4895    1.0000 </r>
       <r>  -42.4894    1.0000 </r>
       <r>  -18.1610    1.0000 </r>
       <r>   -3.4408    1.0000 </r>
       <r>   -3.0446    1.0000 </r>
       <r>   -3.0445    1.0000 </r>
       <r>    3.8605    0.0000 </r>
       <r>    6.7267    0.0000 </r>
       <r>    8.1500    0.0000 </r>
       <r>    8.6449    0.0000 </r>
       <r>    8.6451    0.0000 </r>
       <r>   10.8120    0.0000 </r>
       <r>   11.8371    0.0000 </r>
       <r>   12.6802    0.0000 </r>
       <r>   12.6804    0.0000 </r>
       <r>   12.8897    0.0000 </r>
       <r>   16.9624    0.0000 </r>
       <r>   17.8591    0.0000 </r>
       <r>   18.1555    0.0000 </r>
       <r>   18.1556    0.0000 </r>
       <r>   19.9211    0.0000 </r>
       <r>   21.2485    0.0000 </r>
       <r>   21.2490    0.0000 </r>
       <r>   23.2294    0.0000 </r>
       <r>   23.8493    0.0000 </r>
       <r>   23.8496    0.0000 </r>
       <r>   24.1825    0.0000 </r>
       <r>   25.5810    0.0000 </r>
       <r>   27.0703    0.0000 </r>
      </set>
      <set comment="kpoint 29">
       <r>  -42.4909    1.0000 </r>
       <r>  -42.4905    1.0000 </r>
       <r>  -42.4897    1.0000 </r>
       <r>  -42.4895    1.0000 </r>
       <r>  -42.4894    1.0000 </r>
       <r>  -18.1472    1.0000 </r>
       <r>   -3.5687    1.0000 </r>
       <r>   -3.0914    1.0000 </r>
       <r>   -3.0913    1.0000 </r>
       <r>    4.1161    0.0000 </r>
       <r>    6.5250    0.0000 </r>
       <r>    7.8654    0.0000 </r>
       <r>    8.8257    0.0000 </r>
       <r>    8.8258    0.0000 </r>
       <r>   10.9200    0.0000 </r>
       <r>   12.2744    0.0000 </r>
       <r>   12.9126    0.0000 </r>
       <r>   12.9128    0.0000 </r>
       <r>   13.0751    0.0000 </r>
       <r>   17.5426    0.0000 </r>
       <r>   17.5619    0.0000 </r>
       <r>   17.8328    0.0000 </r>
       <r>   17.8328    0.0000 </r>
       <r>   19.3762    0.0000 </r>
       <r>   21.1071    0.0000 </r>
       <r>   21.1076    0.0000 </r>
       <r>   23.0948    0.0000 </r>
       <r>   23.6566    0.0000 </r>
       <r>   23.6569    0.0000 </r>
       <r>   23.9696    0.0000 </r>
       <r>   25.6739    0.0000 </r>
       <r>   27.1486    0.0000 </r>
      </set>
      <set comment="kpoint 30">
       <r>  -42.4908    1.0000 </r>
       <r>  -42.4903    1.0000 </r>
       <r>  -42.4897    1.0000 </r>
       <r>  -42.4893    1.0000 </r>
       <r>  -42.4893    1.0000 </r>
       <r>  -18.1323    1.0000 </r>
       <r>   -3.6948    1.0000 </r>
       <r>   -3.1398    1.0000 </r>
       <r>   -3.1397    1.0000 </r>
       <r>    4.3493    0.0000 </r>
       <r>    6.3368    0.0000 </r>
       <r>    7.6524    0.0000 </r>
       <r>    9.0258    0.0000 </r>
       <r>    9.0259    0.0000 </r>
       <r>   11.0416    0.0000 </r>
       <r>   12.7269    0.0000 </r>
       <r>   13.1708    0.0000 </r>
       <r>   13.1709    0.0000 </r>
       <r>   13.2796    0.0000 </r>
       <r>   17.2507    0.0000 </r>
       <r>   17.4694    0.0000 </r>
       <r>   17.4694    0.0000 </r>
       <r>   17.9732    0.0000 </r>
       <r>   18.9605    0.0000 </r>
       <r>   21.0102    0.0000 </r>
       <r>   21.0108    0.0000 </r>
       <r>   22.9443    0.0000 </r>
       <r>   23.4435    0.0000 </r>
       <r>   23.4438    0.0000 </r>
       <r>   23.7458    0.0000 </r>
       <r>   25.7678    0.0000 </r>
       <r>   27.2056    0.0000 </r>
      </set>
      <set comment="kpoint 31">
       <r>  -42.4908    1.0000 </r>
       <r>  -42.4901    1.0000 </r>
       <r>  -42.4897    1.0000 </r>
       <r>  -42.4891    1.0000 </r>
       <r>  -42.4891    1.0000 </r>
       <r>  -18.1169    1.0000 </r>
       <r>   -3.8165    1.0000 </r>
       <r>   -3.1886    1.0000 </r>
       <r>   -3.1885    1.0000 </r>
       <r>    4.5358    0.0000 </r>
       <r>    6.1632    0.0000 </r>
       <r>    7.5332    0.0000 </r>
       <r>    9.2438    0.0000 </r>
       <r>    9.2439    0.0000 </r>
       <r>   11.1761    0.0000 </r>
       <r>   13.1922    0.0000 </r>
       <r>   13.4513    0.0000 </r>
       <r>   13.4515    0.0000 </r>
       <r>   13.5046    0.0000 </r>
       <r>   16.9306    0.0000 </r>
       <r>   17.0790    0.0000 </r>
       <r>   17.0790    0.0000 </r>
       <r>   17.8578    0.0000 </r>
       <r>   19.0460    0.0000 </r>
       <r>   20.9496    0.0000 </r>
       <r>   20.9501    0.0000 </r>
       <r>   22.7743    0.0000 </r>
       <r>   23.2045    0.0000 </r>
       <r>   23.2048    0.0000 </r>
       <r>   23.5233    0.0000 </r>
       <r>   25.8612    0.0000 </r>
       <r>   27.2607    0.0000 </r>
      </set>
      <set comment="kpoint 32">
       <r>  -42.4909    1.0000 </r>
       <r>  -42.4901    1.0000 </r>
       <r>  -42.4899    1.0000 </r>
       <r>  -42.4891    1.0000 </r>
       <r>  -42.4890    1.0000 </r>
       <r>  -18.1023    1.0000 </r>
       <r>   -3.9315    1.0000 </r>
       <r>   -3.2366    1.0000 </r>
       <r>   -3.2365    1.0000 </r>
       <r>    4.6533    0.0000 </r>
       <r>    6.0049    0.0000 </r>
       <r>    7.5276    0.0000 </r>
       <r>    9.4781    0.0000 </r>
       <r>    9.4782    0.0000 </r>
       <r>   11.3229    0.0000 </r>
       <r>   13.6676    0.0000 </r>
       <r>   13.7486    0.0000 </r>
       <r>   13.7488    0.0000 </r>
       <r>   13.7510    0.0000 </r>
       <r>   16.6063    0.0000 </r>
       <r>   16.6764    0.0000 </r>
       <r>   16.6764    0.0000 </r>
       <r>   17.3790    0.0000 </r>
       <r>   19.4096    0.0000 </r>
       <r>   20.9160    0.0000 </r>
       <r>   20.9165    0.0000 </r>
       <r>   22.5828    0.0000 </r>
       <r>   22.9350    0.0000 </r>
       <r>   22.9352    0.0000 </r>
       <r>   23.3333    0.0000 </r>
       <r>   25.9529    0.0000 </r>
       <r>   27.3260    0.0000 </r>
      </set>
      <set comment="kpoint 33">
       <r>  -42.4909    1.0000 </r>
       <r>  -42.4900    1.0000 </r>
       <r>  -42.4898    1.0000 </r>
       <r>  -42.4891    1.0000 </r>
       <r>  -42.4890    1.0000 </r>
       <r>  -18.0878    1.0000 </r>
       <r>   -4.0378    1.0000 </r>
       <r>   -3.2827    1.0000 </r>
       <r>   -3.2826    1.0000 </r>
       <r>    4.6938    0.0000 </r>
       <r>    5.8623    0.0000 </r>
       <r>    7.6405    0.0000 </r>
       <r>    9.7275    0.0000 </r>
       <r>    9.7276    0.0000 </r>
       <r>   11.4810    0.0000 </r>
       <r>   14.0188    0.0000 </r>
       <r>   14.0523    0.0000 </r>
       <r>   14.0525    0.0000 </r>
       <r>   14.1502    0.0000 </r>
       <r>   16.2785    0.0000 </r>
       <r>   16.2786    0.0000 </r>
       <r>   16.2819    0.0000 </r>
       <r>   16.8428    0.0000 </r>
       <r>   19.6885    0.0000 </r>
       <r>   20.9019    0.0000 </r>
       <r>   20.9025    0.0000 </r>
       <r>   22.3660    0.0000 </r>
       <r>   22.6349    0.0000 </r>
       <r>   22.6351    0.0000 </r>
       <r>   23.2281    0.0000 </r>
       <r>   26.0418    0.0000 </r>
       <r>   27.4178    0.0000 </r>
      </set>
      <set comment="kpoint 34">
       <r>  -42.4908    1.0000 </r>
       <r>  -42.4898    1.0000 </r>
       <r>  -42.4897    1.0000 </r>
       <r>  -42.4888    1.0000 </r>
       <r>  -42.4887    1.0000 </r>
       <r>  -18.0732    1.0000 </r>
       <r>   -4.1342    1.0000 </r>
       <r>   -3.3258    1.0000 </r>
       <r>   -3.3257    1.0000 </r>
       <r>    4.6694    0.0000 </r>
       <r>    5.7360    0.0000 </r>
       <r>    7.8561    0.0000 </r>
       <r>    9.9903    0.0000 </r>
       <r>    9.9904    0.0000 </r>
       <r>   11.6493    0.0000 </r>
       <r>   14.3067    0.0000 </r>
       <r>   14.3381    0.0000 </r>
       <r>   14.3383    0.0000 </r>
       <r>   14.6362    0.0000 </r>
       <r>   15.9137    0.0000 </r>
       <r>   15.9137    0.0000 </r>
       <r>   15.9615    0.0000 </r>
       <r>   16.3067    0.0000 </r>
       <r>   19.7745    0.0000 </r>
       <r>   20.9014    0.0000 </r>
       <r>   20.9020    0.0000 </r>
       <r>   22.1249    0.0000 </r>
       <r>   22.3058    0.0000 </r>
       <r>   22.3060    0.0000 </r>
       <r>   23.2545    0.0000 </r>
       <r>   26.1272    0.0000 </r>
       <r>   27.7739    0.0000 </r>
      </set>
      <set comment="kpoint 35">
       <r>  -42.4908    1.0000 </r>
       <r>  -42.4898    1.0000 </r>
       <r>  -42.4896    1.0000 </r>
       <r>  -42.4888    1.0000 </r>
       <r>  -42.4886    1.0000 </r>
       <r>  -18.0602    1.0000 </r>
       <r>   -4.2196    1.0000 </r>
       <r>   -3.3651    1.0000 </r>
       <r>   -3.3650    1.0000 </r>
       <r>    4.6038    0.0000 </r>
       <r>    5.6261    0.0000 </r>
       <r>    8.1448    0.0000 </r>
       <r>   10.2640    0.0000 </r>
       <r>   10.2641    0.0000 </r>
       <r>   11.8256    0.0000 </r>
       <r>   14.5358    0.0000 </r>
       <r>   14.5360    0.0000 </r>
       <r>   14.6077    0.0000 </r>
       <r>   15.1205    0.0000 </r>
       <r>   15.6494    0.0000 </r>
       <r>   15.6530    0.0000 </r>
       <r>   15.6531    0.0000 </r>
       <r>   15.7939    0.0000 </r>
       <r>   19.6511    0.0000 </r>
       <r>   20.9086    0.0000 </r>
       <r>   20.9092    0.0000 </r>
       <r>   21.8570    0.0000 </r>
       <r>   21.9525    0.0000 </r>
       <r>   21.9527    0.0000 </r>
       <r>   23.4088    0.0000 </r>
       <r>   26.2085    0.0000 </r>
       <r>   27.7851    0.0000 </r>
      </set>
      <set comment="kpoint 36">
       <r>  -42.4908    1.0000 </r>
       <r>  -42.4897    1.0000 </r>
       <r>  -42.4895    1.0000 </r>
       <r>  -42.4887    1.0000 </r>
       <r>  -42.4884    1.0000 </r>
       <r>  -18.0484    1.0000 </r>
       <r>   -4.2929    1.0000 </r>
       <r>   -3.3996    1.0000 </r>
       <r>   -3.3996    1.0000 </r>
       <r>    4.5201    0.0000 </r>
       <r>    5.5329    0.0000 </r>
       <r>    8.4762    0.0000 </r>
       <r>   10.5456    0.0000 </r>
       <r>   10.5457    0.0000 </r>
       <r>   12.0068    0.0000 </r>
       <r>   14.5066    0.0000 </r>
       <r>   14.5069    0.0000 </r>
       <r>   14.8655    0.0000 </r>
       <r>   15.3505    0.0000 </r>
       <r>   15.3705    0.0000 </r>
       <r>   15.5959    0.0000 </r>
       <r>   15.6338    0.0000 </r>
       <r>   15.6339    0.0000 </r>
       <r>   19.3673    0.0000 </r>
       <r>   20.9196    0.0000 </r>
       <r>   20.9202    0.0000 </r>
       <r>   21.5664    0.0000 </r>
       <r>   21.5858    0.0000 </r>
       <r>   21.5860    0.0000 </r>
       <r>   23.6308    0.0000 </r>
       <r>   26.2856    0.0000 </r>
       <r>   27.5093    0.0000 </r>
      </set>
      <set comment="kpoint 37">
       <r>  -42.4910    1.0000 </r>
       <r>  -42.4898    1.0000 </r>
       <r>  -42.4895    1.0000 </r>
       <r>  -42.4887    1.0000 </r>
       <r>  -42.4884    1.0000 </r>
       <r>  -18.0388    1.0000 </r>
       <r>   -4.3537    1.0000 </r>
       <r>   -3.4288    1.0000 </r>
       <r>   -3.4288    1.0000 </r>
       <r>    4.4353    0.0000 </r>
       <r>    5.4564    0.0000 </r>
       <r>    8.8217    0.0000 </r>
       <r>   10.8296    0.0000 </r>
       <r>   10.8298    0.0000 </r>
       <r>   12.1879    0.0000 </r>
       <r>   14.2663    0.0000 </r>
       <r>   14.2665    0.0000 </r>
       <r>   14.6999    0.0000 </r>
       <r>   15.0711    0.0000 </r>
       <r>   15.4277    0.0000 </r>
       <r>   15.8363    0.0000 </r>
       <r>   15.8364    0.0000 </r>
       <r>   16.0511    0.0000 </r>
       <r>   18.9858    0.0000 </r>
       <r>   20.9265    0.0000 </r>
       <r>   20.9271    0.0000 </r>
       <r>   21.2243    0.0000 </r>
       <r>   21.2246    0.0000 </r>
       <r>   21.2616    0.0000 </r>
       <r>   23.8549    0.0000 </r>
       <r>   26.3603    0.0000 </r>
       <r>   27.2845    0.0000 </r>
      </set>
      <set comment="kpoint 38">
       <r>  -42.4910    1.0000 </r>
       <r>  -42.4897    1.0000 </r>
       <r>  -42.4894    1.0000 </r>
       <r>  -42.4886    1.0000 </r>
       <r>  -42.4883    1.0000 </r>
       <r>  -18.0305    1.0000 </r>
       <r>   -4.4015    1.0000 </r>
       <r>   -3.4522    1.0000 </r>
       <r>   -3.4521    1.0000 </r>
       <r>    4.3606    0.0000 </r>
       <r>    5.3968    0.0000 </r>
       <r>    9.1527    0.0000 </r>
       <r>   11.1069    0.0000 </r>
       <r>   11.1070    0.0000 </r>
       <r>   12.3609    0.0000 </r>
       <r>   13.9623    0.0000 </r>
       <r>   13.9626    0.0000 </r>
       <r>   14.3188    0.0000 </r>
       <r>   14.8208    0.0000 </r>
       <r>   15.7719    0.0000 </r>
       <r>   16.1066    0.0000 </r>
       <r>   16.1066    0.0000 </r>
       <r>   16.4686    0.0000 </r>
       <r>   18.5552    0.0000 </r>
       <r>   20.8369    0.0000 </r>
       <r>   20.8372    0.0000 </r>
       <r>   20.9596    0.0000 </r>
       <r>   20.9816    0.0000 </r>
       <r>   20.9821    0.0000 </r>
       <r>   24.0415    0.0000 </r>
       <r>   26.4223    0.0000 </r>
[...]
       <r>   19.4909    0.0000 </r>
       <r>   20.0321    0.0000 </r>
       <r>   20.9888    0.0000 </r>
       <r>   21.4403    0.0000 </r>
       <r>   21.7730    0.0000 </r>
       <r>   24.6974    0.0000 </r>
       <r>   24.7157    0.0000 </r>
       <r>   25.5417    0.0000 </r>
      </set>
      <set comment="kpoint 150">
       <r>  -42.4911    1.0000 </r>
       <r>  -42.4898    1.0000 </r>
       <r>  -42.4894    1.0000 </r>
       <r>  -42.4886    1.0000 </r>
       <r>  -42.4883    1.0000 </r>
       <r>  -18.0201    1.0000 </r>
       <r>   -4.4634    1.0000 </r>
       <r>   -3.4829    1.0000 </r>
       <r>   -3.4828    1.0000 </r>
       <r>    4.2551    0.0000 </r>
       <r>    5.3201    0.0000 </r>
       <r>    9.7039    0.0000 </r>
       <r>   11.6250    0.0000 </r>
       <r>   11.6250    0.0000 </r>
       <r>   12.6595    0.0000 </r>
       <r>   13.3736    0.0000 </r>
       <r>   13.3738    0.0000 </r>
       <r>   13.6802    0.0000 </r>
       <r>   14.4212    0.0000 </r>
       <r>   16.6039    0.0000 </r>
       <r>   16.6040    0.0000 </r>
       <r>   16.7521    0.0000 </r>
       <r>   17.1539    0.0000 </r>
       <r>   17.4611    0.0000 </r>
       <r>   20.2931    0.0000 </r>
       <r>   20.2934    0.0000 </r>
       <r>   20.4191    0.0000 </r>
       <r>   20.9770    0.0000 </r>
       <r>   20.9776    0.0000 </r>
       <r>   24.2779    0.0000 </r>
       <r>   26.5326    0.0000 </r>
       <r>   26.9054    0.0000 </r>
      </set>
      <set comment="kpoint 151">
       <r>  -42.4908    1.0000 </r>
       <r>  -42.4898    1.0000 </r>
       <r>  -42.4895    1.0000 </r>
       <r>  -42.4885    1.0000 </r>
       <r>  -42.4885    1.0000 </r>
       <r>  -18.0318    1.0000 </r>
       <r>   -4.3278    1.0000 </r>
       <r>   -3.6309    1.0000 </r>
       <r>   -3.3875    1.0000 </r>
       <r>    4.7541    0.0000 </r>
       <r>    5.8813    0.0000 </r>
       <r>    8.2662    0.0000 </r>
       <r>    9.9034    0.0000 </r>
       <r>   10.9007    0.0000 </r>
       <r>   12.7823    0.0000 </r>
       <r>   13.5185    0.0000 </r>
       <r>   13.5712    0.0000 </r>
       <r>   14.2262    0.0000 </r>
       <r>   15.8885    0.0000 </r>
       <r>   16.3557    0.0000 </r>
       <r>   16.5025    0.0000 </r>
       <r>   16.6051    0.0000 </r>
       <r>   16.9447    0.0000 </r>
       <r>   18.7090    0.0000 </r>
       <r>   19.6277    0.0000 </r>
       <r>   20.9154    0.0000 </r>
       <r>   20.9970    0.0000 </r>
       <r>   21.4206    0.0000 </r>
       <r>   21.8792    0.0000 </r>
       <r>   24.2065    0.0000 </r>
       <r>   25.6389    0.0000 </r>
       <r>   26.2553    0.0000 </r>
      </set>
      <set comment="kpoint 152">
       <r>  -42.4908    1.0000 </r>
       <r>  -42.4904    1.0000 </r>
       <r>  -42.4891    1.0000 </r>
       <r>  -42.4888    1.0000 </r>
       <r>  -42.4886    1.0000 </r>
       <r>  -18.0556    1.0000 </r>
       <r>   -4.4483    1.0000 </r>
       <r>   -3.3823    1.0000 </r>
       <r>   -3.1843    1.0000 </r>
       <r>    5.1560    0.0000 </r>
       <r>    6.4689    0.0000 </r>
       <r>    7.9078    0.0000 </r>
       <r>    8.2466    0.0000 </r>
       <r>   10.6563    0.0000 </r>
       <r>   11.7378    0.0000 </r>
       <r>   12.4934    0.0000 </r>
       <r>   13.2704    0.0000 </r>
       <r>   13.3649    0.0000 </r>
       <r>   16.2460    0.0000 </r>
       <r>   16.8617    0.0000 </r>
       <r>   16.8720    0.0000 </r>
       <r>   17.3203    0.0000 </r>
       <r>   18.5460    0.0000 </r>
       <r>   19.9272    0.0000 </r>
       <r>   20.3178    0.0000 </r>
       <r>   20.7889    0.0000 </r>
       <r>   21.2820    0.0000 </r>
       <r>   22.5290    0.0000 </r>
       <r>   22.6751    0.0000 </r>
       <r>   24.7770    0.0000 </r>
       <r>   25.0378    0.0000 </r>
       <r>   25.6577    0.0000 </r>
      </set>
     </set>
    </set>
   </array>
  </eigenvalues>
  <separator name="orbital magnetization" >
   <v name="MAGDIPOLOUT">      0.00000000      0.00000000      0.00000000</v>
  </separator>
  <dos>
   <i name="efermi">     -2.65032189 </i>
   <total>
    <array>
     <dimension dim="1">gridpoints</dimension>
     <dimension dim="2">spin</dimension>
     <field>energy</field>
     <field>total</field>
     <field>integrated</field>
     <set>
      <set comment="spin 1">
       <r>   -46.0049     0.0000     0.0000 </r>
       <r>   -45.7472     0.0000     0.0000 </r>
       <r>   -45.4895     0.0000     0.0000 </r>
       <r>   -45.2318     0.0000     0.0000 </r>
       <r>   -44.9742     0.0000     0.0000 </r>
       <r>   -44.7165     0.0000     0.0000 </r>
       <r>   -44.4588     0.0000     0.0000 </r>
       <r>   -44.2011     0.0000     0.0000 </r>
       <r>   -43.9435     0.0000     0.0000 </r>
       <r>   -43.6858     0.0000     0.0000 </r>
       <r>   -43.4281     0.0000     0.0000 </r>
       <r>   -43.1704     0.0000     0.0000 </r>
       <r>   -42.9127     0.0000     0.0000 </r>
       <r>   -42.6551     0.0001     0.0000 </r>
       <r>   -42.3974    38.6306     9.9543 </r>
       <r>   -42.1397     0.1772    10.0000 </r>
       <r>   -41.8820     0.0000    10.0000 </r>
       <r>   -41.6243     0.0000    10.0000 </r>
       <r>   -41.3667     0.0000    10.0000 </r>
       <r>   -41.1090     0.0000    10.0000 </r>
       <r>   -40.8513     0.0000    10.0000 </r>
       <r>   -40.5936     0.0000    10.0000 </r>
       <r>   -40.3359     0.0000    10.0000 </r>
       <r>   -40.0783     0.0000    10.0000 </r>
       <r>   -39.8206     0.0000    10.0000 </r>
       <r>   -39.5629     0.0000    10.0000 </r>
       <r>   -39.3052     0.0000    10.0000 </r>
       <r>   -39.0475     0.0000    10.0000 </r>
       <r>   -38.7899     0.0000    10.0000 </r>
       <r>   -38.5322     0.0000    10.0000 </r>
       <r>   -38.2745     0.0000    10.0000 </r>
       <r>   -38.0168     0.0000    10.0000 </r>
       <r>   -37.7591     0.0000    10.0000 </r>
       <r>   -37.5015     0.0000    10.0000 </r>
       <r>   -37.2438     0.0000    10.0000 </r>
       <r>   -36.9861     0.0000    10.0000 </r>
       <r>   -36.7284     0.0000    10.0000 </r>
       <r>   -36.4707     0.0000    10.0000 </r>
       <r>   -36.2131     0.0000    10.0000 </r>
       <r>   -35.9554     0.0000    10.0000 </r>
       <r>   -35.6977     0.0000    10.0000 </r>
       <r>   -35.4400     0.0000    10.0000 </r>
       <r>   -35.1823     0.0000    10.0000 </r>
       <r>   -34.9247     0.0000    10.0000 </r>
       <r>   -34.6670     0.0000    10.0000 </r>
       <r>   -34.4093     0.0000    10.0000 </r>
       <r>   -34.1516     0.0000    10.0000 </r>
       <r>   -33.8940     0.0000    10.0000 </r>
       <r>   -33.6363     0.0000    10.0000 </r>
       <r>   -33.3786     0.0000    10.0000 </r>
       <r>   -33.1209     0.0000    10.0000 </r>
       <r>   -32.8632     0.0000    10.0000 </r>
       <r>   -32.6056     0.0000    10.0000 </r>
       <r>   -32.3479     0.0000    10.0000 </r>
       <r>   -32.0902     0.0000    10.0000 </r>
       <r>   -31.8325     0.0000    10.0000 </r>
       <r>   -31.5748     0.0000    10.0000 </r>
       <r>   -31.3172     0.0000    10.0000 </r>
       <r>   -31.0595     0.0000    10.0000 </r>
       <r>   -30.8018     0.0000    10.0000 </r>
       <r>   -30.5441     0.0000    10.0000 </r>
       <r>   -30.2864     0.0000    10.0000 </r>
       <r>   -30.0288     0.0000    10.0000 </r>
       <r>   -29.7711     0.0000    10.0000 </r>
       <r>   -29.5134     0.0000    10.0000 </r>
       <r>   -29.2557     0.0000    10.0000 </r>
       <r>   -28.9980     0.0000    10.0000 </r>
       <r>   -28.7404     0.0000    10.0000 </r>
       <r>   -28.4827     0.0000    10.0000 </r>
       <r>   -28.2250     0.0000    10.0000 </r>
       <r>   -27.9673     0.0000    10.0000 </r>
       <r>   -27.7096     0.0000    10.0000 </r>
       <r>   -27.4520     0.0000    10.0000 </r>
       <r>   -27.1943     0.0000    10.0000 </r>
       <r>   -26.9366     0.0000    10.0000 </r>
       <r>   -26.6789     0.0000    10.0000 </r>
       <r>   -26.4212     0.0000    10.0000 </r>
       <r>   -26.1636     0.0000    10.0000 </r>
       <r>   -25.9059     0.0000    10.0000 </r>
       <r>   -25.6482     0.0000    10.0000 </r>
       <r>   -25.3905     0.0000    10.0000 </r>
       <r>   -25.1329     0.0000    10.0000 </r>
       <r>   -24.8752     0.0000    10.0000 </r>
       <r>   -24.6175     0.0000    10.0000 </r>
       <r>   -24.3598     0.0000    10.0000 </r>
       <r>   -24.1021     0.0000    10.0000 </r>
       <r>   -23.8445     0.0000    10.0000 </r>
       <r>   -23.5868     0.0000    10.0000 </r>
       <r>   -23.3291     0.0000    10.0000 </r>
       <r>   -23.0714     0.0000    10.0000 </r>
       <r>   -22.8137     0.0000    10.0000 </r>
       <r>   -22.5561     0.0000    10.0000 </r>
       <r>   -22.2984     0.0000    10.0000 </r>
       <r>   -22.0407     0.0000    10.0000 </r>
       <r>   -21.7830     0.0000    10.0000 </r>
       <r>   -21.5253     0.0000    10.0000 </r>
       <r>   -21.2677     0.0000    10.0000 </r>
       <r>   -21.0100     0.0000    10.0000 </r>
       <r>   -20.7523     0.0000    10.0000 </r>
       <r>   -20.4946     0.0000    10.0000 </r>
       <r>   -20.2369     0.0000    10.0000 </r>
       <r>   -19.9793     0.0000    10.0000 </r>
       <r>   -19.7216     0.0000    10.0000 </r>
       <r>   -19.4639     0.0000    10.0000 </r>
       <r>   -19.2062     0.0000    10.0000 </r>
       <r>   -18.9485     0.0000    10.0000 </r>
       <r>   -18.6909     0.0000    10.0000 </r>
       <r>   -18.4332     0.0000    10.0000 </r>
       <r>   -18.1755     0.3313    10.0854 </r>
       <r>   -17.9178     7.4277    11.9993 </r>
       <r>   -17.6601     0.0026    12.0000 </r>
       <r>   -17.4025     0.0000    12.0000 </r>
       <r>   -17.1448     0.0000    12.0000 </r>
       <r>   -16.8871     0.0000    12.0000 </r>
       <r>   -16.6294     0.0000    12.0000 </r>
       <r>   -16.3718     0.0000    12.0000 </r>
       <r>   -16.1141     0.0000    12.0000 </r>
       <r>   -15.8564     0.0000    12.0000 </r>
       <r>   -15.5987     0.0000    12.0000 </r>
       <r>   -15.3410     0.0000    12.0000 </r>
       <r>   -15.0834     0.0000    12.0000 </r>
       <r>   -14.8257     0.0000    12.0000 </r>
       <r>   -14.5680     0.0000    12.0000 </r>
       <r>   -14.3103     0.0000    12.0000 </r>
       <r>   -14.0526     0.0000    12.0000 </r>
       <r>   -13.7950     0.0000    12.0000 </r>
       <r>   -13.5373     0.0000    12.0000 </r>
       <r>   -13.2796     0.0000    12.0000 </r>
       <r>   -13.0219     0.0000    12.0000 </r>
       <r>   -12.7642     0.0000    12.0000 </r>
       <r>   -12.5066     0.0000    12.0000 </r>
       <r>   -12.2489     0.0000    12.0000 </r>
       <r>   -11.9912     0.0000    12.0000 </r>
       <r>   -11.7335     0.0000    12.0000 </r>
       <r>   -11.4758     0.0000    12.0000 </r>
       <r>   -11.2182     0.0000    12.0000 </r>
       <r>   -10.9605     0.0000    12.0000 </r>
       <r>   -10.7028     0.0000    12.0000 </r>
       <r>   -10.4451     0.0000    12.0000 </r>
       <r>   -10.1874     0.0000    12.0000 </r>
       <r>    -9.9298     0.0000    12.0000 </r>
       <r>    -9.6721     0.0000    12.0000 </r>
       <r>    -9.4144     0.0000    12.0000 </r>
       <r>    -9.1567     0.0000    12.0000 </r>
       <r>    -8.8990     0.0000    12.0000 </r>
       <r>    -8.6414     0.0000    12.0000 </r>
       <r>    -8.3837     0.0000    12.0000 </r>
       <r>    -8.1260     0.0000    12.0000 </r>
       <r>    -7.8683     0.0000    12.0000 </r>
       <r>    -7.6107     0.0000    12.0000 </r>
       <r>    -7.3530     0.0000    12.0000 </r>
       <r>    -7.0953     0.0000    12.0000 </r>
       <r>    -6.8376     0.0000    12.0000 </r>
       <r>    -6.5799     0.0000    12.0000 </r>
       <r>    -6.3223     0.0000    12.0000 </r>
       <r>    -6.0646     0.0000    12.0000 </r>
       <r>    -5.8069     0.0000    12.0000 </r>
       <r>    -5.5492     0.0000    12.0000 </r>
       <r>    -5.2915     0.0000    12.0000 </r>
       <r>    -5.0339     0.0000    12.0000 </r>
       <r>    -4.7762     0.0000    12.0000 </r>
       <r>    -4.5185     0.1351    12.0348 </r>
       <r>    -4.2608     3.2629    12.8756 </r>
       <r>    -4.0031     3.5337    13.7862 </r>
       <r>    -3.7455     1.8779    14.2701 </r>
       <r>    -3.4878     2.4859    14.9106 </r>
       <r>    -3.2301     5.8549    16.4193 </r>
       <r>    -2.9724     5.0721    17.7263 </r>
       <r>    -2.7147     1.0621    18.0000 </r>
       <r>    -2.4571     0.0000    18.0000 </r>
       <r>    -2.1994     0.0000    18.0000 </r>
       <r>    -1.9417     0.0000    18.0000 </r>
       <r>    -1.6840     0.0000    18.0000 </r>
       <r>    -1.4263     0.0000    18.0000 </r>
       <r>    -1.1687     0.0000    18.0000 </r>
       <r>    -0.9110     0.0000    18.0000 </r>
       <r>    -0.6533     0.0000    18.0000 </r>
       <r>    -0.3956     0.0000    18.0000 </r>
       <r>    -0.1379     0.0000    18.0000 </r>
       <r>     0.1197     0.0000    18.0000 </r>
       <r>     0.3774     0.0000    18.0000 </r>
       <r>     0.6351     0.0000    18.0000 </r>
       <r>     0.8928     0.0000    18.0000 </r>
       <r>     1.1504     0.0000    18.0000 </r>
       <r>     1.4081     0.0000    18.0000 </r>
       <r>     1.6658     0.0000    18.0000 </r>
       <r>     1.9235     0.0000    18.0000 </r>
       <r>     2.1812     0.0000    18.0000 </r>
       <r>     2.4388     0.0000    18.0000 </r>
       <r>     2.6965     0.0127    18.0033 </r>
       <r>     2.9542     0.0234    18.0093 </r>
       <r>     3.2119     0.0000    18.0093 </r>
       <r>     3.4696     0.0626    18.0254 </r>
       <r>     3.7272     0.2464    18.0889 </r>
       <r>     3.9849     0.1965    18.1395 </r>
       <r>     4.2426     0.0392    18.1496 </r>
       <r>     4.5003     0.6594    18.3196 </r>
       <r>     4.7580     1.2734    18.6477 </r>
       <r>     5.0156     0.9634    18.8959 </r>
       <r>     5.2733     1.8614    19.3756 </r>
       <r>     5.5310     1.5662    19.7791 </r>
       <r>     5.7887     1.0800    20.0574 </r>
       <r>     6.0464     0.9684    20.3070 </r>
       <r>     6.3040     1.2675    20.6336 </r>
       <r>     6.5617     2.6195    21.3086 </r>
       <r>     6.8194     2.4165    21.9313 </r>
       <r>     7.0771     0.4111    22.0372 </r>
       <r>     7.3348     1.1566    22.3352 </r>
       <r>     7.5924     2.1786    22.8966 </r>
       <r>     7.8501     0.9436    23.1398 </r>
       <r>     8.1078     1.9670    23.6466 </r>
       <r>     8.3655     3.7139    24.6036 </r>
       <r>     8.6232     0.6846    24.7800 </r>
       <r>     8.8808     2.7851    25.4977 </r>
       <r>     9.1385     0.3990    25.6005 </r>
       <r>     9.3962     0.9004    25.8325 </r>
       <r>     9.6539     0.0239    25.8386 </r>
       <r>     9.9116     2.7342    26.5432 </r>
       <r>    10.1692     1.2629    26.8686 </r>
       <r>    10.4269     1.5753    27.2745 </r>
       <r>    10.6846     2.3447    27.8787 </r>
       <r>    10.9423     2.0042    28.3951 </r>
       <r>    11.1999     0.1273    28.4280 </r>
       <r>    11.4576     1.7317    28.8742 </r>
       <r>    11.7153     1.6120    29.2896 </r>
       <r>    11.9730     1.5052    29.6774 </r>
       <r>    12.2307     2.8756    30.4184 </r>
       <r>    12.4883     1.0844    30.6978 </r>
       <r>    12.7460     1.7895    31.1589 </r>
       <r>    13.0037     1.1489    31.4550 </r>
       <r>    13.2614     2.0657    31.9873 </r>
       <r>    13.5191     5.6490    33.4429 </r>
       <r>    13.7767     2.5580    34.1021 </r>
       <r>    14.0344     1.4953    34.4874 </r>
       <r>    14.2921     1.4029    34.8489 </r>
       <r>    14.5498     2.0798    35.3848 </r>
       <r>    14.8075     0.4268    35.4948 </r>
       <r>    15.0651     0.9499    35.7395 </r>
       <r>    15.3228     1.1562    36.0375 </r>
       <r>    15.5805     1.9275    36.5341 </r>
       <r>    15.8382     3.3518    37.3978 </r>
       <r>    16.0959     5.1826    38.7333 </r>
       <r>    16.3535     4.9321    40.0042 </r>
       <r>    16.6112     4.2202    41.0916 </r>
       <r>    16.8689     3.8084    42.0730 </r>
       <r>    17.1266     2.1905    42.6374 </r>
       <r>    17.3843     2.5632    43.2979 </r>
       <r>    17.6419     3.1671    44.1140 </r>
       <r>    17.8996     0.3234    44.1973 </r>
       <r>    18.1573     1.4332    44.5666 </r>
       <r>    18.4150     1.7318    45.0129 </r>
       <r>    18.6727     1.9769    45.5223 </r>
       <r>    18.9303     1.9237    46.0180 </r>
       <r>    19.1880     2.5764    46.6819 </r>
       <r>    19.4457     2.5452    47.3377 </r>
       <r>    19.7034     1.9533    47.8411 </r>
       <r>    19.9610     3.6386    48.7787 </r>
       <r>    20.2187     1.6627    49.2071 </r>
       <r>    20.4764     3.8034    50.1872 </r>
       <r>    20.7341     0.5173    50.3205 </r>
       <r>    20.9918     2.8510    51.0551 </r>
       <r>    21.2494     2.3431    51.6589 </r>
       <r>    21.5071     3.8712    52.6564 </r>
       <r>    21.7648     2.3782    53.2692 </r>
       <r>    22.0225     4.0710    54.3182 </r>
       <r>    22.2802     3.1849    55.1389 </r>
       <r>    22.5378     1.7272    55.5840 </r>
       <r>    22.7955     4.0176    56.6192 </r>
       <r>    23.0532     2.7035    57.3159 </r>
       <r>    23.3109     1.2333    57.6337 </r>
       <r>    23.5686     0.9912    57.8891 </r>
       <r>    23.8262     1.0467    58.1588 </r>
       <r>    24.0839     1.7057    58.5983 </r>
       <r>    24.3416     3.7254    59.5583 </r>
       <r>    24.5993     0.9731    59.8090 </r>
       <r>    24.8570     3.2206    60.6389 </r>
       <r>    25.1146     2.6154    61.3128 </r>
       <r>    25.3723     0.6445    61.4789 </r>
       <r>    25.6300     3.2385    62.3134 </r>
       <r>    25.8877     2.1782    62.8747 </r>
       <r>    26.1454     0.7349    63.0640 </r>
       <r>    26.4030     1.6995    63.5020 </r>
       <r>    26.6607     0.5248    63.6372 </r>
       <r>    26.9184     1.0378    63.9046 </r>
       <r>    27.1761     0.1535    63.9442 </r>
       <r>    27.4338     0.0000    63.9442 </r>
       <r>    27.6914     0.2111    63.9986 </r>
       <r>    27.9491     0.0055    64.0000 </r>
       <r>    28.2068     0.0000    64.0000 </r>
       <r>    28.4645     0.0000    64.0000 </r>
       <r>    28.7221     0.0000    64.0000 </r>
       <r>    28.9798     0.0000    64.0000 </r>
       <r>    29.2375     0.0000    64.0000 </r>
       <r>    29.4952     0.0000    64.0000 </r>
       <r>    29.7529     0.0000    64.0000 </r>
       <r>    30.0105     0.0000    64.0000 </r>
       <r>    30.2682     0.0000    64.0000 </r>
       <r>    30.5259     0.0000    64.0000 </r>
       <r>    30.7836     0.0000    64.0000 </r>
       <r>    31.0413     0.0000    64.0000 </r>
       <r>    31.2989     0.0000    64.0000 </r>
      </set>
     </set>
    </array>
   </total>
  </dos>
 </calculation>
 <structure name="finalpos" >
  <crystal>
   <varray name="basis" >
    <v>       4.52056477       0.00000000       0.00000000 </v>
    <v>       2.26028238       3.91492393      -0.00000000 </v>
    <v>       2.26028238       1.30497464       3.69102568 </v>
   </varray>
   <i name="volume">     65.32254404 </i>
   <varray name="rec_basis" >
    <v>       0.22121130      -0.12771640      -0.09030913 </v>
    <v>       0.00000000       0.25543280      -0.09030913 </v>
    <v>      -0.00000000       0.00000000       0.27092740 </v>
   </varray>
  </crystal>
  <varray name="positions" >
   <v>       0.00000000       0.00000000       0.00000000 </v>
  </varray>
  <varray name="velocities" >
   <v>       0.00000000       0.00000000       0.00000000 </v>
  </varray>
 </structure>
</modeling>
