   1   1   0   0
  0.2623385E+02  0.3242103E-09  0.3242103E-09  0.3242103E-09  0.1000000E-15
  1.000000000000000E-004
  CAR 
 Og_FCC                                  
     26.83606357     -7.04457636  301      3.52018360      1.00000000
     -7.045  0.0000E+00  0.0000E+00
     -6.932  0.0000E+00  0.0000E+00
     -6.819  0.0000E+00  0.0000E+00
     -6.706  0.0000E+00  0.0000E+00
     -6.593  0.0000E+00  0.0000E+00
     -6.480  0.0000E+00  0.0000E+00
     -6.367  0.0000E+00  0.0000E+00
     -6.254  0.0000E+00  0.0000E+00
     -6.141  0.0000E+00  0.0000E+00
     -6.028  0.0000E+00  0.0000E+00
     -5.915  0.0000E+00  0.0000E+00
     -5.802  0.0000E+00  0.0000E+00
     -5.689  0.0000E+00  0.0000E+00
     -5.576  0.0000E+00  0.0000E+00
     -5.463  0.0000E+00  0.9259E-02
     -5.351  0.0000E+00  0.9259E-02
     -5.238  0.0000E+00  0.9259E-02
     -5.125  0.0000E+00  0.9259E-02
     -5.012  0.0000E+00  0.9259E-02
     -4.899  0.0000E+00  0.9259E-02
     -4.786  0.0000E+00  0.1204E+00
     -4.673  0.0000E+00  0.1204E+00
     -4.560  0.0000E+00  0.1204E+00
     -4.447  0.0000E+00  0.1204E+00
     -4.334  0.0000E+00  0.1204E+00
     -4.221  0.0000E+00  0.1204E+00
     -4.108  0.2899E-04  0.1204E+00
     -3.995  0.0000E+00  0.1759E+00
     -3.882  0.0000E+00  0.1759E+00
     -3.769  0.0000E+00  0.1759E+00
     -3.657  0.0000E+00  0.1759E+00
     -3.544  0.0000E+00  0.3981E+00
     -3.431  0.0000E+00  0.3981E+00
     -3.318  0.0000E+00  0.3981E+00
     -3.205  0.0000E+00  0.5093E+00
     -3.092  0.0000E+00  0.5093E+00
     -2.979  0.0000E+00  0.5093E+00
     -2.866  0.0000E+00  0.5093E+00
     -2.753  0.0000E+00  0.5648E+00
     -2.640  0.1068E+01  0.6854E+00
     -2.527  0.0000E+00  0.1231E+01
     -2.414  0.0000E+00  0.1231E+01
     -2.301  0.7805E+00  0.1394E+01
     -2.188  0.6559E+00  0.1491E+01
     -2.075  0.0000E+00  0.1491E+01
     -1.962  0.0000E+00  0.1843E+01
     -1.850  0.0000E+00  0.2120E+01
     -1.737  0.1529E+01  0.3608E+01
     -1.624  0.2944E+00  0.4135E+01
     -1.511  0.0000E+00  0.4398E+01
     -1.398  0.0000E+00  0.4398E+01
     -1.285  0.2248E-06  0.4398E+01
     -1.172  0.0000E+00  0.4472E+01
     -1.059  0.0000E+00  0.4806E+01
     -0.946  0.0000E+00  0.4806E+01
     -0.833  0.0000E+00  0.4806E+01
     -0.720  0.0000E+00  0.4806E+01
     -0.607  0.0000E+00  0.4806E+01
     -0.494  0.3935E+01  0.5250E+01
     -0.381  0.0000E+00  0.5250E+01
     -0.268  0.0000E+00  0.5472E+01
     -0.156  0.0000E+00  0.5528E+01
     -0.043  0.0000E+00  0.5750E+01
      0.070  0.0000E+00  0.5750E+01
      0.183  0.0000E+00  0.5806E+01
      0.296  0.0000E+00  0.5880E+01
      0.409  0.0000E+00  0.5880E+01
      0.522  0.0000E+00  0.5880E+01
      0.635  0.0000E+00  0.5991E+01
      0.748  0.0000E+00  0.6065E+01
      0.861  0.0000E+00  0.6065E+01
      0.974  0.0000E+00  0.6074E+01
      1.087  0.0000E+00  0.6296E+01
      1.200  0.1968E+01  0.7185E+01
      1.313  0.1591E-10  0.7574E+01
      1.426  0.0000E+00  0.7870E+01
      1.539  0.0000E+00  0.8333E+01
      1.651  0.0000E+00  0.8796E+01
      1.764  0.0000E+00  0.9130E+01
      1.877  0.0000E+00  0.9648E+01
      1.990  0.0000E+00  0.9815E+01
      2.103  0.0000E+00  0.9815E+01
      2.216  0.0000E+00  0.1013E+02
      2.329  0.0000E+00  0.1080E+02
      2.442  0.0000E+00  0.1091E+02
      2.555  0.0000E+00  0.1091E+02
      2.668  0.0000E+00  0.1091E+02
      2.781  0.1218E-10  0.1091E+02
      2.894  0.0000E+00  0.1119E+02
      3.007  0.0000E+00  0.1170E+02
      3.120  0.6340E-02  0.1193E+02
      3.233  0.4919E+00  0.1199E+02
      3.345  0.0000E+00  0.1199E+02
      3.458  0.0000E+00  0.1199E+02
      3.571  0.2617E-13  0.1200E+02
      3.684  0.0000E+00  0.1206E+02
      3.797  0.0000E+00  0.1206E+02
      3.910  0.0000E+00  0.1206E+02
      4.023  0.0000E+00  0.1206E+02
      4.136  0.0000E+00  0.1206E+02
      4.249  0.0000E+00  0.1206E+02
      4.362  0.0000E+00  0.1206E+02
      4.475  0.0000E+00  0.1206E+02
      4.588  0.0000E+00  0.1206E+02
      4.701  0.0000E+00  0.1206E+02
      4.814  0.0000E+00  0.1206E+02
      4.927  0.0000E+00  0.1206E+02
      5.040  0.0000E+00  0.1217E+02
      5.152  0.0000E+00  0.1217E+02
      5.265  0.0000E+00  0.1217E+02
      5.378  0.0000E+00  0.1217E+02
      5.491  0.0000E+00  0.1217E+02
      5.604  0.0000E+00  0.1218E+02
      5.717  0.0000E+00  0.1218E+02
      5.830  0.3935E+01  0.1262E+02
      5.943  0.0000E+00  0.1262E+02
      6.056  0.0000E+00  0.1262E+02
      6.169  0.0000E+00  0.1262E+02
      6.282  0.0000E+00  0.1262E+02
      6.395  0.0000E+00  0.1273E+02
      6.508  0.0000E+00  0.1273E+02
      6.621  0.0000E+00  0.1295E+02
      6.734  0.6559E+00  0.1314E+02
      6.846  0.0000E+00  0.1314E+02
      6.959  0.0000E+00  0.1321E+02
      7.072  0.0000E+00  0.1321E+02
      7.185  0.0000E+00  0.1321E+02
      7.298  0.0000E+00  0.1321E+02
      7.411  0.0000E+00  0.1321E+02
      7.524  0.0000E+00  0.1321E+02
      7.637  0.9838E+00  0.1332E+02
      7.750  0.0000E+00  0.1332E+02
      7.863  0.0000E+00  0.1332E+02
      7.976  0.0000E+00  0.1338E+02
      8.089  0.0000E+00  0.1360E+02
      8.202  0.0000E+00  0.1360E+02
      8.315  0.0000E+00  0.1360E+02
      8.428  0.0000E+00  0.1360E+02
      8.541  0.0000E+00  0.1360E+02
      8.653  0.0000E+00  0.1360E+02
      8.766  0.0000E+00  0.1360E+02
      8.879  0.3579E-09  0.1360E+02
      8.992  0.0000E+00  0.1368E+02
      9.105  0.0000E+00  0.1368E+02
      9.218  0.0000E+00  0.1368E+02
      9.331  0.0000E+00  0.1390E+02
      9.444  0.0000E+00  0.1390E+02
      9.557  0.0000E+00  0.1390E+02
      9.670  0.0000E+00  0.1390E+02
      9.783  0.0000E+00  0.1390E+02
      9.896  0.0000E+00  0.1390E+02
     10.009  0.0000E+00  0.1390E+02
     10.122  0.0000E+00  0.1390E+02
     10.235  0.0000E+00  0.1401E+02
     10.347  0.0000E+00  0.1423E+02
     10.460  0.0000E+00  0.1436E+02
     10.573  0.0000E+00  0.1436E+02
     10.686  0.0000E+00  0.1436E+02
     10.799  0.0000E+00  0.1436E+02
     10.912  0.0000E+00  0.1436E+02
     11.025  0.0000E+00  0.1436E+02
     11.138  0.0000E+00  0.1436E+02
     11.251  0.0000E+00  0.1442E+02
     11.364  0.0000E+00  0.1442E+02
     11.477  0.0000E+00  0.1442E+02
     11.590  0.0000E+00  0.1447E+02
     11.703  0.0000E+00  0.1492E+02
     11.816  0.0000E+00  0.1499E+02
     11.929  0.7660E-14  0.1499E+02
     12.042  0.0000E+00  0.1510E+02
     12.154  0.0000E+00  0.1521E+02
     12.267  0.0000E+00  0.1521E+02
     12.380  0.0000E+00  0.1521E+02
     12.493  0.0000E+00  0.1532E+02
     12.606  0.0000E+00  0.1532E+02
     12.719  0.0000E+00  0.1549E+02
     12.832  0.0000E+00  0.1549E+02
     12.945  0.0000E+00  0.1549E+02
     13.058  0.0000E+00  0.1549E+02
     13.171  0.0000E+00  0.1549E+02
     13.284  0.0000E+00  0.1577E+02
     13.397  0.0000E+00  0.1577E+02
     13.510  0.0000E+00  0.1577E+02
     13.623  0.0000E+00  0.1577E+02
     13.736  0.0000E+00  0.1584E+02
     13.848  0.0000E+00  0.1584E+02
     13.961  0.0000E+00  0.1585E+02
     14.074  0.0000E+00  0.1585E+02
     14.187  0.0000E+00  0.1596E+02
     14.300  0.0000E+00  0.1619E+02
     14.413  0.0000E+00  0.1619E+02
     14.526  0.0000E+00  0.1619E+02
     14.639  0.0000E+00  0.1619E+02
     14.752  0.0000E+00  0.1619E+02
     14.865  0.0000E+00  0.1619E+02
     14.978  0.0000E+00  0.1630E+02
     15.091  0.0000E+00  0.1630E+02
     15.204  0.0000E+00  0.1630E+02
     15.317  0.0000E+00  0.1637E+02
     15.430  0.0000E+00  0.1681E+02
     15.543  0.0000E+00  0.1687E+02
     15.655  0.0000E+00  0.1687E+02
     15.768  0.0000E+00  0.1731E+02
     15.881  0.0000E+00  0.1731E+02
     15.994  0.0000E+00  0.1731E+02
     16.107  0.0000E+00  0.1737E+02
     16.220  0.0000E+00  0.1737E+02
     16.333  0.0000E+00  0.1737E+02
     16.446  0.0000E+00  0.1737E+02
     16.559  0.0000E+00  0.1737E+02
     16.672  0.0000E+00  0.1737E+02
     16.785  0.0000E+00  0.1748E+02
     16.898  0.0000E+00  0.1770E+02
     17.011  0.0000E+00  0.1770E+02
     17.124  0.0000E+00  0.1770E+02
     17.237  0.0000E+00  0.1770E+02
     17.349  0.0000E+00  0.1776E+02
     17.462  0.0000E+00  0.1778E+02
     17.575  0.1231E-03  0.1789E+02
     17.688  0.0000E+00  0.1794E+02
     17.801  0.0000E+00  0.1794E+02
     17.914  0.0000E+00  0.1806E+02
     18.027  0.0000E+00  0.1806E+02
     18.140  0.0000E+00  0.1806E+02
     18.253  0.0000E+00  0.1806E+02
     18.366  0.0000E+00  0.1806E+02
     18.479  0.0000E+00  0.1806E+02
     18.592  0.9837E+00  0.1831E+02
     18.705  0.0000E+00  0.1836E+02
     18.818  0.0000E+00  0.1858E+02
     18.931  0.0000E+00  0.1858E+02
     19.044  0.0000E+00  0.1881E+02
     19.156  0.0000E+00  0.1881E+02
     19.269  0.2558E-04  0.1881E+02
     19.382  0.0000E+00  0.1892E+02
     19.495  0.0000E+00  0.1914E+02
     19.608  0.0000E+00  0.1914E+02
     19.721  0.3351E-01  0.1914E+02
     19.834  0.0000E+00  0.1936E+02
     19.947  0.0000E+00  0.1942E+02
     20.060  0.0000E+00  0.1942E+02
     20.173  0.0000E+00  0.1942E+02
     20.286  0.0000E+00  0.1942E+02
     20.399  0.0000E+00  0.1947E+02
     20.512  0.0000E+00  0.1958E+02
     20.625  0.0000E+00  0.2008E+02
     20.738  0.0000E+00  0.2031E+02
     20.850  0.0000E+00  0.2031E+02
     20.963  0.0000E+00  0.2038E+02
     21.076  0.0000E+00  0.2060E+02
     21.189  0.0000E+00  0.2071E+02
     21.302  0.1986E-03  0.2094E+02
     21.415  0.0000E+00  0.2105E+02
     21.528  0.0000E+00  0.2116E+02
     21.641  0.0000E+00  0.2116E+02
     21.754  0.8451E-03  0.2116E+02
     21.867  0.0000E+00  0.2145E+02
     21.980  0.3935E+01  0.2195E+02
     22.093  0.0000E+00  0.2203E+02
     22.206  0.0000E+00  0.2203E+02
     22.319  0.0000E+00  0.2214E+02
     22.432  0.0000E+00  0.2219E+02
     22.545  0.0000E+00  0.2219E+02
     22.657  0.0000E+00  0.2219E+02
     22.770  0.0000E+00  0.2231E+02
     22.883  0.0000E+00  0.2258E+02
     22.996  0.0000E+00  0.2281E+02
     23.109  0.0000E+00  0.2281E+02
     23.222  0.0000E+00  0.2292E+02
     23.335  0.0000E+00  0.2352E+02
     23.448  0.0000E+00  0.2352E+02
     23.561  0.0000E+00  0.2352E+02
     23.674  0.0000E+00  0.2353E+02
     23.787  0.0000E+00  0.2353E+02
     23.900  0.0000E+00  0.2364E+02
     24.013  0.0000E+00  0.2364E+02
     24.126  0.0000E+00  0.2364E+02
     24.239  0.0000E+00  0.2364E+02
     24.351  0.0000E+00  0.2364E+02
     24.464  0.0000E+00  0.2365E+02
     24.577  0.0000E+00  0.2365E+02
     24.690  0.0000E+00  0.2376E+02
     24.803  0.0000E+00  0.2383E+02
     24.916  0.0000E+00  0.2394E+02
     25.029  0.0000E+00  0.2394E+02
     25.142  0.0000E+00  0.2394E+02
     25.255  0.0000E+00  0.2394E+02
     25.368  0.0000E+00  0.2400E+02
     25.481  0.0000E+00  0.2400E+02
     25.594  0.0000E+00  0.2400E+02
     25.707  0.0000E+00  0.2400E+02
     25.820  0.0000E+00  0.2400E+02
     25.933  0.0000E+00  0.2400E+02
     26.046  0.0000E+00  0.2400E+02
     26.158  0.0000E+00  0.2400E+02
     26.271  0.0000E+00  0.2400E+02
     26.384  0.0000E+00  0.2400E+02
     26.497  0.0000E+00  0.2400E+02
     26.610  0.0000E+00  0.2400E+02
     26.723  0.0000E+00  0.2400E+02
     26.836  0.0000E+00  0.2400E+02
