 running on   32 total cores
 distrk:  each k-point on   16 cores,    2 groups
 distr:  one band on    4 cores,    4 groups
 using from now: INCAR     
 vasp.5.4.4.18Apr17-6-g9f103f2a35 (build Jul 09 2018 16:43:14) complex          
  
 POSCAR found type information on POSCAR  Cn
 POSCAR found :  1 types and       1 ions
 scaLAPACK will be used

 ----------------------------------------------------------------------------- 
|                                                                             |
|           W    W    AA    RRRRR   N    N  II  N    N   GGGG   !!!           |
|           W    W   A  A   R    R  NN   N  II  NN   N  G    G  !!!           |
|           W    W  A    A  R    R  N N  N  II  N N  N  G       !!!           |
|           W WW W  AAAAAA  RRRRR   N  N N  II  N  N N  G  GGG   !            |
|           WW  WW  A    A  R   R   N   NN  II  N   NN  G    G                |
|           W    W  A    A  R    R  N    N  II  N    N   GGGG   !!!           |
|                                                                             |
|      You have enabled k-point parallelism (KPAR>1).                         |
|      This developmental code was originally  written by Paul Kent at ORNL,  |
|      and carefully double checked in Vienna.                                |
|      GW as well as linear response parallelism added by Martijn Marsman     |
|      and Georg Kresse.                                                      |
|      Carefully verify results versus KPAR=1.                                |
|      Report problems to Paul Kent and Vienna.                               |
|                                                                             |
 ----------------------------------------------------------------------------- 

 LDA part: xc-table for Pade appr. of Perdew
 POSCAR, INCAR and KPOINTS ok, starting setup
 FFT: planning ...
 WAVECAR not read
 entering main loop
       N       E                     dE             d eps       ncg     rms          rms(c)
DAV:   1     0.957924204230E+02    0.95792E+02   -0.44726E+03 12104   0.600E+02
DAV:   2     0.340800806653E+01   -0.92384E+02   -0.78311E+02 12264   0.219E+02
DAV:   3    -0.560553311775E+00   -0.39686E+01   -0.38778E+01 14392   0.576E+01
DAV:   4    -0.681527704944E+00   -0.12097E+00   -0.12088E+00 11976   0.119E+01
DAV:   5    -0.688347144257E+00   -0.68194E-02   -0.68190E-02 16464   0.244E+00    0.537E+00
DAV:   6    -0.969296112968E+00   -0.28095E+00   -0.23108E-01 19688   0.728E+00    0.173E+00
DAV:   7    -0.100165200149E+01   -0.32356E-01   -0.16504E-02 12560   0.267E+00    0.344E-01
DAV:   8    -0.100208140961E+01   -0.42941E-03   -0.34531E-03 12344   0.761E-01    0.163E-01
DAV:   9    -0.100212642124E+01   -0.45012E-04   -0.46135E-04 14928   0.239E-01    0.829E-02
DAV:  10    -0.100211114489E+01    0.15276E-04   -0.70619E-05 15096   0.105E-01    0.157E-02
DAV:  11    -0.100212490817E+01   -0.13763E-04   -0.16247E-05 11160   0.367E-02    0.428E-03
DAV:  12    -0.100212593396E+01   -0.10258E-05   -0.92487E-07 14096   0.954E-03    0.272E-03
DAV:  13    -0.100212656443E+01   -0.63047E-06   -0.24787E-07 11344   0.488E-03    0.850E-04
DAV:  14    -0.100212664544E+01   -0.81006E-07   -0.17093E-08 15080   0.140E-03    0.168E-04
DAV:  15    -0.100212661693E+01    0.28504E-07   -0.10674E-09  7568   0.350E-04    0.638E-05
DAV:  16    -0.100212656734E+01    0.49591E-07   -0.28634E-10  6624   0.183E-04    0.488E-05
DAV:  17    -0.100212656413E+01    0.32087E-08   -0.84023E-11  5976   0.122E-04
   1 F= 0.28520734E+97 E0= 0.28520734E+97  d E =-.271240-275  mag=    -0.0000    -0.0000    -0.0000
 writing wavefunctions
 optical routines
 imaginary and real dielectric function
 recalculating local potential from charge density
 direction            1
 direction            2
 direction            3
