   1   1   0   0
  0.3298244E+02  0.3599697E-09  0.3599697E-09  0.3599697E-09  0.1000000E-15
  1.000000000000000E-004
  CAR 
 Og_FCC                                  
     88.93598124    -24.49868195  301     -4.26950035      1.00000000
    -24.499  0.0000E+00  0.0000E+00
    -24.121  0.0000E+00  0.0000E+00
    -23.742  0.0000E+00  0.0000E+00
    -23.364  0.0000E+00  0.0000E+00
    -22.986  0.0000E+00  0.0000E+00
    -22.608  0.0000E+00  0.0000E+00
    -22.230  0.0000E+00  0.0000E+00
    -21.852  0.0000E+00  0.0000E+00
    -21.474  0.0000E+00  0.0000E+00
    -21.096  0.0000E+00  0.0000E+00
    -20.718  0.0000E+00  0.0000E+00
    -20.339  0.0000E+00  0.0000E+00
    -19.961  0.0000E+00  0.0000E+00
    -19.583  0.0000E+00  0.0000E+00
    -19.205  0.0000E+00  0.1574E+00
    -18.827  0.0000E+00  0.2000E+01
    -18.449  0.0000E+00  0.2000E+01
    -18.071  0.0000E+00  0.2000E+01
    -17.693  0.0000E+00  0.2000E+01
    -17.314  0.0000E+00  0.2000E+01
    -16.936  0.0000E+00  0.2000E+01
    -16.558  0.0000E+00  0.2000E+01
    -16.180  0.0000E+00  0.2000E+01
    -15.802  0.0000E+00  0.2000E+01
    -15.424  0.0000E+00  0.2000E+01
    -15.046  0.0000E+00  0.2000E+01
    -14.668  0.0000E+00  0.2000E+01
    -14.290  0.0000E+00  0.2000E+01
    -13.911  0.0000E+00  0.2000E+01
    -13.533  0.0000E+00  0.2000E+01
    -13.155  0.0000E+00  0.2000E+01
    -12.777  0.0000E+00  0.2000E+01
    -12.399  0.0000E+00  0.2000E+01
    -12.021  0.0000E+00  0.2000E+01
    -11.643  0.0000E+00  0.2000E+01
    -11.265  0.0000E+00  0.2000E+01
    -10.887  0.0000E+00  0.2000E+01
    -10.508  0.0000E+00  0.2000E+01
    -10.130  0.0000E+00  0.2000E+01
     -9.752  0.0000E+00  0.2000E+01
     -9.374  0.0000E+00  0.2000E+01
     -8.996  0.0000E+00  0.2000E+01
     -8.618  0.0000E+00  0.2000E+01
     -8.240  0.0000E+00  0.2000E+01
     -7.862  0.0000E+00  0.2000E+01
     -7.483  0.0000E+00  0.2000E+01
     -7.105  0.0000E+00  0.2000E+01
     -6.727  0.0000E+00  0.2000E+01
     -6.349  0.0000E+00  0.2000E+01
     -5.971  0.0000E+00  0.2000E+01
     -5.593  0.0000E+00  0.3341E+01
     -5.215  0.1851E+00  0.4052E+01
     -4.837  0.0000E+00  0.5417E+01
     -4.459  0.0000E+00  0.7743E+01
     -4.080  0.0000E+00  0.8000E+01
     -3.702  0.0000E+00  0.8000E+01
     -3.324  0.0000E+00  0.8000E+01
     -2.946  0.0000E+00  0.8000E+01
     -2.568  0.0000E+00  0.8000E+01
     -2.190  0.0000E+00  0.8000E+01
     -1.812  0.0000E+00  0.8000E+01
     -1.434  0.0000E+00  0.8000E+01
     -1.056  0.0000E+00  0.8000E+01
     -0.677  0.0000E+00  0.8000E+01
     -0.299  0.0000E+00  0.8000E+01
      0.079  0.0000E+00  0.8000E+01
      0.457  0.0000E+00  0.8000E+01
      0.835  0.0000E+00  0.8000E+01
      1.213  0.0000E+00  0.8000E+01
      1.591  0.0000E+00  0.8000E+01
      1.969  0.0000E+00  0.8000E+01
      2.348  0.0000E+00  0.8000E+01
      2.726  0.0000E+00  0.8000E+01
      3.104  0.0000E+00  0.8000E+01
      3.482  0.0000E+00  0.8000E+01
      3.860  0.0000E+00  0.8000E+01
      4.238  0.0000E+00  0.8000E+01
      4.616  0.0000E+00  0.8006E+01
      4.994  0.0000E+00  0.8006E+01
      5.372  0.0000E+00  0.8087E+01
      5.751  0.0000E+00  0.8087E+01
      6.129  0.0000E+00  0.8157E+01
      6.507  0.0000E+00  0.8344E+01
      6.885  0.0000E+00  0.8379E+01
      7.263  0.0000E+00  0.8671E+01
      7.641  0.0000E+00  0.9230E+01
      8.019  0.0000E+00  0.9510E+01
      8.397  0.0000E+00  0.9965E+01
      8.775  0.0000E+00  0.1010E+02
      9.154  0.9253E-01  0.1091E+02
      9.532  0.0000E+00  0.1147E+02
      9.910  0.0000E+00  0.1187E+02
     10.288  0.0000E+00  0.1254E+02
     10.666  0.0000E+00  0.1328E+02
     11.044  0.0000E+00  0.1350E+02
     11.422  0.0000E+00  0.1391E+02
     11.800  0.0000E+00  0.1453E+02
     12.179  0.0000E+00  0.1474E+02
     12.557  0.0000E+00  0.1534E+02
     12.935  0.0000E+00  0.1569E+02
     13.313  0.0000E+00  0.1617E+02
     13.691  0.0000E+00  0.1655E+02
     14.069  0.1851E+00  0.1672E+02
     14.447  0.0000E+00  0.1690E+02
     14.825  0.0000E+00  0.1760E+02
     15.203  0.0000E+00  0.1770E+02
     15.582  0.0000E+00  0.1850E+02
     15.960  0.3314E-01  0.1931E+02
     16.338  0.0000E+00  0.1958E+02
     16.716  0.0000E+00  0.2009E+02
     17.094  0.0000E+00  0.2017E+02
     17.472  0.0000E+00  0.2017E+02
     17.850  0.0000E+00  0.2136E+02
     18.228  0.0000E+00  0.2169E+02
     18.606  0.0000E+00  0.2217E+02
     18.985  0.0000E+00  0.2258E+02
     19.363  0.0000E+00  0.2272E+02
     19.741  0.0000E+00  0.2311E+02
     20.119  0.0000E+00  0.2397E+02
     20.497  0.0000E+00  0.2470E+02
     20.875  0.0000E+00  0.2527E+02
     21.253  0.0000E+00  0.2564E+02
     21.631  0.0000E+00  0.2609E+02
     22.010  0.0000E+00  0.2651E+02
     22.388  0.0000E+00  0.2697E+02
     22.766  0.0000E+00  0.2728E+02
     23.144  0.0000E+00  0.2763E+02
     23.522  0.0000E+00  0.2810E+02
     23.900  0.0000E+00  0.2823E+02
     24.278  0.0000E+00  0.2851E+02
     24.656  0.0000E+00  0.2949E+02
     25.034  0.0000E+00  0.2963E+02
     25.413  0.0000E+00  0.2980E+02
     25.791  0.0000E+00  0.3008E+02
     26.169  0.0000E+00  0.3096E+02
     26.547  0.0000E+00  0.3135E+02
     26.925  0.0000E+00  0.3225E+02
     27.303  0.0000E+00  0.3300E+02
     27.681  0.0000E+00  0.3330E+02
     28.059  0.0000E+00  0.3348E+02
     28.437  0.0000E+00  0.3383E+02
     28.816  0.0000E+00  0.3431E+02
     29.194  0.0000E+00  0.3491E+02
     29.572  0.0000E+00  0.3556E+02
     29.950  0.0000E+00  0.3564E+02
     30.328  0.0000E+00  0.3623E+02
     30.706  0.0000E+00  0.3662E+02
     31.084  0.0000E+00  0.3707E+02
     31.462  0.0000E+00  0.3813E+02
     31.841  0.0000E+00  0.3847E+02
     32.219  0.0000E+00  0.3938E+02
     32.597  0.0000E+00  0.4001E+02
     32.975  0.0000E+00  0.4022E+02
     33.353  0.0000E+00  0.4036E+02
     33.731  0.0000E+00  0.4082E+02
     34.109  0.3801E-04  0.4125E+02
     34.487  0.0000E+00  0.4235E+02
     34.865  0.0000E+00  0.4265E+02
     35.244  0.0000E+00  0.4332E+02
     35.622  0.0000E+00  0.4378E+02
     36.000  0.0000E+00  0.4422E+02
     36.378  0.0000E+00  0.4506E+02
     36.756  0.0000E+00  0.4527E+02
     37.134  0.4144E-03  0.4562E+02
     37.512  0.0000E+00  0.4659E+02
     37.890  0.0000E+00  0.4728E+02
     38.268  0.0000E+00  0.4788E+02
     38.647  0.0000E+00  0.4823E+02
     39.025  0.0000E+00  0.4869E+02
     39.403  0.0000E+00  0.4949E+02
     39.781  0.0000E+00  0.4991E+02
     40.159  0.0000E+00  0.5040E+02
     40.537  0.0000E+00  0.5068E+02
     40.915  0.1234E+00  0.5144E+02
     41.293  0.0000E+00  0.5197E+02
     41.672  0.0000E+00  0.5281E+02
     42.050  0.0000E+00  0.5384E+02
     42.428  0.0000E+00  0.5427E+02
     42.806  0.0000E+00  0.5457E+02
     43.184  0.0000E+00  0.5531E+02
     43.562  0.5609E+00  0.5573E+02
     43.940  0.0000E+00  0.5625E+02
     44.318  0.0000E+00  0.5706E+02
     44.696  0.0000E+00  0.5748E+02
     45.075  0.0000E+00  0.5851E+02
     45.453  0.0000E+00  0.5893E+02
     45.831  0.0000E+00  0.5954E+02
     46.209  0.0000E+00  0.6038E+02
     46.587  0.0000E+00  0.6052E+02
     46.965  0.0000E+00  0.6088E+02
     47.343  0.0000E+00  0.6160E+02
     47.721  0.9971E-09  0.6202E+02
     48.100  0.0000E+00  0.6297E+02
     48.478  0.0000E+00  0.6382E+02
     48.856  0.7197E+00  0.6450E+02
     49.234  0.0000E+00  0.6521E+02
     49.612  0.0000E+00  0.6576E+02
     49.990  0.0000E+00  0.6662E+02
     50.368  0.0000E+00  0.6728E+02
     50.746  0.0000E+00  0.6797E+02
     51.124  0.0000E+00  0.6829E+02
     51.503  0.3701E+00  0.6908E+02
     51.881  0.0000E+00  0.6942E+02
     52.259  0.0000E+00  0.6989E+02
     52.637  0.1234E+00  0.7079E+02
     53.015  0.0000E+00  0.7121E+02
     53.393  0.0000E+00  0.7142E+02
     53.771  0.0000E+00  0.7225E+02
     54.149  0.3701E+00  0.7299E+02
     54.527  0.3642E-09  0.7346E+02
     54.906  0.0000E+00  0.7429E+02
     55.284  0.0000E+00  0.7545E+02
     55.662  0.0000E+00  0.7583E+02
     56.040  0.0000E+00  0.7622E+02
     56.418  0.0000E+00  0.7683E+02
     56.796  0.0000E+00  0.7760E+02
     57.174  0.0000E+00  0.7799E+02
     57.552  0.0000E+00  0.7840E+02
     57.931  0.0000E+00  0.7952E+02
     58.309  0.0000E+00  0.8027E+02
     58.687  0.0000E+00  0.8129E+02
     59.065  0.0000E+00  0.8205E+02
     59.443  0.0000E+00  0.8286E+02
     59.821  0.0000E+00  0.8321E+02
     60.199  0.0000E+00  0.8371E+02
     60.577  0.0000E+00  0.8388E+02
     60.955  0.0000E+00  0.8490E+02
     61.334  0.0000E+00  0.8559E+02
     61.712  0.0000E+00  0.8627E+02
     62.090  0.1940E-14  0.8669E+02
     62.468  0.0000E+00  0.8780E+02
     62.846  0.0000E+00  0.8857E+02
     63.224  0.0000E+00  0.8942E+02
     63.602  0.0000E+00  0.9002E+02
     63.980  0.0000E+00  0.9098E+02
     64.358  0.0000E+00  0.9154E+02
     64.737  0.0000E+00  0.9213E+02
     65.115  0.0000E+00  0.9313E+02
     65.493  0.0000E+00  0.9395E+02
     65.871  0.7134E-02  0.9448E+02
     66.249  0.0000E+00  0.9520E+02
     66.627  0.0000E+00  0.9639E+02
     67.005  0.0000E+00  0.9713E+02
     67.383  0.0000E+00  0.9769E+02
     67.762  0.0000E+00  0.9878E+02
     68.140  0.0000E+00  0.9913E+02
     68.518  0.0000E+00  0.1003E+03
     68.896  0.0000E+00  0.1004E+03
     69.274  0.0000E+00  0.1013E+03
     69.652  0.0000E+00  0.1017E+03
     70.030  0.3701E+00  0.1024E+03
     70.408  0.0000E+00  0.1032E+03
     70.786  0.0000E+00  0.1036E+03
     71.165  0.0000E+00  0.1046E+03
     71.543  0.0000E+00  0.1058E+03
     71.921  0.0000E+00  0.1064E+03
     72.299  0.0000E+00  0.1066E+03
     72.677  0.3100E+00  0.1075E+03
     73.055  0.0000E+00  0.1082E+03
     73.433  0.0000E+00  0.1090E+03
     73.811  0.0000E+00  0.1102E+03
     74.189  0.0000E+00  0.1113E+03
     74.568  0.0000E+00  0.1121E+03
     74.946  0.1851E+00  0.1125E+03
     75.324  0.0000E+00  0.1130E+03
     75.702  0.0000E+00  0.1136E+03
     76.080  0.0000E+00  0.1143E+03
     76.458  0.0000E+00  0.1152E+03
     76.836  0.0000E+00  0.1161E+03
     77.214  0.1097E-12  0.1164E+03
     77.593  0.7183E+00  0.1174E+03
     77.971  0.9228E-01  0.1183E+03
     78.349  0.0000E+00  0.1187E+03
     78.727  0.0000E+00  0.1195E+03
     79.105  0.0000E+00  0.1208E+03
     79.483  0.0000E+00  0.1216E+03
     79.861  0.0000E+00  0.1227E+03
     80.239  0.0000E+00  0.1231E+03
     80.617  0.0000E+00  0.1245E+03
     80.996  0.0000E+00  0.1254E+03
     81.374  0.0000E+00  0.1262E+03
     81.752  0.3701E+00  0.1267E+03
     82.130  0.0000E+00  0.1269E+03
     82.508  0.0000E+00  0.1274E+03
     82.886  0.0000E+00  0.1277E+03
     83.264  0.2101E-02  0.1277E+03
     83.642  0.0000E+00  0.1280E+03
     84.020  0.0000E+00  0.1280E+03
     84.399  0.0000E+00  0.1280E+03
     84.777  0.0000E+00  0.1280E+03
     85.155  0.0000E+00  0.1280E+03
     85.533  0.0000E+00  0.1280E+03
     85.911  0.0000E+00  0.1280E+03
     86.289  0.0000E+00  0.1280E+03
     86.667  0.0000E+00  0.1280E+03
     87.045  0.0000E+00  0.1280E+03
     87.424  0.0000E+00  0.1280E+03
     87.802  0.0000E+00  0.1280E+03
     88.180  0.0000E+00  0.1280E+03
     88.558  0.0000E+00  0.1280E+03
     88.936  0.0000E+00  0.1280E+03
