   1   1   0   0
  0.5830817E+02  0.4352594E-09  0.4352594E-09  0.4352594E-09  0.1000000E-15
  1.000000000000000E-004
  CAR 
 Og_FCC                                  
     58.26487144    -45.18095035  301      2.57653738      1.00000000
    -45.181  0.0000E+00  0.0000E+00
    -44.836  0.0000E+00  0.0000E+00
    -44.491  0.0000E+00  0.0000E+00
    -44.146  0.0000E+00  0.0000E+00
    -43.802  0.0000E+00  0.0000E+00
    -43.457  0.0000E+00  0.0000E+00
    -43.112  0.0000E+00  0.0000E+00
    -42.767  0.0000E+00  0.0000E+00
    -42.422  0.0000E+00  0.0000E+00
    -42.078  0.0000E+00  0.0000E+00
    -41.733  0.0000E+00  0.0000E+00
    -41.388  0.0000E+00  0.0000E+00
    -41.043  0.0000E+00  0.0000E+00
    -40.698  0.0000E+00  0.0000E+00
    -40.353  0.0000E+00  0.4000E+01
    -40.009  0.0000E+00  0.4000E+01
    -39.664  0.0000E+00  0.4000E+01
    -39.319  0.0000E+00  0.4000E+01
    -38.974  0.0000E+00  0.4000E+01
    -38.629  0.0000E+00  0.4000E+01
    -38.285  0.0000E+00  0.4000E+01
    -37.940  0.0000E+00  0.4000E+01
    -37.595  0.0000E+00  0.4000E+01
    -37.250  0.0000E+00  0.4000E+01
    -36.905  0.0000E+00  0.4000E+01
    -36.560  0.0000E+00  0.4000E+01
    -36.216  0.0000E+00  0.4000E+01
    -35.871  0.0000E+00  0.4000E+01
    -35.526  0.0000E+00  0.4000E+01
    -35.181  0.0000E+00  0.4000E+01
    -34.836  0.0000E+00  0.4000E+01
    -34.492  0.0000E+00  0.4000E+01
    -34.147  0.0000E+00  0.4000E+01
    -33.802  0.0000E+00  0.4000E+01
    -33.457  0.0000E+00  0.4000E+01
    -33.112  0.0000E+00  0.4000E+01
    -32.767  0.0000E+00  0.1000E+02
    -32.423  0.0000E+00  0.1000E+02
    -32.078  0.0000E+00  0.1000E+02
    -31.733  0.0000E+00  0.1000E+02
    -31.388  0.0000E+00  0.1000E+02
    -31.043  0.0000E+00  0.1000E+02
    -30.699  0.0000E+00  0.1000E+02
    -30.354  0.0000E+00  0.1000E+02
    -30.009  0.0000E+00  0.1000E+02
    -29.664  0.0000E+00  0.1000E+02
    -29.319  0.0000E+00  0.1000E+02
    -28.974  0.0000E+00  0.1000E+02
    -28.630  0.0000E+00  0.1000E+02
    -28.285  0.0000E+00  0.1000E+02
    -27.940  0.0000E+00  0.1000E+02
    -27.595  0.0000E+00  0.1000E+02
    -27.250  0.0000E+00  0.1000E+02
    -26.906  0.0000E+00  0.1000E+02
    -26.561  0.0000E+00  0.1000E+02
    -26.216  0.0000E+00  0.1000E+02
    -25.871  0.0000E+00  0.1000E+02
    -25.526  0.0000E+00  0.1000E+02
    -25.181  0.0000E+00  0.1001E+02
    -24.837  0.0000E+00  0.1200E+02
    -24.492  0.0000E+00  0.1200E+02
    -24.147  0.0000E+00  0.1200E+02
    -23.802  0.0000E+00  0.1200E+02
    -23.457  0.0000E+00  0.1200E+02
    -23.113  0.0000E+00  0.1200E+02
    -22.768  0.0000E+00  0.1200E+02
    -22.423  0.0000E+00  0.1200E+02
    -22.078  0.0000E+00  0.1200E+02
    -21.733  0.0000E+00  0.1200E+02
    -21.388  0.0000E+00  0.1200E+02
    -21.044  0.0000E+00  0.1200E+02
    -20.699  0.0000E+00  0.1200E+02
    -20.354  0.0000E+00  0.1200E+02
    -20.009  0.0000E+00  0.1200E+02
    -19.664  0.0000E+00  0.1200E+02
    -19.319  0.0000E+00  0.1200E+02
    -18.975  0.0000E+00  0.1200E+02
    -18.630  0.0000E+00  0.1200E+02
    -18.285  0.0000E+00  0.1200E+02
    -17.940  0.0000E+00  0.1200E+02
    -17.595  0.0000E+00  0.1200E+02
    -17.251  0.0000E+00  0.1200E+02
    -16.906  0.0000E+00  0.1200E+02
    -16.561  0.0000E+00  0.1200E+02
    -16.216  0.0000E+00  0.1200E+02
    -15.871  0.0000E+00  0.1200E+02
    -15.526  0.0000E+00  0.1200E+02
    -15.182  0.0000E+00  0.1200E+02
    -14.837  0.0000E+00  0.1200E+02
    -14.492  0.0000E+00  0.1200E+02
    -14.147  0.0000E+00  0.1200E+02
    -13.802  0.0000E+00  0.1200E+02
    -13.458  0.0000E+00  0.1200E+02
    -13.113  0.0000E+00  0.1200E+02
    -12.768  0.0000E+00  0.1200E+02
    -12.423  0.0000E+00  0.1200E+02
    -12.078  0.0000E+00  0.1200E+02
    -11.733  0.0000E+00  0.1200E+02
    -11.389  0.0000E+00  0.1200E+02
    -11.044  0.0000E+00  0.1200E+02
    -10.699  0.0000E+00  0.1200E+02
    -10.354  0.0000E+00  0.1200E+02
    -10.009  0.2158E+00  0.1353E+02
     -9.665  0.0000E+00  0.1400E+02
     -9.320  0.0000E+00  0.1400E+02
     -8.975  0.0000E+00  0.1400E+02
     -8.630  0.0000E+00  0.1400E+02
     -8.285  0.0000E+00  0.1400E+02
     -7.940  0.0000E+00  0.1400E+02
     -7.596  0.0000E+00  0.1400E+02
     -7.251  0.0000E+00  0.1400E+02
     -6.906  0.0000E+00  0.1400E+02
     -6.561  0.0000E+00  0.1400E+02
     -6.216  0.0000E+00  0.1400E+02
     -5.872  0.0000E+00  0.1400E+02
     -5.527  0.0000E+00  0.1400E+02
     -5.182  0.0000E+00  0.1400E+02
     -4.837  0.0000E+00  0.1400E+02
     -4.492  0.0000E+00  0.1400E+02
     -4.147  0.0000E+00  0.1400E+02
     -3.803  0.0000E+00  0.1400E+02
     -3.458  0.0000E+00  0.1400E+02
     -3.113  0.0000E+00  0.1400E+02
     -2.768  0.0000E+00  0.1400E+02
     -2.423  0.0000E+00  0.1400E+02
     -2.079  0.0000E+00  0.1400E+02
     -1.734  0.0000E+00  0.1400E+02
     -1.389  0.0000E+00  0.1400E+02
     -1.044  0.0000E+00  0.1400E+02
     -0.699  0.0000E+00  0.1540E+02
     -0.354  0.6445E+00  0.1575E+02
     -0.010  0.0000E+00  0.1586E+02
      0.335  0.0000E+00  0.1597E+02
      0.680  0.0000E+00  0.1658E+02
      1.025  0.0000E+00  0.1691E+02
      1.370  0.0000E+00  0.1741E+02
      1.714  0.0000E+00  0.1763E+02
      2.059  0.0000E+00  0.1791E+02
      2.404  0.0000E+00  0.1798E+02
      2.749  0.0000E+00  0.1800E+02
      3.094  0.0000E+00  0.1800E+02
      3.439  0.0000E+00  0.1801E+02
      3.783  0.0000E+00  0.1801E+02
      4.128  0.0000E+00  0.1801E+02
      4.473  0.0000E+00  0.1801E+02
      4.818  0.0000E+00  0.1801E+02
      5.163  0.0000E+00  0.1801E+02
      5.508  0.0000E+00  0.1808E+02
      5.852  0.0000E+00  0.1814E+02
      6.197  0.0000E+00  0.1821E+02
      6.542  0.3221E+00  0.1839E+02
      6.887  0.0000E+00  0.1867E+02
      7.232  0.0000E+00  0.1911E+02
      7.576  0.0000E+00  0.1944E+02
      7.921  0.0000E+00  0.2000E+02
      8.266  0.0000E+00  0.2003E+02
      8.611  0.0000E+00  0.2031E+02
      8.956  0.0000E+00  0.2031E+02
      9.301  0.0000E+00  0.2142E+02
      9.645  0.0000E+00  0.2169E+02
      9.990  0.6340E+00  0.2225E+02
     10.335  0.0000E+00  0.2238E+02
     10.680  0.0000E+00  0.2256E+02
     11.025  0.0000E+00  0.2345E+02
     11.369  0.0000E+00  0.2393E+02
     11.714  0.0000E+00  0.2431E+02
     12.059  0.6445E+00  0.2511E+02
     12.404  0.0000E+00  0.2567E+02
     12.749  0.0000E+00  0.2598E+02
     13.094  0.7438E-11  0.2617E+02
     13.438  0.1714E-16  0.2659E+02
     13.783  0.0000E+00  0.2748E+02
     14.128  0.3222E+00  0.2790E+02
     14.473  0.0000E+00  0.2858E+02
     14.818  0.2753E+00  0.2940E+02
     15.162  0.1611E+00  0.2969E+02
     15.507  0.0000E+00  0.3047E+02
     15.852  0.6328E-02  0.3050E+02
     16.197  0.0000E+00  0.3102E+02
     16.542  0.0000E+00  0.3131E+02
     16.887  0.6445E+00  0.3212E+02
     17.231  0.1321E+00  0.3245E+02
     17.576  0.0000E+00  0.3330E+02
     17.921  0.1233E-07  0.3411E+02
     18.266  0.0000E+00  0.3492E+02
     18.611  0.0000E+00  0.3546E+02
     18.955  0.1074E+00  0.3723E+02
     19.300  0.0000E+00  0.3812E+02
     19.645  0.0000E+00  0.3995E+02
     19.990  0.0000E+00  0.4168E+02
     20.335  0.6445E+00  0.4378E+02
     20.680  0.0000E+00  0.4530E+02
     21.024  0.0000E+00  0.4589E+02
     21.369  0.0000E+00  0.4613E+02
     21.714  0.0000E+00  0.4670E+02
     22.059  0.0000E+00  0.4718E+02
     22.404  0.0000E+00  0.4795E+02
     22.748  0.0000E+00  0.4806E+02
     23.093  0.0000E+00  0.4905E+02
     23.438  0.0000E+00  0.4933E+02
     23.783  0.2071E+00  0.5024E+02
     24.128  0.0000E+00  0.5106E+02
     24.473  0.3212E+00  0.5214E+02
     24.817  0.0000E+00  0.5325E+02
     25.162  0.0000E+00  0.5440E+02
     25.507  0.0000E+00  0.5569E+02
     25.852  0.0000E+00  0.5651E+02
     26.197  0.0000E+00  0.5742E+02
     26.541  0.0000E+00  0.5756E+02
     26.886  0.1074E+00  0.5781E+02
     27.231  0.0000E+00  0.5886E+02
     27.576  0.0000E+00  0.5977E+02
     27.921  0.0000E+00  0.6035E+02
     28.266  0.0000E+00  0.6094E+02
     28.610  0.0000E+00  0.6191E+02
     28.955  0.0000E+00  0.6224E+02
     29.300  0.0000E+00  0.6259E+02
     29.645  0.0000E+00  0.6362E+02
     29.990  0.2685E-01  0.6460E+02
     30.334  0.0000E+00  0.6505E+02
     30.679  0.0000E+00  0.6578E+02
     31.024  0.0000E+00  0.6660E+02
     31.369  0.0000E+00  0.6712E+02
     31.714  0.0000E+00  0.6876E+02
     32.059  0.0000E+00  0.6981E+02
     32.403  0.0000E+00  0.7052E+02
     32.748  0.3639E+00  0.7165E+02
     33.093  0.0000E+00  0.7275E+02
     33.438  0.0000E+00  0.7325E+02
     33.783  0.9300E-01  0.7401E+02
     34.128  0.0000E+00  0.7444E+02
     34.472  0.0000E+00  0.7567E+02
     34.817  0.0000E+00  0.7602E+02
     35.162  0.0000E+00  0.7787E+02
     35.507  0.0000E+00  0.7861E+02
     35.852  0.3222E+00  0.7996E+02
     36.196  0.0000E+00  0.8035E+02
     36.541  0.0000E+00  0.8142E+02
     36.886  0.0000E+00  0.8307E+02
     37.231  0.0000E+00  0.8330E+02
     37.576  0.0000E+00  0.8421E+02
     37.921  0.0000E+00  0.8482E+02
     38.265  0.0000E+00  0.8573E+02
     38.610  0.0000E+00  0.8607E+02
     38.955  0.1356E-08  0.8670E+02
     39.300  0.6445E+00  0.8809E+02
     39.645  0.1343E+00  0.8894E+02
     39.989  0.0000E+00  0.8965E+02
     40.334  0.1959E-12  0.9054E+02
     40.679  0.0000E+00  0.9111E+02
     41.024  0.8760E-01  0.9229E+02
     41.369  0.0000E+00  0.9356E+02
     41.714  0.9822E-08  0.9458E+02
     42.058  0.0000E+00  0.9551E+02
     42.403  0.0000E+00  0.9627E+02
     42.748  0.0000E+00  0.9735E+02
     43.093  0.2148E+00  0.9834E+02
     43.438  0.0000E+00  0.9906E+02
     43.782  0.0000E+00  0.1000E+03
     44.127  0.5370E-01  0.1008E+03
     44.472  0.0000E+00  0.1017E+03
     44.817  0.0000E+00  0.1026E+03
     45.162  0.0000E+00  0.1037E+03
     45.507  0.6445E+00  0.1049E+03
     45.851  0.0000E+00  0.1058E+03
     46.196  0.8056E-01  0.1068E+03
     46.541  0.0000E+00  0.1079E+03
     46.886  0.0000E+00  0.1087E+03
     47.231  0.0000E+00  0.1101E+03
     47.575  0.8652E-01  0.1109E+03
     47.920  0.0000E+00  0.1116E+03
     48.265  0.0000E+00  0.1128E+03
     48.610  0.0000E+00  0.1135E+03
     48.955  0.0000E+00  0.1144E+03
     49.300  0.8056E-01  0.1158E+03
     49.644  0.0000E+00  0.1167E+03
     49.989  0.0000E+00  0.1175E+03
     50.334  0.0000E+00  0.1189E+03
     50.679  0.0000E+00  0.1193E+03
     51.024  0.0000E+00  0.1206E+03
     51.368  0.0000E+00  0.1219E+03
     51.713  0.6110E+00  0.1234E+03
     52.058  0.0000E+00  0.1248E+03
     52.403  0.8652E-01  0.1255E+03
     52.748  0.0000E+00  0.1262E+03
     53.093  0.6443E+00  0.1270E+03
     53.437  0.0000E+00  0.1273E+03
     53.782  0.0000E+00  0.1280E+03
     54.127  0.0000E+00  0.1280E+03
     54.472  0.0000E+00  0.1280E+03
     54.817  0.0000E+00  0.1280E+03
     55.161  0.0000E+00  0.1280E+03
     55.506  0.0000E+00  0.1280E+03
     55.851  0.0000E+00  0.1280E+03
     56.196  0.0000E+00  0.1280E+03
     56.541  0.0000E+00  0.1280E+03
     56.886  0.0000E+00  0.1280E+03
     57.230  0.0000E+00  0.1280E+03
     57.575  0.0000E+00  0.1280E+03
     57.920  0.0000E+00  0.1280E+03
     58.265  0.0000E+00  0.1280E+03
