   1   1   0   0
  0.6532254E+02  0.4520565E-09  0.4520565E-09  0.4520565E-09  0.1000000E-15
  1.000000000000000E-004
  CAR 
 Og_FCC                                  
     53.22493902    -56.48738841  301     -3.36833655      1.00000000
    -56.487  0.0000E+00  0.0000E+00
    -56.122  0.0000E+00  0.0000E+00
    -55.756  0.0000E+00  0.0000E+00
    -55.390  0.0000E+00  0.0000E+00
    -55.025  0.0000E+00  0.0000E+00
    -54.659  0.0000E+00  0.0000E+00
    -54.293  0.0000E+00  0.0000E+00
    -53.927  0.0000E+00  0.0000E+00
    -53.562  0.0000E+00  0.0000E+00
    -53.196  0.0000E+00  0.0000E+00
    -52.830  0.0000E+00  0.0000E+00
    -52.465  0.0000E+00  0.0000E+00
    -52.099  0.0000E+00  0.0000E+00
    -51.733  0.0000E+00  0.0000E+00
    -51.367  0.0000E+00  0.4000E+01
    -51.002  0.0000E+00  0.4000E+01
    -50.636  0.0000E+00  0.4000E+01
    -50.270  0.0000E+00  0.4000E+01
    -49.905  0.0000E+00  0.4000E+01
    -49.539  0.0000E+00  0.4000E+01
    -49.173  0.0000E+00  0.4000E+01
    -48.808  0.0000E+00  0.4000E+01
    -48.442  0.0000E+00  0.4000E+01
    -48.076  0.0000E+00  0.4000E+01
    -47.710  0.0000E+00  0.4000E+01
    -47.345  0.0000E+00  0.4000E+01
    -46.979  0.0000E+00  0.4000E+01
    -46.613  0.0000E+00  0.4000E+01
    -46.248  0.0000E+00  0.1000E+02
    -45.882  0.0000E+00  0.1000E+02
    -45.516  0.0000E+00  0.1000E+02
    -45.150  0.0000E+00  0.1000E+02
    -44.785  0.0000E+00  0.1000E+02
    -44.419  0.0000E+00  0.1000E+02
    -44.053  0.0000E+00  0.1000E+02
    -43.688  0.0000E+00  0.1000E+02
    -43.322  0.0000E+00  0.1000E+02
    -42.956  0.0000E+00  0.1000E+02
    -42.590  0.0000E+00  0.1000E+02
    -42.225  0.0000E+00  0.1000E+02
    -41.859  0.0000E+00  0.1000E+02
    -41.493  0.0000E+00  0.1000E+02
    -41.128  0.0000E+00  0.1000E+02
    -40.762  0.0000E+00  0.1000E+02
    -40.396  0.0000E+00  0.1000E+02
    -40.031  0.0000E+00  0.1000E+02
    -39.665  0.0000E+00  0.1000E+02
    -39.299  0.0000E+00  0.1000E+02
    -38.933  0.0000E+00  0.1000E+02
    -38.568  0.0000E+00  0.1000E+02
    -38.202  0.0000E+00  0.1000E+02
    -37.836  0.0000E+00  0.1000E+02
    -37.471  0.0000E+00  0.1000E+02
    -37.105  0.0000E+00  0.1000E+02
    -36.739  0.0000E+00  0.1000E+02
    -36.373  0.0000E+00  0.1000E+02
    -36.008  0.0000E+00  0.1000E+02
    -35.642  0.0000E+00  0.1000E+02
    -35.276  0.0000E+00  0.1000E+02
    -34.911  0.0000E+00  0.1000E+02
    -34.545  0.0000E+00  0.1000E+02
    -34.179  0.0000E+00  0.1000E+02
    -33.814  0.0000E+00  0.1000E+02
    -33.448  0.0000E+00  0.1000E+02
    -33.082  0.0000E+00  0.1000E+02
    -32.716  0.0000E+00  0.1000E+02
    -32.351  0.0000E+00  0.1000E+02
    -31.985  0.0000E+00  0.1000E+02
    -31.619  0.0000E+00  0.1000E+02
    -31.254  0.0000E+00  0.1000E+02
    -30.888  0.0000E+00  0.1000E+02
    -30.522  0.0000E+00  0.1000E+02
    -30.156  0.0000E+00  0.1000E+02
    -29.791  0.0000E+00  0.1000E+02
    -29.425  0.0000E+00  0.1000E+02
    -29.059  0.0000E+00  0.1000E+02
    -28.694  0.0000E+00  0.1000E+02
    -28.328  0.0000E+00  0.1000E+02
    -27.962  0.0000E+00  0.1000E+02
    -27.596  0.0000E+00  0.1000E+02
    -27.231  0.0000E+00  0.1000E+02
    -26.865  0.0000E+00  0.1000E+02
    -26.499  0.0000E+00  0.1000E+02
    -26.134  0.0000E+00  0.1000E+02
    -25.768  0.0000E+00  0.1000E+02
    -25.402  0.0000E+00  0.1000E+02
    -25.037  0.0000E+00  0.1000E+02
    -24.671  0.0000E+00  0.1000E+02
    -24.305  0.0000E+00  0.1000E+02
    -23.939  0.0000E+00  0.1000E+02
    -23.574  0.0000E+00  0.1000E+02
    -23.208  0.0000E+00  0.1000E+02
    -22.842  0.0000E+00  0.1000E+02
    -22.477  0.0000E+00  0.1000E+02
    -22.111  0.0000E+00  0.1000E+02
    -21.745  0.0000E+00  0.1000E+02
    -21.379  0.0000E+00  0.1000E+02
    -21.014  0.0000E+00  0.1000E+02
    -20.648  0.0000E+00  0.1000E+02
    -20.282  0.2025E+00  0.1008E+02
    -19.917  0.0000E+00  0.1200E+02
    -19.551  0.0000E+00  0.1200E+02
    -19.185  0.0000E+00  0.1200E+02
    -18.819  0.0000E+00  0.1200E+02
    -18.454  0.0000E+00  0.1200E+02
    -18.088  0.0000E+00  0.1200E+02
    -17.722  0.0000E+00  0.1200E+02
    -17.357  0.0000E+00  0.1200E+02
    -16.991  0.0000E+00  0.1200E+02
    -16.625  0.0000E+00  0.1200E+02
    -16.260  0.0000E+00  0.1200E+02
    -15.894  0.0000E+00  0.1200E+02
    -15.528  0.0000E+00  0.1200E+02
    -15.162  0.0000E+00  0.1200E+02
    -14.797  0.0000E+00  0.1200E+02
    -14.431  0.0000E+00  0.1200E+02
    -14.065  0.0000E+00  0.1200E+02
    -13.700  0.0000E+00  0.1200E+02
    -13.334  0.0000E+00  0.1200E+02
    -12.968  0.0000E+00  0.1200E+02
    -12.602  0.0000E+00  0.1200E+02
    -12.237  0.0000E+00  0.1200E+02
    -11.871  0.0000E+00  0.1200E+02
    -11.505  0.0000E+00  0.1200E+02
    -11.140  0.0000E+00  0.1200E+02
    -10.774  0.0000E+00  0.1200E+02
    -10.408  0.0000E+00  0.1200E+02
    -10.043  0.0000E+00  0.1200E+02
     -9.677  0.0000E+00  0.1200E+02
     -9.311  0.0000E+00  0.1200E+02
     -8.945  0.0000E+00  0.1200E+02
     -8.580  0.0000E+00  0.1200E+02
     -8.214  0.0000E+00  0.1200E+02
     -7.848  0.6076E+00  0.1375E+02
     -7.483  0.0000E+00  0.1399E+02
     -7.117  0.0000E+00  0.1400E+02
     -6.751  0.0000E+00  0.1400E+02
     -6.385  0.0000E+00  0.1400E+02
     -6.020  0.0000E+00  0.1400E+02
     -5.654  0.0000E+00  0.1400E+02
     -5.288  0.0000E+00  0.1492E+02
     -4.923  0.0000E+00  0.1553E+02
     -4.557  0.1234E-02  0.1653E+02
     -4.191  0.6008E+00  0.1740E+02
     -3.825  0.0000E+00  0.1791E+02
     -3.460  0.0000E+00  0.1800E+02
     -3.094  0.0000E+00  0.1800E+02
     -2.728  0.0000E+00  0.1800E+02
     -2.363  0.0000E+00  0.1800E+02
     -1.997  0.0000E+00  0.1800E+02
     -1.631  0.0000E+00  0.1800E+02
     -1.266  0.0000E+00  0.1800E+02
     -0.900  0.0000E+00  0.1800E+02
     -0.534  0.0000E+00  0.1800E+02
     -0.168  0.0000E+00  0.1800E+02
      0.197  0.0000E+00  0.1800E+02
      0.563  0.0000E+00  0.1800E+02
      0.929  0.0000E+00  0.1800E+02
      1.294  0.0000E+00  0.1800E+02
      1.660  0.0000E+00  0.1800E+02
      2.026  0.0000E+00  0.1800E+02
      2.392  0.0000E+00  0.1800E+02
      2.757  0.0000E+00  0.1800E+02
      3.123  0.0000E+00  0.1800E+02
      3.489  0.0000E+00  0.1801E+02
      3.854  0.0000E+00  0.1801E+02
      4.220  0.0000E+00  0.1808E+02
      4.586  0.0000E+00  0.1814E+02
      4.952  0.0000E+00  0.1814E+02
      5.317  0.0000E+00  0.1835E+02
      5.683  0.0000E+00  0.1889E+02
      6.049  0.0000E+00  0.1922E+02
      6.414  0.0000E+00  0.1981E+02
      6.780  0.0000E+00  0.2008E+02
      7.146  0.0000E+00  0.2031E+02
      7.511  0.0000E+00  0.2108E+02
      7.877  0.0000E+00  0.2192E+02
      8.243  0.0000E+00  0.2203E+02
      8.609  0.0000E+00  0.2251E+02
      8.974  0.9114E+00  0.2345E+02
      9.340  0.6060E+00  0.2418E+02
      9.706  0.0000E+00  0.2461E+02
     10.071  0.0000E+00  0.2550E+02
     10.437  0.0000E+00  0.2586E+02
     10.803  0.0000E+00  0.2594E+02
     11.169  0.0000E+00  0.2674E+02
     11.534  0.0000E+00  0.2709E+02
     11.900  0.0000E+00  0.2783E+02
     12.266  0.0000E+00  0.2837E+02
     12.631  0.0000E+00  0.2868E+02
     12.997  0.0000E+00  0.2959E+02
     13.363  0.1519E+00  0.3025E+02
     13.729  0.0000E+00  0.3058E+02
     14.094  0.0000E+00  0.3112E+02
     14.460  0.0000E+00  0.3145E+02
     14.826  0.3038E+00  0.3208E+02
     15.191  0.2185E-03  0.3359E+02
     15.557  0.0000E+00  0.3454E+02
     15.923  0.1184E-11  0.3509E+02
     16.288  0.0000E+00  0.3547E+02
     16.654  0.0000E+00  0.3575E+02
     17.020  0.0000E+00  0.3623E+02
     17.386  0.4726E+00  0.3709E+02
     17.751  0.0000E+00  0.3821E+02
     18.117  0.3038E+00  0.3981E+02
     18.483  0.0000E+00  0.4081E+02
     18.848  0.0000E+00  0.4233E+02
     19.214  0.0000E+00  0.4336E+02
     19.580  0.1318E-01  0.4446E+02
     19.946  0.0000E+00  0.4593E+02
     20.311  0.1519E+00  0.4756E+02
     20.677  0.0000E+00  0.4895E+02
     21.043  0.0000E+00  0.5073E+02
     21.408  0.4558E+00  0.5290E+02
     21.774  0.0000E+00  0.5444E+02
     22.140  0.7364E-02  0.5638E+02
     22.505  0.0000E+00  0.5750E+02
     22.871  0.0000E+00  0.5798E+02
     23.237  0.0000E+00  0.5855E+02
     23.603  0.0000E+00  0.5961E+02
     23.968  0.6076E+00  0.6031E+02
     24.334  0.0000E+00  0.6132E+02
     24.700  0.0000E+00  0.6171E+02
     25.065  0.0000E+00  0.6318E+02
     25.431  0.0000E+00  0.6382E+02
     25.797  0.0000E+00  0.6480E+02
     26.163  0.0000E+00  0.6594E+02
     26.528  0.0000E+00  0.6669E+02
     26.894  0.0000E+00  0.6809E+02
     27.260  0.6013E+00  0.7021E+02
     27.625  0.3038E+00  0.7121E+02
     27.991  0.0000E+00  0.7174E+02
     28.357  0.0000E+00  0.7241E+02
     28.723  0.0000E+00  0.7296E+02
     29.088  0.0000E+00  0.7352E+02
     29.454  0.0000E+00  0.7457E+02
     29.820  0.1519E+00  0.7515E+02
     30.185  0.6682E-01  0.7702E+02
     30.551  0.2572E-15  0.7800E+02
     30.917  0.0000E+00  0.7931E+02
     31.282  0.0000E+00  0.8054E+02
     31.648  0.0000E+00  0.8151E+02
     32.014  0.1519E+00  0.8294E+02
     32.380  0.3309E-12  0.8321E+02
     32.745  0.0000E+00  0.8451E+02
     33.111  0.1069E-02  0.8550E+02
     33.477  0.1519E+00  0.8669E+02
     33.842  0.0000E+00  0.8739E+02
     34.208  0.0000E+00  0.8807E+02
     34.574  0.0000E+00  0.8915E+02
     34.940  0.0000E+00  0.8994E+02
     35.305  0.0000E+00  0.9075E+02
     35.671  0.0000E+00  0.9154E+02
     36.037  0.0000E+00  0.9293E+02
     36.402  0.0000E+00  0.9409E+02
     36.768  0.2552E-09  0.9559E+02
     37.134  0.0000E+00  0.9637E+02
     37.500  0.0000E+00  0.9765E+02
     37.865  0.1013E+00  0.9830E+02
     38.231  0.0000E+00  0.9918E+02
     38.597  0.0000E+00  0.1008E+03
     38.962  0.0000E+00  0.1019E+03
     39.328  0.0000E+00  0.1031E+03
     39.694  0.0000E+00  0.1043E+03
     40.059  0.0000E+00  0.1055E+03
     40.425  0.4138E-01  0.1066E+03
     40.791  0.5989E-06  0.1081E+03
     41.157  0.1013E+00  0.1088E+03
     41.522  0.1013E+00  0.1093E+03
     41.888  0.0000E+00  0.1106E+03
     42.254  0.0000E+00  0.1121E+03
     42.619  0.0000E+00  0.1135E+03
     42.985  0.1367E+00  0.1145E+03
     43.351  0.0000E+00  0.1159E+03
     43.717  0.0000E+00  0.1170E+03
     44.082  0.0000E+00  0.1184E+03
     44.448  0.0000E+00  0.1194E+03
     44.814  0.0000E+00  0.1203E+03
     45.179  0.0000E+00  0.1209E+03
     45.545  0.6076E+00  0.1218E+03
     45.911  0.3492E-09  0.1226E+03
     46.276  0.0000E+00  0.1235E+03
     46.642  0.6064E+00  0.1248E+03
     47.008  0.0000E+00  0.1263E+03
     47.374  0.0000E+00  0.1272E+03
     47.739  0.0000E+00  0.1277E+03
     48.105  0.0000E+00  0.1280E+03
     48.471  0.0000E+00  0.1280E+03
     48.836  0.0000E+00  0.1280E+03
     49.202  0.0000E+00  0.1280E+03
     49.568  0.0000E+00  0.1280E+03
     49.934  0.0000E+00  0.1280E+03
     50.299  0.0000E+00  0.1280E+03
     50.665  0.0000E+00  0.1280E+03
     51.031  0.0000E+00  0.1280E+03
     51.396  0.0000E+00  0.1280E+03
     51.762  0.0000E+00  0.1280E+03
     52.128  0.0000E+00  0.1280E+03
     52.494  0.0000E+00  0.1280E+03
     52.859  0.0000E+00  0.1280E+03
     53.225  0.0000E+00  0.1280E+03
