    1    1    1    1
  0.6532254E+02  0.4520565E-09  0.4520565E-09  0.4520565E-09  0.1000000E-15
  1.000000000000000E-004
  CAR 
 Og_FCC                                  
     18    216    128
 
  0.0000000E+00  0.0000000E+00  0.0000000E+00  0.4629630E-02
    1      -51.499484   1.000000
    2      -51.499483   1.000000
    3      -51.496841   1.000000
    4      -51.496840   1.000000
    5      -46.528288   1.000000
    6      -46.528287   1.000000
    7      -46.526422   1.000000
    8      -46.526421   1.000000
    9      -46.522065   1.000000
   10      -46.522063   1.000000
   11      -20.331782   1.000000
   12      -20.331782   1.000000
   13       -7.343000   1.000000
   14       -7.343000   1.000000
   15       -3.609894   1.000000
   16       -3.609894   1.000000
   17       -3.609560   1.000000
   18       -3.609560   1.000000
   19        3.312311   0.000000
   20        3.312312   0.000000
   21        9.191894   0.000000
   22        9.191895   0.000000
   23        9.192200   0.000000
   24        9.192200   0.000000
   25        9.262111   0.000000
   26        9.262111   0.000000
   27       10.733854   0.000000
   28       10.733854   0.000000
   29       11.980788   0.000000
   30       11.980788   0.000000
   31       11.980802   0.000000
   32       11.980803   0.000000
   33       12.857156   0.000000
   34       12.857156   0.000000
   35       13.039473   0.000000
   36       13.039473   0.000000
   37       13.039475   0.000000
   38       13.039475   0.000000
   39       14.617023   0.000000
   40       14.617023   0.000000
   41       22.225323   0.000000
   42       22.225323   0.000000
   43       22.243552   0.000000
   44       22.243552   0.000000
   45       22.243650   0.000000
   46       22.243650   0.000000
   47       23.549188   0.000000
   48       23.549188   0.000000
   49       22.070279   0.000000
   50       22.070279   0.000000
   51       22.070280   0.000000
   52       22.070280   0.000000
   53       23.022351   0.000000
   54       23.022352   0.000000
   55       24.188646   0.000000
   56       24.188646   0.000000
   57       24.188646   0.000000
   58       24.188646   0.000000
   59       24.349670   0.000000
   60       24.349670   0.000000
   61       24.541470   0.000000
   62       24.541470   0.000000
   63       25.180066   0.000000
   64       25.180066   0.000000
   65       25.180066   0.000000
   66       25.180066   0.000000
   67       25.328040   0.000000
   68       25.328040   0.000000
   69       25.328040   0.000000
   70       25.328040   0.000000
   71       26.737159   0.000000
   72       26.737160   0.000000
   73       32.773587   0.000000
   74       32.773587   0.000000
   75       32.802982   0.000000
   76       32.802982   0.000000
   77       32.802982   0.000000
   78       32.802982   0.000000
   79       34.526085   0.000000
   80       34.526085   0.000000
   81       34.526085   0.000000
   82       34.526085   0.000000
   83       34.741054   0.000000
   84       34.741054   0.000000
   85       35.327652   0.000000
   86       35.327653   0.000000
   87       35.327653   0.000000
   88       35.327653   0.000000
   89       35.327653   0.000000
   90       35.327653   0.000000
   91       35.765684   0.000000
   92       35.765684   0.000000
   93       35.765684   0.000000
   94       35.765685   0.000000
   95       35.948591   0.000000
   96       35.948591   0.000000
   97       36.161442   0.000000
   98       36.161442   0.000000
   99       36.161443   0.000000
  100       36.161443   0.000000
  101       38.113600   0.000000
  102       38.113600   0.000000
  103       38.113601   0.000000
  104       38.113601   0.000000
  105       38.141741   0.000000
  106       38.141742   0.000000
  107       38.509686   0.000000
  108       38.509689   0.000000
  109       38.833301   0.000000
  110       38.833302   0.000000
  111       38.833302   0.000000
  112       38.833302   0.000000
  113       40.828135   0.000000
  114       40.828136   0.000000
  115       40.842470   0.000000
  116       40.842470   0.000000
  117       40.842471   0.000000
  118       40.842471   0.000000
  119       41.086593   0.000000
  120       41.086594   0.000000
  121       41.802753   0.000000
  122       41.802755   0.000000
  123       42.122008   0.000000
  124       42.122008   0.000000
  125       42.122008   0.000000
  126       42.122008   0.000000
  127       42.137277   0.000000
  128       42.137277   0.000000
 
  0.1666667E+00  0.1538294E-16  0.2081668E-16  0.4629630E-02
    1      -51.500058   1.000000
    2      -51.500052   1.000000
    3      -51.497036   1.000000
    4      -51.497021   1.000000
    5      -46.528889   1.000000
    6      -46.528883   1.000000
    7      -46.526977   1.000000
    8      -46.526971   1.000000
    9      -46.522570   1.000000
   10      -46.522562   1.000000
   11      -20.289079   1.000000
   12      -20.289079   1.000000
   13       -7.514140   1.000000
   14       -7.514139   1.000000
   15       -4.200173   1.000000
   16       -4.200172   1.000000
   17       -3.696452   1.000000
   18       -3.696446   1.000000
   19        4.206123   0.000000
   20        4.206124   0.000000
   21        8.309027   0.000000
   22        8.309028   0.000000
   23        9.399594   0.000000
   24        9.399711   0.000000
   25        9.453518   0.000000
   26        9.453518   0.000000
   27       11.016495   0.000000
   28       11.016497   0.000000
   29       11.069907   0.000000
   30       11.069992   0.000000
   31       11.452468   0.000000
   32       11.452468   0.000000
   33       12.919767   0.000000
   34       12.919768   0.000000
   35       14.873105   0.000000
   36       14.873105   0.000000
   37       14.961908   0.000000
   38       14.961939   0.000000
   39       16.709167   0.000000
   40       16.709167   0.000000
   41       20.389183   0.000000
   42       20.389183   0.000000
   43       20.687180   0.000000
   44       20.687225   0.000000
   45       21.233799   0.000000
   46       21.233800   0.000000
   47       22.331018   0.000000
   48       22.331018   0.000000
   49       20.784877   0.000000
   50       20.784877   0.000000
   51       21.440939   0.000000
   52       21.440939   0.000000
   53       22.636530   0.000000
   54       22.636530   0.000000
   55       23.542056   0.000000
   56       23.542056   0.000000
   57       23.585829   0.000000
   58       23.585829   0.000000
   59       23.661794   0.000000
   60       23.661794   0.000000
   61       24.876828   0.000000
   62       24.876828   0.000000
   63       25.099062   0.000000
   64       25.099062   0.000000
   65       25.786905   0.000000
   66       25.786905   0.000000
   67       26.378129   0.000000
   68       26.378129   0.000000
   69       27.026416   0.000000
   70       27.026416   0.000000
   71       29.660378   0.000000
   72       29.660379   0.000000
   73       31.424727   0.000000
   74       31.424727   0.000000
   75       31.598232   0.000000
   76       31.598232   0.000000
   77       31.723197   0.000000
   78       31.723197   0.000000
   79       31.769220   0.000000
   80       31.769220   0.000000
   81       32.624041   0.000000
   82       32.624041   0.000000
   83       32.831827   0.000000
   84       32.831827   0.000000
   85       34.618202   0.000000
   86       34.618202   0.000000
   87       34.782600   0.000000
   88       34.782600   0.000000
   89       35.236969   0.000000
   90       35.236970   0.000000
   91       35.448897   0.000000
   92       35.448897   0.000000
   93       35.511973   0.000000
   94       35.511973   0.000000
   95       36.104772   0.000000
   96       36.104772   0.000000
   97       36.178503   0.000000
   98       36.178503   0.000000
   99       36.474023   0.000000
  100       36.474024   0.000000
  101       36.576993   0.000000
  102       36.576993   0.000000
  103       38.184905   0.000000
  104       38.184906   0.000000
  105       38.327348   0.000000
  106       38.327349   0.000000
  107       38.729207   0.000000
  108       38.729207   0.000000
  109       39.842231   0.000000
  110       39.842232   0.000000
  111       40.042607   0.000000
  112       40.042607   0.000000
  113       40.043071   0.000000
  114       40.043071   0.000000
  115       41.952518   0.000000
  116       41.952518   0.000000
  117       42.027422   0.000000
  118       42.027423   0.000000
  119       42.753600   0.000000
  120       42.753602   0.000000
  121       43.207708   0.000000
  122       43.207708   0.000000
  123       43.485528   0.000000
  124       43.485529   0.000000
  125       43.751431   0.000000
  126       43.751431   0.000000
  127       43.802973   0.000000
  128       43.802973   0.000000
 
  0.3333333E+00  0.5852146E-16  0.1387779E-16  0.4629630E-02
    1      -51.499747   1.000000
    2      -51.499740   1.000000
    3      -51.496539   1.000000
    4      -51.496522   1.000000
    5      -46.528007   1.000000
    6      -46.527998   1.000000
    7      -46.526163   1.000000
    8      -46.526153   1.000000
    9      -46.521697   1.000000
   10      -46.521685   1.000000
   11      -20.198144   1.000000
   12      -20.198143   1.000000
   13       -7.910671   1.000000
   14       -7.910670   1.000000
   15       -4.987803   1.000000
   16       -4.987803   1.000000
   17       -3.860599   1.000000
   18       -3.860587   1.000000
   19        5.230553   0.000000
   20        5.230554   0.000000
   21        8.405061   0.000000
   22        8.405061   0.000000
   23        9.025830   0.000000
   24        9.026050   0.000000
   25        9.091707   0.000000
   26        9.091707   0.000000
   27       10.660779   0.000000
   28       10.660779   0.000000
   29       11.887045   0.000000
   30       11.887046   0.000000
   31       12.000123   0.000000
   32       12.000273   0.000000
   33       16.075936   0.000000
   34       16.075936   0.000000
   35       16.878930   0.000000
   36       16.878932   0.000000
   37       17.374807   0.000000
   38       17.374895   0.000000
   39       17.384607   0.000000
   40       17.384608   0.000000
   41       17.825162   0.000000
   42       17.825163   0.000000
   43       17.917550   0.000000
   44       17.917591   0.000000
   45       20.399063   0.000000
   46       20.399063   0.000000
   47       22.530520   0.000000
   48       22.530521   0.000000
   49       20.547912   0.000000
   50       20.547912   0.000000
   51       21.141483   0.000000
   52       21.141483   0.000000
   53       21.489312   0.000000
   54       21.489313   0.000000
   55       22.379191   0.000000
   56       22.379191   0.000000
   57       22.727040   0.000000
   58       22.727040   0.000000
   59       23.534299   0.000000
   60       23.534299   0.000000
   61       25.208564   0.000000
   62       25.208564   0.000000
   63       25.346398   0.000000
   64       25.346398   0.000000
   65       25.707498   0.000000
   66       25.707499   0.000000
   67       26.663300   0.000000
   68       26.663300   0.000000
   69       26.938517   0.000000
   70       26.938517   0.000000
   71       27.401125   0.000000
   72       27.401125   0.000000
   73       30.034743   0.000000
   74       30.034744   0.000000
   75       30.087590   0.000000
   76       30.087590   0.000000
   77       30.185661   0.000000
   78       30.185662   0.000000
   79       30.233700   0.000000
   80       30.233700   0.000000
   81       31.126700   0.000000
   82       31.126700   0.000000
   83       31.399248   0.000000
   84       31.399248   0.000000
   85       34.246902   0.000000
   86       34.246903   0.000000
   87       34.286808   0.000000
   88       34.286808   0.000000
   89       34.418278   0.000000
   90       34.418278   0.000000
   91       34.989498   0.000000
   92       34.989498   0.000000
   93       35.100340   0.000000
   94       35.100340   0.000000
   95       36.688579   0.000000
   96       36.688580   0.000000
   97       37.166493   0.000000
   98       37.166493   0.000000
   99       37.219745   0.000000
  100       37.219746   0.000000
  101       37.554200   0.000000
  102       37.554200   0.000000
  103       38.417002   0.000000
  104       38.417002   0.000000
  105       39.640213   0.000000
  106       39.640213   0.000000
  107       39.793493   0.000000
  108       39.793493   0.000000
  109       40.452592   0.000000
  110       40.452594   0.000000
  111       41.387648   0.000000
  112       41.387648   0.000000
  113       41.511632   0.000000
  114       41.511632   0.000000
  115       43.551635   0.000000
  116       43.551635   0.000000
  117       45.258262   0.000000
  118       45.258263   0.000000
  119       45.398661   0.000000
  120       45.398661   0.000000
  121       45.790194   0.000000
  122       45.790195   0.000000
  123       45.802290   0.000000
  124       45.802290   0.000000
  125       45.839250   0.000000
  126       45.839250   0.000000
  127       46.485976   0.000000
  128       46.485977   0.000000
 
  0.5000000E+00  0.6002661E-16  0.0000000E+00  0.4629630E-02
    1      -51.500094   1.000000
    2      -51.500091   1.000000
    3      -51.495812   1.000000
    4      -51.495808   1.000000
    5      -46.527850   1.000000
    6      -46.527838   1.000000
    7      -46.525831   1.000000
    8      -46.525820   1.000000
    9      -46.521318   1.000000
   10      -46.521308   1.000000
   11      -20.151438   1.000000
   12      -20.151438   1.000000
   13       -8.127583   1.000000
   14       -8.127582   1.000000
   15       -5.265947   1.000000
   16       -5.265947   1.000000
   17       -3.937958   1.000000
   18       -3.937944   1.000000
   19        5.338643   0.000000
   20        5.338644   0.000000
   21        8.743511   0.000000
   22        8.743729   0.000000
   23        8.804885   0.000000
   24        8.804889   0.000000
   25        8.911504   0.000000
   26        8.911505   0.000000
   27       11.047439   0.000000
   28       11.047440   0.000000
   29       14.084170   0.000000
   30       14.084171   0.000000
   31       14.259927   0.000000
   32       14.259927   0.000000
   33       14.327328   0.000000
   34       14.327335   0.000000
   35       14.356263   0.000000
   36       14.356494   0.000000
   37       14.811281   0.000000
   38       14.811281   0.000000
   39       19.382881   0.000000
   40       19.382882   0.000000
   41       20.121401   0.000000
   42       20.121401   0.000000
   43       20.201734   0.000000
   44       20.201766   0.000000
   45       21.253439   0.000000
   46       21.253440   0.000000
   47       22.637527   0.000000
   48       22.637528   0.000000
   49       20.632099   0.000000
   50       20.632100   0.000000
   51       20.834474   0.000000
   52       20.834474   0.000000
   53       20.890182   0.000000
   54       20.890182   0.000000
   55       21.237864   0.000000
   56       21.237865   0.000000
   57       22.084721   0.000000
   58       22.084721   0.000000
   59       23.843082   0.000000
   60       23.843082   0.000000
   61       24.492150   0.000000
   62       24.492151   0.000000
   63       25.456837   0.000000
   64       25.456837   0.000000
   65       25.683613   0.000000
   66       25.683613   0.000000
   67       25.963702   0.000000
   68       25.963702   0.000000
   69       26.317544   0.000000
   70       26.317544   0.000000
   71       26.875512   0.000000
   72       26.875512   0.000000
   73       27.479225   0.000000
   74       27.479226   0.000000
   75       29.620133   0.000000
   76       29.620134   0.000000
   77       29.672328   0.000000
   78       29.672328   0.000000
   79       29.717702   0.000000
   80       29.717703   0.000000
   81       30.786728   0.000000
   82       30.786728   0.000000
   83       31.109906   0.000000
   84       31.109906   0.000000
   85       34.046256   0.000000
   86       34.046256   0.000000
   87       34.119817   0.000000
   88       34.119818   0.000000
   89       34.580719   0.000000
   90       34.580720   0.000000
   91       34.826683   0.000000
   92       34.826683   0.000000
   93       34.980425   0.000000
   94       34.980425   0.000000
   95       37.200420   0.000000
   96       37.200420   0.000000
   97       37.337649   0.000000
   98       37.337650   0.000000
   99       37.778750   0.000000
  100       37.778750   0.000000
  101       37.859333   0.000000
  102       37.859333   0.000000
  103       41.152750   0.000000
  104       41.152750   0.000000
  105       41.187537   0.000000
  106       41.187537   0.000000
  107       41.514930   0.000000
  108       41.514931   0.000000
  109       42.034932   0.000000
  110       42.034932   0.000000
  111       42.659102   0.000000
  112       42.659102   0.000000
  113       43.491193   0.000000
  114       43.491193   0.000000
  115       43.573726   0.000000
  116       43.573726   0.000000
  117       44.721149   0.000000
  118       44.721149   0.000000
  119       44.870788   0.000000
  120       44.870788   0.000000
  121       45.031236   0.000000
  122       45.031236   0.000000
  123       46.702190   0.000000
  124       46.702190   0.000000
  125       46.738568   0.000000
  126       46.738568   0.000000
  127       48.238015   0.000000
  128       48.238015   0.000000
 
 -0.3333333E+00 -0.5852146E-16 -0.1387779E-16  0.4629630E-02
    1      -51.499495   1.000000
    2      -51.499490   1.000000
    3      -51.496181   1.000000
    4      -51.496162   1.000000
    5      -46.527865   1.000000
    6      -46.527853   1.000000
    7      -46.525897   1.000000
    8      -46.525892   1.000000
    9      -46.521378   1.000000
   10      -46.521368   1.000000
   11      -20.198115   1.000000
   12      -20.198112   1.000000
   13       -7.910593   1.000000
   14       -7.910593   1.000000
   15       -4.987741   1.000000
   16       -4.987741   1.000000
   17       -3.860546   1.000000
   18       -3.860535   1.000000
   19        5.230571   0.000000
   20        5.230573   0.000000
   21        8.405031   0.000000
   22        8.405031   0.000000
   23        9.025825   0.000000
   24        9.026042   0.000000
   25        9.091728   0.000000
   26        9.091728   0.000000
   27       10.660777   0.000000
   28       10.660777   0.000000
   29       11.887038   0.000000
   30       11.887038   0.000000
   31       12.000125   0.000000
   32       12.000278   0.000000
   33       16.075928   0.000000
   34       16.075929   0.000000
   35       16.879016   0.000000
   36       16.879018   0.000000
   37       17.374851   0.000000
   38       17.374941   0.000000
   39       17.384694   0.000000
   40       17.384697   0.000000
   41       17.825161   0.000000
   42       17.825161   0.000000
   43       17.917549   0.000000
   44       17.917590   0.000000
   45       20.399063   0.000000
   46       20.399064   0.000000
   47       22.530523   0.000000
   48       22.530523   0.000000
   49       20.547912   0.000000
   50       20.547912   0.000000
   51       21.141483   0.000000
   52       21.141483   0.000000
   53       21.489312   0.000000
   54       21.489313   0.000000
   55       22.379191   0.000000
   56       22.379191   0.000000
   57       22.727040   0.000000
   58       22.727040   0.000000
   59       23.534299   0.000000
   60       23.534299   0.000000
   61       25.208564   0.000000
   62       25.208564   0.000000
   63       25.346398   0.000000
   64       25.346398   0.000000
   65       25.707498   0.000000
   66       25.707499   0.000000
   67       26.663300   0.000000
   68       26.663300   0.000000
   69       26.938517   0.000000
   70       26.938517   0.000000
   71       27.401125   0.000000
   72       27.401125   0.000000
   73       30.034743   0.000000
   74       30.034744   0.000000
   75       30.087590   0.000000
   76       30.087590   0.000000
   77       30.185661   0.000000
   78       30.185662   0.000000
   79       30.233700   0.000000
   80       30.233700   0.000000
   81       31.126700   0.000000
   82       31.126700   0.000000
   83       31.399248   0.000000
   84       31.399248   0.000000
   85       34.246902   0.000000
   86       34.246903   0.000000
   87       34.286808   0.000000
   88       34.286808   0.000000
   89       34.418278   0.000000
   90       34.418278   0.000000
   91       34.989498   0.000000
   92       34.989498   0.000000
   93       35.100340   0.000000
   94       35.100340   0.000000
   95       36.688579   0.000000
   96       36.688580   0.000000
   97       37.166493   0.000000
   98       37.166493   0.000000
   99       37.219745   0.000000
  100       37.219746   0.000000
  101       37.554200   0.000000
  102       37.554200   0.000000
  103       38.417002   0.000000
  104       38.417002   0.000000
  105       39.640213   0.000000
  106       39.640213   0.000000
  107       39.793493   0.000000
  108       39.793493   0.000000
  109       40.452592   0.000000
  110       40.452594   0.000000
  111       41.387648   0.000000
  112       41.387648   0.000000
  113       41.511632   0.000000
  114       41.511632   0.000000
  115       43.551635   0.000000
  116       43.551635   0.000000
  117       45.258262   0.000000
  118       45.258263   0.000000
  119       45.398661   0.000000
  120       45.398661   0.000000
  121       45.790194   0.000000
  122       45.790195   0.000000
  123       45.802290   0.000000
  124       45.802290   0.000000
  125       45.839250   0.000000
  126       45.839250   0.000000
  127       46.485976   0.000000
  128       46.485977   0.000000
 
 -0.1666667E+00 -0.1538294E-16  0.1387779E-16  0.4629630E-02
    1      -51.499949   1.000000
    2      -51.499944   1.000000
    3      -51.496885   1.000000
    4      -51.496870   1.000000
    5      -46.528809   1.000000
    6      -46.528804   1.000000
    7      -46.526838   1.000000
    8      -46.526835   1.000000
    9      -46.522424   1.000000
   10      -46.522416   1.000000
   11      -20.289063   1.000000
   12      -20.289062   1.000000
   13       -7.514099   1.000000
   14       -7.514099   1.000000
   15       -4.200129   1.000000
   16       -4.200128   1.000000
   17       -3.696423   1.000000
   18       -3.696417   1.000000
   19        4.206122   0.000000
   20        4.206123   0.000000
   21        8.309001   0.000000
   22        8.309002   0.000000
   23        9.399594   0.000000
   24        9.399712   0.000000
   25        9.453521   0.000000
   26        9.453521   0.000000
   27       11.016507   0.000000
   28       11.016508   0.000000
   29       11.069922   0.000000
   30       11.070006   0.000000
   31       11.452468   0.000000
   32       11.452468   0.000000
   33       12.919767   0.000000
   34       12.919768   0.000000
   35       14.873099   0.000000
   36       14.873099   0.000000
   37       14.961903   0.000000
   38       14.961934   0.000000
   39       16.709170   0.000000
   40       16.709170   0.000000
   41       20.389222   0.000000
   42       20.389224   0.000000
   43       20.687190   0.000000
   44       20.687234   0.000000
   45       21.233872   0.000000
   46       21.233873   0.000000
   47       22.331020   0.000000
   48       22.331021   0.000000
   49       20.784877   0.000000
   50       20.784877   0.000000
   51       21.440939   0.000000
   52       21.440939   0.000000
   53       22.636530   0.000000
   54       22.636530   0.000000
   55       23.542056   0.000000
   56       23.542056   0.000000
   57       23.585829   0.000000
   58       23.585829   0.000000
   59       23.661794   0.000000
   60       23.661794   0.000000
   61       24.876828   0.000000
   62       24.876828   0.000000
   63       25.099062   0.000000
   64       25.099062   0.000000
   65       25.786905   0.000000
   66       25.786905   0.000000
   67       26.378129   0.000000
   68       26.378129   0.000000
   69       27.026416   0.000000
   70       27.026416   0.000000
   71       29.660378   0.000000
   72       29.660379   0.000000
   73       31.424727   0.000000
   74       31.424727   0.000000
   75       31.598232   0.000000
   76       31.598232   0.000000
   77       31.723197   0.000000
   78       31.723197   0.000000
   79       31.769220   0.000000
   80       31.769220   0.000000
   81       32.624041   0.000000
   82       32.624041   0.000000
   83       32.831827   0.000000
   84       32.831827   0.000000
   85       34.618202   0.000000
   86       34.618202   0.000000
   87       34.782600   0.000000
   88       34.782600   0.000000
   89       35.236969   0.000000
   90       35.236970   0.000000
   91       35.448897   0.000000
   92       35.448897   0.000000
   93       35.511973   0.000000
   94       35.511973   0.000000
   95       36.104772   0.000000
   96       36.104772   0.000000
   97       36.178503   0.000000
   98       36.178503   0.000000
   99       36.474023   0.000000
  100       36.474024   0.000000
  101       36.576993   0.000000
  102       36.576993   0.000000
  103       38.184905   0.000000
  104       38.184906   0.000000
  105       38.327348   0.000000
  106       38.327349   0.000000
  107       38.729207   0.000000
  108       38.729207   0.000000
  109       39.842231   0.000000
  110       39.842232   0.000000
  111       40.042607   0.000000
  112       40.042607   0.000000
  113       40.043071   0.000000
  114       40.043071   0.000000
  115       41.952518   0.000000
  116       41.952518   0.000000
  117       42.027422   0.000000
  118       42.027423   0.000000
  119       42.753600   0.000000
  120       42.753602   0.000000
  121       43.207708   0.000000
  122       43.207708   0.000000
  123       43.485528   0.000000
  124       43.485529   0.000000
  125       43.751431   0.000000
  126       43.751431   0.000000
  127       43.802973   0.000000
  128       43.802973   0.000000
 
  0.3851860E-33  0.1666667E+00  0.6938894E-17  0.4629630E-02
    1      -51.500065   1.000000
    2      -51.500058   1.000000
    3      -51.497036   1.000000
    4      -51.497020   1.000000
    5      -46.528890   1.000000
    6      -46.528883   1.000000
    7      -46.526975   1.000000
    8      -46.526971   1.000000
    9      -46.522571   1.000000
   10      -46.522565   1.000000
   11      -20.289083   1.000000
   12      -20.289083   1.000000
   13       -7.514140   1.000000
   14       -7.514139   1.000000
   15       -4.200173   1.000000
   16       -4.200172   1.000000
   17       -3.696452   1.000000
   18       -3.696446   1.000000
   19        4.206127   0.000000
   20        4.206129   0.000000
   21        8.309028   0.000000
   22        8.309028   0.000000
   23        9.399595   0.000000
   24        9.399711   0.000000
   25        9.453517   0.000000
   26        9.453517   0.000000
   27       11.016496   0.000000
   28       11.016497   0.000000
   29       11.069907   0.000000
   30       11.069993   0.000000
   31       11.452469   0.000000
   32       11.452469   0.000000
   33       12.919768   0.000000
   34       12.919768   0.000000
   35       14.873105   0.000000
   36       14.873106   0.000000
   37       14.961908   0.000000
   38       14.961939   0.000000
   39       16.709165   0.000000
   40       16.709165   0.000000
   41       20.389183   0.000000
   42       20.389184   0.000000
   43       20.687180   0.000000
   44       20.687225   0.000000
   45       21.233800   0.000000
   46       21.233801   0.000000
   47       22.331020   0.000000
   48       22.331020   0.000000
   49       20.784876   0.000000
   50       20.784877   0.000000
   51       21.440939   0.000000
   52       21.440939   0.000000
   53       22.636530   0.000000
   54       22.636530   0.000000
   55       23.542056   0.000000
   56       23.542056   0.000000
   57       23.585829   0.000000
   58       23.585829   0.000000
   59       23.661794   0.000000
   60       23.661794   0.000000
   61       24.876829   0.000000
   62       24.876829   0.000000
   63       25.099062   0.000000
   64       25.099063   0.000000
   65       25.786905   0.000000
   66       25.786905   0.000000
   67       26.378129   0.000000
   68       26.378129   0.000000
   69       27.026416   0.000000
   70       27.026416   0.000000
   71       29.660378   0.000000
   72       29.660379   0.000000
   73       31.424727   0.000000
   74       31.424727   0.000000
   75       31.598231   0.000000
   76       31.598232   0.000000
   77       31.723197   0.000000
   78       31.723198   0.000000
   79       31.769220   0.000000
   80       31.769220   0.000000
   81       32.624041   0.000000
   82       32.624041   0.000000
   83       32.831827   0.000000
   84       32.831827   0.000000
   85       34.618202   0.000000
   86       34.618202   0.000000
   87       34.782600   0.000000
   88       34.782600   0.000000
   89       35.236970   0.000000
   90       35.236970   0.000000
   91       35.448897   0.000000
   92       35.448897   0.000000
   93       35.511973   0.000000
   94       35.511973   0.000000
   95       36.104772   0.000000
   96       36.104772   0.000000
   97       36.178503   0.000000
   98       36.178503   0.000000
   99       36.474023   0.000000
  100       36.474024   0.000000
  101       36.576993   0.000000
  102       36.576993   0.000000
  103       38.184905   0.000000
  104       38.184905   0.000000
  105       38.327348   0.000000
  106       38.327349   0.000000
  107       38.729207   0.000000
  108       38.729207   0.000000
  109       39.842231   0.000000
  110       39.842232   0.000000
  111       40.042607   0.000000
  112       40.042607   0.000000
  113       40.043071   0.000000
  114       40.043071   0.000000
  115       41.952518   0.000000
  116       41.952518   0.000000
  117       42.027422   0.000000
  118       42.027422   0.000000
  119       42.753600   0.000000
  120       42.753602   0.000000
  121       43.207708   0.000000