   1   1   0   0
  0.2224118E+02  0.3156634E-09  0.3156634E-09  0.3156634E-09  0.1000000E-15
  1.000000000000000E-004
  CAR 
 Og_FCC                                  
     23.59260494    -38.32284765  301    -11.02845230      1.00000000
    -38.323  0.0000E+00  0.0000E+00
    -38.116  0.0000E+00  0.0000E+00
    -37.910  0.0000E+00  0.0000E+00
    -37.704  0.0000E+00  0.0000E+00
    -37.497  0.0000E+00  0.0000E+00
    -37.291  0.0000E+00  0.0000E+00
    -37.085  0.0000E+00  0.0000E+00
    -36.878  0.0000E+00  0.0000E+00
    -36.672  0.0000E+00  0.0000E+00
    -36.465  0.0000E+00  0.0000E+00
    -36.259  0.0000E+00  0.0000E+00
    -36.053  0.0000E+00  0.0000E+00
    -35.846  0.0000E+00  0.0000E+00
    -35.640  0.0000E+00  0.0000E+00
    -35.433  0.1458E+01  0.1006E+01
    -35.227  0.0000E+00  0.2000E+01
    -35.021  0.0000E+00  0.2000E+01
    -34.814  0.0000E+00  0.2000E+01
    -34.608  0.0000E+00  0.2000E+01
    -34.402  0.0000E+00  0.2000E+01
    -34.195  0.0000E+00  0.2000E+01
    -33.989  0.0000E+00  0.2000E+01
    -33.782  0.0000E+00  0.2000E+01
    -33.576  0.0000E+00  0.2000E+01
    -33.370  0.0000E+00  0.2000E+01
    -33.163  0.0000E+00  0.2000E+01
    -32.957  0.0000E+00  0.2000E+01
    -32.750  0.0000E+00  0.2000E+01
    -32.544  0.0000E+00  0.2000E+01
    -32.338  0.0000E+00  0.2000E+01
    -32.131  0.0000E+00  0.2000E+01
    -31.925  0.0000E+00  0.2000E+01
    -31.719  0.0000E+00  0.2000E+01
    -31.512  0.0000E+00  0.2000E+01
    -31.306  0.0000E+00  0.2000E+01
    -31.099  0.0000E+00  0.2000E+01
    -30.893  0.0000E+00  0.2000E+01
    -30.687  0.0000E+00  0.2000E+01
    -30.480  0.0000E+00  0.2000E+01
    -30.274  0.0000E+00  0.2000E+01
    -30.067  0.0000E+00  0.2000E+01
    -29.861  0.0000E+00  0.2000E+01
    -29.655  0.0000E+00  0.2000E+01
    -29.448  0.0000E+00  0.2000E+01
    -29.242  0.0000E+00  0.2000E+01
    -29.036  0.0000E+00  0.2000E+01
    -28.829  0.0000E+00  0.2000E+01
    -28.623  0.0000E+00  0.2000E+01
    -28.416  0.0000E+00  0.2000E+01
    -28.210  0.0000E+00  0.2000E+01
    -28.004  0.0000E+00  0.2000E+01
    -27.797  0.0000E+00  0.2000E+01
    -27.591  0.0000E+00  0.2000E+01
    -27.384  0.0000E+00  0.2000E+01
    -27.178  0.0000E+00  0.2000E+01
    -26.972  0.0000E+00  0.2000E+01
    -26.765  0.0000E+00  0.2000E+01
    -26.559  0.0000E+00  0.2000E+01
    -26.353  0.0000E+00  0.2000E+01
    -26.146  0.0000E+00  0.2000E+01
    -25.940  0.0000E+00  0.2000E+01
    -25.733  0.0000E+00  0.2000E+01
    -25.527  0.0000E+00  0.2000E+01
    -25.321  0.0000E+00  0.2000E+01
    -25.114  0.0000E+00  0.2000E+01
    -24.908  0.0000E+00  0.2000E+01
    -24.701  0.0000E+00  0.2000E+01
    -24.495  0.0000E+00  0.2000E+01
    -24.289  0.0000E+00  0.2000E+01
    -24.082  0.0000E+00  0.2000E+01
    -23.876  0.0000E+00  0.2000E+01
    -23.670  0.0000E+00  0.2000E+01
    -23.463  0.0000E+00  0.2000E+01
    -23.257  0.0000E+00  0.2000E+01
    -23.050  0.0000E+00  0.2000E+01
    -22.844  0.0000E+00  0.2000E+01
    -22.638  0.0000E+00  0.2000E+01
    -22.431  0.0000E+00  0.2000E+01
    -22.225  0.0000E+00  0.2000E+01
    -22.018  0.0000E+00  0.2000E+01
    -21.812  0.0000E+00  0.2000E+01
    -21.606  0.0000E+00  0.2000E+01
    -21.399  0.0000E+00  0.2000E+01
    -21.193  0.0000E+00  0.2000E+01
    -20.987  0.0000E+00  0.2000E+01
    -20.780  0.0000E+00  0.2000E+01
    -20.574  0.0000E+00  0.2000E+01
    -20.367  0.0000E+00  0.2000E+01
    -20.161  0.0000E+00  0.2000E+01
    -19.955  0.0000E+00  0.2000E+01
    -19.748  0.0000E+00  0.2000E+01
    -19.542  0.0000E+00  0.2000E+01
    -19.335  0.0000E+00  0.2000E+01
    -19.129  0.0000E+00  0.2000E+01
    -18.923  0.0000E+00  0.2000E+01
    -18.716  0.0000E+00  0.2000E+01
    -18.510  0.0000E+00  0.2000E+01
    -18.304  0.0000E+00  0.2000E+01
    -18.097  0.0000E+00  0.2000E+01
    -17.891  0.0000E+00  0.2000E+01
    -17.684  0.0000E+00  0.2000E+01
    -17.478  0.0000E+00  0.2000E+01
    -17.272  0.0000E+00  0.2000E+01
    -17.065  0.0000E+00  0.2000E+01
    -16.859  0.0000E+00  0.2000E+01
    -16.652  0.0000E+00  0.2000E+01
    -16.446  0.0000E+00  0.2000E+01
    -16.240  0.0000E+00  0.2000E+01
    -16.033  0.0000E+00  0.2000E+01
    -15.827  0.0000E+00  0.2000E+01
    -15.621  0.0000E+00  0.2000E+01
    -15.414  0.0000E+00  0.2000E+01
    -15.208  0.0000E+00  0.2000E+01
    -15.001  0.0000E+00  0.2000E+01
    -14.795  0.0000E+00  0.2000E+01
    -14.589  0.0000E+00  0.2000E+01
    -14.382  0.0000E+00  0.2000E+01
    -14.176  0.0000E+00  0.2000E+01
    -13.969  0.0000E+00  0.2000E+01
    -13.763  0.0000E+00  0.2000E+01
    -13.557  0.0000E+00  0.2000E+01
    -13.350  0.0000E+00  0.2000E+01
    -13.144  0.0000E+00  0.2000E+01
    -12.938  0.0000E+00  0.2000E+01
    -12.731  0.0000E+00  0.2000E+01
    -12.525  0.0000E+00  0.2000E+01
    -12.318  0.0000E+00  0.2000E+01
    -12.112  0.0000E+00  0.2000E+01
    -11.906  0.0000E+00  0.2000E+01
    -11.699  0.1151E+00  0.2315E+01
    -11.493  0.1017E+01  0.4927E+01
    -11.286  0.5085E+00  0.7913E+01
    -11.080  0.0000E+00  0.8000E+01
    -10.874  0.0000E+00  0.8000E+01
    -10.667  0.0000E+00  0.8000E+01
    -10.461  0.0000E+00  0.8000E+01
    -10.255  0.0000E+00  0.8000E+01
    -10.048  0.0000E+00  0.8000E+01
     -9.842  0.0000E+00  0.8000E+01
     -9.635  0.0000E+00  0.8000E+01
     -9.429  0.0000E+00  0.8000E+01
     -9.223  0.0000E+00  0.8000E+01
     -9.016  0.0000E+00  0.8000E+01
     -8.810  0.0000E+00  0.8000E+01
     -8.603  0.0000E+00  0.8000E+01
     -8.397  0.0000E+00  0.8000E+01
     -8.191  0.0000E+00  0.8000E+01
     -7.984  0.0000E+00  0.8000E+01
     -7.778  0.0000E+00  0.8000E+01
     -7.572  0.0000E+00  0.8000E+01
     -7.365  0.0000E+00  0.8000E+01
     -7.159  0.0000E+00  0.8000E+01
     -6.952  0.0000E+00  0.8000E+01
     -6.746  0.0000E+00  0.8000E+01
     -6.540  0.0000E+00  0.8000E+01
     -6.333  0.0000E+00  0.8000E+01
     -6.127  0.0000E+00  0.8000E+01
     -5.920  0.0000E+00  0.8000E+01
     -5.714  0.0000E+00  0.8000E+01
     -5.508  0.0000E+00  0.8000E+01
     -5.301  0.0000E+00  0.8000E+01
     -5.095  0.0000E+00  0.8000E+01
     -4.889  0.0000E+00  0.8000E+01
     -4.682  0.0000E+00  0.8000E+01
     -4.476  0.0000E+00  0.8000E+01
     -4.269  0.0000E+00  0.8000E+01
     -4.063  0.0000E+00  0.8000E+01
     -3.857  0.0000E+00  0.8000E+01
     -3.650  0.0000E+00  0.8000E+01
     -3.444  0.0000E+00  0.8000E+01
     -3.237  0.0000E+00  0.8000E+01
     -3.031  0.0000E+00  0.8000E+01
     -2.825  0.0000E+00  0.8000E+01
     -2.618  0.0000E+00  0.8000E+01
     -2.412  0.0000E+00  0.8000E+01
     -2.206  0.0000E+00  0.8000E+01
     -1.999  0.0000E+00  0.8000E+01
     -1.793  0.0000E+00  0.8000E+01
     -1.586  0.0000E+00  0.8000E+01
     -1.380  0.0000E+00  0.8000E+01
     -1.174  0.0000E+00  0.8000E+01
     -0.967  0.0000E+00  0.8000E+01
     -0.761  0.0000E+00  0.8000E+01
     -0.554  0.0000E+00  0.8000E+01
     -0.348  0.0000E+00  0.8000E+01
     -0.142  0.0000E+00  0.8000E+01
      0.065  0.0000E+00  0.8000E+01
      0.271  0.0000E+00  0.8000E+01
      0.478  0.0000E+00  0.8006E+01
      0.684  0.0000E+00  0.8006E+01
      0.890  0.0000E+00  0.8006E+01
      1.097  0.0000E+00  0.8052E+01
      1.303  0.0000E+00  0.8087E+01
      1.509  0.0000E+00  0.8087E+01
      1.716  0.0000E+00  0.8087E+01
      1.922  0.0000E+00  0.8157E+01
      2.129  0.0000E+00  0.8157E+01
      2.335  0.0000E+00  0.8157E+01
      2.541  0.0000E+00  0.8297E+01
      2.748  0.0000E+00  0.8344E+01
      2.954  0.0000E+00  0.8344E+01
      3.161  0.0000E+00  0.8344E+01
      3.367  0.0000E+00  0.8379E+01
      3.573  0.0000E+00  0.8379E+01
      3.780  0.0000E+00  0.8519E+01
      3.986  0.0000E+00  0.8659E+01
      4.192  0.0000E+00  0.8659E+01
      4.399  0.0000E+00  0.8659E+01
      4.605  0.0000E+00  0.8799E+01
      4.812  0.0000E+00  0.8799E+01
      5.018  0.0000E+00  0.8985E+01
      5.224  0.0000E+00  0.8985E+01
      5.431  0.0000E+00  0.8985E+01
      5.637  0.3869E-07  0.8985E+01
      5.844  0.0000E+00  0.9055E+01
      6.050  0.0000E+00  0.9335E+01
      6.256  0.0000E+00  0.9510E+01
      6.463  0.0000E+00  0.9510E+01
      6.669  0.0000E+00  0.9650E+01
      6.875  0.0000E+00  0.9650E+01
      7.082  0.0000E+00  0.9650E+01
      7.288  0.0000E+00  0.9930E+01
      7.495  0.0000E+00  0.9930E+01
      7.701  0.0000E+00  0.1000E+02
      7.907  0.0000E+00  0.1019E+02
      8.114  0.0000E+00  0.1019E+02
      8.320  0.0000E+00  0.1033E+02
      8.527  0.0000E+00  0.1040E+02
      8.733  0.0000E+00  0.1040E+02
      8.939  0.0000E+00  0.1068E+02
      9.146  0.0000E+00  0.1082E+02
      9.352  0.0000E+00  0.1096E+02
      9.558  0.1695E+00  0.1099E+02
      9.765  0.1565E-01  0.1113E+02
      9.971  0.0000E+00  0.1134E+02
     10.178  0.0000E+00  0.1134E+02
     10.384  0.0000E+00  0.1148E+02
     10.590  0.0000E+00  0.1162E+02
     10.797  0.0000E+00  0.1176E+02
     11.003  0.0000E+00  0.1204E+02
     11.210  0.0000E+00  0.1209E+02
     11.416  0.0000E+00  0.1209E+02
     11.622  0.0000E+00  0.1223E+02
     11.829  0.0000E+00  0.1223E+02
     12.035  0.0000E+00  0.1268E+02
     12.241  0.0000E+00  0.1268E+02
     12.448  0.0000E+00  0.1268E+02
     12.654  0.0000E+00  0.1296E+02
     12.861  0.0000E+00  0.1296E+02
     13.067  0.0000E+00  0.1296E+02
     13.273  0.0000E+00  0.1300E+02
     13.480  0.0000E+00  0.1307E+02
     13.686  0.0000E+00  0.1324E+02
     13.893  0.0000E+00  0.1324E+02
     14.099  0.0000E+00  0.1366E+02
     14.305  0.0000E+00  0.1366E+02
     14.512  0.0000E+00  0.1366E+02
     14.718  0.0000E+00  0.1380E+02
     14.924  0.0000E+00  0.1380E+02
     15.131  0.0000E+00  0.1413E+02
     15.337  0.0000E+00  0.1420E+02
     15.544  0.0000E+00  0.1420E+02
     15.750  0.0000E+00  0.1451E+02
     15.956  0.0000E+00  0.1472E+02
     16.163  0.0000E+00  0.1486E+02
     16.369  0.0000E+00  0.1507E+02
     16.576  0.0000E+00  0.1535E+02
     16.782  0.1017E+01  0.1556E+02
     16.988  0.0000E+00  0.1570E+02
     17.195  0.0000E+00  0.1580E+02
     17.401  0.0000E+00  0.1601E+02
     17.607  0.0000E+00  0.1601E+02
     17.814  0.0000E+00  0.1624E+02
     18.020  0.0000E+00  0.1624E+02
     18.227  0.0000E+00  0.1624E+02
     18.433  0.0000E+00  0.1651E+02
     18.639  0.0000E+00  0.1666E+02
     18.846  0.0000E+00  0.1673E+02
     19.052  0.0000E+00  0.1701E+02
     19.259  0.0000E+00  0.1706E+02
     19.465  0.0000E+00  0.1706E+02
     19.671  0.0000E+00  0.1739E+02
     19.878  0.0000E+00  0.1739E+02
     20.084  0.0000E+00  0.1753E+02
     20.290  0.0000E+00  0.1753E+02
     20.497  0.0000E+00  0.1781E+02
     20.703  0.0000E+00  0.1781E+02
     20.910  0.0000E+00  0.1800E+02
     21.116  0.0000E+00  0.1800E+02
     21.322  0.0000E+00  0.1800E+02
     21.529  0.0000E+00  0.1800E+02
     21.735  0.0000E+00  0.1800E+02
     21.942  0.0000E+00  0.1800E+02
     22.148  0.0000E+00  0.1800E+02
     22.354  0.0000E+00  0.1800E+02
     22.561  0.0000E+00  0.1800E+02
     22.767  0.0000E+00  0.1800E+02
     22.973  0.0000E+00  0.1800E+02
     23.180  0.0000E+00  0.1800E+02
     23.386  0.0000E+00  0.1800E+02
     23.593  0.0000E+00  0.1800E+02
