    1    1    1    1
  0.2224118E+02  0.3156634E-09  0.3156634E-09  0.3156634E-09  0.1000000E-15
  1.000000000000000E-004
  CAR 
 Og_FCC                                  
      8    343     18
 
  0.0000000E+00  0.0000000E+00  0.0000000E+00  0.2915452E-02
    1      -35.502027   1.000000
    2      -35.502027   1.000000
    3      -11.209826   1.000000
    4      -11.209826   1.000000
    5      -11.115072   1.000000
    6      -11.115072   1.000000
    7      -11.115071   1.000000
    8      -11.115071   1.000000
    9        0.388563   0.000000
   10        0.388563   0.000000
   11       18.451476   0.000000
   12       18.451476   0.000000
   13       18.451515   0.000000
   14       18.451515   0.000000
   15       18.451681   0.000000
   16       18.451681   0.000000
   17       20.333772   0.000000
   18       20.333772   0.000000
 
  0.1428571E+00 -0.1387779E-16 -0.1387779E-16  0.2915452E-02
    1      -35.508509   1.000000
    2      -35.508509   1.000000
    3      -11.525849   1.000000
    4      -11.525849   1.000000
    5      -11.416612   1.000000
    6      -11.416612   1.000000
    7      -11.375910   1.000000
    8      -11.375910   1.000000
    9        0.953825   0.000000
   10        0.953825   0.000000
   11       15.036375   0.000000
   12       15.036376   0.000000
   13       18.274747   0.000000
   14       18.274747   0.000000
   15       18.276132   0.000000
   16       18.276132   0.000000
   17       20.714664   0.000000
   18       20.714664   0.000000
 
  0.2857143E+00 -0.2775558E-16 -0.1387779E-16  0.2915452E-02
    1      -35.473341   1.000000
    2      -35.473341   1.000000
    3      -11.681316   1.000000
    4      -11.681316   1.000000
    5      -11.439030   1.000000
    6      -11.439030   1.000000
    7      -11.382571   1.000000
    8      -11.382571   1.000000
    9        2.556707   0.000000
   10        2.556707   0.000000
   11       11.185341   0.000000
   12       11.185341   0.000000
   13       17.690782   0.000000
   14       17.690782   0.000000
   15       17.692071   0.000000
   16       17.692072   0.000000
   17       19.500491   0.000000
   18       19.500491   0.000000
 
  0.4285714E+00  0.0000000E+00  0.2775558E-16  0.2915452E-02
    1      -35.454773   1.000000
    2      -35.454773   1.000000
    3      -11.804715   1.000000
    4      -11.804715   1.000000
    5      -11.574307   1.000000
    6      -11.574307   1.000000
    7      -11.517231   1.000000
    8      -11.517231   1.000000
    9        4.914160   0.000000
   10        4.914160   0.000000
   11        7.787877   0.000000
   12        7.787877   0.000000
   13       17.155134   0.000000
   14       17.155134   0.000000
   15       17.155186   0.000000
   16       17.155186   0.000000
   17       19.080937   0.000000
   18       19.080937   0.000000
 
 -0.4285714E+00  0.0000000E+00 -0.2775558E-16  0.2915452E-02
    1      -35.454773   1.000000
    2      -35.454773   1.000000
    3      -11.804715   1.000000
    4      -11.804715   1.000000
    5      -11.574307   1.000000
    6      -11.574307   1.000000
    7      -11.517231   1.000000
    8      -11.517231   1.000000
    9        4.914160   0.000000
   10        4.914160   0.000000
   11        7.787877   0.000000
   12        7.787877   0.000000
   13       17.155134   0.000000
   14       17.155134   0.000000
   15       17.155186   0.000000
   16       17.155186   0.000000
   17       19.080937   0.000000
   18       19.080937   0.000000
 
 -0.2857143E+00  0.2775558E-16  0.1387779E-16  0.2915452E-02
    1      -35.473341   1.000000
    2      -35.473341   1.000000
    3      -11.681316   1.000000
    4      -11.681316   1.000000
    5      -11.439030   1.000000
    6      -11.439030   1.000000
    7      -11.382571   1.000000
    8      -11.382571   1.000000
    9        2.556707   0.000000
   10        2.556707   0.000000
   11       11.185341   0.000000
   12       11.185341   0.000000
   13       17.690782   0.000000
   14       17.690782   0.000000
   15       17.692071   0.000000
   16       17.692072   0.000000
   17       19.500491   0.000000
   18       19.500491   0.000000
 
 -0.1428571E+00 -0.1387779E-16  0.0000000E+00  0.2915452E-02
    1      -35.508509   1.000000
    2      -35.508509   1.000000
    3      -11.525849   1.000000
    4      -11.525849   1.000000
    5      -11.416612   1.000000
    6      -11.416612   1.000000
    7      -11.375910   1.000000
    8      -11.375910   1.000000
    9        0.953825   0.000000
   10        0.953825   0.000000
   11       15.036375   0.000000
   12       15.036376   0.000000
   13       18.274747   0.000000
   14       18.274747   0.000000
   15       18.276132   0.000000
   16       18.276132   0.000000
   17       20.714664   0.000000
   18       20.714664   0.000000
 
  0.0000000E+00  0.1428571E+00  0.6938894E-17  0.2915452E-02
    1      -35.508509   1.000000
    2      -35.508509   1.000000
    3      -11.525849   1.000000
    4      -11.525849   1.000000
    5      -11.416613   1.000000
    6      -11.416613   1.000000
    7      -11.375911   1.000000
    8      -11.375911   1.000000
    9        0.953826   0.000000
   10        0.953826   0.000000
   11       15.036383   0.000000
   12       15.036383   0.000000
   13       18.274740   0.000000
   14       18.274740   0.000000
   15       18.276125   0.000000
   16       18.276125   0.000000
   17       20.714737   0.000000
   18       20.714737   0.000000
 
  0.1428571E+00  0.1428571E+00  0.0000000E+00  0.2915452E-02
    1      -35.495108   1.000000
    2      -35.495108   1.000000
    3      -11.530570   1.000000
    4      -11.530570   1.000000
    5      -11.318354   1.000000
    6      -11.318354   1.000000
    7      -11.264614   1.000000
    8      -11.264614   1.000000
    9        1.134940   0.000000
   10        1.134940   0.000000
   11       15.606550   0.000000
   12       15.606550   0.000000
   13       17.349302   0.000000
   14       17.349302   0.000000
   15       17.353940   0.000000
   16       17.353940   0.000000
   17       18.379165   0.000000
   18       18.379166   0.000000
 
  0.2857143E+00  0.1428571E+00  0.0000000E+00  0.2915452E-02
    1      -35.471243   1.000000
    2      -35.471243   1.000000
    3      -11.612505   1.000000
    4      -11.612504   1.000000
    5      -11.431448   1.000000
    6      -11.431448   1.000000
    7      -11.368031   1.000000
    8      -11.368031   1.000000
    9        2.393122   0.000000
   10        2.393122   0.000000
   11       12.582297   0.000000
   12       12.582298   0.000000
   13       15.696843   0.000000
   14       15.696843   0.000000
   15       16.779143   0.000000
   16       16.779143   0.000000
   17       18.542270   0.000000
   18       18.542270   0.000000
 
  0.4285714E+00  0.1428571E+00 -0.2775558E-16  0.2915452E-02
    1      -35.441232   1.000000
    2      -35.441232   1.000000
    3      -11.698528   1.000000
    4      -11.698528   1.000000
    5      -11.425137   1.000000
    6      -11.425137   1.000000
    7      -11.362367   1.000000
    8      -11.362367   1.000000
    9        4.481675   0.000000
   10        4.481675   0.000000
   11        9.172980   0.000000
   12        9.172980   0.000000
   13       14.550152   0.000000
   14       14.550152   0.000000
   15       16.554074   0.000000
   16       16.554074   0.000000
   17       19.024226   0.000000
   18       19.024226   0.000000
 
 -0.4285714E+00  0.1428571E+00  0.1387779E-16  0.2915452E-02
    1      -35.435499   1.000000
    2      -35.435499   1.000000
    3      -11.715747   1.000000
    4      -11.715747   1.000000
    5      -11.482836   1.000000
    6      -11.482836   1.000000
    7      -11.403626   1.000000
    8      -11.403626   1.000000
    9        6.177244   0.000000
   10        6.177244   0.000000
   11        7.174950   0.000000
   12        7.174950   0.000000
   13       13.965330   0.000000
   14       13.965330   0.000000
   15       16.810990   0.000000
   16       16.810990   0.000000
   17       19.656438   0.000000
   18       19.656438   0.000000
 
 -0.2857143E+00  0.1428571E+00  0.2081668E-16  0.2915452E-02
    1      -35.452192   1.000000
    2      -35.452192   1.000000
    3      -11.674117   1.000000
    4      -11.674117   1.000000
    5      -11.449729   1.000000
    6      -11.449729   1.000000
    7      -11.382462   1.000000
    8      -11.382462   1.000000
    9        3.707908   0.000000
   10        3.707908   0.000000
   11       10.289387   0.000000
   12       10.289387   0.000000
   13       13.968815   0.000000
   14       13.968815   0.000000
   15       17.775888   0.000000
   16       17.775888   0.000000
   17       20.778261   0.000000
   18       20.778261   0.000000
 
 -0.1428571E+00  0.1428571E+00 -0.1300971E-17  0.2915452E-02
    1      -35.500902   1.000000
    2      -35.500902   1.000000
    3      -11.881255   1.000000
    4      -11.881255   1.000000
    5      -11.587118   1.000000
    6      -11.587118   1.000000
    7      -11.464506   1.000000
    8      -11.464506   1.000000
    9        1.840055   0.000000
   10        1.840056   0.000000
   11       13.373192   0.000000
   12       13.373192   0.000000
   13       15.154860   0.000000
   14       15.154860   0.000000
   15       19.530510   0.000000
   16       19.530510   0.000000
   17       19.659853   0.000000
   18       19.659853   0.000000
 
  0.0000000E+00  0.2857143E+00  0.0000000E+00  0.2915452E-02
    1      -35.473341   1.000000
    2      -35.473341   1.000000
    3      -11.681316   1.000000
    4      -11.681316   1.000000
    5      -11.439030   1.000000
    6      -11.439030   1.000000
    7      -11.382571   1.000000
    8      -11.382571   1.000000
    9        2.556709   0.000000
   10        2.556709   0.000000
   11       11.185347   0.000000
   12       11.185347   0.000000
   13       17.690772   0.000000
   14       17.690772   0.000000
   15       17.692062   0.000000
   16       17.692062   0.000000
   17       19.500564   0.000000
   18       19.500564   0.000000
 
  0.1428571E+00  0.2857143E+00 -0.2775558E-16  0.2915452E-02
    1      -35.471243   1.000000
    2      -35.471243   1.000000
    3      -11.612504   1.000000
    4      -11.612504   1.000000
    5      -11.431448   1.000000
    6      -11.431448   1.000000
    7      -11.368031   1.000000
    8      -11.368031   1.000000
    9        2.393123   0.000000
   10        2.393123   0.000000
   11       12.582307   0.000000
   12       12.582307   0.000000
   13       15.696854   0.000000
   14       15.696854   0.000000
   15       16.779152   0.000000
   16       16.779152   0.000000
   17       18.542223   0.000000
   18       18.542223   0.000000
 
  0.2857143E+00  0.2857143E+00 -0.2775558E-16  0.2915452E-02
    1      -35.441941   1.000000
    2      -35.441941   1.000000
    3      -11.515149   1.000000
    4      -11.515149   1.000000
    5      -11.296326   1.000000
    6      -11.296326   1.000000
    7      -11.242846   1.000000
    8      -11.242846   1.000000
    9        3.232558   0.000000
   10        3.232558   0.000000
   11       13.198065   0.000000
   12       13.198065   0.000000
   13       13.537888   0.000000
   14       13.537888   0.000000
   15       16.194375   0.000000
   16       16.194375   0.000000
   17       16.203689   0.000000
   18       16.203689   0.000000
 
  0.4285714E+00  0.2857143E+00 -0.2775558E-16  0.2915452E-02
    1      -35.432734   1.000000
    2      -35.432734   1.000000
    3      -11.644074   1.000000
    4      -11.644074   1.000000
    5      -11.512482   1.000000
    6      -11.512482   1.000000
    7      -11.457617   1.000000
    8      -11.457617   1.000000
    9        4.895998   0.000000
   10        4.895998   0.000000
   11       10.810059   0.000000
   12       10.810059   0.000000
   13       11.975751   0.000000
   14       11.975751   0.000000
   15       15.902820   0.000000
   16       15.902820   0.000000
   17       16.534455   0.000000
   18       16.534455   0.000000
 
 -0.4285714E+00  0.2857143E+00  0.0000000E+00  0.2915452E-02
    1      -35.415012   1.000000
    2      -35.415012   1.000000
    3      -11.602700   1.000000
    4      -11.602700   1.000000
    5      -11.469890   1.000000
    6      -11.469890   1.000000
    7      -11.334356   1.000000
    8      -11.334356   1.000000
    9        7.099463   0.000000
   10        7.099463   0.000000
   11        8.273218   0.000000
   12        8.273218   0.000000
   13       10.889694   0.000000
   14       10.889694   0.000000
   15       16.105824   0.000000
   16       16.105824   0.000000
   17       17.215466   0.000000
   18       17.215466   0.000000
 
 -0.2857143E+00  0.2857143E+00  0.8054332E-17  0.2915452E-02
    1      -35.424360   1.000000
    2      -35.424360   1.000000
    3      -11.581532   1.000000
    4      -11.581532   1.000000
    5      -11.500272   1.000000
    6      -11.500272   1.000000
    7      -11.306186   1.000000
    8      -11.306186   1.000000
    9        5.640787   0.000000
   10        5.640787   0.000000
   11        9.854036   0.000000
   12        9.854037   0.000000
   13       10.692082   0.000000
   14       10.692082   0.000000
   15       16.774752   0.000000
   16       16.774752   0.000000
   17       18.794381   0.000000
   18       18.794382   0.000000
 
 -0.1428571E+00  0.2857143E+00 -0.1387779E-16  0.2915452E-02
    1      -35.452192   1.000000
    2      -35.452192   1.000000
    3      -11.674117   1.000000
    4      -11.674117   1.000000
    5      -11.449730   1.000000
    6      -11.449730   1.000000
    7      -11.382462   1.000000
    8      -11.382462   1.000000
    9        3.707909   0.000000
   10        3.707909   0.000000
   11       10.289391   0.000000
   12       10.289391   0.000000
   13       13.968808   0.000000
   14       13.968808   0.000000
   15       17.775905   0.000000
   16       17.775905   0.000000
   17       20.778264   0.000000
   18       20.778265   0.000000
 
  0.0000000E+00  0.4285714E+00  0.0000000E+00  0.2915452E-02
    1      -35.454773   1.000000
    2      -35.454773   1.000000
    3      -11.804715   1.000000
    4      -11.804715   1.000000
    5      -11.574308   1.000000
    6      -11.574308   1.000000
    7      -11.517231   1.000000
    8      -11.517231   1.000000
    9        4.914161   0.000000
   10        4.914161   0.000000
   11        7.787883   0.000000
   12        7.787883   0.000000
   13       17.155122   0.000000
   14       17.155122   0.000000
   15       17.155172   0.000000
   16       17.155172   0.000000
   17       19.081010   0.000000
   18       19.081011   0.000000
 
  0.1428571E+00  0.4285714E+00 -0.2775558E-16  0.2915452E-02
    1      -35.441232   1.000000
    2      -35.441232   1.000000
    3      -11.698528   1.000000
    4      -11.698527   1.000000
    5      -11.425138   1.000000
    6      -11.425138   1.000000
    7      -11.362367   1.000000
    8      -11.362367   1.000000
    9        4.481674   0.000000
   10        4.481674   0.000000
   11        9.172993   0.000000
   12        9.172993   0.000000
   13       14.550145   0.000000
   14       14.550145   0.000000
   15       16.554088   0.000000
   16       16.554088   0.000000
   17       19.024200   0.000000
   18       19.024200   0.000000
 
  0.2857143E+00  0.4285714E+00  0.0000000E+00  0.2915452E-02
    1      -35.432733   1.000000
    2      -35.432733   1.000000
    3      -11.644074   1.000000
    4      -11.644074   1.000000
    5      -11.512482   1.000000
    6      -11.512482   1.000000
    7      -11.457617   1.000000
    8      -11.457617   1.000000
    9        4.895995   0.000000
   10        4.895995   0.000000
   11       10.810091   0.000000
   12       10.810091   0.000000
   13       11.975733   0.000000
   14       11.975733   0.000000
   15       15.902824   0.000000
   16       15.902824   0.000000
   17       16.534432   0.000000
   18       16.534432   0.000000
 
  0.4285714E+00  0.4285714E+00  0.0000000E+00  0.2915452E-02
    1      -35.413089   1.000000
    2      -35.413089   1.000000
    3      -11.789532   1.000000
    4      -11.789532   1.000000
    5      -11.346152   1.000000
    6      -11.346152   1.000000
    7      -11.288970   1.000000
    8      -11.288970   1.000000
    9        6.062219   0.000000
   10        6.062219   0.000000
   11        9.555145   0.000000
   12        9.555145   0.000000
   13       11.979809   0.000000
   14       11.979809   0.000000
   15       15.663507   0.000000
   16       15.663507   0.000000
   17       15.675719   0.000000
   18       15.675719   0.000000
 
 -0.4285714E+00  0.4285714E+00  0.2494736E-16  0.2915452E-02
    1      -35.406504   1.000000
    2      -35.406504   1.000000
    3      -11.646112   1.000000
    4      -11.646112   1.000000
    5      -11.438781   1.000000
    6      -11.438781   1.000000
    7      -11.292416   1.000000
    8      -11.292416   1.000000
    9        7.598629   0.000000
   10        7.598629   0.000000
   11        8.402734   0.000000
   12        8.402734   0.000000
   13       10.783930   0.000000
   14       10.783930   0.000000
   15       15.726139   0.000000
   16       15.726140   0.000000
   17       15.817461   0.000000
   18       15.817461   0.000000
 
 -0.2857143E+00  0.4285714E+00 -0.1387779E-16  0.2915452E-02
    1      -35.415012   1.000000
    2      -35.415012   1.000000
    3      -11.602700   1.000000
    4      -11.602700   1.000000
    5      -11.469890   1.000000
    6      -11.469890   1.000000
    7      -11.334356   1.000000
    8      -11.334356   1.000000
    9        7.099439   0.000000
   10        7.099439   0.000000
   11        8.273263   0.000000
   12        8.273263   0.000000
   13       10.889676   0.000000
   14       10.889676   0.000000
   15       16.105829   0.000000
   16       16.105829   0.000000
   17       17.215457   0.000000
   18       17.215457   0.000000
 
 -0.1428571E+00  0.4285714E+00 -0.2775558E-16  0.2915452E-02
    1      -35.435499   1.000000
    2      -35.435499   1.000000
    3      -11.715747   1.000000
    4      -11.715747   1.000000
    5      -11.482837   1.000000
    6      -11.482837   1.000000
    7      -11.403626   1.000000
    8      -11.403626   1.000000
    9        6.177237   0.000000
   10        6.177237   0.000000
   11        7.174966   0.000000
   12        7.174966   0.000000
   13       13.965320   0.000000
   14       13.965320   0.000000
   15       16.811006   0.000000
   16       16.811007   0.000000
   17       19.656430   0.000000
   18       19.656430   0.000000
 
  0.0000000E+00 -0.4285714E+00  0.0000000E+00  0.2915452E-02
    1      -35.454773   1.000000
    2      -35.454773   1.000000
    3      -11.804715   1.000000
    4      -11.804715   1.000000
    5      -11.574308   1.000000
    6      -11.574308   1.000000
    7      -11.517231   1.000000
    8      -11.517231   1.000000
    9        4.914161   0.000000
   10        4.914161   0.000000
   11        7.787883   0.000000
   12        7.787883   0.000000
   13       17.155122   0.000000
   14       17.155122   0.000000
   15       17.155172   0.000000
   16       17.155172   0.000000
   17       19.081010   0.000000
   18       19.081011   0.000000
 
  0.1428571E+00 -0.4285714E+00  0.0000000E+00  0.2915452E-02
    1      -35.435499   1.000000
    2      -35.435499   1.000000
    3      -11.715747   1.000000
    4      -11.715747   1.000000
    5      -11.482837   1.000000
    6      -11.482837   1.000000
    7      -11.403626   1.000000
    8      -11.403626   1.000000
    9        6.177237   0.000000
   10        6.177237   0.000000
   11        7.174966   0.000000
   12        7.174966   0.000000
   13       13.965320   0.000000
   14       13.965320   0.000000
   15       16.811006   0.000000
   16       16.811007   0.000000
   17       19.656430   0.000000
   18       19.656430   0.000000
 
  0.2857143E+00 -0.4285714E+00  0.1387779E-16  0.2915452E-02
    1      -35.415012   1.000000
    2      -35.415012   1.000000
    3      -11.602700   1.000000
    4      -11.602700   1.000000
    5      -11.469890   1.000000
    6      -11.469890   1.000000
    7      -11.334356   1.000000
    8      -11.334356   1.000000
    9        7.099439   0.000000
   10        7.099439   0.000000
   11        8.273263   0.000000
   12        8.273263   0.000000
   13       10.889676   0.000000
   14       10.889676   0.000000
   15       16.105829   0.000000
   16       16.105829   0.000000
   17       17.215457   0.000000
   18       17.215457   0.000000
 
  0.4285714E+00 -0.4285714E+00 -0.2494736E-16  0.2915452E-02
    1      -35.406504   1.000000
    2      -35.406504   1.000000
    3      -11.646112   1.000000
    4      -11.646112   1.000000
    5      -11.438781   1.000000
    6      -11.438781   1.000000
    7      -11.292416   1.000000
    8      -11.292416   1.000000
    9        7.598629   0.000000
   10        7.598629   0.000000
   11        8.402734   0.000000
   12        8.402734   0.000000
   13       10.783930   0.000000
   14       10.783930   0.000000
   15       15.726139   0.000000
   16       15.726140   0.000000
   17       15.817461   0.000000
   18       15.817461   0.000000
 
 -0.4285714E+00 -0.4285714E+00  0.0000000E+00  0.2915452E-02
    1      -35.413089   1.000000
    2      -35.413089   1.000000
    3      -11.789532   1.000000
    4      -11.789532   1.000000
    5      -11.346152   1.000000
    6      -11.346152   1.000000
    7      -11.288970   1.000000
    8      -11.288970   1.000000
    9        6.062219   0.000000
   10        6.062219   0.000000
   11        9.555145   0.000000
   12        9.555145   0.000000
   13       11.979809   0.000000
   14       11.979809   0.000000
   15       15.663507   0.000000
   16       15.663507   0.000000
   17       15.675719   0.000000
   18       15.675719   0.000000
 
 -0.2857143E+00 -0.4285714E+00  0.0000000E+00  0.2915452E-02
    1      -35.432733   1.000000
    2      -35.432733   1.000000
    3      -11.644074   1.000000
    4      -11.644074   1.000000
    5      -11.512482   1.000000
    6      -11.512482   1.000000
    7      -11.457617   1.000000
    8      -11.457617   1.000000
    9        4.895995   0.000000
   10        4.895995   0.000000
   11       10.810091   0.000000
   12       10.810091   0.000000
   13       11.975733   0.000000
   14       11.975733   0.000000
   15       15.902824   0.000000
   16       15.902824   0.000000
   17       16.534432   0.000000
   18       16.534432   0.000000
 
 -0.1428571E+00 -0.4285714E+00  0.2775558E-16  0.2915452E-02
    1      -35.441232   1.000000
    2      -35.441232   1.000000
    3      -11.698528   1.000000
    4      -11.698527   1.000000
    5      -11.425138   1.000000
    6      -11.425138   1.000000
    7      -11.362367   1.000000
    8      -11.362367   1.000000
    9        4.481674   0.000000
   10        4.481674   0.000000
   11        9.172993   0.000000
   12        9.172993   0.000000
   13       14.550145   0.000000
   14       14.550145   0.000000
   15       16.554088   0.000000
   16       16.554088   0.000000
   17       19.024200   0.000000
   18       19.024200   0.000000
 
  0.0000000E+00 -0.2857143E+00  0.0000000E+00  0.2915452E-02
    1      -35.473341   1.000000
    2      -35.473341   1.000000
    3      -11.681316   1.000000
    4      -11.681316   1.000000
    5      -11.439030   1.000000
    6      -11.439030   1.000000
    7      -11.382571   1.000000
    8      -11.382571   1.000000
    9        2.556709   0.000000
   10        2.556709   0.000000
   11       11.185347   0.000000
   12       11.185347   0.000000
   13       17.690772   0.000000
   14       17.690772   0.000000
   15       17.692062   0.000000
   16       17.692062   0.000000
   17       19.500564   0.000000
   18       19.500564   0.000000
 
  0.1428571E+00 -0.2857143E+00  0.0000000E+00  0.2915452E-02
    1      -35.452192   1.000000
    2      -35.452192   1.000000
    3      -11.674117   1.000000
    4      -11.674117   1.000000
    5      -11.449730   1.000000
    6      -11.449730   1.000000
    7      -11.382462   1.000000
    8      -11.382462   1.000000
    9        3.707909   0.000000
   10        3.707909   0.000000
   11       10.289391   0.000000
   12       10.289391   0.000000
   13       13.968808   0.000000
   14       13.968808   0.000000
   15       17.775905   0.000000
   16       17.775905   0.000000
   17       20.778264   0.000000
   18       20.778266   0.000000
 
  0.2857143E+00 -0.2857143E+00 -0.8054332E-17  0.2915452E-02
    1      -35.424360   1.000000
    2      -35.424360   1.000000
    3      -11.581532   1.000000
    4      -11.581532   1.000000
    5      -11.500272   1.000000
    6      -11.500272   1.000000
    7      -11.306186   1.000000
    8      -11.306186   1.000000
    9        5.640787   0.000000
   10        5.640787   0.000000
   11        9.854036   0.000000
   12        9.854037   0.000000
   13       10.692082   0.000000
   14       10.692082   0.000000
   15       16.774752   0.000000
   16       16.774752   0.000000
   17       18.794381   0.000000
   18       18.794382   0.000000
 
  0.4285714E+00 -0.2857143E+00  0.0000000E+00  0.2915452E-02
    1      -35.415012   1.000000
    2      -35.415012   1.000000
    3      -11.602700   1.000000
    4      -11.602700   1.000000
    5      -11.469890   1.000000
    6      -11.469890   1.000000
    7      -11.334356   1.000000
    8      -11.334356   1.000000
    9        7.099463   0.000000
   10        7.099463   0.000000
   11        8.273218   0.000000
   12        8.273218   0.000000
   13       10.889694   0.000000
   14       10.889694   0.000000
   15       16.105824   0.000000
   16       16.105824   0.000000
   17       17.215466   0.000000
   18       17.215466   0.000000
 
 -0.4285714E+00 -0.2857143E+00  0.2775558E-16  0.2915452E-02
    1      -35.432734   1.000000
    2      -35.432734   1.000000
    3      -11.644074   1.000000
    4      -11.644074   1.000000
    5      -11.512482   1.000000
    6      -11.512482   1.000000
    7      -11.457617   1.000000
    8      -11.457617   1.000000
    9        4.895998   0.000000
   10        4.895998   0.000000
   11       10.810059   0.000000
   12       10.810059   0.000000
   13       11.975751   0.000000
   14       11.975751   0.000000
   15       15.902820   0.000000
   16       15.902820   0.000000
   17       16.534455   0.000000
   18       16.534455   0.000000
 
 -0.2857143E+00 -0.2857143E+00  0.2775558E-16  0.2915452E-02
    1      -35.441941   1.000000
    2      -35.441941   1.000000
    3      -11.515149   1.000000
    4      -11.515149   1.000000
    5      -11.296326   1.000000
    6      -11.296326   1.000000
    7      -11.242846   1.000000
    8      -11.242846   1.000000
    9        3.232558   0.000000
   10        3.232558   0.000000
   11       13.198065   0.000000
   12       13.198065   0.000000
   13       13.537888   0.000000
   14       13.537888   0.000000
   15       16.194375   0.000000
   16       16.194375   0.000000
   17       16.203689   0.000000
   18       16.203689   0.000000
 
 -0.1428571E+00 -0.2857143E+00  0.2775558E-16  0.2915452E-02
    1      -35.471243   1.000000
    2      -35.471243   1.000000
    3      -11.612504   1.000000
    4      -11.612504   1.000000
    5      -11.431448   1.000000
    6      -11.431448   1.000000
    7      -11.368031   1.000000
    8      -11.368031   1.000000
    9        2.393123   0.000000
   10        2.393123   0.000000
   11       12.582307   0.000000
   12       12.582307   0.000000
   13       15.696854   0.000000
   14       15.696854   0.000000
   15       16.779152   0.000000
   16       16.779152   0.000000
   17       18.542223   0.000000
   18       18.542223   0.000000
 
  0.0000000E+00 -0.1428571E+00  0.0000000E+00  0.2915452E-02
    1      -35.508509   1.000000
    2      -35.508509   1.000000
    3      -11.525849   1.000000
    4      -11.525849   1.000000
    5      -11.416613   1.000000
    6      -11.416613   1.000000
    7      -11.375911   1.000000
    8      -11.375911   1.000000
    9        0.953826   0.000000
   10        0.953826   0.000000
   11       15.036383   0.000000
   12       15.036383   0.000000
   13       18.274740   0.000000
   14       18.274740   0.000000
   15       18.276125   0.000000
   16       18.276125   0.000000
   17       20.714737   0.000000
   18       20.714737   0.000000
 
  0.1428571E+00 -0.1428571E+00 -0.1790495E-16  0.2915452E-02
    1      -35.500902   1.000000
    2      -35.500902   1.000000
    3      -11.881255   1.000000
    4      -11.881255   1.000000
    5      -11.587118   1.000000
    6      -11.587118   1.000000
    7      -11.464506   1.000000
    8      -11.464506   1.000000
    9        1.840055   0.000000
   10        1.840056   0.000000
   11       13.373192   0.000000
   12       13.373192   0.000000
   13       15.154860   0.000000
   14       15.154860   0.000000
   15       19.530510   0.000000
   16       19.530510   0.000000
   17       19.659853   0.000000
   18       19.659853   0.000000
 
  0.2857143E+00 -0.1428571E+00 -0.2081668E-16  0.2915452E-02
    1      -35.452192   1.000000
    2      -35.452192   1.000000
    3      -11.674117   1.000000
    4      -11.674117   1.000000
    5      -11.449729   1.000000
    6      -11.449729   1.000000
    7      -11.382462   1.000000
    8      -11.382462   1.000000
    9        3.707908   0.000000
   10        3.707908   0.000000
   11       10.289387   0.000000
   12       10.289387   0.000000
   13       13.968815   0.000000
   14       13.968815   0.000000
   15       17.775888   0.000000
   16       17.775888   0.000000
   17       20.778261   0.000000
   18       20.778261   0.000000
 
  0.4285714E+00 -0.1428571E+00 -0.4163336E-16  0.2915452E-02
    1      -35.435499   1.000000
    2      -35.435499   1.000000
    3      -11.715747   1.000000
    4      -11.715747   1.000000
    5      -11.482836   1.000000