<?xml version="1.0" encoding="ISO-8859-1"?>
<modeling>
 <generator>
  <i name="program" type="string">vasp </i>
  <i name="version" type="string">5.4.4.18Apr17-6-g9f103f2a35  </i>
  <i name="subversion" type="string">(build Nov 03 2018 10:20:46) complex            parallel </i>
  <i name="platform" type="string">LinuxIFC </i>
  <i name="date" type="string">2018 11 14 </i>
  <i name="time" type="string">11:55:53 </i>
 </generator>
 <incar>
  <i type="string" name="SYSTEM">   Og_FCC</i>
  <i type="string" name="PREC">accurate</i>
  <i type="string" name="ALGO">   Normal</i>
  <i type="logical" name="ADDGRID"> T  </i>
  <i type="logical" name="LSORBIT"> T  </i>
  <i type="int" name="ISPIN">     1</i>
  <i type="int" name="MAXMIX">    50</i>
  <i type="int" name="NELM">    50</i>
  <i type="int" name="NELMDL">    -5</i>
  <i type="int" name="NELMIN">     2</i>
  <i type="int" name="IBRION">    -1</i>
  <i type="int" name="NFREE">     5</i>
  <i name="EDIFF">      0.00000001</i>
  <i name="EDIFFG">      0.00001000</i>
  <i type="int" name="NSW">     1</i>
  <i type="int" name="ISIF">     3</i>
  <i type="int" name="ISYM">     0</i>
  <i name="SYMPREC">      0.00000010</i>
  <i name="ENCUT">    300.00000000</i>
  <i name="POTIM">      0.10000000</i>
  <i type="logical" name="LREAL"> F  </i>
  <i type="int" name="ISMEAR">     0</i>
  <i name="SIGMA">      0.00100000</i>
  <i type="int" name="NWRITE">     2</i>
  <i type="logical" name="LWAVE"> T  </i>
  <i type="logical" name="LCHARG"> F  </i>
  <i type="logical" name="LVTOT"> F  </i>
  <i type="logical" name="LOPTICS"> T  </i>
  <i type="logical" name="GGA_COMPAT"> F  </i>
  <v type="int" name="KPOINT_BSE">    -1     0     0     0</v>
  <i type="int" name="NELM">    50</i>
  <i type="string" name="GGA"> PE</i>
 </incar>
 <structure name="primitive_cell" >
  <crystal>
   <varray name="basis" >
    <v>       4.34234588       0.00000000       0.00000000 </v>
    <v>       2.17117294       3.76058184      -0.00000000 </v>
    <v>       2.17117294       1.25352728       3.54551056 </v>
   </varray>
   <i name="volume">     57.89729060 </i>
   <varray name="rec_basis" >
    <v>       0.23029027      -0.13295815      -0.09401561 </v>
    <v>       0.00000000       0.26591630      -0.09401561 </v>
    <v>      -0.00000000       0.00000000       0.28204683 </v>
   </varray>
  </crystal>
  <varray name="positions" >
   <v>       0.00000000       0.00000000       0.00000000 </v>
  </varray>
 </structure>
 <varray name="primitive_index" >
  <v type="int" >        1 </v>
 </varray>
 <kpoints>
  <generation param="Gamma">
   <v type="int" name="divisions">       4        4        4 </v>
   <v name="usershift">      0.00000000       0.00000000       0.00000000 </v>
   <v name="genvec1">      0.25000000       0.00000000      -0.00000000 </v>
   <v name="genvec2">      0.00000000       0.25000000      -0.00000000 </v>
   <v name="genvec3">      0.00000000       0.00000000       0.25000000 </v>
   <v name="shift">      0.00000000       0.00000000       0.00000000 </v>
  </generation>
  <varray name="kpointlist" >
   <v>       0.00000000       0.00000000       0.00000000 </v>
   <v>       0.25000000       0.00000000       0.00000000 </v>
   <v>       0.50000000       0.00000000       0.00000000 </v>
   <v>      -0.25000000      -0.00000000      -0.00000000 </v>
   <v>       0.00000000       0.25000000      -0.00000000 </v>
   <v>       0.25000000       0.25000000       0.00000000 </v>
   <v>       0.50000000       0.25000000       0.00000000 </v>
   <v>      -0.25000000       0.25000000      -0.00000000 </v>
   <v>       0.00000000       0.50000000      -0.00000000 </v>
   <v>       0.25000000       0.50000000       0.00000000 </v>
   <v>       0.50000000       0.50000000       0.00000000 </v>
   <v>      -0.25000000       0.50000000      -0.00000000 </v>
   <v>      -0.00000000      -0.25000000       0.00000000 </v>
   <v>       0.25000000      -0.25000000       0.00000000 </v>
   <v>       0.50000000      -0.25000000       0.00000000 </v>
   <v>      -0.25000000      -0.25000000      -0.00000000 </v>
   <v>       0.00000000       0.00000000       0.25000000 </v>
   <v>       0.25000000      -0.00000000       0.25000000 </v>
   <v>       0.50000000      -0.00000000       0.25000000 </v>
   <v>      -0.25000000      -0.00000000       0.25000000 </v>
   <v>      -0.00000000       0.25000000       0.25000000 </v>
   <v>       0.25000000       0.25000000       0.25000000 </v>
   <v>       0.50000000       0.25000000       0.25000000 </v>
   <v>      -0.25000000       0.25000000       0.25000000 </v>
   <v>      -0.00000000       0.50000000       0.25000000 </v>
   <v>       0.25000000       0.50000000       0.25000000 </v>
   <v>       0.50000000       0.50000000       0.25000000 </v>
   <v>      -0.25000000       0.50000000       0.25000000 </v>
   <v>       0.00000000      -0.25000000       0.25000000 </v>
   <v>       0.25000000      -0.25000000       0.25000000 </v>
   <v>       0.50000000      -0.25000000       0.25000000 </v>
   <v>      -0.25000000      -0.25000000       0.25000000 </v>
   <v>       0.00000000       0.00000000       0.50000000 </v>
   <v>       0.25000000       0.00000000       0.50000000 </v>
   <v>       0.50000000      -0.00000000       0.50000000 </v>
   <v>      -0.25000000       0.00000000       0.50000000 </v>
   <v>      -0.00000000       0.25000000       0.50000000 </v>
   <v>       0.25000000       0.25000000       0.50000000 </v>
   <v>       0.50000000       0.25000000       0.50000000 </v>
   <v>      -0.25000000       0.25000000       0.50000000 </v>
   <v>      -0.00000000       0.50000000       0.50000000 </v>
   <v>       0.25000000       0.50000000       0.50000000 </v>
   <v>       0.50000000       0.50000000       0.50000000 </v>
   <v>      -0.25000000       0.50000000       0.50000000 </v>
   <v>       0.00000000      -0.25000000       0.50000000 </v>
   <v>       0.25000000      -0.25000000       0.50000000 </v>
   <v>       0.50000000      -0.25000000       0.50000000 </v>
   <v>      -0.25000000      -0.25000000       0.50000000 </v>
   <v>       0.00000000       0.00000000      -0.25000000 </v>
   <v>       0.25000000       0.00000000      -0.25000000 </v>
   <v>       0.50000000       0.00000000      -0.25000000 </v>
   <v>      -0.25000000       0.00000000      -0.25000000 </v>
   <v>       0.00000000       0.25000000      -0.25000000 </v>
   <v>       0.25000000       0.25000000      -0.25000000 </v>
   <v>       0.50000000       0.25000000      -0.25000000 </v>
   <v>      -0.25000000       0.25000000      -0.25000000 </v>
   <v>       0.00000000       0.50000000      -0.25000000 </v>
   <v>       0.25000000       0.50000000      -0.25000000 </v>
   <v>       0.50000000       0.50000000      -0.25000000 </v>
   <v>      -0.25000000       0.50000000      -0.25000000 </v>
   <v>       0.00000000      -0.25000000      -0.25000000 </v>
   <v>       0.25000000      -0.25000000      -0.25000000 </v>
   <v>       0.50000000      -0.25000000      -0.25000000 </v>
   <v>      -0.25000000      -0.25000000      -0.25000000 </v>
  </varray>
  <varray name="weights" >
   <v>       0.01562500 </v>
   <v>       0.01562500 </v>
   <v>       0.01562500 </v>
   <v>       0.01562500 </v>
   <v>       0.01562500 </v>
   <v>       0.01562500 </v>
   <v>       0.01562500 </v>
   <v>       0.01562500 </v>
   <v>       0.01562500 </v>
   <v>       0.01562500 </v>
   <v>       0.01562500 </v>
   <v>       0.01562500 </v>
   <v>       0.01562500 </v>
   <v>       0.01562500 </v>
   <v>       0.01562500 </v>
   <v>       0.01562500 </v>
   <v>       0.01562500 </v>
   <v>       0.01562500 </v>
   <v>       0.01562500 </v>
   <v>       0.01562500 </v>
   <v>       0.01562500 </v>
   <v>       0.01562500 </v>
   <v>       0.01562500 </v>
   <v>       0.01562500 </v>
   <v>       0.01562500 </v>
   <v>       0.01562500 </v>
   <v>       0.01562500 </v>
   <v>       0.01562500 </v>
   <v>       0.01562500 </v>
   <v>       0.01562500 </v>
   <v>       0.01562500 </v>
   <v>       0.01562500 </v>
   <v>       0.01562500 </v>
   <v>       0.01562500 </v>
   <v>       0.01562500 </v>
   <v>       0.01562500 </v>
   <v>       0.01562500 </v>
   <v>       0.01562500 </v>
   <v>       0.01562500 </v>
   <v>       0.01562500 </v>
   <v>       0.01562500 </v>
   <v>       0.01562500 </v>
   <v>       0.01562500 </v>
   <v>       0.01562500 </v>
   <v>       0.01562500 </v>
   <v>       0.01562500 </v>
   <v>       0.01562500 </v>
   <v>       0.01562500 </v>
   <v>       0.01562500 </v>
   <v>       0.01562500 </v>
   <v>       0.01562500 </v>
   <v>       0.01562500 </v>
   <v>       0.01562500 </v>
   <v>       0.01562500 </v>
   <v>       0.01562500 </v>
   <v>       0.01562500 </v>
   <v>       0.01562500 </v>
   <v>       0.01562500 </v>
   <v>       0.01562500 </v>
   <v>       0.01562500 </v>
   <v>       0.01562500 </v>
   <v>       0.01562500 </v>
   <v>       0.01562500 </v>
   <v>       0.01562500 </v>
  </varray>
 </kpoints>
 <parameters>
  <separator name="general" >
   <i type="string" name="SYSTEM">Og_FCC</i>
   <i type="logical" name="LCOMPAT"> F  </i>
  </separator>
  <separator name="electronic" >
   <i type="string" name="PREC">accura</i>
   <i name="ENMAX">    300.00000000</i>
   <i name="ENAUG">    361.02500000</i>
   <i name="EDIFF">      0.00000001</i>
   <i type="int" name="IALGO">    38</i>
   <i type="int" name="IWAVPR">    10</i>
   <i type="int" name="NBANDS">    28</i>
   <i name="NELECT">     18.00000000</i>
   <i type="int" name="TURBO">     0</i>
   <i type="int" name="IRESTART">     0</i>
   <i type="int" name="NREBOOT">     0</i>
   <i type="int" name="NMIN">     0</i>
   <i name="EREF">      0.00000000</i>
   <separator name="electronic smearing" >
    <i type="int" name="ISMEAR">     0</i>
    <i name="SIGMA">      0.00100000</i>
    <i name="KSPACING">      0.50000000</i>
    <i type="logical" name="KGAMMA"> T  </i>
   </separator>
   <separator name="electronic projectors" >
    <i type="logical" name="LREAL"> F  </i>
    <v name="ROPT">      0.00000000</v>
    <i type="int" name="LMAXPAW">  -100</i>
    <i type="int" name="LMAXMIX">     2</i>
    <i type="logical" name="NLSPLINE"> F  </i>
   </separator>
   <separator name="electronic startup" >
    <i type="int" name="ISTART">     1</i>
    <i type="int" name="ICHARG">     0</i>
    <i type="int" name="INIWAV">     1</i>
   </separator>
   <separator name="electronic spin" >
    <i type="int" name="ISPIN">     1</i>
    <i type="logical" name="LNONCOLLINEAR"> T  </i>
    <v name="MAGMOM">      1.00000000      1.00000000      1.00000000</v>
    <i name="NUPDOWN">     -1.00000000</i>
    <i type="logical" name="LSORBIT"> T  </i>
    <v name="SAXIS">      0.00000000      0.00000000      1.00000000</v>
    <i type="logical" name="LSPIRAL"> F  </i>
    <v name="QSPIRAL">      0.00000000      0.00000000      0.00000000</v>
    <i type="logical" name="LZEROZ"> F  </i>
   </separator>
   <separator name="electronic exchange-correlation" >
    <i type="logical" name="LASPH"> F  </i>
    <i type="logical" name="LMETAGGA"> F  </i>
   </separator>
   <separator name="electronic convergence" >
    <i type="int" name="NELM">    50</i>
    <i type="int" name="NELMDL">    -5</i>
    <i type="int" name="NELMIN">     2</i>
    <i name="ENINI">    300.00000000</i>
    <separator name="electronic convergence detail" >
     <i type="logical" name="LDIAG"> T  </i>
     <i type="logical" name="LSUBROT"> F  </i>
     <i name="WEIMIN">      0.00000000</i>
     <i name="EBREAK">      0.00000000</i>
     <i name="DEPER">      0.30000000</i>
     <i type="int" name="NRMM">     4</i>
     <i name="TIME">      0.40000000</i>
    </separator>
   </separator>
   <separator name="electronic mixer" >
    <i name="AMIX">      0.40000000</i>
    <i name="BMIX">      1.00000000</i>
    <i name="AMIN">      0.10000000</i>
    <i name="AMIX_MAG">      1.60000000</i>
    <i name="BMIX_MAG">      1.00000000</i>
    <separator name="electronic mixer details" >
     <i type="int" name="IMIX">     4</i>
     <i type="logical" name="MIXFIRST"> F  </i>
     <i type="int" name="MAXMIX">    50</i>
     <i name="WC">    100.00000000</i>
     <i type="int" name="INIMIX">     1</i>
     <i type="int" name="MIXPRE">     1</i>
     <i type="int" name="MREMOVE">     5</i>
    </separator>
   </separator>
   <separator name="electronic dipolcorrection" >
    <i type="logical" name="LDIPOL"> F  </i>
    <i type="logical" name="LMONO"> F  </i>
    <i type="int" name="IDIPOL">     0</i>
    <i name="EPSILON">      1.00000000</i>
    <v name="DIPOL">   -100.00000000   -100.00000000   -100.00000000</v>
    <i name="EFIELD">      0.00000000</i>
   </separator>
  </separator>
  <separator name="grids" >
   <i type="int" name="NGX">    28</i>
   <i type="int" name="NGY">    28</i>
   <i type="int" name="NGZ">    28</i>
   <i type="int" name="NGXF">    56</i>
   <i type="int" name="NGYF">    56</i>
   <i type="int" name="NGZF">    56</i>
   <i type="logical" name="ADDGRID"> T  </i>
  </separator>
  <separator name="ionic" >
   <i type="int" name="NSW">     1</i>
   <i type="int" name="IBRION">    -1</i>
   <i type="int" name="MDALGO">     0</i>
   <i type="int" name="ISIF">     3</i>
   <i name="PSTRESS">      0.00000000</i>
   <i name="EDIFFG">      0.00001000</i>
   <i type="int" name="NFREE">     5</i>
   <i name="POTIM">      0.10000000</i>
   <i name="SMASS">     -3.00000000</i>
   <i name="SCALEE">      1.00000000</i>
  </separator>
  <separator name="ionic md" >
   <i name="TEBEG">      0.00010000</i>
   <i name="TEEND">      0.00010000</i>
   <i type="int" name="NBLOCK">     1</i>
   <i type="int" name="KBLOCK">     1</i>
   <i type="int" name="NPACO">   256</i>
   <i name="APACO">     16.00000000</i>
  </separator>
  <separator name="symmetry" >
   <i type="int" name="ISYM">     0</i>
   <i name="SYMPREC">      0.00000010</i>
  </separator>
  <separator name="dos" >
   <i type="int" name="LORBIT">     0</i>
   <v name="RWIGS">     -1.00000000</v>
   <i type="int" name="NEDOS">   301</i>
   <i name="EMIN">     10.00000000</i>
   <i name="EMAX">    -10.00000000</i>
   <i name="EFERMI">      0.00000000</i>
  </separator>
  <separator name="writing" >
   <i type="int" name="NWRITE">     2</i>
   <i type="logical" name="LWAVE"> T  </i>
   <i type="logical" name="LDOWNSAMPLE"> F  </i>
   <i type="logical" name="LCHARG"> F  </i>
   <i type="logical" name="LPARD"> F  </i>
   <i type="logical" name="LVTOT"> F  </i>
   <i type="logical" name="LVHAR"> F  </i>
   <i type="logical" name="LELF"> F  </i>
   <i type="logical" name="LOPTICS"> T  </i>
   <v name="STM">      0.00000000      0.00000000      0.00000000      0.00000000      0.00000000      0.00000000      0.00000000</v>
  </separator>
  <separator name="performance" >
   <i type="int" name="NPAR">     2</i>
   <i type="int" name="NSIM">     4</i>
   <i type="int" name="NBLK">    -1</i>
   <i type="logical" name="LPLANE"> T  </i>
   <i type="logical" name="LSCALAPACK"> T  </i>
   <i type="logical" name="LSCAAWARE"> F  </i>
   <i type="logical" name="LSCALU"> F  </i>
   <i type="logical" name="LASYNC"> F  </i>
   <i type="logical" name="LORBITALREAL"> F  </i>
  </separator>
  <separator name="miscellaneous" >
   <i type="int" name="IDIOT">     3</i>
   <i type="int" name="ISPECIAL">     0</i>
   <i type="logical" name="LMUSIC"> F  </i>
   <v name="POMASS">      0.01000000</v>
   <v name="DARWINR">      0.00000000</v>
   <v name="DARWINV">      1.00000000</v>
   <i type="logical" name="LCORR"> T  </i>
  </separator>
  <i type="logical" name="GGA_COMPAT"> F  </i>
  <i type="logical" name="LBERRY"> F  </i>
  <i type="int" name="ICORELEVEL">     0</i>
  <i type="logical" name="LDAU"> F  </i>
  <i type="int" name="I_CONSTRAINED_M">     0</i>
  <separator name="electronic exchange-correlation" >
   <i type="string" name="GGA">PE</i>
   <i type="int" name="VOSKOWN">     0</i>
   <i type="logical" name="LHFCALC"> F  </i>
   <i type="string" name="PRECFOCK"></i>
   <i type="logical" name="LSYMGRAD"> F  </i>
   <i type="logical" name="LHFONE"> F  </i>
   <i type="logical" name="LRHFCALC"> F  </i>
   <i type="logical" name="LTHOMAS"> F  </i>
   <i type="logical" name="LMODELHF"> F  </i>
   <i name="ENCUT4O">     -1.00000000</i>
   <i type="int" name="EXXOEP">     0</i>
   <i type="int" name="FOURORBIT">     0</i>
   <i name="AEXX">      0.00000000</i>
   <i name="HFALPHA">      0.00000000</i>
   <i name="MCALPHA">      0.00000000</i>
   <i name="ALDAX">      1.00000000</i>
   <i name="AGGAX">      1.00000000</i>
   <i name="ALDAC">      1.00000000</i>
   <i name="AGGAC">      1.00000000</i>
   <i type="int" name="NKREDX">     1</i>
   <i type="int" name="NKREDY">     1</i>
   <i type="int" name="NKREDZ">     1</i>
   <i type="logical" name="SHIFTRED"> F  </i>
   <i type="logical" name="ODDONLY"> F  </i>
   <i type="logical" name="EVENONLY"> F  </i>
   <i type="int" name="LMAXFOCK">     0</i>
   <i type="int" name="NMAXFOCKAE">     0</i>
   <i type="logical" name="LFOCKAEDFT"> F  </i>
   <i name="HFSCREEN">      0.00000000</i>
   <i name="HFSCREENC">      0.00000000</i>
   <i type="int" name="NBANDSGWLOW">     0</i>
  </separator>
  <separator name="vdW DFT" >
   <i type="logical" name="LUSE_VDW"> F  </i>
   <i name="Zab_VDW">     -0.84910000</i>
   <i name="PARAM1">      0.12340000</i>
   <i name="PARAM2">      1.00000000</i>
   <i name="PARAM3">      0.00000000</i>
  </separator>
  <separator name="model GW" >
   <i type="int" name="MODEL_GW">     0</i>
   <i name="MODEL_EPS0">     34.73837436</i>
   <i name="MODEL_ALPHA">      1.00000000</i>
  </separator>
  <separator name="linear response parameters" >
   <i type="logical" name="LEPSILON"> F  </i>
   <i type="logical" name="LRPA"> F  </i>
   <i type="logical" name="LNABLA"> F  </i>
   <i type="logical" name="LVEL"> F  </i>
   <i type="int" name="KINTER">     0</i>
   <i name="CSHIFT">      0.10000000</i>
   <i name="OMEGAMAX">     -1.00000000</i>
   <i name="DEG_THRESHOLD">      0.00200000</i>
   <i name="RTIME">     -0.10000000</i>
   <i name="WPLASMAI">      0.00000000</i>
   <v name="DFIELD">      0.00000000      0.00000000      0.00000000</v>
   <v name="WPLASMA">      0.00000000      0.00000000      0.00000000      0.00000000      0.00000000      0.00000000      0.00000000      0.00000000      0.00000000</v>
  </separator>
  <separator name="orbital magnetization" >
   <i type="logical" name="NUCIND"> F  </i>
   <v name="MAGPOS">      0.00000000      0.00000000      0.00000000</v>
   <i type="logical" name="LNICSALL"> T  </i>
   <i type="logical" name="ORBITALMAG"> F  </i>
   <i type="logical" name="LMAGBLOCH"> F  </i>
   <i type="logical" name="LCHIMAG"> F  </i>
   <i type="logical" name="LGAUGE"> T  </i>
   <i type="int" name="MAGATOM">     0</i>
   <v name="MAGDIPOL">      0.00000000      0.00000000      0.00000000</v>
   <v name="AVECCONST">      0.00000000      0.00000000      0.00000000</v>
  </separator>
  <separator name="response functions" >
   <i type="logical" name="LADDER"> F  </i>
   <i type="logical" name="LRPAFORCE"> F  </i>
   <i type="logical" name="LFXC"> F  </i>
   <i type="logical" name="LHARTREE"> T  </i>
   <i type="int" name="IBSE">     0</i>
   <v type="int" name="KPOINT">    -1     0     0     0</v>
   <i type="logical" name="LTCTE"> F  </i>
   <i type="logical" name="LTETE"> F  </i>
   <i type="logical" name="LTRIPLET"> F  </i>
   <i type="logical" name="LFXCEPS"> F  </i>
   <i type="logical" name="LFXHEG"> F  </i>
   <i type="int" name="NATURALO">     2</i>
   <i type="logical" name="L2ORDER"> F  </i>
   <i type="logical" name="LMP2LT"> F  </i>
   <i type="logical" name="LUSEW"> F  </i>
   <i name="ENCUTGW">     -2.00000000</i>
   <i name="ENCUTGWSOFT">     -2.00000000</i>
   <i name="ENCUTLF">     -1.00000000</i>
   <i type="int" name="LMAXMP2">    -1</i>
   <i name="SCISSOR">      0.00000000</i>
   <i type="int" name="NOMEGA">     0</i>
   <i type="int" name="NOMEGAR">     0</i>
   <i type="int" name="NBANDSGW">    -1</i>
   <i type="int" name="NBANDSO">    -1</i>
   <i type="int" name="NBANDSV">    -1</i>
   <i type="int" name="NELM">    50</i>
   <i type="int" name="NELMHF">     1</i>
   <i type="int" name="DIM">     3</i>
   <i type="int" name="ANTIRES">     0</i>
   <i name="OMEGAMAX">    -30.00000000</i>
   <i name="OMEGAMIN">    -30.00000000</i>
   <i name="OMEGATL">   -200.00000000</i>
   <i type="int" name="OMEGAGRID">   140</i>
   <i name="CSHIFT">     -0.10000000</i>
   <i type="logical" name="SELFENERGY"> F  </i>
   <i type="logical" name="LSPECTRAL"> F  </i>
   <i type="logical" name="LSPECTRALGW"> F  </i>
   <i type="logical" name="LSINGLES"> F  </i>
   <i type="logical" name="LFERMIGW"> F  </i>
   <i type="logical" name="ODDONLYGW"> F  </i>
   <i type="logical" name="EVENONLYGW"> F  </i>
   <i type="int" name="NKREDLFX">     1</i>
   <i type="int" name="NKREDLFY">     1</i>
   <i type="int" name="NKREDLFZ">     1</i>
   <i type="int" name="MAXMEM">  2800</i>
   <i type="int" name="TELESCOPE">     0</i>
   <i type="int" name="TAUPAR">     1</i>
   <i type="int" name="OMEGAPAR">    -1</i>
   <i name="LAMBDA">      1.00000000</i>
  </separator>
  <separator name="External order field" >
   <i name="OFIELD_KAPPA">      0.00000000</i>
   <v name="OFIELD_K">      0.00000000      0.00000000      0.00000000</v>
   <i name="OFIELD_Q6_NEAR">      0.00000000</i>
   <i name="OFIELD_Q6_FAR">      0.00000000</i>
   <i name="OFIELD_A">      0.00000000</i>
  </separator>
 </parameters>
 <atominfo>
  <atoms>       1 </atoms>
  <types>       1 </types>
  <array name="atoms" >
   <dimension dim="1">ion</dimension>
   <field type="string">element</field>
   <field type="int">atomtype</field>
   <set>
    <rc><c>Og</c><c>   1</c></rc>
   </set>
  </array>
  <array name="atomtypes" >
   <dimension dim="1">type</dimension>
   <field type="int">atomspertype</field>
   <field type="string">element</field>
   <field>mass</field>
   <field>valence</field>
   <field type="string">pseudopotential</field>
   <set>
    <rc><c>   1</c><c>Og</c><c>      0.01000000</c><c>     18.00000000</c><c>  PAW Og, JanMewes Oct 18               </c></rc>
   </set>
  </array>
 </atominfo>
 <structure name="initialpos" >
  <crystal>
   <varray name="basis" >
    <v>       4.34234588       0.00000000       0.00000000 </v>
    <v>       2.17117294       3.76058184      -0.00000000 </v>
    <v>       2.17117294       1.25352728       3.54551056 </v>
   </varray>
   <i name="volume">     57.89729060 </i>
   <varray name="rec_basis" >
    <v>       0.23029027      -0.13295815      -0.09401561 </v>
    <v>       0.00000000       0.26591630      -0.09401561 </v>
    <v>      -0.00000000       0.00000000       0.28204683 </v>
   </varray>
  </crystal>
  <varray name="positions" >
   <v>       0.00000000       0.00000000       0.00000000 </v>
  </varray>
  <varray name="velocities" >
   <v>       0.00000000       0.00000000       0.00000000 </v>
  </varray>
 </structure>
 <calculation>
  <scstep>
   <time name="dav">    0.66    0.66</time>
   <time name="total">    0.81    0.81</time>
   <energy>
    <i name="alphaZ">     65.89697999 </i>
    <i name="ewald">  -1741.63824267 </i>
    <i name="hartreedc">   -672.14546397 </i>
    <i name="XCdc">    -68.72983491 </i>
    <i name="pawpsdc">   2336.63875751 </i>
    <i name="pawaedc">  -2261.25226763 </i>
    <i name="eentropy">     -0.00000000 </i>
    <i name="bandstr">   -311.82813581 </i>
    <i name="atom">   2639.90492407 </i>
    <i name="e_fr_energy">    -13.15328341 </i>
    <i name="e_wo_entrp">    -13.15328341 </i>
    <i name="e_0_energy">    -13.15328341 </i>
   </energy>
  </scstep>
  <scstep>
   <time name="dav">    0.62    0.62</time>
   <time name="total">    0.62    0.62</time>
   <energy>
    <i name="e_fr_energy">    -13.15328341 </i>
    <i name="e_wo_entrp">    -13.15328341 </i>
    <i name="e_0_energy">    -13.15328341 </i>
   </energy>
  </scstep>
  <scstep>
   <time name="dav">    0.52    0.52</time>
   <time name="total">    0.52    0.52</time>
   <energy>
    <i name="e_fr_energy">    -13.15328341 </i>
    <i name="e_wo_entrp">    -13.15328341 </i>
    <i name="e_0_energy">    -13.15328341 </i>
   </energy>
  </scstep>
  <scstep>
   <time name="dav">    0.51    0.51</time>
   <time name="total">    0.51    0.51</time>
   <energy>
    <i name="e_fr_energy">    -13.15328341 </i>
    <i name="e_wo_entrp">    -13.15328341 </i>
    <i name="e_0_energy">    -13.15328341 </i>
   </energy>
  </scstep>
  <scstep>
   <time name="dav">    0.50    0.50</time>
   <time name="total">    0.66    0.66</time>
   <energy>
    <i name="e_fr_energy">    -13.15328341 </i>
    <i name="e_wo_entrp">    -13.15328341 </i>
    <i name="e_0_energy">    -13.15328341 </i>
   </energy>
  </scstep>
  <scstep>
   <time name="dav">    0.66    0.66</time>
   <time name="total">    0.96    0.96</time>
   <energy>
    <i name="e_fr_energy">    -13.15328343 </i>
    <i name="e_wo_entrp">    -13.15328343 </i>
    <i name="e_0_energy">    -13.15328343 </i>
   </energy>
  </scstep>
  <scstep>
   <time name="dav">    0.67    0.67</time>
   <time name="total">    0.97    0.98</time>
   <energy>
    <i name="e_fr_energy">    -13.15328340 </i>
    <i name="e_wo_entrp">    -13.15328340 </i>
    <i name="e_0_energy">    -13.15328340 </i>
   </energy>
  </scstep>
  <scstep>
   <time name="dav">    0.67    0.67</time>
   <time name="total">    0.82    0.82</time>
   <energy>
    <i name="alphaZ">     65.89697999 </i>
    <i name="ewald">  -1741.63824267 </i>
    <i name="hartreedc">   -672.14544771 </i>
    <i name="XCdc">    -68.72983506 </i>
    <i name="pawpsdc">   2336.63876958 </i>
    <i name="pawaedc">  -2261.25227779 </i>
    <i name="eentropy">     -0.00000000 </i>
    <i name="bandstr">   -311.82815381 </i>
    <i name="atom">   2639.90492407 </i>
    <i name="e_fr_energy">    -13.15328341 </i>
    <i name="e_wo_entrp">    -13.15328341 </i>
    <i name="e_0_energy">    -13.15328341 </i>
   </energy>
  </scstep>
  <structure>
   <crystal>
    <varray name="basis" >
     <v>       4.34234588       0.00000000       0.00000000 </v>
     <v>       2.17117294       3.76058184      -0.00000000 </v>
     <v>       2.17117294       1.25352728       3.54551056 </v>
    </varray>
    <i name="volume">     57.89729060 </i>
    <varray name="rec_basis" >
     <v>       0.23029027      -0.13295815      -0.09401561 </v>
     <v>       0.00000000       0.26591630      -0.09401561 </v>
     <v>      -0.00000000       0.00000000       0.28204683 </v>
    </varray>
   </crystal>
   <varray name="positions" >
    <v>       0.00000000       0.00000000       0.00000000 </v>
   </varray>
  </structure>
  <varray name="forces" >
   <v>      -0.00000153      -0.00000511       0.00000569 </v>
  </varray>
  <varray name="stress" >
   <v>    -141.65726287      -0.00114490      -0.00075165 </v>
   <v>      -0.00114199    -141.65679992      -0.00048089 </v>
   <v>      -0.00075107      -0.00048014    -141.65633252 </v>
  </varray>
  <energy>
   <i name="e_fr_energy">    -13.59324550 </i>
   <i name="e_wo_entrp">    -13.59324550 </i>
   <i name="e_0_energy">     -0.00000000 </i>
  </energy>
  <time name="totalsc">    8.92    9.00</time>
  <eigenvalues>
   <array>
    <dimension dim="1">band</dimension>
    <dimension dim="2">kpoint</dimension>
    <dimension dim="3">spin</dimension>
    <field>eigene</field>
    <field>occ</field>
    <set>
     <set comment="spin 1">
      <set comment="kpoint 1">
       <r>  -30.4625    1.0000 </r>
       <r>  -30.4623    1.0000 </r>
       <r>  -30.4618    1.0000 </r>
       <r>  -30.4615    1.0000 </r>
       <r>  -23.7976    1.0000 </r>
       <r>  -23.7962    1.0000 </r>
       <r>  -23.7960    1.0000 </r>
       <r>  -23.7952    1.0000 </r>
       <r>  -23.7938    1.0000 </r>
       <r>  -23.7934    1.0000 </r>
       <r>  -20.2047    1.0000 </r>
       <r>  -20.2019    1.0000 </r>
       <r>   -6.9117    1.0000 </r>
       <r>   -6.9081    1.0000 </r>
       <r>    3.7122    1.0000 </r>
       <r>    3.7135    1.0000 </r>
       <r>    3.9553    1.0000 </r>
       <r>    3.9554    1.0000 </r>
       <r>    3.9717    0.0000 </r>
       <r>    3.9719    0.0000 </r>
       <r>   10.8786    0.0000 </r>
       <r>   10.8793    0.0000 </r>
       <r>   10.8812    0.0000 </r>
       <r>   10.8819    0.0000 </r>
       <r>   11.1171    0.0000 </r>
       <r>   11.1191    0.0000 </r>
       <r>   11.3024    0.0000 </r>
       <r>   11.3072    0.0000 </r>
      </set>
      <set comment="kpoint 2">
       <r>  -30.4449    1.0000 </r>
       <r>  -30.4449    1.0000 </r>
       <r>  -30.4434    1.0000 </r>
       <r>  -30.4429    1.0000 </r>
       <r>  -23.7854    1.0000 </r>
       <r>  -23.7847    1.0000 </r>
       <r>  -23.7810    1.0000 </r>
       <r>  -23.7809    1.0000 </r>
       <r>  -23.7799    1.0000 </r>
       <r>  -23.7789    1.0000 </r>
       <r>  -20.1495    1.0000 </r>
       <r>  -20.1467    1.0000 </r>
       <r>   -7.0942    1.0000 </r>
       <r>   -7.0906    1.0000 </r>
       <r>    1.5633    1.0000 </r>
       <r>    1.5652    1.0000 </r>
       <r>    3.6604    1.0000 </r>
       <r>    3.6633    1.0000 </r>
       <r>    6.0360    0.0000 </r>
       <r>    6.0378    0.0000 </r>
       <r>    9.9223    0.0000 </r>
       <r>    9.9229    0.0000 </r>
       <r>   10.8949    0.0000 </r>
       <r>   10.8952    0.0000 </r>
       <r>   11.2784    0.0000 </r>
       <r>   11.2826    0.0000 </r>
       <r>   11.5976    0.0000 </r>
       <r>   11.6010    0.0000 </r>
      </set>
      <set comment="kpoint 3">
       <r>  -30.4684    1.0000 </r>
       <r>  -30.4679    1.0000 </r>
       <r>  -30.4565    1.0000 </r>
       <r>  -30.4565    1.0000 </r>
       <r>  -23.7967    1.0000 </r>
       <r>  -23.7954    1.0000 </r>
       <r>  -23.7918    1.0000 </r>
       <r>  -23.7912    1.0000 </r>
       <r>  -23.7898    1.0000 </r>
       <r>  -23.7884    1.0000 </r>
       <r>  -20.0935    1.0000 </r>
       <r>  -20.0907    1.0000 </r>
       <r>   -7.2780    1.0000 </r>
       <r>   -7.2745    1.0000 </r>
       <r>    0.7175    1.0000 </r>
       <r>    0.7198    1.0000 </r>
       <r>    3.3980    1.0000 </r>
       <r>    3.4008    1.0000 </r>
       <r>    6.2120    0.0000 </r>
       <r>    6.2146    0.0000 </r>
       <r>   10.3170    0.0000 </r>
       <r>   10.3174    0.0000 </r>
       <r>   10.5246    0.0000 </r>
       <r>   10.5275    0.0000 </r>
       <r>   10.7169    0.0000 </r>
       <r>   10.7237    0.0000 </r>
       <r>   12.1042    0.0000 </r>
       <r>   12.1055    0.0000 </r>
      </set>
      <set comment="kpoint 4">
       <r>  -30.4449    1.0000 </r>
       <r>  -30.4449    1.0000 </r>
       <r>  -30.4434    1.0000 </r>
       <r>  -30.4429    1.0000 </r>
       <r>  -23.7854    1.0000 </r>
       <r>  -23.7847    1.0000 </r>
       <r>  -23.7810    1.0000 </r>
       <r>  -23.7809    1.0000 </r>
       <r>  -23.7799    1.0000 </r>
       <r>  -23.7789    1.0000 </r>
       <r>  -20.1495    1.0000 </r>
       <r>  -20.1467    1.0000 </r>
       <r>   -7.0942    1.0000 </r>
       <r>   -7.0906    1.0000 </r>
       <r>    1.5633    1.0000 </r>
       <r>    1.5652    1.0000 </r>
       <r>    3.6604    1.0000 </r>
       <r>    3.6633    1.0000 </r>
       <r>    6.0360    0.0000 </r>
       <r>    6.0378    0.0000 </r>
       <r>    9.9223    0.0000 </r>
       <r>    9.9229    0.0000 </r>
       <r>   10.8949    0.0000 </r>
       <r>   10.8952    0.0000 </r>
       <r>   11.2784    0.0000 </r>
       <r>   11.2826    0.0000 </r>
       <r>   11.5976    0.0000 </r>
       <r>   11.6010    0.0000 </r>
      </set>
      <set comment="kpoint 5">
       <r>  -30.4451    1.0000 </r>
       <r>  -30.4447    1.0000 </r>
       <r>  -30.4434    1.0000 </r>
       <r>  -30.4429    1.0000 </r>
       <r>  -23.7854    1.0000 </r>
       <r>  -23.7847    1.0000 </r>
       <r>  -23.7813    1.0000 </r>
       <r>  -23.7807    1.0000 </r>
       <r>  -23.7799    1.0000 </r>
       <r>  -23.7788    1.0000 </r>
       <r>  -20.1495    1.0000 </r>
       <r>  -20.1467    1.0000 </r>
       <r>   -7.0942    1.0000 </r>
       <r>   -7.0906    1.0000 </r>
       <r>    1.5618    1.0000 </r>
       <r>    1.5668    1.0000 </r>
       <r>    3.6582    1.0000 </r>
       <r>    3.6655    1.0000 </r>
       <r>    6.0360    0.0000 </r>
       <r>    6.0378    0.0000 </r>
       <r>    9.9216    0.0000 </r>
       <r>    9.9236    0.0000 </r>
       <r>   10.8947    0.0000 </r>
       <r>   10.8955    0.0000 </r>
       <r>   11.2786    0.0000 </r>
       <r>   11.2825    0.0000 </r>
       <r>   11.5978    0.0000 </r>
       <r>   11.6008    0.0000 </r>
      </set>
      <set comment="kpoint 6">
       <r>  -30.4515    1.0000 </r>
       <r>  -30.4509    1.0000 </r>
       <r>  -30.4450    1.0000 </r>
       <r>  -30.4442    1.0000 </r>
       <r>  -23.7896    1.0000 </r>
       <r>  -23.7878    1.0000 </r>
       <r>  -23.7829    1.0000 </r>
       <r>  -23.7822    1.0000 </r>
       <r>  -23.7805    1.0000 </r>
       <r>  -23.7798    1.0000 </r>
       <r>  -20.1313    1.0000 </r>
       <r>  -20.1286    1.0000 </r>
       <r>   -7.1456    1.0000 </r>
       <r>   -7.1420    1.0000 </r>
       <r>    1.4772    1.0000 </r>
       <r>    1.4882    1.0000 </r>
       <r>    3.0109    1.0000 </r>
       <r>    3.0255    1.0000 </r>
       <r>    6.8684    0.0000 </r>
       <r>    6.8707    0.0000 </r>
       <r>    8.5713    0.0000 </r>
       <r>    8.5737    0.0000 </r>
       <r>    9.7772    0.0000 </r>
       <r>    9.7832    0.0000 </r>
       <r>   11.9332    0.0000 </r>
       <r>   11.9381    0.0000 </r>
       <r>   12.9579    0.0000 </r>
       <r>   12.9615    0.0000 </r>
      </set>
      <set comment="kpoint 7">
       <r>  -30.4572    1.0000 </r>
       <r>  -30.4565    1.0000 </r>
       <r>  -30.4519    1.0000 </r>
       <r>  -30.4516    1.0000 </r>
       <r>  -23.7909    1.0000 </r>
       <r>  -23.7892    1.0000 </r>
       <r>  -23.7872    1.0000 </r>
       <r>  -23.7854    1.0000 </r>
       <r>  -23.7832    1.0000 </r>
       <r>  -23.7823    1.0000 </r>
       <r>  -20.0753    1.0000 </r>
       <r>  -20.0726    1.0000 </r>
       <r>   -7.3149    1.0000 </r>
       <r>   -7.3114    1.0000 </r>
       <r>    0.8417    1.0000 </r>
       <r>    0.8480    1.0000 </r>
       <r>    2.3256    1.0000 </r>
       <r>    2.3329    1.0000 </r>
       <r>    7.2825    0.0000 </r>
       <r>    7.2855    0.0000 </r>
       <r>    8.7718    0.0000 </r>
       <r>    8.7735    0.0000 </r>
       <r>   10.2320    0.0000 </r>
       <r>   10.2333    0.0000 </r>
       <r>   11.9129    0.0000 </r>
       <r>   11.9162    0.0000 </r>
       <r>   13.4580    0.0000 </r>
       <r>   13.4590    0.0000 </r>
      </set>
      <set comment="kpoint 8">
       <r>  -30.4477    1.0000 </r>
       <r>  -30.4470    1.0000 </r>
       <r>  -30.4395    1.0000 </r>
       <r>  -30.4391    1.0000 </r>
       <r>  -23.7827    1.0000 </r>
       <r>  -23.7821    1.0000 </r>
       <r>  -23.7811    1.0000 </r>
       <r>  -23.7793    1.0000 </r>
       <r>  -23.7772    1.0000 </r>
       <r>  -23.7754    1.0000 </r>
       <r>  -20.0938    1.0000 </r>
       <r>  -20.0910    1.0000 </r>
       <r>   -7.2625    1.0000 </r>
       <r>   -7.2590    1.0000 </r>
       <r>    0.9482    1.0000 </r>
       <r>    0.9544    1.0000 </r>
       <r>    2.5839    1.0000 </r>
       <r>    2.5918    1.0000 </r>
       <r>    7.6716    0.0000 </r>
       <r>    7.6745    0.0000 </r>
       <r>    8.8505    0.0000 </r>
       <r>    8.8530    0.0000 </r>
       <r>   10.2484    0.0000 </r>
       <r>   10.2508    0.0000 </r>
       <r>   11.5327    0.0000 </r>
       <r>   11.5380    0.0000 </r>
       <r>   12.4626    0.0000 </r>
       <r>   12.4664    0.0000 </r>
      </set>
      <set comment="kpoint 9">
       <r>  -30.4684    1.0000 </r>
       <r>  -30.4679    1.0000 </r>
       <r>  -30.4567    1.0000 </r>
       <r>  -30.4563    1.0000 </r>
       <r>  -23.7968    1.0000 </r>
       <r>  -23.7952    1.0000 </r>
       <r>  -23.7923    1.0000 </r>
       <r>  -23.7908    1.0000 </r>
       <r>  -23.7899    1.0000 </r>
       <r>  -23.7885    1.0000 </r>
       <r>  -20.0935    1.0000 </r>
       <r>  -20.0907    1.0000 </r>
       <r>   -7.2780    1.0000 </r>
       <r>   -7.2745    1.0000 </r>
       <r>    0.7160    1.0000 </r>
       <r>    0.7213    1.0000 </r>
       <r>    3.3960    1.0000 </r>
       <r>    3.4028    1.0000 </r>
       <r>    6.2121    0.0000 </r>
       <r>    6.2145    0.0000 </r>
       <r>   10.3165    0.0000 </r>
       <r>   10.3179    0.0000 </r>
       <r>   10.5248    0.0000 </r>
       <r>   10.5273    0.0000 </r>
       <r>   10.7173    0.0000 </r>
       <r>   10.7234    0.0000 </r>
       <r>   12.1040    0.0000 </r>
       <r>   12.1056    0.0000 </r>
      </set>
      <set comment="kpoint 10">
       <r>  -30.4572    1.0000 </r>
       <r>  -30.4565    1.0000 </r>
       <r>  -30.4520    1.0000 </r>
       <r>  -30.4516    1.0000 </r>
       <r>  -23.7907    1.0000 </r>
       <r>  -23.7892    1.0000 </r>
       <r>  -23.7873    1.0000 </r>
       <r>  -23.7853    1.0000 </r>
       <r>  -23.7833    1.0000 </r>
       <r>  -23.7822    1.0000 </r>
       <r>  -20.0753    1.0000 </r>
       <r>  -20.0726    1.0000 </r>
       <r>   -7.3149    1.0000 </r>
       <r>   -7.3114    1.0000 </r>
       <r>    0.8413    1.0000 </r>
       <r>    0.8484    1.0000 </r>
       <r>    2.3251    1.0000 </r>
       <r>    2.3333    1.0000 </r>
       <r>    7.2824    0.0000 </r>
       <r>    7.2856    0.0000 </r>
       <r>    8.7716    0.0000 </r>
       <r>    8.7737    0.0000 </r>
       <r>   10.2315    0.0000 </r>
       <r>   10.2338    0.0000 </r>
       <r>   11.9129    0.0000 </r>
       <r>   11.9162    0.0000 </r>
       <r>   13.4578    0.0000 </r>
       <r>   13.4593    0.0000 </r>
      </set>
      <set comment="kpoint 11">
       <r>  -30.4662    1.0000 </r>
       <r>  -30.4655    1.0000 </r>
       <r>  -30.4515    1.0000 </r>
       <r>  -30.4509    1.0000 </r>
       <r>  -23.7973    1.0000 </r>
       <r>  -23.7951    1.0000 </r>
       <r>  -23.7873    1.0000 </r>
       <r>  -23.7854    1.0000 </r>
       <r>  -23.7839    1.0000 </r>
       <r>  -23.7825    1.0000 </r>
       <r>  -20.0570    1.0000 </r>
       <r>  -20.0543    1.0000 </r>
       <r>   -7.3637    1.0000 </r>
       <r>   -7.3602    1.0000 </r>
       <r>    0.7494    1.0000 </r>
       <r>    0.7616    1.0000 </r>
       <r>    2.3046    1.0000 </r>
       <r>    2.3184    1.0000 </r>
       <r>    6.3244    0.0000 </r>
       <r>    6.3260    0.0000 </r>
       <r>    7.7401    0.0000 </r>
       <r>    7.7425    0.0000 </r>
       <r>   10.8901    0.0000 </r>
       <r>   10.8934    0.0000 </r>
       <r>   15.0513    0.0000 </r>
       <r>   15.0555    0.0000 </r>
       <r>   15.1021    0.0000 </r>
       <r>   15.1071    0.0000 </r>
      </set>
      <set comment="kpoint 12">
       <r>  -30.4572    1.0000 </r>
       <r>  -30.4565    1.0000 </r>
       <r>  -30.4520    1.0000 </r>
       <r>  -30.4516    1.0000 </r>
       <r>  -23.7907    1.0000 </r>
       <r>  -23.7892    1.0000 </r>
       <r>  -23.7873    1.0000 </r>
       <r>  -23.7853    1.0000 </r>
       <r>  -23.7833    1.0000 </r>
       <r>  -23.7822    1.0000 </r>
       <r>  -20.0753    1.0000 </r>
       <r>  -20.0726    1.0000 </r>
       <r>   -7.3149    1.0000 </r>
       <r>   -7.3114    1.0000 </r>
       <r>    0.8413    1.0000 </r>
       <r>    0.8484    1.0000 </r>
       <r>    2.3251    1.0000 </r>
       <r>    2.3333    1.0000 </r>
       <r>    7.2824    0.0000 </r>
       <r>    7.2856    0.0000 </r>
       <r>    8.7716    0.0000 </r>
       <r>    8.7738    0.0000 </r>
       <r>   10.2315    0.0000 </r>
       <r>   10.2338    0.0000 </r>
       <r>   11.9129    0.0000 </r>
       <r>   11.9162    0.0000 </r>
       <r>   13.4578    0.0000 </r>
       <r>   13.4593    0.0000 </r>
      </set>
      <set comment="kpoint 13">
       <r>  -30.4451    1.0000 </r>
       <r>  -30.4447    1.0000 </r>
       <r>  -30.4434    1.0000 </r>
       <r>  -30.4429    1.0000 </r>
       <r>  -23.7854    1.0000 </r>
       <r>  -23.7847    1.0000 </r>
       <r>  -23.7813    1.0000 </r>
       <r>  -23.7807    1.0000 </r>
       <r>  -23.7799    1.0000 </r>
       <r>  -23.7788    1.0000 </r>
       <r>  -20.1495    1.0000 </r>
       <r>  -20.1467    1.0000 </r>
       <r>   -7.0942    1.0000 </r>
       <r>   -7.0906    1.0000 </r>
       <r>    1.5618    1.0000 </r>
       <r>    1.5668    1.0000 </r>
       <r>    3.6582    1.0000 </r>
       <r>    3.6655    1.0000 </r>
       <r>    6.0360    0.0000 </r>
       <r>    6.0378    0.0000 </r>
       <r>    9.9216    0.0000 </r>
       <r>    9.9236    0.0000 </r>
       <r>   10.8947    0.0000 </r>
       <r>   10.8955    0.0000 </r>
       <r>   11.2786    0.0000 </r>
       <r>   11.2825    0.0000 </r>
       <r>   11.5978    0.0000 </r>
       <r>   11.6008    0.0000 </r>
      </set>
      <set comment="kpoint 14">
       <r>  -30.4477    1.0000 </r>
       <r>  -30.4470    1.0000 </r>
       <r>  -30.4395    1.0000 </r>
       <r>  -30.4391    1.0000 </r>
       <r>  -23.7827    1.0000 </r>
       <r>  -23.7821    1.0000 </r>
       <r>  -23.7811    1.0000 </r>
       <r>  -23.7793    1.0000 </r>
       <r>  -23.7772    1.0000 </r>
       <r>  -23.7754    1.0000 </r>
       <r>  -20.0938    1.0000 </r>
       <r>  -20.0910    1.0000 </r>
       <r>   -7.2625    1.0000 </r>
       <r>   -7.2590    1.0000 </r>
       <r>    0.9482    1.0000 </r>
       <r>    0.9544    1.0000 </r>
       <r>    2.5839    1.0000 </r>
       <r>    2.5918    1.0000 </r>
       <r>    7.6716    0.0000 </r>
       <r>    7.6745    0.0000 </r>
       <r>    8.8505    0.0000 </r>
       <r>    8.8530    0.0000 </r>
       <r>   10.2484    0.0000 </r>
       <r>   10.2508    0.0000 </r>
       <r>   11.5327    0.0000 </r>
       <r>   11.5380    0.0000 </r>
       <r>   12.4626    0.0000 </r>
       <r>   12.4664    0.0000 </r>
      </set>
      <set comment="kpoint 15">
       <r>  -30.4572    1.0000 </r>
       <r>  -30.4565    1.0000 </r>
       <r>  -30.4519    1.0000 </r>
       <r>  -30.4516    1.0000 </r>
       <r>  -23.7909    1.0000 </r>
       <r>  -23.7892    1.0000 </r>
       <r>  -23.7872    1.0000 </r>
       <r>  -23.7854    1.0000 </r>
       <r>  -23.7832    1.0000 </r>
       <r>  -23.7823    1.0000 </r>
       <r>  -20.0753    1.0000 </r>
       <r>  -20.0726    1.0000 </r>
       <r>   -7.3149    1.0000 </r>
       <r>   -7.3114    1.0000 </r>
       <r>    0.8417    1.0000 </r>
       <r>    0.8480    1.0000 </r>
       <r>    2.3256    1.0000 </r>
       <r>    2.3329    1.0000 </r>
       <r>    7.2825    0.0000 </r>
       <r>    7.2855    0.0000 </r>
       <r>    8.7718    0.0000 </r>
       <r>    8.7735    0.0000 </r>
       <r>   10.2320    0.0000 </r>
       <r>   10.2333    0.0000 </r>
       <r>   11.9129    0.0000 </r>
       <r>   11.9162    0.0000 </r>
       <r>   13.4580    0.0000 </r>
       <r>   13.4590    0.0000 </r>
      </set>
      <set comment="kpoint 16">
       <r>  -30.4515    1.0000 </r>
       <r>  -30.4509    1.0000 </r>
       <r>  -30.4450    1.0000 </r>
       <r>  -30.4442    1.0000 </r>
       <r>  -23.7896    1.0000 </r>
       <r>  -23.7878    1.0000 </r>
       <r>  -23.7829    1.0000 </r>
       <r>  -23.7822    1.0000 </r>
       <r>  -23.7805    1.0000 </r>
       <r>  -23.7798    1.0000 </r>
       <r>  -20.1313    1.0000 </r>
       <r>  -20.1286    1.0000 </r>
       <r>   -7.1456    1.0000 </r>
       <r>   -7.1420    1.0000 </r>
       <r>    1.4772    1.0000 </r>
       <r>    1.4882    1.0000 </r>
       <r>    3.0109    1.0000 </r>
       <r>    3.0255    1.0000 </r>
       <r>    6.8684    0.0000 </r>
       <r>    6.8707    0.0000 </r>
       <r>    8.5713    0.0000 </r>
       <r>    8.5737    0.0000 </r>
       <r>    9.7772    0.0000 </r>
       <r>    9.7832    0.0000 </r>
       <r>   11.9332    0.0000 </r>
       <r>   11.9381    0.0000 </r>
       <r>   12.9579    0.0000 </r>
       <r>   12.9615    0.0000 </r>
      </set>
      <set comment="kpoint 17">
       <r>  -30.4450    1.0000 </r>
       <r>  -30.4447    1.0000 </r>
       <r>  -30.4434    1.0000 </r>
       <r>  -30.4429    1.0000 </r>
       <r>  -23.7854    1.0000 </r>
       <r>  -23.7847    1.0000 </r>
       <r>  -23.7812    1.0000 </r>
       <r>  -23.7807    1.0000 </r>
       <r>  -23.7799    1.0000 </r>
       <r>  -23.7789    1.0000 </r>
       <r>  -20.1495    1.0000 </r>
       <r>  -20.1467    1.0000 </r>
       <r>   -7.0942    1.0000 </r>
       <r>   -7.0906    1.0000 </r>
       <r>    1.5621    1.0000 </r>
       <r>    1.5664    1.0000 </r>
       <r>    3.6587    1.0000 </r>
       <r>    3.6650    1.0000 </r>
       <r>    6.0360    0.0000 </r>
       <r>    6.0378    0.0000 </r>
       <r>    9.9218    0.0000 </r>
       <r>    9.9234    0.0000 </r>
       <r>   10.8947    0.0000 </r>
       <r>   10.8954    0.0000 </r>
       <r>   11.2785    0.0000 </r>
       <r>   11.2825    0.0000 </r>
       <r>   11.5977    0.0000 </r>
       <r>   11.6009    0.0000 </r>
      </set>
      <set comment="kpoint 18">
       <r>  -30.4515    1.0000 </r>
       <r>  -30.4509    1.0000 </r>
       <r>  -30.4450    1.0000 </r>
       <r>  -30.4442    1.0000 </r>
       <r>  -23.7895    1.0000 </r>
       <r>  -23.7879    1.0000 </r>
       <r>  -23.7829    1.0000 </r>
       <r>  -23.7823    1.0000 </r>
       <r>  -23.7805    1.0000 </r>
       <r>  -23.7798    1.0000 </r>
       <r>  -20.1313    1.0000 </r>
       <r>  -20.1286    1.0000 </r>
       <r>   -7.1456    1.0000 </r>
       <r>   -7.1420    1.0000 </r>
       <r>    1.4772    1.0000 </r>
       <r>    1.4882    1.0000 </r>
       <r>    3.0109    1.0000 </r>
       <r>    3.0255    1.0000 </r>
       <r>    6.8684    0.0000 </r>
       <r>    6.8707    0.0000 </r>
       <r>    8.5714    0.0000 </r>
       <r>    8.5736    0.0000 </r>
       <r>    9.7771    0.0000 </r>
       <r>    9.7833    0.0000 </r>
       <r>   11.9332    0.0000 </r>
       <r>   11.9381    0.0000 </r>
       <r>   12.9579    0.0000 </r>
       <r>   12.9614    0.0000 </r>
      </set>
      <set comment="kpoint 19">
       <r>  -30.4572    1.0000 </r>
       <r>  -30.4565    1.0000 </r>
       <r>  -30.4519    1.0000 </r>
       <r>  -30.4516    1.0000 </r>
       <r>  -23.7908    1.0000 </r>
       <r>  -23.7893    1.0000 </r>
       <r>  -23.7872    1.0000 </r>
       <r>  -23.7853    1.0000 </r>
       <r>  -23.7832    1.0000 </r>
       <r>  -23.7823    1.0000 </r>
       <r>  -20.0753    1.0000 </r>
       <r>  -20.0726    1.0000 </r>
       <r>   -7.3149    1.0000 </r>
       <r>   -7.3113    1.0000 </r>
       <r>    0.8418    1.0000 </r>
       <r>    0.8479    1.0000 </r>
       <r>    2.3257    1.0000 </r>
       <r>    2.3328    1.0000 </r>
       <r>    7.2826    0.0000 </r>
       <r>    7.2855    0.0000 </r>
       <r>    8.7719    0.0000 </r>
       <r>    8.7735    0.0000 </r>
       <r>   10.2320    0.0000 </r>
       <r>   10.2333    0.0000 </r>
       <r>   11.9130    0.0000 </r>
       <r>   11.9162    0.0000 </r>
       <r>   13.4581    0.0000 </r>
       <r>   13.4590    0.0000 </r>
      </set>
      <set comment="kpoint 20">
       <r>  -30.4477    1.0000 </r>
       <r>  -30.4469    1.0000 </r>
       <r>  -30.4395    1.0000 </r>
       <r>  -30.4391    1.0000 </r>
       <r>  -23.7827    1.0000 </r>
       <r>  -23.7821    1.0000 </r>
       <r>  -23.7811    1.0000 </r>
       <r>  -23.7794    1.0000 </r>
       <r>  -23.7771    1.0000 </r>
       <r>  -23.7754    1.0000 </r>
       <r>  -20.0938    1.0000 </r>
       <r>  -20.0910    1.0000 </r>
       <r>   -7.2625    1.0000 </r>
       <r>   -7.2590    1.0000 </r>
       <r>    0.9484    1.0000 </r>
       <r>    0.9541    1.0000 </r>
       <r>    2.5842    1.0000 </r>
       <r>    2.5915    1.0000 </r>
       <r>    7.6717    0.0000 </r>
       <r>    7.6744    0.0000 </r>
       <r>    8.8505    0.0000 </r>
       <r>    8.8530    0.0000 </r>
       <r>   10.2484    0.0000 </r>
       <r>   10.2508    0.0000 </r>
       <r>   11.5329    0.0000 </r>
       <r>   11.5378    0.0000 </r>
       <r>   12.4625    0.0000 </r>
       <r>   12.4665    0.0000 </r>
      </set>
      <set comment="kpoint 21">
       <r>  -30.4517    1.0000 </r>
       <r>  -30.4508    1.0000 </r>
       <r>  -30.4449    1.0000 </r>
       <r>  -30.4443    1.0000 </r>
       <r>  -23.7900    1.0000 </r>
       <r>  -23.7873    1.0000 </r>
       <r>  -23.7828    1.0000 </r>
       <r>  -23.7822    1.0000 </r>
       <r>  -23.7807    1.0000 </r>
       <r>  -23.7799    1.0000 </r>
       <r>  -20.1313    1.0000 </r>
       <r>  -20.1286    1.0000 </r>
       <r>   -7.1455    1.0000 </r>
       <r>   -7.1421    1.0000 </r>
       <r>    1.4773    1.0000 </r>
       <r>    1.4882    1.0000 </r>
       <r>    3.0110    1.0000 </r>
       <r>    3.0254    1.0000 </r>
       <r>    6.8685    0.0000 </r>
       <r>    6.8706    0.0000 </r>
       <r>    8.5707    0.0000 </r>
       <r>    8.5743    0.0000 </r>
       <r>    9.7775    0.0000 </r>
       <r>    9.7829    0.0000 </r>
       <r>   11.9331    0.0000 </r>
       <r>   11.9382    0.0000 </r>
       <r>   12.9578    0.0000 </r>
       <r>   12.9615    0.0000 </r>
      </set>
      <set comment="kpoint 22">
       <r>  -30.4453    1.0000 </r>
       <r>  -30.4444    1.0000 </r>
       <r>  -30.4435    1.0000 </r>
       <r>  -30.4429    1.0000 </r>
       <r>  -23.7853    1.0000 </r>
       <r>  -23.7843    1.0000 </r>
       <r>  -23.7822    1.0000 </r>
       <r>  -23.7806    1.0000 </r>
       <r>  -23.7799    1.0000 </r>
       <r>  -23.7784    1.0000 </r>
       <r>  -20.1495    1.0000 </r>
       <r>  -20.1467    1.0000 </r>
       <r>   -7.0942    1.0000 </r>
       <r>   -7.0907    1.0000 </r>
       <r>    1.5589    1.0000 </r>
       <r>    1.5697    1.0000 </r>
       <r>    3.6546    1.0000 </r>
       <r>    3.6691    1.0000 </r>
       <r>    6.0360    0.0000 </r>
       <r>    6.0379    0.0000 </r>
       <r>    9.9201    0.0000 </r>
       <r>    9.9251    0.0000 </r>
       <r>   10.8945    0.0000 </r>
       <r>   10.8956    0.0000 </r>
       <r>   11.2798    0.0000 </r>
       <r>   11.2813    0.0000 </r>
       <r>   11.5984    0.0000 </r>
       <r>   11.6002    0.0000 </r>
      </set>
      <set comment="kpoint 23">
       <r>  -30.4475    1.0000 </r>
       <r>  -30.4472    1.0000 </r>
       <r>  -30.4397    1.0000 </r>
       <r>  -30.4390    1.0000 </r>
       <r>  -23.7835    1.0000 </r>
       <r>  -23.7816    1.0000 </r>
       <r>  -23.7808    1.0000 </r>
       <r>  -23.7787    1.0000 </r>
       <r>  -23.7774    1.0000 </r>
       <r>  -23.7757    1.0000 </r>
       <r>  -20.0938    1.0000 </r>
       <r>  -20.0910    1.0000 </r>
       <r>   -7.2625    1.0000 </r>
       <r>   -7.2591    1.0000 </r>
       <r>    0.9470    1.0000 </r>
       <r>    0.9555    1.0000 </r>
       <r>    2.5832    1.0000 </r>
       <r>    2.5925    1.0000 </r>
       <r>    7.6711    0.0000 </r>
       <r>    7.6750    0.0000 </r>
       <r>    8.8508    0.0000 </r>
       <r>    8.8527    0.0000 </r>
       <r>   10.2479    0.0000 </r>
       <r>   10.2513    0.0000 </r>
       <r>   11.5320    0.0000 </r>
       <r>   11.5387    0.0000 </r>
       <r>   12.4637    0.0000 </r>
       <r>   12.4652    0.0000 </r>
      </set>
      <set comment="kpoint 24">
       <r>  -30.4570    1.0000 </r>
       <r>  -30.4567    1.0000 </r>
       <r>  -30.4520    1.0000 </r>
       <r>  -30.4515    1.0000 </r>
       <r>  -23.7915    1.0000 </r>
       <r>  -23.7884    1.0000 </r>
       <r>  -23.7869    1.0000 </r>
       <r>  -23.7857    1.0000 </r>
       <r>  -23.7834    1.0000 </r>
       <r>  -23.7823    1.0000 </r>
       <r>  -20.0753    1.0000 </r>
       <r>  -20.0726    1.0000 </r>
       <r>   -7.3148    1.0000 </r>
       <r>   -7.3114    1.0000 </r>
       <r>    0.8409    1.0000 </r>
       <r>    0.8488    1.0000 </r>
       <r>    2.3248    1.0000 </r>
       <r>    2.3336    1.0000 </r>
       <r>    7.2824    0.0000 </r>
       <r>    7.2856    0.0000 </r>
       <r>    8.7716    0.0000 </r>
       <r>    8.7738    0.0000 </r>
       <r>   10.2323    0.0000 </r>
       <r>   10.2330    0.0000 </r>
       <r>   11.9129    0.0000 </r>
       <r>   11.9162    0.0000 </r>
       <r>   13.4581    0.0000 </r>
       <r>   13.4590    0.0000 </r>
      </set>
      <set comment="kpoint 25">
       <r>  -30.4572    1.0000 </r>
       <r>  -30.4565    1.0000 </r>
       <r>  -30.4520    1.0000 </r>
       <r>  -30.4515    1.0000 </r>
       <r>  -23.7910    1.0000 </r>
       <r>  -23.7890    1.0000 </r>
       <r>  -23.7872    1.0000 </r>
       <r>  -23.7855    1.0000 </r>
       <r>  -23.7833    1.0000 </r>
       <r>  -23.7822    1.0000 </r>
       <r>  -20.0753    1.0000 </r>
       <r>  -20.0726    1.0000 </r>
       <r>   -7.3148    1.0000 </r>
       <r>   -7.3114    1.0000 </r>
       <r>    0.8410    1.0000 </r>
       <r>    0.8487    1.0000 </r>
       <r>    2.3249    1.0000 </r>
       <r>    2.3336    1.0000 </r>
       <r>    7.2821    0.0000 </r>
       <r>    7.2859    0.0000 </r>
       <r>    8.7716    0.0000 </r>
       <r>    8.7737    0.0000 </r>
       <r>   10.2314    0.0000 </r>
       <r>   10.2339    0.0000 </r>
       <r>   11.9125    0.0000 </r>
       <r>   11.9166    0.0000 </r>
       <r>   13.4576    0.0000 </r>
       <r>   13.4594    0.0000 </r>
      </set>
      <set comment="kpoint 26">
       <r>  -30.4475    1.0000 </r>
       <r>  -30.4472    1.0000 </r>
       <r>  -30.4396    1.0000 </r>
       <r>  -30.4390    1.0000 </r>
       <r>  -23.7838    1.0000 </r>
       <r>  -23.7816    1.0000 </r>
       <r>  -23.7804    1.0000 </r>
       <r>  -23.7788    1.0000 </r>
       <r>  -23.7773    1.0000 </r>
       <r>  -23.7760    1.0000 </r>
       <r>  -20.0938    1.0000 </r>
       <r>  -20.0910    1.0000 </r>
       <r>   -7.2625    1.0000 </r>
       <r>   -7.2591    1.0000 </r>
       <r>    0.9485    1.0000 </r>
       <r>    0.9540    1.0000 </r>
       <r>    2.5849    1.0000 </r>
       <r>    2.5908    1.0000 </r>
       <r>    7.6718    0.0000 </r>
       <r>    7.6743    0.0000 </r>
       <r>    8.8506    0.0000 </r>
       <r>    8.8529    0.0000 </r>
       <r>   10.2476    0.0000 </r>
       <r>   10.2516    0.0000 </r>
       <r>   11.5333    0.0000 </r>
       <r>   11.5375    0.0000 </r>
       <r>   12.4632    0.0000 </r>
       <r>   12.4658    0.0000 </r>
      </set>
      <set comment="kpoint 27">
       <r>  -30.4570    1.0000 </r>
       <r>  -30.4566    1.0000 </r>
       <r>  -30.4521    1.0000 </r>
       <r>  -30.4514    1.0000 </r>
       <r>  -23.7907    1.0000 </r>
       <r>  -23.7894    1.0000 </r>
       <r>  -23.7869    1.0000 </r>
       <r>  -23.7857    1.0000 </r>
       <r>  -23.7838    1.0000 </r>
       <r>  -23.7817    1.0000 </r>
       <r>  -20.0753    1.0000 </r>
       <r>  -20.0726    1.0000 </r>
       <r>   -7.3148    1.0000 </r>
       <r>   -7.3114    1.0000 </r>
       <r>    0.8390    1.0000 </r>
       <r>    0.8507    1.0000 </r>
       <r>    2.3229    1.0000 </r>
       <r>    2.3356    1.0000 </r>
       <r>    7.2825    0.0000 </r>
       <r>    7.2855    0.0000 </r>
       <r>    8.7706    0.0000 </r>
       <r>    8.7747    0.0000 </r>
       <r>   10.2307    0.0000 </r>
       <r>   10.2346    0.0000 </r>
       <r>   11.9131    0.0000 </r>
       <r>   11.9160    0.0000 </r>
       <r>   13.4575    0.0000 </r>
       <r>   13.4596    0.0000 </r>
      </set>
      <set comment="kpoint 28">
       <r>  -30.4521    1.0000 </r>
       <r>  -30.4518    1.0000 </r>
       <r>  -30.4514    1.0000 </r>
       <r>  -30.4510    1.0000 </r>
       <r>  -23.7866    1.0000 </r>
       <r>  -23.7856    1.0000 </r>
       <r>  -23.7842    1.0000 </r>
       <r>  -23.7835    1.0000 </r>
       <r>  -23.7824    1.0000 </r>
       <r>  -23.7813    1.0000 </r>
       <r>  -20.0567    1.0000 </r>
       <r>  -20.0540    1.0000 </r>
       <r>   -7.3618    1.0000 </r>
       <r>   -7.3584    1.0000 </r>
       <r>    0.9735    1.0000 </r>
       <r>    0.9856    1.0000 </r>
       <r>    1.5973    1.0000 </r>
       <r>    1.6095    1.0000 </r>
       <r>    7.6573    0.0000 </r>
       <r>    7.6593    0.0000 </r>
       <r>    9.6908    0.0000 </r>
       <r>    9.6970    0.0000 </r>
       <r>    9.9700    0.0000 </r>
       <r>    9.9739    0.0000 </r>
       <r>   10.7116    0.0000 </r>
       <r>   10.7157    0.0000 </r>
       <r>   13.7001    0.0000 </r>
       <r>   13.7010    0.0000 </r>
      </set>
      <set comment="kpoint 29">
       <r>  -30.4477    1.0000 </r>
       <r>  -30.4470    1.0000 </r>
       <r>  -30.4396    1.0000 </r>
       <r>  -30.4390    1.0000 </r>
       <r>  -23.7827    1.0000 </r>
       <r>  -23.7822    1.0000 </r>
       <r>  -23.7811    1.0000 </r>
       <r>  -23.7791    1.0000 </r>
       <r>  -23.7773    1.0000 </r>
       <r>  -23.7754    1.0000 </r>
       <r>  -20.0938    1.0000 </r>
       <r>  -20.0910    1.0000 </r>
       <r>   -7.2625    1.0000 </r>
       <r>   -7.2590    1.0000 </r>
       <r>    0.9471    1.0000 </r>
       <r>    0.9554    1.0000 </r>
       <r>    2.5828    1.0000 </r>
       <r>    2.5929    1.0000 </r>
       <r>    7.6710    0.0000 </r>
       <r>    7.6751    0.0000 </r>
       <r>    8.8508    0.0000 </r>
       <r>    8.8527    0.0000 </r>
       <r>   10.2485    0.0000 </r>
       <r>   10.2507    0.0000 </r>
       <r>   11.5318    0.0000 </r>
       <r>   11.5389    0.0000 </r>
       <r>   12.4630    0.0000 </r>
       <r>   12.4660    0.0000 </r>
      </set>
      <set comment="kpoint 30">
       <r>  -30.4570    1.0000 </r>
       <r>  -30.4567    1.0000 </r>
       <r>  -30.4520    1.0000 </r>
       <r>  -30.4515    1.0000 </r>
       <r>  -23.7913    1.0000 </r>
       <r>  -23.7886    1.0000 </r>
       <r>  -23.7869    1.0000 </r>
       <r>  -23.7857    1.0000 </r>
       <r>  -23.7838    1.0000 </r>
       <r>  -23.7819    1.0000 </r>
       <r>  -20.0753    1.0000 </r>
       <r>  -20.0726    1.0000 </r>
       <r>   -7.3149    1.0000 </r>
       <r>   -7.3114    1.0000 </r>
       <r>    0.8404    1.0000 </r>
       <r>    0.8493    1.0000 </r>
       <r>    2.3241    1.0000 </r>
       <r>    2.3343    1.0000 </r>
       <r>    7.2829    0.0000 </r>
       <r>    7.2851    0.0000 </r>
       <r>    8.7712    0.0000 </r>
       <r>    8.7741    0.0000 </r>
       <r>   10.2319    0.0000 </r>
       <r>   10.2334    0.0000 </r>
       <r>   11.9135    0.0000 </r>
       <r>   11.9157    0.0000 </r>
       <r>   13.4583    0.0000 </r>
       <r>   13.4588    0.0000 </r>
      </set>
      <set comment="kpoint 31">
       <r>  -30.4522    1.0000 </r>
       <r>  -30.4517    1.0000 </r>
       <r>  -30.4513    1.0000 </r>
       <r>  -30.4511    1.0000 </r>
       <r>  -23.7866    1.0000 </r>
       <r>  -23.7853    1.0000 </r>
       <r>  -23.7842    1.0000 </r>
       <r>  -23.7837    1.0000 </r>
       <r>  -23.7828    1.0000 </r>
       <r>  -23.7809    1.0000 </r>
       <r>  -20.0567    1.0000 </r>
       <r>  -20.0540    1.0000 </r>
       <r>   -7.3619    1.0000 </r>
       <r>   -7.3584    1.0000 </r>
       <r>    0.9735    1.0000 </r>
       <r>    0.9856    1.0000 </r>
       <r>    1.5971    1.0000 </r>
       <r>    1.6096    1.0000 </r>
       <r>    7.6566    0.0000 </r>
       <r>    7.6601    0.0000 </r>
       <r>    9.6911    0.0000 </r>
       <r>    9.6967    0.0000 </r>
       <r>    9.9704    0.0000 </r>
       <r>    9.9735    0.0000 </r>
       <r>   10.7115    0.0000 </r>
       <r>   10.7158    0.0000 </r>
       <r>   13.6996    0.0000 </r>
       <r>   13.7015    0.0000 </r>
      </set>
      <set comment="kpoint 32">
       <r>  -30.4570    1.0000 </r>
       <r>  -30.4567    1.0000 </r>
       <r>  -30.4520    1.0000 </r>
       <r>  -30.4515    1.0000 </r>
       <r>  -23.7913    1.0000 </r>
       <r>  -23.7885    1.0000 </r>
       <r>  -23.7869    1.0000 </r>
       <r>  -23.7857    1.0000 </r>
       <r>  -23.7837    1.0000 </r>
       <r>  -23.7820    1.0000 </r>
       <r>  -20.0753    1.0000 </r>
       <r>  -20.0726    1.0000 </r>
       <r>   -7.3149    1.0000 </r>
       <r>   -7.3114    1.0000 </r>
       <r>    0.8405    1.0000 </r>
       <r>    0.8492    1.0000 </r>
       <r>    2.3243    1.0000 </r>
       <r>    2.3342    1.0000 </r>
       <r>    7.2829    0.0000 </r>
       <r>    7.2851    0.0000 </r>
       <r>    8.7713    0.0000 </r>
       <r>    8.7740    0.0000 </r>
       <r>   10.2320    0.0000 </r>
       <r>   10.2333    0.0000 </r>
       <r>   11.9134    0.0000 </r>
       <r>   11.9158    0.0000 </r>
       <r>   13.4583    0.0000 </r>
       <r>   13.4588    0.0000 </r>
      </set>
      <set comment="kpoint 33">
       <r>  -30.4684    1.0000 </r>
       <r>  -30.4679    1.0000 </r>
       <r>  -30.4567    1.0000 </r>
       <r>  -30.4563    1.0000 </r>
       <r>  -23.7968    1.0000 </r>
       <r>  -23.7952    1.0000 </r>
       <r>  -23.7922    1.0000 </r>
       <r>  -23.7909    1.0000 </r>
       <r>  -23.7899    1.0000 </r>
       <r>  -23.7885    1.0000 </r>
       <r>  -20.0935    1.0000 </r>
       <r>  -20.0907    1.0000 </r>
       <r>   -7.2780    1.0000 </r>
       <r>   -7.2745    1.0000 </r>
       <r>    0.7163    1.0000 </r>
       <r>    0.7210    1.0000 </r>
       <r>    3.3964    1.0000 </r>
       <r>    3.4024    1.0000 </r>
       <r>    6.2121    0.0000 </r>
       <r>    6.2146    0.0000 </r>
       <r>   10.3166    0.0000 </r>
       <r>   10.3178    0.0000 </r>
       <r>   10.5248    0.0000 </r>
       <r>   10.5274    0.0000 </r>
       <r>   10.7172    0.0000 </r>
       <r>   10.7235    0.0000 </r>
       <r>   12.1041    0.0000 </r>
       <r>   12.1056    0.0000 </r>
      </set>
      <set comment="kpoint 34">
       <r>  -30.4572    1.0000 </r>
       <r>  -30.4565    1.0000 </r>
       <r>  -30.4519    1.0000 </r>
       <r>  -30.4516    1.0000 </r>
       <r>  -23.7907    1.0000 </r>
       <r>  -23.7893    1.0000 </r>
       <r>  -23.7873    1.0000 </r>
       <r>  -23.7853    1.0000 </r>
       <r>  -23.7832    1.0000 </r>
       <r>  -23.7823    1.0000 </r>
       <r>  -20.0753    1.0000 </r>
       <r>  -20.0726    1.0000 </r>
       <r>   -7.3149    1.0000 </r>
       <r>   -7.3114    1.0000 </r>
       <r>    0.8415    1.0000 </r>
       <r>    0.8482    1.0000 </r>
       <r>    2.3253    1.0000 </r>
       <r>    2.3331    1.0000 </r>
       <r>    7.2825    0.0000 </r>
       <r>    7.2855    0.0000 </r>
       <r>    8.7717    0.0000 </r>
       <r>    8.7737    0.0000 </r>
       <r>   10.2316    0.0000 </r>
       <r>   10.2337    0.0000 </r>
       <r>   11.9130    0.0000 </r>
       <r>   11.9161    0.0000 </r>
       <r>   13.4579    0.0000 </r>
       <r>   13.4592    0.0000 </r>
      </set>
      <set comment="kpoint 35">
       <r>  -30.4662    1.0000 </r>
       <r>  -30.4655    1.0000 </r>
       <r>  -30.4514    1.0000 </r>
       <r>  -30.4509    1.0000 </r>
       <r>  -23.7973    1.0000 </r>
       <r>  -23.7951    1.0000 </r>
       <r>  -23.7872    1.0000 </r>
       <r>  -23.7855    1.0000 </r>
       <r>  -23.7839    1.0000 </r>
       <r>  -23.7825    1.0000 </r>
       <r>  -20.0570    1.0000 </r>
       <r>  -20.0543    1.0000 </r>
       <r>   -7.3637    1.0000 </r>
       <r>   -7.3602    1.0000 </r>
       <r>    0.7494    1.0000 </r>
       <r>    0.7616    1.0000 </r>
       <r>    2.3046    1.0000 </r>
       <r>    2.3184    1.0000 </r>
       <r>    6.3244    0.0000 </r>
       <r>    6.3259    0.0000 </r>
       <r>    7.7402    0.0000 </r>
       <r>    7.7424    0.0000 </r>
       <r>   10.8900    0.0000 </r>
       <r>   10.8934    0.0000 </r>
       <r>   15.0515    0.0000 </r>
       <r>   15.0553    0.0000 </r>
       <r>   15.1022    0.0000 </r>
       <r>   15.1069    0.0000 </r>
      </set>
      <set comment="kpoint 36">
       <r>  -30.4572    1.0000 </r>
       <r>  -30.4565    1.0000 </r>
       <r>  -30.4519    1.0000 </r>
       <r>  -30.4516    1.0000 </r>
       <r>  -23.7907    1.0000 </r>
       <r>  -23.7893    1.0000 </r>
       <r>  -23.7873    1.0000 </r>
       <r>  -23.7853    1.0000 </r>
       <r>  -23.7832    1.0000 </r>
       <r>  -23.7823    1.0000 </r>
       <r>  -20.0753    1.0000 </r>
       <r>  -20.0726    1.0000 </r>
       <r>   -7.3149    1.0000 </r>
       <r>   -7.3114    1.0000 </r>
       <r>    0.8415    1.0000 </r>
       <r>    0.8482    1.0000 </r>
       <r>    2.3253    1.0000 </r>
       <r>    2.3331    1.0000 </r>
       <r>    7.2825    0.0000 </r>
       <r>    7.2855    0.0000 </r>
       <r>    8.7717    0.0000 </r>
       <r>    8.7737    0.0000 </r>
       <r>   10.2316    0.0000 </r>
       <r>   10.2337    0.0000 </r>
       <r>   11.9130    0.0000 </r>
       <r>   11.9161    0.0000 </r>
       <r>   13.4579    0.0000 </r>
       <r>   13.4592    0.0000 </r>
      </set>
      <set comment="kpoint 37">
       <r>  -30.4571    1.0000 </r>
       <r>  -30.4565    1.0000 </r>
       <r>  -30.4520    1.0000 </r>
       <r>  -30.4515    1.0000 </r>
       <r>  -23.7910    1.0000 </r>
       <r>  -23.7890    1.0000 </r>
       <r>  -23.7872    1.0000 </r>
       <r>  -23.7855    1.0000 </r>
       <r>  -23.7832    1.0000 </r>
       <r>  -23.7823    1.0000 </r>
       <r>  -20.0753    1.0000 </r>
       <r>  -20.0726    1.0000 </r>
       <r>   -7.3148    1.0000 </r>
       <r>   -7.3114    1.0000 </r>
       <r>    0.8411    1.0000 </r>
       <r>    0.8485    1.0000 </r>
       <r>    2.3250    1.0000 </r>
       <r>    2.3334    1.0000 </r>
       <r>    7.2821    0.0000 </r>
       <r>    7.2859    0.0000 </r>
       <r>    8.7717    0.0000 </r>
       <r>    8.7736    0.0000 </r>
       <r>   10.2315    0.0000 </r>
       <r>   10.2338    0.0000 </r>
       <r>   11.9126    0.0000 </r>
       <r>   11.9166    0.0000 </r>
       <r>   13.4577    0.0000 </r>
       <r>   13.4594    0.0000 </r>
      </set>
      <set comment="kpoint 38">
       <r>  -30.4475    1.0000 </r>
       <r>  -30.4472    1.0000 </r>
       <r>  -30.4396    1.0000 </r>
       <r>  -30.4390    1.0000 </r>
       <r>  -23.7838    1.0000 </r>
       <r>  -23.7816    1.0000 </r>
       <r>  -23.7805    1.0000 </r>
       <r>  -23.7788    1.0000 </r>
       <r>  -23.7773    1.0000 </r>
       <r>  -23.7760    1.0000 </r>
       <r>  -20.0938    1.0000 </r>
       <r>  -20.0910    1.0000 </r>
       <r>   -7.2625    1.0000 </r>
       <r>   -7.2591    1.0000 </r>
       <r>    0.9482    1.0000 </r>
       <r>    0.9543    1.0000 </r>
       <r>    2.5845    1.0000 </r>
       <r>    2.5912    1.0000 </r>
       <r>    7.6717    0.0000 </r>
       <r>    7.6743    0.0000 </r>
       <r>    8.8505    0.0000 </r>
       <r>    8.8530    0.0000 </r>
       <r>   10.2477    0.0000 </r>
       <r>   10.2515    0.0000 </r>
       <r>   11.5330    0.0000 </r>
       <r>   11.5377    0.0000 </r>
       <r>   12.4633    0.0000 </r>
       <r>   12.4657    0.0000 </r>
      </set>
      <set comment="kpoint 39">
       <r>  -30.4570    1.0000 </r>
       <r>  -30.4567    1.0000 </r>
       <r>  -30.4521    1.0000 </r>
       <r>  -30.4514    1.0000 </r>
       <r>  -23.7907    1.0000 </r>
       <r>  -23.7893    1.0000 </r>
       <r>  -23.7868    1.0000 </r>
       <r>  -23.7857    1.0000 </r>
       <r>  -23.7839    1.0000 </r>
       <r>  -23.7817    1.0000 </r>
       <r>  -20.0753    1.0000 </r>
       <r>  -20.0726    1.0000 </r>
       <r>   -7.3148    1.0000 </r>
       <r>   -7.3114    1.0000 </r>
       <r>    0.8390    1.0000 </r>
       <r>    0.8507    1.0000 </r>
       <r>    2.3228    1.0000 </r>
       <r>    2.3356    1.0000 </r>
       <r>    7.2825    0.0000 </r>
       <r>    7.2855    0.0000 </r>
       <r>    8.7706    0.0000 </r>
       <r>    8.7748    0.0000 </r>
       <r>   10.2308    0.0000 </r>
       <r>   10.2345    0.0000 </r>
       <r>   11.9132    0.0000 </r>
       <r>   11.9159    0.0000 </r>
       <r>   13.4575    0.0000 </r>
       <r>   13.4595    0.0000 </r>
      </set>
      <set comment="kpoint 40">
       <r>  -30.4521    1.0000 </r>
       <r>  -30.4518    1.0000 </r>
       <r>  -30.4514    1.0000 </r>
       <r>  -30.4510    1.0000 </r>
       <r>  -23.7866    1.0000 </r>
       <r>  -23.7855    1.0000 </r>
       <r>  -23.7842    1.0000 </r>
       <r>  -23.7835    1.0000 </r>
       <r>  -23.7825    1.0000 </r>
       <r>  -23.7812    1.0000 </r>
       <r>  -20.0567    1.0000 </r>
       <r>  -20.0540    1.0000 </r>
       <r>   -7.3618    1.0000 </r>
       <r>   -7.3584    1.0000 </r>
       <r>    0.9735    1.0000 </r>
       <r>    0.9855    1.0000 </r>
       <r>    1.5972    1.0000 </r>
       <r>    1.6095    1.0000 </r>
       <r>    7.6572    0.0000 </r>
       <r>    7.6595    0.0000 </r>
       <r>    9.6908    0.0000 </r>
       <r>    9.6969    0.0000 </r>
       <r>    9.9701    0.0000 </r>
       <r>    9.9738    0.0000 </r>
       <r>   10.7116    0.0000 </r>
       <r>   10.7158    0.0000 </r>
       <r>   13.7000    0.0000 </r>
       <r>   13.7011    0.0000 </r>
      </set>
      <set comment="kpoint 41">
       <r>  -30.4661    1.0000 </r>
       <r>  -30.4656    1.0000 </r>
       <r>  -30.4516    1.0000 </r>
       <r>  -30.4507    1.0000 </r>
       <r>  -23.7971    1.0000 </r>
       <r>  -23.7953    1.0000 </r>
       <r>  -23.7875    1.0000 </r>
       <r>  -23.7853    1.0000 </r>
       <r>  -23.7841    1.0000 </r>
       <r>  -23.7823    1.0000 </r>
       <r>  -20.0570    1.0000 </r>
       <r>  -20.0543    1.0000 </r>
       <r>   -7.3636    1.0000 </r>
       <r>   -7.3603    1.0000 </r>
       <r>    0.7494    1.0000 </r>
       <r>    0.7616    1.0000 </r>
       <r>    2.3048    1.0000 </r>
       <r>    2.3182    1.0000 </r>
       <r>    6.3240    0.0000 </r>
       <r>    6.3264    0.0000 </r>
       <r>    7.7395    0.0000 </r>
       <r>    7.7431    0.0000 </r>
       <r>   10.8905    0.0000 </r>
       <r>   10.8930    0.0000 </r>
       <r>   15.0502    0.0000 </r>
       <r>   15.0566    0.0000 </r>
       <r>   15.1013    0.0000 </r>
       <r>   15.1079    0.0000 </r>
      </set>
      <set comment="kpoint 42">
       <r>  -30.4571    1.0000 </r>
       <r>  -30.4566    1.0000 </r>
       <r>  -30.4522    1.0000 </r>
       <r>  -30.4514    1.0000 </r>
       <r>  -23.7906    1.0000 </r>
       <r>  -23.7895    1.0000 </r>
       <r>  -23.7869    1.0000 </r>
       <r>  -23.7858    1.0000 </r>
       <r>  -23.7837    1.0000 </r>
       <r>  -23.7818    1.0000 </r>
       <r>  -20.0753    1.0000 </r>
       <r>  -20.0726    1.0000 </r>
       <r>   -7.3148    1.0000 </r>
       <r>   -7.3115    1.0000 </r>
       <r>    0.8390    1.0000 </r>
       <r>    0.8507    1.0000 </r>
       <r>    2.3229    1.0000 </r>
       <r>    2.3355    1.0000 </r>
       <r>    7.2820    0.0000 </r>
       <r>    7.2860    0.0000 </r>
       <r>    8.7707    0.0000 </r>
       <r>    8.7746    0.0000 </r>
       <r>   10.2306    0.0000 </r>
       <r>   10.2347    0.0000 </r>
       <r>   11.9125    0.0000 </r>
       <r>   11.9166    0.0000 </r>
       <r>   13.4573    0.0000 </r>
       <r>   13.4598    0.0000 </r>
      </set>
      <set comment="kpoint 43">
       <r>  -30.4684    1.0000 </r>
       <r>  -30.4679    1.0000 </r>
       <r>  -30.4570    1.0000 </r>
       <r>  -30.4560    1.0000 </r>
       <r>  -23.7970    1.0000 </r>
       <r>  -23.7947    1.0000 </r>
       <r>  -23.7930    1.0000 </r>
       <r>  -23.7900    1.0000 </r>
       <r>  -23.7896    1.0000 </r>
       <r>  -23.7891    1.0000 </r>
       <r>  -20.0935    1.0000 </r>
       <r>  -20.0907    1.0000 </r>
       <r>   -7.2779    1.0000 </r>
       <r>   -7.2746    1.0000 </r>
       <r>    0.7130    1.0000 </r>
       <r>    0.7244    1.0000 </r>
       <r>    3.3926    1.0000 </r>
       <r>    3.4061    1.0000 </r>
       <r>    6.2128    0.0000 </r>
       <r>    6.2139    0.0000 </r>
       <r>   10.3157    0.0000 </r>
       <r>   10.3187    0.0000 </r>
       <r>   10.5250    0.0000 </r>
       <r>   10.5271    0.0000 </r>
       <r>   10.7195    0.0000 </r>
       <r>   10.7212    0.0000 </r>
       <r>   12.1040    0.0000 </r>
       <r>   12.1057    0.0000 </r>
      </set>
      <set comment="kpoint 44">
       <r>  -30.4571    1.0000 </r>
       <r>  -30.4566    1.0000 </r>
       <r>  -30.4522    1.0000 </r>
       <r>  -30.4514    1.0000 </r>
       <r>  -23.7906    1.0000 </r>
       <r>  -23.7895    1.0000 </r>
       <r>  -23.7869    1.0000 </r>
       <r>  -23.7858    1.0000 </r>
       <r>  -23.7837    1.0000 </r>
       <r>  -23.7818    1.0000 </r>
       <r>  -20.0753    1.0000 </r>
       <r>  -20.0726    1.0000 </r>
       <r>   -7.3148    1.0000 </r>
       <r>   -7.3115    1.0000 </r>
       <r>    0.8390    1.0000 </r>
       <r>    0.8507    1.0000 </r>
       <r>    2.3229    1.0000 </r>
       <r>    2.3355    1.0000 </r>
       <r>    7.2820    0.0000 </r>
       <r>    7.2860    0.0000 </r>
       <r>    8.7707    0.0000 </r>
       <r>    8.7747    0.0000 </r>
       <r>   10.2305    0.0000 </r>
       <r>   10.2347    0.0000 </r>
       <r>   11.9125    0.0000 </r>
       <r>   11.9166    0.0000 </r>
       <r>   13.4573    0.0000 </r>
       <r>   13.4598    0.0000 </r>
      </set>
      <set comment="kpoint 45">
       <r>  -30.4571    1.0000 </r>
       <r>  -30.4565    1.0000 </r>
       <r>  -30.4520    1.0000 </r>
       <r>  -30.4515    1.0000 </r>
       <r>  -23.7910    1.0000 </r>
       <r>  -23.7890    1.0000 </r>
       <r>  -23.7872    1.0000 </r>
       <r>  -23.7855    1.0000 </r>
       <r>  -23.7832    1.0000 </r>
       <r>  -23.7823    1.0000 </r>
       <r>  -20.0753    1.0000 </r>
       <r>  -20.0726    1.0000 </r>
       <r>   -7.3148    1.0000 </r>
       <r>   -7.3114    1.0000 </r>
       <r>    0.8411    1.0000 </r>
       <r>    0.8485    1.0000 </r>
       <r>    2.3250    1.0000 </r>
       <r>    2.3334    1.0000 </r>
       <r>    7.2821    0.0000 </r>
       <r>    7.2859    0.0000 </r>
       <r>    8.7717    0.0000 </r>
       <r>    8.7736    0.0000 </r>
       <r>   10.2315    0.0000 </r>
       <r>   10.2338    0.0000 </r>
       <r>   11.9126    0.0000 </r>
       <r>   11.9166    0.0000 </r>
       <r>   13.4577    0.0000 </r>
       <r>   13.4594    0.0000 </r>
      </set>
      <set comment="kpoint 46">
       <r>  -30.4521    1.0000 </r>
       <r>  -30.4518    1.0000 </r>
       <r>  -30.4514    1.0000 </r>
       <r>  -30.4510    1.0000 </r>
       <r>  -23.7866    1.0000 </r>
       <r>  -23.7855    1.0000 </r>
       <r>  -23.7842    1.0000 </r>
       <r>  -23.7835    1.0000 </r>
       <r>  -23.7825    1.0000 </r>
       <r>  -23.7812    1.0000 </r>
       <r>  -20.0567    1.0000 </r>
       <r>  -20.0540    1.0000 </r>
       <r>   -7.3618    1.0000 </r>
       <r>   -7.3584    1.0000 </r>
       <r>    0.9735    1.0000 </r>
       <r>    0.9856    1.0000 </r>
       <r>    1.5972    1.0000 </r>
       <r>    1.6095    1.0000 </r>
       <r>    7.6572    0.0000 </r>
       <r>    7.6595    0.0000 </r>
       <r>    9.6908    0.0000 </r>
       <r>    9.6969    0.0000 </r>
       <r>    9.9701    0.0000 </r>
       <r>    9.9738    0.0000 </r>
       <r>   10.7116    0.0000 </r>
       <r>   10.7158    0.0000 </r>
       <r>   13.7000    0.0000 </r>
       <r>   13.7011    0.0000 </r>
      </set>
      <set comment="kpoint 47">
       <r>  -30.4570    1.0000 </r>
       <r>  -30.4567    1.0000 </r>
       <r>  -30.4521    1.0000 </r>
       <r>  -30.4514    1.0000 </r>
       <r>  -23.7907    1.0000 </r>
       <r>  -23.7893    1.0000 </r>
       <r>  -23.7868    1.0000 </r>
       <r>  -23.7857    1.0000 </r>
       <r>  -23.7839    1.0000 </r>
       <r>  -23.7817    1.0000 </r>
       <r>  -20.0753    1.0000 </r>
       <r>  -20.0726    1.0000 </r>
       <r>   -7.3148    1.0000 </r>
       <r>   -7.3114    1.0000 </r>
       <r>    0.8390    1.0000 </r>
       <r>    0.8507    1.0000 </r>
       <r>    2.3228    1.0000 </r>
       <r>    2.3356    1.0000 </r>
       <r>    7.2825    0.0000 </r>
       <r>    7.2855    0.0000 </r>
       <r>    8.7706    0.0000 </r>
       <r>    8.7747    0.0000 </r>
       <r>   10.2308    0.0000 </r>
       <r>   10.2345    0.0000 </r>
       <r>   11.9132    0.0000 </r>
       <r>   11.9159    0.0000 </r>
       <r>   13.4575    0.0000 </r>
       <r>   13.4595    0.0000 </r>
      </set>
      <set comment="kpoint 48">
       <r>  -30.4475    1.0000 </r>
       <r>  -30.4472    1.0000 </r>
       <r>  -30.4396    1.0000 </r>
       <r>  -30.4390    1.0000 </r>
       <r>  -23.7838    1.0000 </r>
       <r>  -23.7816    1.0000 </r>
       <r>  -23.7805    1.0000 </r>
       <r>  -23.7788    1.0000 </r>
       <r>  -23.7773    1.0000 </r>
       <r>  -23.7760    1.0000 </r>
       <r>  -20.0938    1.0000 </r>
       <r>  -20.0910    1.0000 </r>
       <r>   -7.2625    1.0000 </r>
       <r>   -7.2591    1.0000 </r>
       <r>    0.9482    1.0000 </r>
       <r>    0.9543    1.0000 </r>
       <r>    2.5845    1.0000 </r>
       <r>    2.5912    1.0000 </r>
       <r>    7.6717    0.0000 </r>
       <r>    7.6743    0.0000 </r>
       <r>    8.8505    0.0000 </r>
       <r>    8.8530    0.0000 </r>
       <r>   10.2477    0.0000 </r>
       <r>   10.2515    0.0000 </r>
       <r>   11.5330    0.0000 </r>
       <r>   11.5377    0.0000 </r>
       <r>   12.4633    0.0000 </r>
       <r>   12.4657    0.0000 </r>
      </set>
      <set comment="kpoint 49">
       <r>  -30.4450    1.0000 </r>
       <r>  -30.4447    1.0000 </r>
       <r>  -30.4434    1.0000 </r>
       <r>  -30.4429    1.0000 </r>
       <r>  -23.7854    1.0000 </r>
       <r>  -23.7847    1.0000 </r>
       <r>  -23.7812    1.0000 </r>
       <r>  -23.7807    1.0000 </r>
       <r>  -23.7799    1.0000 </r>
       <r>  -23.7789    1.0000 </r>
       <r>  -20.1495    1.0000 </r>
       <r>  -20.1467    1.0000 </r>
       <r>   -7.0942    1.0000 </r>
       <r>   -7.0906    1.0000 </r>
       <r>    1.5621    1.0000 </r>
       <r>    1.5664    1.0000 </r>
       <r>    3.6587    1.0000 </r>
       <r>    3.6650    1.0000 </r>
       <r>    6.0360    0.0000 </r>
       <r>    6.0378    0.0000 </r>
       <r>    9.9218    0.0000 </r>
       <r>    9.9234    0.0000 </r>
       <r>   10.8947    0.0000 </r>
       <r>   10.8954    0.0000 </r>
       <r>   11.2785    0.0000 </r>
       <r>   11.2825    0.0000 </r>
       <r>   11.5977    0.0000 </r>
       <r>   11.6009    0.0000 </r>
      </set>
      <set comment="kpoint 50">
       <r>  -30.4477    1.0000 </r>
       <r>  -30.4469    1.0000 </r>
       <r>  -30.4395    1.0000 </r>
       <r>  -30.4391    1.0000 </r>
       <r>  -23.7827    1.0000 </r>
       <r>  -23.7821    1.0000 </r>
       <r>  -23.7811    1.0000 </r>
       <r>  -23.7794    1.0000 </r>
       <r>  -23.7771    1.0000 </r>
       <r>  -23.7754    1.0000 </r>
       <r>  -20.0938    1.0000 </r>
       <r>  -20.0910    1.0000 </r>
       <r>   -7.2625    1.0000 </r>
       <r>   -7.2590    1.0000 </r>
       <r>    0.9484    1.0000 </r>
       <r>    0.9541    1.0000 </r>
       <r>    2.5842    1.0000 </r>
       <r>    2.5915    1.0000 </r>
       <r>    7.6717    0.0000 </r>
       <r>    7.6743    0.0000 </r>
       <r>    8.8505    0.0000 </r>
       <r>    8.8530    0.0000 </r>
[...]
       <r>     2.8479     0.0000     0.0000 </r>
       <r>     3.0150     0.0000     0.0000 </r>
       <r>     3.1821     0.0000     0.0000 </r>
       <r>     3.3492     0.0000     0.0000 </r>
       <r>     3.5163     0.0000     0.0000 </r>
       <r>     3.6834     0.0000     0.0000 </r>
       <r>     3.8506     0.0000     0.0000 </r>
       <r>     4.0177     0.0000     0.0000 </r>
       <r>     4.1848     0.0000     0.0000 </r>
       <r>     4.3519     0.0000     0.0000 </r>
       <r>     4.5190     0.0000     0.0000 </r>
       <r>     4.6861     0.0000     0.0000 </r>
       <r>     4.8532     0.0000     0.0000 </r>
       <r>     5.0203     0.0000     0.0000 </r>
       <r>     5.1875     0.0000     0.0000 </r>
       <r>     5.3546     0.0000     0.0000 </r>
       <r>     5.5217     0.0000     0.0000 </r>
       <r>     5.6888     0.0000     0.0000 </r>
       <r>     5.8559     0.0000     0.0000 </r>
       <r>     6.0230     0.0000     0.0000 </r>
       <r>     6.1901     0.0000     0.0000 </r>
       <r>     6.3572     0.0000     0.0000 </r>
       <r>     6.5244     0.0000     0.0000 </r>
       <r>     6.6915     0.0000     0.0000 </r>
       <r>     6.8586     0.0000     0.0000 </r>
       <r>     7.0257     0.0000     0.0000 </r>
       <r>     7.1928     0.0000     0.0000 </r>
       <r>     7.3599     0.0000     0.0000 </r>
       <r>     7.5270     0.0000     0.0000 </r>
       <r>     7.6942     0.0000     0.0000 </r>
       <r>     7.8613     0.0000     0.0000 </r>
       <r>     8.0284     0.0000     0.0000 </r>
       <r>     8.1955     0.0000     0.0000 </r>
       <r>     8.3626     0.0000     0.0000 </r>
       <r>     8.5297     0.0000     0.0000 </r>
       <r>     8.6968     0.0000     0.0000 </r>
       <r>     8.8639     0.0000     0.0000 </r>
       <r>     9.0311     0.0000     0.0000 </r>
       <r>     9.1982     0.0000     0.0000 </r>
       <r>     9.3653     0.0000     0.0000 </r>
       <r>     9.5324     0.0000     0.0000 </r>
       <r>     9.6995     0.0000     0.0000 </r>
       <r>     9.8666     0.0000     0.0000 </r>
       <r>    10.0337     0.0000     0.0000 </r>
       <r>    10.2009     0.0000     0.0000 </r>
       <r>    10.3680     0.0000     0.0000 </r>
       <r>    10.5351     0.0000     0.0000 </r>
       <r>    10.7022     0.0000     0.0000 </r>
       <r>    10.8693     0.0000     0.0000 </r>
       <r>    11.0364     0.0000     0.0000 </r>
       <r>    11.2035     0.0000     0.0000 </r>
       <r>    11.3706     0.0000     0.0000 </r>
       <r>    11.5378     0.0000     0.0000 </r>
       <r>    11.7049     0.0000     0.0000 </r>
       <r>    11.8720     0.0000     0.0000 </r>
       <r>    12.0391     0.0000     0.0000 </r>
       <r>    12.2062     0.0000     0.0000 </r>
       <r>    12.3733     0.0000     0.0000 </r>
       <r>    12.5404     0.0000     0.0000 </r>
       <r>    12.7075     0.0000     0.0000 </r>
       <r>    12.8747     0.0000     0.0000 </r>
       <r>    13.0418     0.0000     0.0000 </r>
       <r>    13.2089     0.0000     0.0000 </r>
       <r>    13.3760     0.0000     0.0000 </r>
       <r>    13.5431     0.0000     0.0000 </r>
       <r>    13.7102     0.0000     0.0000 </r>
       <r>    13.8773     0.0000     0.0000 </r>
       <r>    14.0445     0.0000     0.0000 </r>
       <r>    14.2116     0.0000     0.0000 </r>
       <r>    14.3787     0.0000     0.0000 </r>
       <r>    14.5458     0.0000     0.0000 </r>
       <r>    14.7129     0.0000     0.0000 </r>
       <r>    14.8800     0.0000     0.0000 </r>
       <r>    15.0471     0.0000     0.0000 </r>
       <r>    15.2142     0.0000     0.0000 </r>
       <r>    15.3814     0.0000     0.0000 </r>
       <r>    15.5485     0.0000     0.0000 </r>
       <r>    15.7156     0.0000     0.0000 </r>
       <r>    15.8827     0.0000     0.0000 </r>
       <r>    16.0498     0.0000     0.0000 </r>
       <r>    16.2169     0.0000     0.0000 </r>
       <r>    16.3840     0.0000     0.0000 </r>
       <r>    16.5511     0.0000     0.0000 </r>
       <r>    16.7183     0.0000     0.0000 </r>
       <r>    16.8854     0.0000     0.0000 </r>
       <r>    17.0525     0.0000     0.0000 </r>
       <r>    17.2196     0.0000     0.0000 </r>
       <r>    17.3867     0.0000     0.0000 </r>
      </set>
      <set comment="spin 4">
       <r>   -32.7472     0.0000     0.0000 </r>
       <r>   -32.5801     0.0000     0.0000 </r>
       <r>   -32.4130     0.0000     0.0000 </r>
       <r>   -32.2459     0.0000     0.0000 </r>
       <r>   -32.0788     0.0000     0.0000 </r>
       <r>   -31.9117     0.0000     0.0000 </r>
       <r>   -31.7445     0.0000     0.0000 </r>
       <r>   -31.5774     0.0000     0.0000 </r>
       <r>   -31.4103     0.0000     0.0000 </r>
       <r>   -31.2432     0.0000     0.0000 </r>
       <r>   -31.0761     0.0000     0.0000 </r>
       <r>   -30.9090     0.0000     0.0000 </r>
       <r>   -30.7419     0.0000     0.0000 </r>
       <r>   -30.5747     0.0000     0.0000 </r>
       <r>   -30.4076     0.0000     0.0000 </r>
       <r>   -30.2405     0.0000     0.0000 </r>
       <r>   -30.0734     0.0000     0.0000 </r>
       <r>   -29.9063     0.0000     0.0000 </r>
       <r>   -29.7392     0.0000     0.0000 </r>
       <r>   -29.5721     0.0000     0.0000 </r>
       <r>   -29.4050     0.0000     0.0000 </r>
       <r>   -29.2378     0.0000     0.0000 </r>
       <r>   -29.0707     0.0000     0.0000 </r>
       <r>   -28.9036     0.0000     0.0000 </r>
       <r>   -28.7365     0.0000     0.0000 </r>
       <r>   -28.5694     0.0000     0.0000 </r>
       <r>   -28.4023     0.0000     0.0000 </r>
       <r>   -28.2352     0.0000     0.0000 </r>
       <r>   -28.0681     0.0000     0.0000 </r>
       <r>   -27.9009     0.0000     0.0000 </r>
       <r>   -27.7338     0.0000     0.0000 </r>
       <r>   -27.5667     0.0000     0.0000 </r>
       <r>   -27.3996     0.0000     0.0000 </r>
       <r>   -27.2325     0.0000     0.0000 </r>
       <r>   -27.0654     0.0000     0.0000 </r>
       <r>   -26.8983     0.0000     0.0000 </r>
       <r>   -26.7311     0.0000     0.0000 </r>
       <r>   -26.5640     0.0000     0.0000 </r>
       <r>   -26.3969     0.0000     0.0000 </r>
       <r>   -26.2298     0.0000     0.0000 </r>
       <r>   -26.0627     0.0000     0.0000 </r>
       <r>   -25.8956     0.0000     0.0000 </r>
       <r>   -25.7285     0.0000     0.0000 </r>
       <r>   -25.5614     0.0000     0.0000 </r>
       <r>   -25.3942     0.0000     0.0000 </r>
       <r>   -25.2271     0.0000     0.0000 </r>
       <r>   -25.0600     0.0000     0.0000 </r>
       <r>   -24.8929     0.0000     0.0000 </r>
       <r>   -24.7258     0.0000     0.0000 </r>
       <r>   -24.5587     0.0000     0.0000 </r>
       <r>   -24.3916     0.0000     0.0000 </r>
       <r>   -24.2244     0.0000     0.0000 </r>
       <r>   -24.0573     0.0000     0.0000 </r>
       <r>   -23.8902     0.0000     0.0000 </r>
       <r>   -23.7231     0.0000     0.0000 </r>
       <r>   -23.5560     0.0000     0.0000 </r>
       <r>   -23.3889     0.0000     0.0000 </r>
       <r>   -23.2218     0.0000     0.0000 </r>
       <r>   -23.0547     0.0000     0.0000 </r>
       <r>   -22.8875     0.0000     0.0000 </r>
       <r>   -22.7204     0.0000     0.0000 </r>
       <r>   -22.5533     0.0000     0.0000 </r>
       <r>   -22.3862     0.0000     0.0000 </r>
       <r>   -22.2191     0.0000     0.0000 </r>
       <r>   -22.0520     0.0000     0.0000 </r>
       <r>   -21.8849     0.0000     0.0000 </r>
       <r>   -21.7178     0.0000     0.0000 </r>
       <r>   -21.5506     0.0000     0.0000 </r>
       <r>   -21.3835     0.0000     0.0000 </r>
       <r>   -21.2164     0.0000     0.0000 </r>
       <r>   -21.0493     0.0000     0.0000 </r>
       <r>   -20.8822     0.0000     0.0000 </r>
       <r>   -20.7151     0.0000     0.0000 </r>
       <r>   -20.5480     0.0000     0.0000 </r>
       <r>   -20.3808     0.0000     0.0000 </r>
       <r>   -20.2137     0.0000     0.0000 </r>
       <r>   -20.0466     0.0000     0.0000 </r>
       <r>   -19.8795     0.0000     0.0000 </r>
       <r>   -19.7124     0.0000     0.0000 </r>
       <r>   -19.5453     0.0000     0.0000 </r>
       <r>   -19.3782     0.0000     0.0000 </r>
       <r>   -19.2111     0.0000     0.0000 </r>
       <r>   -19.0439     0.0000     0.0000 </r>
       <r>   -18.8768     0.0000     0.0000 </r>
       <r>   -18.7097     0.0000     0.0000 </r>
       <r>   -18.5426     0.0000     0.0000 </r>
       <r>   -18.3755     0.0000     0.0000 </r>
       <r>   -18.2084     0.0000     0.0000 </r>
       <r>   -18.0413     0.0000     0.0000 </r>
       <r>   -17.8742     0.0000     0.0000 </r>
       <r>   -17.7070     0.0000     0.0000 </r>
       <r>   -17.5399     0.0000     0.0000 </r>
       <r>   -17.3728     0.0000     0.0000 </r>
       <r>   -17.2057     0.0000     0.0000 </r>
       <r>   -17.0386     0.0000     0.0000 </r>
       <r>   -16.8715     0.0000     0.0000 </r>
       <r>   -16.7044     0.0000     0.0000 </r>
       <r>   -16.5372     0.0000     0.0000 </r>
       <r>   -16.3701     0.0000     0.0000 </r>
       <r>   -16.2030     0.0000     0.0000 </r>
       <r>   -16.0359     0.0000     0.0000 </r>
       <r>   -15.8688     0.0000     0.0000 </r>
       <r>   -15.7017     0.0000     0.0000 </r>
       <r>   -15.5346     0.0000     0.0000 </r>
       <r>   -15.3675     0.0000     0.0000 </r>
       <r>   -15.2003     0.0000     0.0000 </r>
       <r>   -15.0332     0.0000     0.0000 </r>
       <r>   -14.8661     0.0000     0.0000 </r>
       <r>   -14.6990     0.0000     0.0000 </r>
       <r>   -14.5319     0.0000     0.0000 </r>
       <r>   -14.3648     0.0000     0.0000 </r>
       <r>   -14.1977     0.0000     0.0000 </r>
       <r>   -14.0305     0.0000     0.0000 </r>
       <r>   -13.8634     0.0000     0.0000 </r>
       <r>   -13.6963     0.0000     0.0000 </r>
       <r>   -13.5292     0.0000     0.0000 </r>
       <r>   -13.3621     0.0000     0.0000 </r>
       <r>   -13.1950     0.0000     0.0000 </r>
       <r>   -13.0279     0.0000     0.0000 </r>
       <r>   -12.8608     0.0000     0.0000 </r>
       <r>   -12.6936     0.0000     0.0000 </r>
       <r>   -12.5265     0.0000     0.0000 </r>
       <r>   -12.3594     0.0000     0.0000 </r>
       <r>   -12.1923     0.0000     0.0000 </r>
       <r>   -12.0252     0.0000     0.0000 </r>
       <r>   -11.8581     0.0000     0.0000 </r>
       <r>   -11.6910     0.0000     0.0000 </r>
       <r>   -11.5239     0.0000     0.0000 </r>
       <r>   -11.3567     0.0000     0.0000 </r>
       <r>   -11.1896     0.0000     0.0000 </r>
       <r>   -11.0225     0.0000     0.0000 </r>
       <r>   -10.8554     0.0000     0.0000 </r>
       <r>   -10.6883     0.0000     0.0000 </r>
       <r>   -10.5212     0.0000     0.0000 </r>
       <r>   -10.3541     0.0000     0.0000 </r>
       <r>   -10.1869     0.0000     0.0000 </r>
       <r>   -10.0198     0.0000     0.0000 </r>
       <r>    -9.8527     0.0000     0.0000 </r>
       <r>    -9.6856     0.0000     0.0000 </r>
       <r>    -9.5185     0.0000     0.0000 </r>
       <r>    -9.3514     0.0000     0.0000 </r>
       <r>    -9.1843     0.0000     0.0000 </r>
       <r>    -9.0172     0.0000     0.0000 </r>
       <r>    -8.8500     0.0000     0.0000 </r>
       <r>    -8.6829     0.0000     0.0000 </r>
       <r>    -8.5158     0.0000     0.0000 </r>
       <r>    -8.3487     0.0000     0.0000 </r>
       <r>    -8.1816     0.0000     0.0000 </r>
       <r>    -8.0145     0.0000     0.0000 </r>
       <r>    -7.8474     0.0000     0.0000 </r>
       <r>    -7.6803     0.0000     0.0000 </r>
       <r>    -7.5131     0.0000     0.0000 </r>
       <r>    -7.3460     0.0000     0.0000 </r>
       <r>    -7.1789     0.0000     0.0000 </r>
       <r>    -7.0118     0.0000     0.0000 </r>
       <r>    -6.8447     0.0000     0.0000 </r>
       <r>    -6.6776     0.0000     0.0000 </r>
       <r>    -6.5105     0.0000     0.0000 </r>
       <r>    -6.3433     0.0000     0.0000 </r>
       <r>    -6.1762     0.0000     0.0000 </r>
       <r>    -6.0091     0.0000     0.0000 </r>
       <r>    -5.8420     0.0000     0.0000 </r>
       <r>    -5.6749     0.0000     0.0000 </r>
       <r>    -5.5078     0.0000     0.0000 </r>
       <r>    -5.3407     0.0000     0.0000 </r>
       <r>    -5.1736     0.0000     0.0000 </r>
       <r>    -5.0064     0.0000     0.0000 </r>
       <r>    -4.8393     0.0000     0.0000 </r>
       <r>    -4.6722     0.0000     0.0000 </r>
       <r>    -4.5051     0.0000     0.0000 </r>
       <r>    -4.3380     0.0000     0.0000 </r>
       <r>    -4.1709     0.0000     0.0000 </r>
       <r>    -4.0038     0.0000     0.0000 </r>
       <r>    -3.8367     0.0000     0.0000 </r>
       <r>    -3.6695     0.0000     0.0000 </r>
       <r>    -3.5024     0.0000     0.0000 </r>
       <r>    -3.3353     0.0000     0.0000 </r>
       <r>    -3.1682     0.0000     0.0000 </r>
       <r>    -3.0011     0.0000     0.0000 </r>
       <r>    -2.8340     0.0000     0.0000 </r>
       <r>    -2.6669     0.0000     0.0000 </r>
       <r>    -2.4997     0.0000     0.0000 </r>
       <r>    -2.3326     0.0000     0.0000 </r>
       <r>    -2.1655     0.0000     0.0000 </r>
       <r>    -1.9984     0.0000     0.0000 </r>
       <r>    -1.8313     0.0000     0.0000 </r>
       <r>    -1.6642     0.0000     0.0000 </r>
       <r>    -1.4971     0.0000     0.0000 </r>
       <r>    -1.3300     0.0000     0.0000 </r>
       <r>    -1.1628     0.0000     0.0000 </r>
       <r>    -0.9957     0.0000     0.0000 </r>
       <r>    -0.8286     0.0000     0.0000 </r>
       <r>    -0.6615     0.0000     0.0000 </r>
       <r>    -0.4944     0.0000     0.0000 </r>
       <r>    -0.3273     0.0000     0.0000 </r>
       <r>    -0.1602     0.0000     0.0000 </r>
       <r>     0.0070     0.0000     0.0000 </r>
       <r>     0.1741     0.0000     0.0000 </r>
       <r>     0.3412     0.0000     0.0000 </r>
       <r>     0.5083     0.0000     0.0000 </r>
       <r>     0.6754     0.0000     0.0000 </r>
       <r>     0.8425     0.0000     0.0000 </r>
       <r>     1.0096     0.0000     0.0000 </r>
       <r>     1.1767     0.0000     0.0000 </r>
       <r>     1.3439     0.0000     0.0000 </r>
       <r>     1.5110     0.0000     0.0000 </r>
       <r>     1.6781     0.0000     0.0000 </r>
       <r>     1.8452     0.0000     0.0000 </r>
       <r>     2.0123     0.0000     0.0000 </r>
       <r>     2.1794     0.0000     0.0000 </r>
       <r>     2.3465     0.0000     0.0000 </r>
       <r>     2.5136     0.0000     0.0000 </r>
       <r>     2.6808     0.0000     0.0000 </r>
       <r>     2.8479     0.0000     0.0000 </r>
       <r>     3.0150     0.0000     0.0000 </r>
       <r>     3.1821     0.0000     0.0000 </r>
       <r>     3.3492     0.0000     0.0000 </r>
       <r>     3.5163     0.0000     0.0000 </r>
       <r>     3.6834     0.0000     0.0000 </r>
       <r>     3.8506     0.0000     0.0000 </r>
       <r>     4.0177     0.0000     0.0000 </r>
       <r>     4.1848     0.0000     0.0000 </r>
       <r>     4.3519     0.0000     0.0000 </r>
       <r>     4.5190     0.0000     0.0000 </r>
       <r>     4.6861     0.0000     0.0000 </r>
       <r>     4.8532     0.0000     0.0000 </r>
       <r>     5.0203     0.0000     0.0000 </r>
       <r>     5.1875     0.0000     0.0000 </r>
       <r>     5.3546     0.0000     0.0000 </r>
       <r>     5.5217     0.0000     0.0000 </r>
       <r>     5.6888     0.0000     0.0000 </r>
       <r>     5.8559     0.0000     0.0000 </r>
       <r>     6.0230     0.0000     0.0000 </r>
       <r>     6.1901     0.0000     0.0000 </r>
       <r>     6.3572     0.0000     0.0000 </r>
       <r>     6.5244     0.0000     0.0000 </r>
       <r>     6.6915     0.0000     0.0000 </r>
       <r>     6.8586     0.0000     0.0000 </r>
       <r>     7.0257     0.0000     0.0000 </r>
       <r>     7.1928     0.0000     0.0000 </r>
       <r>     7.3599     0.0000     0.0000 </r>
       <r>     7.5270     0.0000     0.0000 </r>
       <r>     7.6942     0.0000     0.0000 </r>
       <r>     7.8613     0.0000     0.0000 </r>
       <r>     8.0284     0.0000     0.0000 </r>
       <r>     8.1955     0.0000     0.0000 </r>
       <r>     8.3626     0.0000     0.0000 </r>
       <r>     8.5297     0.0000     0.0000 </r>
       <r>     8.6968     0.0000     0.0000 </r>
       <r>     8.8639     0.0000     0.0000 </r>
       <r>     9.0311     0.0000     0.0000 </r>
       <r>     9.1982     0.0000     0.0000 </r>
       <r>     9.3653     0.0000     0.0000 </r>
       <r>     9.5324     0.0000     0.0000 </r>
       <r>     9.6995     0.0000     0.0000 </r>
       <r>     9.8666     0.0000     0.0000 </r>
       <r>    10.0337     0.0000     0.0000 </r>
       <r>    10.2009     0.0000     0.0000 </r>
       <r>    10.3680     0.0000     0.0000 </r>
       <r>    10.5351     0.0000     0.0000 </r>
       <r>    10.7022     0.0000     0.0000 </r>
       <r>    10.8693     0.0000     0.0000 </r>
       <r>    11.0364     0.0000     0.0000 </r>
       <r>    11.2035     0.0000     0.0000 </r>
       <r>    11.3706     0.0000     0.0000 </r>
       <r>    11.5378     0.0000     0.0000 </r>
       <r>    11.7049     0.0000     0.0000 </r>
       <r>    11.8720     0.0000     0.0000 </r>
       <r>    12.0391     0.0000     0.0000 </r>
       <r>    12.2062     0.0000     0.0000 </r>
       <r>    12.3733     0.0000     0.0000 </r>
       <r>    12.5404     0.0000     0.0000 </r>
       <r>    12.7075     0.0000     0.0000 </r>
       <r>    12.8747     0.0000     0.0000 </r>
       <r>    13.0418     0.0000     0.0000 </r>
       <r>    13.2089     0.0000     0.0000 </r>
       <r>    13.3760     0.0000     0.0000 </r>
       <r>    13.5431     0.0000     0.0000 </r>
       <r>    13.7102     0.0000     0.0000 </r>
       <r>    13.8773     0.0000     0.0000 </r>
       <r>    14.0445     0.0000     0.0000 </r>
       <r>    14.2116     0.0000     0.0000 </r>
       <r>    14.3787     0.0000     0.0000 </r>
       <r>    14.5458     0.0000     0.0000 </r>
       <r>    14.7129     0.0000     0.0000 </r>
       <r>    14.8800     0.0000     0.0000 </r>
       <r>    15.0471     0.0000     0.0000 </r>
       <r>    15.2142     0.0000     0.0000 </r>
       <r>    15.3814     0.0000     0.0000 </r>
       <r>    15.5485     0.0000     0.0000 </r>
       <r>    15.7156     0.0000     0.0000 </r>
       <r>    15.8827     0.0000     0.0000 </r>
       <r>    16.0498     0.0000     0.0000 </r>
       <r>    16.2169     0.0000     0.0000 </r>
       <r>    16.3840     0.0000     0.0000 </r>
       <r>    16.5511     0.0000     0.0000 </r>
       <r>    16.7183     0.0000     0.0000 </r>
       <r>    16.8854     0.0000     0.0000 </r>
       <r>    17.0525     0.0000     0.0000 </r>
       <r>    17.2196     0.0000     0.0000 </r>
       <r>    17.3867     0.0000     0.0000 </r>
      </set>
     </set>
    </array>
   </total>
  </dos>
 </calculation>
 <structure name="finalpos" >
  <crystal>
   <varray name="basis" >
    <v>       4.34234588       0.00000000       0.00000000 </v>
    <v>       2.17117294       3.76058184      -0.00000000 </v>
    <v>       2.17117294       1.25352728       3.54551056 </v>
   </varray>
   <i name="volume">     57.89729060 </i>
   <varray name="rec_basis" >
    <v>       0.23029027      -0.13295815      -0.09401561 </v>
    <v>       0.00000000       0.26591630      -0.09401561 </v>
    <v>      -0.00000000       0.00000000       0.28204683 </v>
   </varray>
  </crystal>
  <varray name="positions" >
   <v>       0.00000000       0.00000000       0.00000000 </v>
  </varray>
  <varray name="velocities" >
   <v>       0.00000000       0.00000000       0.00000000 </v>
  </varray>
 </structure>
</modeling>
