   1   1   0   0
  0.2224118E+02  0.3156634E-09  0.3156634E-09  0.3156634E-09  0.1000000E-15
  1.000000000000000E-004
  CAR 
 Og_FCC                                  
    120.14481486    -53.76337347  301    -17.67742439      1.00000000
    -53.763  0.0000E+00  0.0000E+00
    -53.184  0.0000E+00  0.0000E+00
    -52.604  0.0000E+00  0.0000E+00
    -52.024  0.0000E+00  0.0000E+00
    -51.445  0.0000E+00  0.0000E+00
    -50.865  0.0000E+00  0.0000E+00
    -50.285  0.0000E+00  0.0000E+00
    -49.706  0.0000E+00  0.0000E+00
    -49.126  0.0000E+00  0.0000E+00
    -48.546  0.0000E+00  0.0000E+00
    -47.966  0.0000E+00  0.0000E+00
    -47.387  0.0000E+00  0.0000E+00
    -46.807  0.0000E+00  0.0000E+00
    -46.227  0.0000E+00  0.0000E+00
    -45.648  0.0000E+00  0.2000E+01
    -45.068  0.0000E+00  0.2000E+01
    -44.488  0.0000E+00  0.2000E+01
    -43.909  0.0000E+00  0.2000E+01
    -43.329  0.0000E+00  0.2000E+01
    -42.749  0.0000E+00  0.2000E+01
    -42.169  0.0000E+00  0.2000E+01
    -41.590  0.0000E+00  0.2000E+01
    -41.010  0.0000E+00  0.2000E+01
    -40.430  0.0000E+00  0.2000E+01
    -39.851  0.0000E+00  0.2000E+01
    -39.271  0.0000E+00  0.2000E+01
    -38.691  0.0000E+00  0.2000E+01
    -38.112  0.0000E+00  0.2000E+01
    -37.532  0.0000E+00  0.2000E+01
    -36.952  0.0000E+00  0.2000E+01
    -36.373  0.0000E+00  0.2000E+01
    -35.793  0.0000E+00  0.2000E+01
    -35.213  0.0000E+00  0.2000E+01
    -34.633  0.0000E+00  0.2000E+01
    -34.054  0.0000E+00  0.2000E+01
    -33.474  0.0000E+00  0.2000E+01
    -32.894  0.0000E+00  0.2000E+01
    -32.315  0.0000E+00  0.2000E+01
    -31.735  0.0000E+00  0.2000E+01
    -31.155  0.0000E+00  0.2000E+01
    -30.576  0.0000E+00  0.2000E+01
    -29.996  0.0000E+00  0.2000E+01
    -29.416  0.0000E+00  0.2000E+01
    -28.837  0.0000E+00  0.2000E+01
    -28.257  0.0000E+00  0.2000E+01
    -27.677  0.0000E+00  0.2000E+01
    -27.097  0.0000E+00  0.2000E+01
    -26.518  0.0000E+00  0.2000E+01
    -25.938  0.0000E+00  0.2000E+01
    -25.358  0.0000E+00  0.2000E+01
    -24.779  0.0000E+00  0.2000E+01
    -24.199  0.0000E+00  0.2000E+01
    -23.619  0.0000E+00  0.2000E+01
    -23.040  0.0000E+00  0.2000E+01
    -22.460  0.0000E+00  0.2000E+01
    -21.880  0.0000E+00  0.2000E+01
    -21.301  0.0000E+00  0.2000E+01
    -20.721  0.0000E+00  0.2000E+01
    -20.141  0.0000E+00  0.2000E+01
    -19.561  0.0000E+00  0.2000E+01
    -18.982  0.0000E+00  0.2000E+01
    -18.402  0.3834E+00  0.4713E+01
    -17.822  0.0000E+00  0.8000E+01
    -17.243  0.0000E+00  0.8000E+01
    -16.663  0.0000E+00  0.8000E+01
    -16.083  0.0000E+00  0.8000E+01
    -15.504  0.0000E+00  0.8000E+01
    -14.924  0.0000E+00  0.8000E+01
    -14.344  0.0000E+00  0.8000E+01
    -13.764  0.0000E+00  0.8000E+01
    -13.185  0.0000E+00  0.8000E+01
    -12.605  0.0000E+00  0.8000E+01
    -12.025  0.0000E+00  0.8000E+01
    -11.446  0.0000E+00  0.8000E+01
    -10.866  0.0000E+00  0.8000E+01
    -10.286  0.0000E+00  0.8000E+01
     -9.707  0.0000E+00  0.8000E+01
     -9.127  0.0000E+00  0.8000E+01
     -8.547  0.0000E+00  0.8000E+01
     -7.968  0.0000E+00  0.8000E+01
     -7.388  0.0000E+00  0.8000E+01
     -6.808  0.0000E+00  0.8000E+01
     -6.228  0.0000E+00  0.8000E+01
     -5.649  0.0000E+00  0.8000E+01
     -5.069  0.0000E+00  0.8000E+01
     -4.489  0.0000E+00  0.8000E+01
     -3.910  0.0000E+00  0.8000E+01
     -3.330  0.0000E+00  0.8000E+01
     -2.750  0.0000E+00  0.8000E+01
     -2.171  0.0000E+00  0.8000E+01
     -1.591  0.0000E+00  0.8000E+01
     -1.011  0.0000E+00  0.8000E+01
     -0.432  0.0000E+00  0.8000E+01
      0.148  0.0000E+00  0.8000E+01
      0.728  0.0000E+00  0.8000E+01
      1.308  0.0000E+00  0.8000E+01
      1.887  0.0000E+00  0.8000E+01
      2.467  0.0000E+00  0.8000E+01
      3.047  0.0000E+00  0.8000E+01
      3.626  0.0000E+00  0.8009E+01
      4.206  0.0000E+00  0.8083E+01
      4.786  0.0000E+00  0.8139E+01
      5.365  0.0000E+00  0.8250E+01
      5.945  0.0000E+00  0.8250E+01
      6.525  0.0000E+00  0.8546E+01
      7.104  0.0000E+00  0.8602E+01
      7.684  0.0000E+00  0.8602E+01
      8.264  0.0000E+00  0.9046E+01
      8.844  0.0000E+00  0.9269E+01
      9.423  0.6389E-01  0.9565E+01
     10.003  0.1917E+00  0.9676E+01
     10.583  0.0000E+00  0.9926E+01
     11.162  0.0000E+00  0.1026E+02
     11.742  0.0000E+00  0.1051E+02
     12.322  0.0000E+00  0.1084E+02
     12.901  0.0000E+00  0.1129E+02
     13.481  0.0000E+00  0.1147E+02
     14.061  0.0000E+00  0.1192E+02
     14.641  0.0000E+00  0.1236E+02
     15.220  0.0000E+00  0.1267E+02
     15.800  0.0000E+00  0.1286E+02
     16.380  0.0000E+00  0.1336E+02
     16.959  0.0000E+00  0.1369E+02
     17.539  0.0000E+00  0.1405E+02
     18.119  0.0000E+00  0.1455E+02
     18.698  0.2577E-10  0.1477E+02
     19.278  0.0000E+00  0.1539E+02
     19.858  0.0000E+00  0.1630E+02
     20.437  0.0000E+00  0.1696E+02
     21.017  0.0000E+00  0.1774E+02
     21.597  0.0000E+00  0.1806E+02
     22.177  0.0000E+00  0.1901E+02
     22.756  0.0000E+00  0.1923E+02
     23.336  0.0000E+00  0.1970E+02
     23.916  0.1446E-09  0.2059E+02
     24.495  0.0000E+00  0.2091E+02
     25.075  0.0000E+00  0.2133E+02
     25.655  0.0000E+00  0.2197E+02
     26.234  0.0000E+00  0.2234E+02
     26.814  0.0000E+00  0.2290E+02
     27.394  0.0000E+00  0.2323E+02
     27.973  0.0000E+00  0.2440E+02
     28.553  0.0000E+00  0.2490E+02
     29.133  0.0000E+00  0.2545E+02
     29.713  0.0000E+00  0.2612E+02
     30.292  0.0000E+00  0.2697E+02
     30.872  0.0000E+00  0.2756E+02
     31.452  0.0000E+00  0.2758E+02
     32.031  0.0000E+00  0.2862E+02
     32.611  0.0000E+00  0.2906E+02
     33.191  0.0000E+00  0.2934E+02
     33.770  0.0000E+00  0.2971E+02
     34.350  0.0000E+00  0.2985E+02
     34.930  0.0000E+00  0.3019E+02
     35.509  0.0000E+00  0.3026E+02
     36.089  0.0000E+00  0.3109E+02
     36.669  0.0000E+00  0.3194E+02
     37.249  0.0000E+00  0.3300E+02
     37.828  0.3833E+00  0.3367E+02
     38.408  0.0000E+00  0.3394E+02
     38.988  0.0000E+00  0.3441E+02
     39.567  0.0000E+00  0.3463E+02
     40.147  0.0000E+00  0.3530E+02
     40.727  0.0000E+00  0.3606E+02
     41.306  0.0000E+00  0.3654E+02
     41.886  0.0000E+00  0.3718E+02
     42.466  0.2959E-12  0.3809E+02
     43.046  0.0000E+00  0.3854E+02
     43.625  0.3135E+00  0.3916E+02
     44.205  0.0000E+00  0.3960E+02
     44.785  0.0000E+00  0.4045E+02
     45.364  0.0000E+00  0.4105E+02
     45.944  0.0000E+00  0.4138E+02
     46.524  0.0000E+00  0.4275E+02
     47.103  0.1910E+00  0.4358E+02
     47.683  0.0000E+00  0.4384E+02
     48.263  0.0000E+00  0.4436E+02
     48.842  0.0000E+00  0.4440E+02
     49.422  0.0000E+00  0.4581E+02
     50.002  0.0000E+00  0.4592E+02
     50.582  0.0000E+00  0.4669E+02
     51.161  0.0000E+00  0.4713E+02
     51.741  0.0000E+00  0.4780E+02
     52.321  0.0000E+00  0.4878E+02
     52.900  0.0000E+00  0.4931E+02
     53.480  0.0000E+00  0.5008E+02
     54.060  0.0000E+00  0.5115E+02
     54.639  0.0000E+00  0.5209E+02
     55.219  0.0000E+00  0.5276E+02
     55.799  0.2426E-03  0.5299E+02
     56.378  0.1917E+00  0.5366E+02
     56.958  0.0000E+00  0.5476E+02
     57.538  0.0000E+00  0.5543E+02
     58.118  0.0000E+00  0.5630E+02
     58.697  0.0000E+00  0.5724E+02
     59.277  0.0000E+00  0.5757E+02
     59.857  0.0000E+00  0.5824E+02
     60.436  0.0000E+00  0.5920E+02
     61.016  0.0000E+00  0.5991E+02
     61.596  0.0000E+00  0.6023E+02
     62.175  0.0000E+00  0.6094E+02
     62.755  0.0000E+00  0.6204E+02
     63.335  0.1494E-01  0.6225E+02
     63.915  0.0000E+00  0.6311E+02
     64.494  0.0000E+00  0.6378E+02
     65.074  0.2875E+00  0.6461E+02
     65.654  0.0000E+00  0.6531E+02
     66.233  0.4763E-01  0.6631E+02
     66.813  0.0000E+00  0.6697E+02
     67.393  0.0000E+00  0.6801E+02
     67.972  0.0000E+00  0.6842E+02
     68.552  0.0000E+00  0.6897E+02
     69.132  0.0000E+00  0.6931E+02
     69.711  0.0000E+00  0.7070E+02
     70.291  0.0000E+00  0.7124E+02
     70.871  0.0000E+00  0.7191E+02
     71.451  0.0000E+00  0.7220E+02
     72.030  0.0000E+00  0.7285E+02
     72.610  0.0000E+00  0.7380E+02
     73.190  0.0000E+00  0.7444E+02
     73.769  0.0000E+00  0.7578E+02
     74.349  0.0000E+00  0.7682E+02
     74.929  0.0000E+00  0.7768E+02
     75.508  0.0000E+00  0.7899E+02
     76.088  0.0000E+00  0.7975E+02
     76.668  0.0000E+00  0.8090E+02
     77.247  0.0000E+00  0.8122E+02
     77.827  0.0000E+00  0.8233E+02
     78.407  0.0000E+00  0.8295E+02
     78.987  0.3987E-05  0.8329E+02
     79.566  0.0000E+00  0.8347E+02
     80.146  0.0000E+00  0.8417E+02
     80.726  0.0000E+00  0.8504E+02
     81.305  0.0000E+00  0.8604E+02
     81.885  0.0000E+00  0.8731E+02
     82.465  0.0000E+00  0.8769E+02
     83.044  0.0000E+00  0.8893E+02
     83.624  0.0000E+00  0.8972E+02
     84.204  0.0000E+00  0.9017E+02
     84.783  0.1917E+00  0.9103E+02
     85.363  0.0000E+00  0.9189E+02
     85.943  0.0000E+00  0.9314E+02
     86.523  0.0000E+00  0.9481E+02
     87.102  0.0000E+00  0.9514E+02
     87.682  0.0000E+00  0.9625E+02
     88.262  0.0000E+00  0.9736E+02
     88.841  0.0000E+00  0.9814E+02
     89.421  0.0000E+00  0.9864E+02
     90.001  0.0000E+00  0.9962E+02
     90.580  0.4792E-01  0.1003E+03
     91.160  0.0000E+00  0.1014E+03
     91.740  0.0000E+00  0.1025E+03
     92.320  0.0000E+00  0.1032E+03
     92.899  0.0000E+00  0.1042E+03
     93.479  0.0000E+00  0.1045E+03
     94.059  0.0000E+00  0.1047E+03
     94.638  0.0000E+00  0.1060E+03
     95.218  0.0000E+00  0.1064E+03
     95.798  0.0000E+00  0.1074E+03
     96.377  0.0000E+00  0.1084E+03
     96.957  0.0000E+00  0.1094E+03
     97.537  0.0000E+00  0.1101E+03
     98.116  0.0000E+00  0.1116E+03
     98.696  0.0000E+00  0.1128E+03
     99.276  0.0000E+00  0.1139E+03
     99.856  0.0000E+00  0.1151E+03
    100.435  0.0000E+00  0.1160E+03
    101.015  0.0000E+00  0.1169E+03
    101.595  0.0000E+00  0.1179E+03
    102.174  0.0000E+00  0.1187E+03
    102.754  0.0000E+00  0.1193E+03
    103.334  0.0000E+00  0.1201E+03
    103.913  0.0000E+00  0.1206E+03
    104.493  0.0000E+00  0.1211E+03
    105.073  0.0000E+00  0.1218E+03
    105.652  0.0000E+00  0.1226E+03
    106.232  0.0000E+00  0.1235E+03
    106.812  0.0000E+00  0.1249E+03
    107.392  0.0000E+00  0.1261E+03
    107.971  0.0000E+00  0.1268E+03
    108.551  0.0000E+00  0.1273E+03
    109.131  0.0000E+00  0.1277E+03
    109.710  0.0000E+00  0.1277E+03
    110.290  0.0000E+00  0.1279E+03
    110.870  0.0000E+00  0.1279E+03
    111.449  0.0000E+00  0.1279E+03
    112.029  0.0000E+00  0.1279E+03
    112.609  0.0000E+00  0.1280E+03
    113.188  0.0000E+00  0.1280E+03
    113.768  0.0000E+00  0.1280E+03
    114.348  0.0000E+00  0.1280E+03
    114.928  0.0000E+00  0.1280E+03
    115.507  0.0000E+00  0.1280E+03
    116.087  0.0000E+00  0.1280E+03
    116.667  0.0000E+00  0.1280E+03
    117.246  0.0000E+00  0.1280E+03
    117.826  0.0000E+00  0.1280E+03
    118.406  0.0000E+00  0.1280E+03
    118.985  0.0000E+00  0.1280E+03
    119.565  0.0000E+00  0.1280E+03
    120.145  0.0000E+00  0.1280E+03
