   1   1   0   0
  0.5789729E+02  0.4342346E-09  0.4342346E-09  0.4342346E-09  0.1000000E-15
  1.000000000000000E-004
  CAR 
 Og_FCC                                  
     18.39598010    -36.41310964  301      3.52755130      1.00000000
    -36.413  0.0000E+00  0.0000E+00
    -36.230  0.0000E+00  0.0000E+00
    -36.048  0.0000E+00  0.0000E+00
    -35.865  0.0000E+00  0.0000E+00
    -35.682  0.0000E+00  0.0000E+00
    -35.500  0.0000E+00  0.0000E+00
    -35.317  0.0000E+00  0.0000E+00
    -35.134  0.0000E+00  0.0000E+00
    -34.952  0.0000E+00  0.0000E+00
    -34.769  0.0000E+00  0.0000E+00
    -34.586  0.0000E+00  0.0000E+00
    -34.403  0.0000E+00  0.0000E+00
    -34.221  0.0000E+00  0.0000E+00
    -34.038  0.2494E-02  0.4556E-03
    -33.855  0.2000E+02  0.3655E+01
    -33.673  0.1889E+01  0.4000E+01
    -33.490  0.0000E+00  0.4000E+01
    -33.307  0.0000E+00  0.4000E+01
    -33.125  0.0000E+00  0.4000E+01
    -32.942  0.0000E+00  0.4000E+01
    -32.759  0.0000E+00  0.4000E+01
    -32.576  0.0000E+00  0.4000E+01
    -32.394  0.0000E+00  0.4000E+01
    -32.211  0.0000E+00  0.4000E+01
    -32.028  0.0000E+00  0.4000E+01
    -31.846  0.0000E+00  0.4000E+01
    -31.663  0.0000E+00  0.4000E+01
    -31.480  0.0000E+00  0.4000E+01
    -31.298  0.0000E+00  0.4000E+01
    -31.115  0.0000E+00  0.4000E+01
    -30.932  0.0000E+00  0.4000E+01
    -30.750  0.0000E+00  0.4000E+01
    -30.567  0.0000E+00  0.4000E+01
    -30.384  0.0000E+00  0.4000E+01
    -30.201  0.0000E+00  0.4000E+01
    -30.019  0.0000E+00  0.4000E+01
    -29.836  0.0000E+00  0.4000E+01
    -29.653  0.0000E+00  0.4000E+01
    -29.471  0.0000E+00  0.4000E+01
    -29.288  0.0000E+00  0.4000E+01
    -29.105  0.0000E+00  0.4000E+01
    -28.923  0.0000E+00  0.4000E+01
    -28.740  0.0000E+00  0.4000E+01
    -28.557  0.0000E+00  0.4000E+01
    -28.374  0.0000E+00  0.4000E+01
    -28.192  0.0000E+00  0.4000E+01
    -28.009  0.0000E+00  0.4000E+01
    -27.826  0.0000E+00  0.4000E+01
    -27.644  0.0000E+00  0.4000E+01
    -27.461  0.0000E+00  0.4000E+01
    -27.278  0.0000E+00  0.4000E+01
    -27.096  0.1246E-03  0.4000E+01
    -26.913  0.2422E+02  0.8425E+01
    -26.730  0.8621E+01  0.1000E+02
    -26.547  0.1417E-06  0.1000E+02
    -26.365  0.0000E+00  0.1000E+02
    -26.182  0.0000E+00  0.1000E+02
    -25.999  0.0000E+00  0.1000E+02
    -25.817  0.0000E+00  0.1000E+02
    -25.634  0.0000E+00  0.1000E+02
    -25.451  0.0000E+00  0.1000E+02
    -25.269  0.0000E+00  0.1000E+02
    -25.086  0.0000E+00  0.1000E+02
    -24.903  0.0000E+00  0.1000E+02
    -24.721  0.0000E+00  0.1000E+02
    -24.538  0.0000E+00  0.1000E+02
    -24.355  0.0000E+00  0.1000E+02
    -24.172  0.0000E+00  0.1000E+02
    -23.990  0.0000E+00  0.1000E+02
    -23.807  0.0000E+00  0.1000E+02
    -23.624  0.0000E+00  0.1000E+02
    -23.442  0.0000E+00  0.1000E+02
    -23.259  0.0000E+00  0.1000E+02
    -23.076  0.0000E+00  0.1000E+02
    -22.894  0.0000E+00  0.1000E+02
    -22.711  0.1678E-12  0.1000E+02
    -22.528  0.3057E-02  0.1000E+02
    -22.345  0.3806E+01  0.1070E+02
    -22.163  0.7138E+01  0.1200E+02
    -21.980  0.4749E-03  0.1200E+02
    -21.797  0.0000E+00  0.1200E+02
    -21.615  0.0000E+00  0.1200E+02
    -21.432  0.0000E+00  0.1200E+02
    -21.249  0.0000E+00  0.1200E+02
    -21.067  0.0000E+00  0.1200E+02
    -20.884  0.0000E+00  0.1200E+02
    -20.701  0.0000E+00  0.1200E+02
    -20.518  0.0000E+00  0.1200E+02
    -20.336  0.0000E+00  0.1200E+02
    -20.153  0.0000E+00  0.1200E+02
    -19.970  0.0000E+00  0.1200E+02
    -19.788  0.0000E+00  0.1200E+02
    -19.605  0.0000E+00  0.1200E+02
    -19.422  0.0000E+00  0.1200E+02
    -19.240  0.0000E+00  0.1200E+02
    -19.057  0.0000E+00  0.1200E+02
    -18.874  0.0000E+00  0.1200E+02
    -18.692  0.0000E+00  0.1200E+02
    -18.509  0.0000E+00  0.1200E+02
    -18.326  0.0000E+00  0.1200E+02
    -18.143  0.0000E+00  0.1200E+02
    -17.961  0.0000E+00  0.1200E+02
    -17.778  0.0000E+00  0.1200E+02
    -17.595  0.0000E+00  0.1200E+02
    -17.413  0.0000E+00  0.1200E+02
    -17.230  0.0000E+00  0.1200E+02
    -17.047  0.0000E+00  0.1200E+02
    -16.865  0.0000E+00  0.1200E+02
    -16.682  0.0000E+00  0.1200E+02
    -16.499  0.0000E+00  0.1200E+02
    -16.316  0.0000E+00  0.1200E+02
    -16.134  0.0000E+00  0.1200E+02
    -15.951  0.0000E+00  0.1200E+02
    -15.768  0.0000E+00  0.1200E+02
    -15.586  0.0000E+00  0.1200E+02
    -15.403  0.0000E+00  0.1200E+02
    -15.220  0.0000E+00  0.1200E+02
    -15.038  0.0000E+00  0.1200E+02
    -14.855  0.0000E+00  0.1200E+02
    -14.672  0.0000E+00  0.1200E+02
    -14.489  0.0000E+00  0.1200E+02
    -14.307  0.0000E+00  0.1200E+02
    -14.124  0.0000E+00  0.1200E+02
    -13.941  0.0000E+00  0.1200E+02
    -13.759  0.0000E+00  0.1200E+02
    -13.576  0.0000E+00  0.1200E+02
    -13.393  0.0000E+00  0.1200E+02
    -13.211  0.0000E+00  0.1200E+02
    -13.028  0.0000E+00  0.1200E+02
    -12.845  0.0000E+00  0.1200E+02
    -12.663  0.0000E+00  0.1200E+02
    -12.480  0.0000E+00  0.1200E+02
    -12.297  0.0000E+00  0.1200E+02
    -12.114  0.0000E+00  0.1200E+02
    -11.932  0.0000E+00  0.1200E+02
    -11.749  0.0000E+00  0.1200E+02
    -11.566  0.0000E+00  0.1200E+02
    -11.384  0.0000E+00  0.1200E+02
    -11.201  0.0000E+00  0.1200E+02
    -11.018  0.0000E+00  0.1200E+02
    -10.836  0.0000E+00  0.1200E+02
    -10.653  0.0000E+00  0.1200E+02
    -10.470  0.0000E+00  0.1200E+02
    -10.287  0.0000E+00  0.1200E+02
    -10.105  0.0000E+00  0.1200E+02
     -9.922  0.0000E+00  0.1200E+02
     -9.739  0.0000E+00  0.1200E+02
     -9.557  0.0000E+00  0.1200E+02
     -9.374  0.0000E+00  0.1200E+02
     -9.191  0.0000E+00  0.1200E+02
     -9.009  0.0000E+00  0.1200E+02
     -8.826  0.0000E+00  0.1200E+02
     -8.643  0.3757E-11  0.1200E+02
     -8.460  0.6956E-01  0.1201E+02
     -8.278  0.7217E+01  0.1333E+02
     -8.095  0.2838E+01  0.1385E+02
     -7.912  0.7991E+00  0.1400E+02
     -7.730  0.2399E-01  0.1400E+02
     -7.547  0.2734E-08  0.1400E+02
     -7.364  0.0000E+00  0.1400E+02
     -7.182  0.0000E+00  0.1400E+02
     -6.999  0.0000E+00  0.1400E+02
     -6.816  0.0000E+00  0.1400E+02
     -6.634  0.0000E+00  0.1400E+02
     -6.451  0.0000E+00  0.1400E+02
     -6.268  0.0000E+00  0.1400E+02
     -6.085  0.0000E+00  0.1400E+02
     -5.903  0.0000E+00  0.1400E+02
     -5.720  0.0000E+00  0.1400E+02
     -5.537  0.0000E+00  0.1400E+02
     -5.355  0.0000E+00  0.1400E+02
     -5.172  0.0000E+00  0.1400E+02
     -4.989  0.0000E+00  0.1400E+02
     -4.807  0.0000E+00  0.1400E+02
     -4.624  0.0000E+00  0.1400E+02
     -4.441  0.0000E+00  0.1400E+02
     -4.258  0.0000E+00  0.1400E+02
     -4.076  0.0000E+00  0.1400E+02
     -3.893  0.0000E+00  0.1400E+02
     -3.710  0.0000E+00  0.1400E+02
     -3.528  0.0000E+00  0.1400E+02
     -3.345  0.0000E+00  0.1400E+02
     -3.162  0.0000E+00  0.1400E+02
     -2.980  0.0000E+00  0.1400E+02
     -2.797  0.0000E+00  0.1400E+02
     -2.614  0.0000E+00  0.1400E+02
     -2.431  0.0000E+00  0.1400E+02
     -2.249  0.0000E+00  0.1400E+02
     -2.066  0.0000E+00  0.1400E+02
     -1.883  0.0000E+00  0.1400E+02
     -1.701  0.0000E+00  0.1400E+02
     -1.518  0.0000E+00  0.1400E+02
     -1.335  0.0000E+00  0.1400E+02
     -1.153  0.0000E+00  0.1400E+02
     -0.970  0.0000E+00  0.1400E+02
     -0.787  0.0000E+00  0.1400E+02
     -0.605  0.0000E+00  0.1400E+02
     -0.422  0.0000E+00  0.1400E+02
     -0.239  0.1657E-06  0.1400E+02
     -0.056  0.1965E+00  0.1404E+02
      0.126  0.4928E+01  0.1494E+02
      0.309  0.2586E+01  0.1541E+02
      0.492  0.6584E+00  0.1553E+02
      0.674  0.1205E+01  0.1575E+02
      0.857  0.4694E+00  0.1583E+02
      1.040  0.1474E+00  0.1586E+02
      1.222  0.6023E+00  0.1597E+02
      1.405  0.1567E+01  0.1626E+02
      1.588  0.1789E+01  0.1658E+02
      1.771  0.1318E+01  0.1683E+02
      1.953  0.4789E+00  0.1691E+02
      2.136  0.1438E+01  0.1718E+02
      2.319  0.1267E+01  0.1741E+02
      2.501  0.1134E+01  0.1761E+02
      2.684  0.1895E+00  0.1765E+02
      2.867  0.8259E+00  0.1780E+02
      3.049  0.5875E+00  0.1791E+02
      3.232  0.1821E+00  0.1794E+02
      3.415  0.3090E+00  0.1800E+02
      3.598  0.1686E-01  0.1800E+02
      3.780  0.4963E-01  0.1801E+02
      3.963  0.4755E-04  0.1801E+02
      4.146  0.0000E+00  0.1801E+02
      4.328  0.0000E+00  0.1801E+02
      4.511  0.0000E+00  0.1801E+02
      4.694  0.0000E+00  0.1801E+02
      4.876  0.0000E+00  0.1801E+02
      5.059  0.0000E+00  0.1801E+02
      5.242  0.6010E-13  0.1801E+02
      5.424  0.6749E-02  0.1801E+02
      5.607  0.3982E+00  0.1808E+02
      5.790  0.4813E-03  0.1808E+02
      5.973  0.4015E-02  0.1808E+02
      6.155  0.2996E+00  0.1814E+02
      6.338  0.3363E+00  0.1820E+02
      6.521  0.4216E+00  0.1828E+02
      6.703  0.2044E+00  0.1831E+02
      6.886  0.4069E+00  0.1839E+02
      7.069  0.1871E+01  0.1873E+02
      7.251  0.1003E+01  0.1891E+02
      7.434  0.2516E+01  0.1937E+02
      7.617  0.3934E+00  0.1945E+02
      7.800  0.1402E+01  0.1970E+02
      7.982  0.1160E+01  0.1991E+02
      8.165  0.6244E+00  0.2003E+02
      8.348  0.7315E-01  0.2004E+02
      8.530  0.2334E+00  0.2008E+02
      8.713  0.1201E+01  0.2030E+02
      8.896  0.1332E-01  0.2031E+02
      9.078  0.1240E+01  0.2053E+02
      9.261  0.3523E+01  0.2118E+02
      9.444  0.2111E+01  0.2156E+02
      9.627  0.7249E+00  0.2169E+02
      9.809  0.1589E+01  0.2198E+02
      9.992  0.8532E+00  0.2214E+02
     10.175  0.8066E+00  0.2229E+02
     10.357  0.2491E+00  0.2233E+02
     10.540  0.3455E+00  0.2240E+02
     10.723  0.1069E+01  0.2259E+02
     10.905  0.3064E+01  0.2315E+02
     11.088  0.2350E+01  0.2358E+02
     11.271  0.1255E+01  0.2381E+02
     11.453  0.6655E+00  0.2393E+02
     11.636  0.1374E+01  0.2418E+02
     11.819  0.2662E+01  0.2467E+02
     12.002  0.1397E+01  0.2492E+02
     12.184  0.3441E+01  0.2555E+02
     12.367  0.6236E+00  0.2567E+02
     12.550  0.1008E+01  0.2585E+02
     12.732  0.9241E+00  0.2602E+02
     12.915  0.2204E+00  0.2606E+02
     13.098  0.5858E+00  0.2617E+02
     13.280  0.9437E+00  0.2634E+02
     13.463  0.2886E+01  0.2687E+02
     13.646  0.2181E+01  0.2726E+02
     13.829  0.3269E+00  0.2732E+02
     14.011  0.1193E+01  0.2754E+02
     14.194  0.7125E-01  0.2756E+02
     14.377  0.6302E-01  0.2757E+02
     14.559  0.4915E+00  0.2766E+02
     14.742  0.1574E+01  0.2794E+02
     14.925  0.1187E-03  0.2794E+02
     15.107  0.0000E+00  0.2794E+02
     15.290  0.0000E+00  0.2794E+02
     15.473  0.8904E-15  0.2794E+02
     15.656  0.8118E-03  0.2794E+02
     15.838  0.2275E+00  0.2799E+02
     16.021  0.7577E-01  0.2800E+02
     16.204  0.1467E-04  0.2800E+02
     16.386  0.0000E+00  0.2800E+02
     16.569  0.0000E+00  0.2800E+02
     16.752  0.0000E+00  0.2800E+02
     16.934  0.0000E+00  0.2800E+02
     17.117  0.0000E+00  0.2800E+02
     17.300  0.0000E+00  0.2800E+02
     17.482  0.0000E+00  0.2800E+02
     17.665  0.0000E+00  0.2800E+02
     17.848  0.0000E+00  0.2800E+02
     18.031  0.0000E+00  0.2800E+02
     18.213  0.0000E+00  0.2800E+02
     18.396  0.0000E+00  0.2800E+02
