   1   1   0   0
  0.5789729E+02  0.4342346E-09  0.4342346E-09  0.4342346E-09  0.1000000E-15
  1.000000000000000E-004
  CAR 
 Og_FCC                                  
     59.30534042    -38.36124650  301      3.52756394      1.00000000
    -38.361  0.0000E+00  0.0000E+00
    -38.036  0.0000E+00  0.0000E+00
    -37.710  0.0000E+00  0.0000E+00
    -37.385  0.0000E+00  0.0000E+00
    -37.059  0.0000E+00  0.0000E+00
    -36.733  0.0000E+00  0.0000E+00
    -36.408  0.0000E+00  0.0000E+00
    -36.082  0.0000E+00  0.0000E+00
    -35.757  0.0000E+00  0.0000E+00
    -35.431  0.0000E+00  0.0000E+00
    -35.106  0.0000E+00  0.0000E+00
    -34.780  0.0000E+00  0.0000E+00
    -34.455  0.0000E+00  0.0000E+00
    -34.129  0.3525E-08  0.1148E-08
    -33.803  0.1226E+02  0.3990E+01
    -33.478  0.0000E+00  0.4000E+01
    -33.152  0.0000E+00  0.4000E+01
    -32.827  0.0000E+00  0.4000E+01
    -32.501  0.0000E+00  0.4000E+01
    -32.176  0.0000E+00  0.4000E+01
    -31.850  0.0000E+00  0.4000E+01
    -31.525  0.0000E+00  0.4000E+01
    -31.199  0.0000E+00  0.4000E+01
    -30.873  0.0000E+00  0.4000E+01
    -30.548  0.0000E+00  0.4000E+01
    -30.222  0.0000E+00  0.4000E+01
    -29.897  0.0000E+00  0.4000E+01
    -29.571  0.0000E+00  0.4000E+01
    -29.246  0.0000E+00  0.4000E+01
    -28.920  0.0000E+00  0.4000E+01
    -28.595  0.0000E+00  0.4000E+01
    -28.269  0.0000E+00  0.4000E+01
    -27.943  0.0000E+00  0.4000E+01
    -27.618  0.0000E+00  0.4000E+01
    -27.292  0.0000E+00  0.4000E+01
    -26.967  0.3527E+01  0.5148E+01
    -26.641  0.1490E+02  0.1000E+02
    -26.316  0.0000E+00  0.1000E+02
    -25.990  0.0000E+00  0.1000E+02
    -25.665  0.0000E+00  0.1000E+02
    -25.339  0.0000E+00  0.1000E+02
    -25.013  0.0000E+00  0.1000E+02
    -24.688  0.0000E+00  0.1000E+02
    -24.362  0.0000E+00  0.1000E+02
    -24.037  0.0000E+00  0.1000E+02
    -23.711  0.0000E+00  0.1000E+02
    -23.386  0.0000E+00  0.1000E+02
    -23.060  0.0000E+00  0.1000E+02
    -22.735  0.6868E-15  0.1000E+02
    -22.409  0.4579E+00  0.1015E+02
    -22.083  0.5685E+01  0.1200E+02
    -21.758  0.0000E+00  0.1200E+02
    -21.432  0.0000E+00  0.1200E+02
    -21.107  0.0000E+00  0.1200E+02
    -20.781  0.0000E+00  0.1200E+02
    -20.456  0.0000E+00  0.1200E+02
    -20.130  0.0000E+00  0.1200E+02
    -19.805  0.0000E+00  0.1200E+02
    -19.479  0.0000E+00  0.1200E+02
    -19.153  0.0000E+00  0.1200E+02
    -18.828  0.0000E+00  0.1200E+02
    -18.502  0.0000E+00  0.1200E+02
    -18.177  0.0000E+00  0.1200E+02
    -17.851  0.0000E+00  0.1200E+02
    -17.526  0.0000E+00  0.1200E+02
    -17.200  0.0000E+00  0.1200E+02
    -16.875  0.0000E+00  0.1200E+02
    -16.549  0.0000E+00  0.1200E+02
    -16.223  0.0000E+00  0.1200E+02
    -15.898  0.0000E+00  0.1200E+02
    -15.572  0.0000E+00  0.1200E+02
    -15.247  0.0000E+00  0.1200E+02
    -14.921  0.0000E+00  0.1200E+02
    -14.596  0.0000E+00  0.1200E+02
    -14.270  0.0000E+00  0.1200E+02
    -13.945  0.0000E+00  0.1200E+02
    -13.619  0.0000E+00  0.1200E+02
    -13.293  0.0000E+00  0.1200E+02
    -12.968  0.0000E+00  0.1200E+02
    -12.642  0.0000E+00  0.1200E+02
    -12.317  0.0000E+00  0.1200E+02
    -11.991  0.0000E+00  0.1200E+02
    -11.666  0.0000E+00  0.1200E+02
    -11.340  0.0000E+00  0.1200E+02
    -11.015  0.0000E+00  0.1200E+02
    -10.689  0.0000E+00  0.1200E+02
    -10.363  0.0000E+00  0.1200E+02
    -10.038  0.0000E+00  0.1200E+02
     -9.712  0.0000E+00  0.1200E+02
     -9.387  0.0000E+00  0.1200E+02
     -9.061  0.0000E+00  0.1200E+02
     -8.736  0.0000E+00  0.1200E+02
     -8.410  0.5058E+00  0.1216E+02
     -8.085  0.5202E+01  0.1386E+02
     -7.759  0.4352E+00  0.1400E+02
     -7.433  0.0000E+00  0.1400E+02
     -7.108  0.0000E+00  0.1400E+02
     -6.782  0.0000E+00  0.1400E+02
     -6.457  0.0000E+00  0.1400E+02
     -6.131  0.0000E+00  0.1400E+02
     -5.806  0.0000E+00  0.1400E+02
     -5.480  0.0000E+00  0.1400E+02
     -5.155  0.0000E+00  0.1400E+02
     -4.829  0.0000E+00  0.1400E+02
     -4.503  0.0000E+00  0.1400E+02
     -4.178  0.0000E+00  0.1400E+02
     -3.852  0.0000E+00  0.1400E+02
     -3.527  0.0000E+00  0.1400E+02
     -3.201  0.0000E+00  0.1400E+02
     -2.876  0.0000E+00  0.1400E+02
     -2.550  0.0000E+00  0.1400E+02
     -2.225  0.0000E+00  0.1400E+02
     -1.899  0.0000E+00  0.1400E+02
     -1.573  0.0000E+00  0.1400E+02
     -1.248  0.0000E+00  0.1400E+02
     -0.922  0.0000E+00  0.1400E+02
     -0.597  0.0000E+00  0.1400E+02
     -0.271  0.6625E-09  0.1400E+02
      0.054  0.1204E+01  0.1439E+02
      0.380  0.3349E+01  0.1548E+02
      0.705  0.8228E+00  0.1575E+02
      1.031  0.3420E+00  0.1586E+02
      1.356  0.7660E+00  0.1611E+02
      1.682  0.1755E+01  0.1668E+02
      2.008  0.7992E+00  0.1694E+02
      2.333  0.1429E+01  0.1741E+02
      2.659  0.6991E+00  0.1764E+02
      2.984  0.8262E+00  0.1790E+02
      3.310  0.2344E+00  0.1798E+02
      3.635  0.6442E-01  0.1800E+02
      3.961  0.2386E-01  0.1801E+02
      4.286  0.0000E+00  0.1801E+02
      4.612  0.0000E+00  0.1801E+02
      4.938  0.0000E+00  0.1801E+02
      5.263  0.2505E-11  0.1801E+02
      5.589  0.2262E+00  0.1808E+02
      5.914  0.9295E-05  0.1808E+02
      6.240  0.1721E+00  0.1814E+02
      6.565  0.4251E+00  0.1828E+02
      6.891  0.3416E+00  0.1839E+02
      7.216  0.1545E+01  0.1889E+02
      7.542  0.1697E+01  0.1944E+02
      7.868  0.1018E+01  0.1978E+02
      8.193  0.7669E+00  0.2003E+02
      8.519  0.1711E+00  0.2008E+02
      8.844  0.6821E+00  0.2031E+02
      9.170  0.1663E+01  0.2085E+02
      9.495  0.2426E+01  0.2164E+02
      9.821  0.1122E+01  0.2200E+02
     10.146  0.8110E+00  0.2227E+02
     10.472  0.3470E+00  0.2238E+02
     10.798  0.1502E+01  0.2287E+02
     11.123  0.2273E+01  0.2361E+02
     11.449  0.9807E+00  0.2393E+02
     11.774  0.1535E+01  0.2443E+02
     12.100  0.2846E+01  0.2536E+02
     12.425  0.9690E+00  0.2567E+02
     12.751  0.1020E+01  0.2600E+02
     13.076  0.4443E+00  0.2615E+02
     13.402  0.1551E+01  0.2665E+02
     13.728  0.1819E+01  0.2725E+02
     14.053  0.7392E+00  0.2749E+02
     14.379  0.2216E+00  0.2756E+02
     14.704  0.9564E+00  0.2787E+02
     15.030  0.9819E-01  0.2790E+02
     15.355  0.1449E-01  0.2791E+02
     15.681  0.1534E-01  0.2791E+02
     16.006  0.1715E+00  0.2797E+02
     16.332  0.1197E-01  0.2797E+02
     16.658  0.0000E+00  0.2797E+02
     16.983  0.0000E+00  0.2797E+02
     17.309  0.0000E+00  0.2797E+02
     17.634  0.0000E+00  0.2797E+02
     17.960  0.0000E+00  0.2797E+02
     18.285  0.0000E+00  0.2797E+02
     18.611  0.0000E+00  0.2797E+02
     18.936  0.0000E+00  0.2797E+02
     19.262  0.0000E+00  0.2797E+02
     19.588  0.0000E+00  0.2797E+02
     19.913  0.0000E+00  0.2797E+02
     20.239  0.0000E+00  0.2797E+02
     20.564  0.0000E+00  0.2797E+02
     20.890  0.0000E+00  0.2797E+02
     21.215  0.0000E+00  0.2797E+02
     21.541  0.0000E+00  0.2797E+02
     21.866  0.0000E+00  0.2797E+02
     22.192  0.0000E+00  0.2797E+02
     22.518  0.0000E+00  0.2797E+02
     22.843  0.0000E+00  0.2797E+02
     23.169  0.0000E+00  0.2797E+02
     23.494  0.0000E+00  0.2797E+02
     23.820  0.0000E+00  0.2797E+02
     24.145  0.0000E+00  0.2797E+02
     24.471  0.0000E+00  0.2797E+02
     24.796  0.0000E+00  0.2797E+02
     25.122  0.0000E+00  0.2797E+02
     25.448  0.4778E-13  0.2797E+02
     25.773  0.1409E-01  0.2798E+02
     26.099  0.0000E+00  0.2798E+02
     26.424  0.0000E+00  0.2798E+02
     26.750  0.0000E+00  0.2798E+02
     27.075  0.0000E+00  0.2798E+02
     27.401  0.0000E+00  0.2798E+02
     27.726  0.0000E+00  0.2798E+02
     28.052  0.0000E+00  0.2798E+02
     28.378  0.0000E+00  0.2798E+02
     28.703  0.0000E+00  0.2798E+02
     29.029  0.0000E+00  0.2798E+02
     29.354  0.0000E+00  0.2798E+02
     29.680  0.0000E+00  0.2798E+02
     30.005  0.0000E+00  0.2798E+02
     30.331  0.0000E+00  0.2798E+02
     30.656  0.0000E+00  0.2798E+02
     30.982  0.0000E+00  0.2798E+02
     31.308  0.0000E+00  0.2798E+02
     31.633  0.0000E+00  0.2798E+02
     31.959  0.0000E+00  0.2798E+02
     32.284  0.0000E+00  0.2798E+02
     32.610  0.0000E+00  0.2798E+02
     32.935  0.0000E+00  0.2798E+02
     33.261  0.0000E+00  0.2798E+02
     33.586  0.0000E+00  0.2798E+02
     33.912  0.0000E+00  0.2798E+02
     34.238  0.0000E+00  0.2798E+02
     34.563  0.0000E+00  0.2798E+02
     34.889  0.0000E+00  0.2798E+02
     35.214  0.0000E+00  0.2798E+02
     35.540  0.0000E+00  0.2798E+02
     35.865  0.0000E+00  0.2798E+02
     36.191  0.0000E+00  0.2798E+02
     36.516  0.0000E+00  0.2798E+02
     36.842  0.0000E+00  0.2798E+02
     37.168  0.0000E+00  0.2798E+02
     37.493  0.0000E+00  0.2798E+02
     37.819  0.0000E+00  0.2798E+02
     38.144  0.0000E+00  0.2798E+02
     38.470  0.0000E+00  0.2798E+02
     38.795  0.0000E+00  0.2798E+02
     39.121  0.0000E+00  0.2798E+02
     39.446  0.0000E+00  0.2798E+02
     39.772  0.0000E+00  0.2798E+02
     40.098  0.7769E-03  0.2798E+02
     40.423  0.1344E-01  0.2798E+02
     40.749  0.0000E+00  0.2798E+02
     41.074  0.0000E+00  0.2798E+02
     41.400  0.0000E+00  0.2798E+02
     41.725  0.0000E+00  0.2798E+02
     42.051  0.1421E-16  0.2798E+02
     42.376  0.1276E-01  0.2799E+02
     42.702  0.1461E-02  0.2799E+02
     43.028  0.0000E+00  0.2799E+02
     43.353  0.0000E+00  0.2799E+02
     43.679  0.0000E+00  0.2799E+02
     44.004  0.0000E+00  0.2799E+02
     44.330  0.0000E+00  0.2799E+02
     44.655  0.0000E+00  0.2799E+02
     44.981  0.0000E+00  0.2799E+02
     45.306  0.0000E+00  0.2799E+02
     45.632  0.0000E+00  0.2799E+02
     45.958  0.0000E+00  0.2799E+02
     46.283  0.0000E+00  0.2799E+02
     46.609  0.0000E+00  0.2799E+02
     46.934  0.0000E+00  0.2799E+02
     47.260  0.0000E+00  0.2799E+02
     47.585  0.0000E+00  0.2799E+02
     47.911  0.0000E+00  0.2799E+02
     48.236  0.6792E-03  0.2799E+02
     48.562  0.1354E-01  0.2799E+02
     48.888  0.0000E+00  0.2799E+02
     49.213  0.0000E+00  0.2799E+02
     49.539  0.0000E+00  0.2799E+02
     49.864  0.0000E+00  0.2799E+02
     50.190  0.0000E+00  0.2799E+02
     50.515  0.6419E-02  0.2799E+02
     50.841  0.7802E-02  0.2800E+02
     51.166  0.0000E+00  0.2800E+02
     51.492  0.0000E+00  0.2800E+02
     51.818  0.0000E+00  0.2800E+02
     52.143  0.0000E+00  0.2800E+02
     52.469  0.0000E+00  0.2800E+02
     52.794  0.0000E+00  0.2800E+02
     53.120  0.0000E+00  0.2800E+02
     53.445  0.0000E+00  0.2800E+02
     53.771  0.0000E+00  0.2800E+02
     54.096  0.0000E+00  0.2800E+02
     54.422  0.0000E+00  0.2800E+02
     54.748  0.5779E-05  0.2800E+02
     55.073  0.1421E-01  0.2800E+02
     55.399  0.0000E+00  0.2800E+02
     55.724  0.0000E+00  0.2800E+02
     56.050  0.0000E+00  0.2800E+02
     56.375  0.0000E+00  0.2800E+02
     56.701  0.0000E+00  0.2800E+02
     57.026  0.0000E+00  0.2800E+02
     57.352  0.0000E+00  0.2800E+02
     57.678  0.0000E+00  0.2800E+02
     58.003  0.0000E+00  0.2800E+02
     58.329  0.0000E+00  0.2800E+02
     58.654  0.0000E+00  0.2800E+02
     58.980  0.0000E+00  0.2800E+02
     59.305  0.0000E+00  0.2800E+02
