    1    1    1    1
  0.5789729E+02  0.4342346E-09  0.4342346E-09  0.4342346E-09  0.1000000E-15
  1.000000000000000E-004
  CAR 
 Og_FCC                                  
     18    216     28
 
  0.0000000E+00  0.0000000E+00  0.0000000E+00  0.4629630E-02
    1      -33.917918   1.000000
    2      -33.917917   1.000000
    3      -33.917917   1.000000
    4      -33.917917   1.000000
    5      -26.950184   1.000000
    6      -26.950183   1.000000
    7      -26.950182   1.000000
    8      -26.950182   1.000000
    9      -26.948540   1.000000
   10      -26.948539   1.000000
   11      -22.468140   1.000000
   12      -22.468140   1.000000
   13       -7.917564   1.000000
   14       -7.917563   1.000000
   15        3.379083   0.999987
   16        3.379083   0.999987
   17        3.379103   0.999987
   18        3.379103   0.999987
   19        3.670387   0.000027
   20        3.670388   0.000027
   21       11.296921   0.000000
   22       11.296922   0.000000
   23       11.296923   0.000000
   24       11.296923   0.000000
   25       11.615319   0.000000
   26       11.615320   0.000000
   27       11.655351   0.000000
   28       11.655351   0.000000
 
  0.1666667E+00  0.1566927E-17  0.2081668E-16  0.4629630E-02
    1      -33.895982   1.000000
    2      -33.895981   1.000000
    3      -33.894741   1.000000
    4      -33.894741   1.000000
    5      -26.932882   1.000000
    6      -26.932882   1.000000
    7      -26.932314   1.000000
    8      -26.932314   1.000000
    9      -26.929938   1.000000
   10      -26.929938   1.000000
   11      -22.423763   1.000000
   12      -22.423763   1.000000
   13       -8.007056   1.000000
   14       -8.007056   1.000000
   15        1.622582   1.000000
   16        1.622582   1.000000
   17        3.236679   1.000000
   18        3.236679   1.000000
   19        5.499752   0.000000
   20        5.499753   0.000000
   21       10.174005   0.000000
   22       10.174005   0.000000
   23       11.498689   0.000000
   24       11.498692   0.000000
   25       11.718183   0.000000
   26       11.718186   0.000000
   27       12.681647   0.000000
   28       12.681660   0.000000
 
  0.3333333E+00  0.3133854E-17  0.0000000E+00  0.4629630E-02
    1      -33.907796   1.000000
    2      -33.907796   1.000000
    3      -33.902616   1.000000
    4      -33.902616   1.000000
    5      -26.940525   1.000000
    6      -26.940524   1.000000
    7      -26.939189   1.000000
    8      -26.939189   1.000000
    9      -26.937440   1.000000
   10      -26.937439   1.000000
   11      -22.374979   1.000000
   12      -22.374979   1.000000
   13       -8.219109   1.000000
   14       -8.219107   1.000000
   15        0.380448   1.000000
   16        0.380478   1.000000
   17        2.923640   1.000000
   18        2.923642   1.000000
   19        6.329822   0.000000
   20        6.329838   0.000000
   21       10.754437   0.000000
   22       10.754451   0.000000
   23       11.031412   0.000000
   24       11.031412   0.000000
   25       11.365977   0.000000
   26       11.365977   0.000000
   27       11.776415   0.000000
   28       11.776420   0.000000
 
  0.5000000E+00  0.4700780E-17  0.5551115E-16  0.4629630E-02
    1      -33.921856   1.000000
    2      -33.921856   1.000000
    3      -33.911614   1.000000
    4      -33.911614   1.000000
    5      -26.945807   1.000000
    6      -26.945807   1.000000
    7      -26.942325   1.000000
    8      -26.942325   1.000000
    9      -26.941889   1.000000
   10      -26.941889   1.000000
   11      -22.325590   1.000000
   12      -22.325590   1.000000
   13       -8.316596   1.000000
   14       -8.316596   1.000000
   15       -0.069564   1.000000
   16       -0.069563   1.000000
   17        2.793139   1.000000
   18        2.793139   1.000000
   19        6.340276   0.000000
   20        6.340277   0.000000
   21       10.713574   0.000000
   22       10.713575   0.000000
   23       10.925364   0.000000
   24       10.925380   0.000000
   25       10.999994   0.000000
   26       11.000843   0.000000
   27       13.402573   0.000000
   28       14.640562   0.000000
 
 -0.3333333E+00 -0.3133854E-17  0.0000000E+00  0.4629630E-02
    1      -33.907796   1.000000
    2      -33.907796   1.000000
    3      -33.902616   1.000000
    4      -33.902616   1.000000
    5      -26.940525   1.000000
    6      -26.940524   1.000000
    7      -26.939189   1.000000
    8      -26.939189   1.000000
    9      -26.937440   1.000000
   10      -26.937439   1.000000
   11      -22.374978   1.000000
   12      -22.374977   1.000000
   13       -8.219111   1.000000
   14       -8.219110   1.000000
   15        0.380142   1.000000
   16        0.380172   1.000000
   17        2.923635   1.000000
   18        2.923637   1.000000
   19        6.329999   0.000000
   20        6.330016   0.000000
   21       10.754594   0.000000
   22       10.754607   0.000000
   23       11.031408   0.000000
   24       11.031409   0.000000
   25       11.365943   0.000000
   26       11.365943   0.000000
   27       11.776299   0.000000
   28       11.776301   0.000000
 
 -0.1666667E+00 -0.1566927E-17 -0.6938894E-17  0.4629630E-02
    1      -33.895981   1.000000
    2      -33.895981   1.000000
    3      -33.894740   1.000000
    4      -33.894740   1.000000
    5      -26.932881   1.000000
    6      -26.932881   1.000000
    7      -26.932314   1.000000
    8      -26.932314   1.000000
    9      -26.929937   1.000000
   10      -26.929937   1.000000
   11      -22.423763   1.000000
   12      -22.423763   1.000000
   13       -8.007056   1.000000
   14       -8.007056   1.000000
   15        1.622572   1.000000
   16        1.622572   1.000000
   17        3.236679   1.000000
   18        3.236679   1.000000
   19        5.499766   0.000000
   20        5.499767   0.000000
   21       10.174009   0.000000
   22       10.174010   0.000000
   23       11.498662   0.000000
   24       11.498663   0.000000
   25       11.718115   0.000000
   26       11.718115   0.000000
   27       12.700528   0.000000
   28       12.700935   0.000000
 
 -0.1925930E-33  0.1666667E+00 -0.6938894E-17  0.4629630E-02
    1      -33.895982   1.000000
    2      -33.895982   1.000000
    3      -33.894740   1.000000
    4      -33.894740   1.000000
    5      -26.932882   1.000000
    6      -26.932882   1.000000
    7      -26.932314   1.000000
    8      -26.932314   1.000000
    9      -26.929939   1.000000
   10      -26.929938   1.000000
   11      -22.423763   1.000000
   12      -22.423763   1.000000
   13       -8.007056   1.000000
   14       -8.007056   1.000000
   15        1.622582   1.000000
   16        1.622582   1.000000
   17        3.236680   1.000000
   18        3.236680   1.000000
   19        5.499751   0.000000
   20        5.499751   0.000000
   21       10.174007   0.000000
   22       10.174007   0.000000
   23       11.498676   0.000000
   24       11.498677   0.000000
   25       11.718164   0.000000
   26       11.718165   0.000000
   27       12.954525   0.000000
   28       12.956987   0.000000
 
  0.1666667E+00  0.1666667E+00  0.2775558E-16  0.4629630E-02
    1      -33.906948   1.000000
    2      -33.906948   1.000000
    3      -33.901487   1.000000
    4      -33.901487   1.000000
    5      -26.940172   1.000000
    6      -26.940172   1.000000
    7      -26.936768   1.000000
    8      -26.936768   1.000000
    9      -26.933647   1.000000
   10      -26.933647   1.000000
   11      -22.410915   1.000000
   12      -22.410914   1.000000
   13       -8.035377   1.000000
   14       -8.035377   1.000000
   15        1.495700   1.000000
   16        1.495701   1.000000
   17        2.881131   1.000000
   18        2.881131   1.000000
   19        6.051074   0.000000
   20        6.051074   0.000000
   21        9.543822   0.000000
   22        9.543823   0.000000
   23       11.020829   0.000000
   24       11.020829   0.000000
   25       11.789420   0.000000
   26       11.789420   0.000000
   27       12.474317   0.000000
   28       12.474394   0.000000
 
  0.3333333E+00  0.1666667E+00 -0.2775558E-16  0.4629630E-02
    1      -33.902696   1.000000
    2      -33.902696   1.000000
    3      -33.900595   1.000000
    4      -33.900595   1.000000
    5      -26.937156   1.000000
    6      -26.937155   1.000000
    7      -26.934755   1.000000
    8      -26.934755   1.000000
    9      -26.930941   1.000000
   10      -26.930941   1.000000
   11      -22.361709   1.000000
   12      -22.361709   1.000000
   13       -8.199607   1.000000
   14       -8.199607   1.000000
   15        0.582454   1.000000
   16        0.582455   1.000000
   17        2.448615   1.000000
   18        2.448615   1.000000
   19        7.032489   0.000000
   20        7.032489   0.000000
   21        9.429114   0.000000
   22        9.429115   0.000000
   23        9.991412   0.000000
   24        9.991412   0.000000
   25       12.071238   0.000000
   26       12.071239   0.000000
   27       13.423241   0.000000
   28       13.423247   0.000000
 
  0.5000000E+00  0.1666667E+00  0.5551115E-16  0.4629630E-02
    1      -33.904794   1.000000
    2      -33.904794   1.000000
    3      -33.893804   1.000000
    4      -33.893803   1.000000
    5      -26.935722   1.000000
    6      -26.935721   1.000000
    7      -26.930780   1.000000
    8      -26.930780   1.000000
    9      -26.927087   1.000000
   10      -26.927087   1.000000
   11      -22.314205   1.000000
   12      -22.314204   1.000000
   13       -8.329648   1.000000
   14       -8.329648   1.000000
   15        0.019998   1.000000
   16        0.019999   1.000000
   17        2.100101   1.000000
   18        2.100101   1.000000
   19        7.294195   0.000000
   20        7.294195   0.000000
   21        9.211627   0.000000
   22        9.211627   0.000000
   23       11.164868   0.000000
   24       11.164868   0.000000
   25       11.809244   0.000000
   26       11.809244   0.000000
   27       13.513445   0.000000
   28       13.513469   0.000000
 
 -0.3333333E+00  0.1666667E+00 -0.1387779E-16  0.4629630E-02
    1      -33.909705   1.000000
    2      -33.909704   1.000000
    3      -33.900858   1.000000
    4      -33.900858   1.000000
    5      -26.938970   1.000000
    6      -26.938969   1.000000
    7      -26.936889   1.000000
    8      -26.936889   1.000000
    9      -26.931801   1.000000
   10      -26.931800   1.000000
   11      -22.328821   1.000000
   12      -22.328820   1.000000
   13       -8.298923   1.000000
   14       -8.298923   1.000000
   15        0.132185   1.000000
   16        0.132185   1.000000
   17        2.178706   1.000000
   18        2.178707   1.000000
   19        7.397357   0.000000
   20        7.397357   0.000000
   21        9.362061   0.000000
   22        9.362062   0.000000
   23       10.981273   0.000000
   24       10.981274   0.000000
   25       11.609545   0.000000
   26       11.609545   0.000000
   27       13.660853   0.000000
   28       13.700326   0.000000
 
 -0.1666667E+00  0.1666667E+00 -0.1724910E-16  0.4629630E-02
    1      -33.899378   1.000000
    2      -33.899378   1.000000
    3      -33.890550   1.000000
    4      -33.890550   1.000000
    5      -26.932645   1.000000
    6      -26.932645   1.000000
    7      -26.931059   1.000000
    8      -26.931058   1.000000
    9      -26.926083   1.000000
   10      -26.926083   1.000000
   11      -22.379671   1.000000
   12      -22.379670   1.000000
   13       -8.135400   1.000000
   14       -8.135400   1.000000
   15        0.831815   1.000000
   16        0.831816   1.000000
   17        2.717021   1.000000
   18        2.717022   1.000000
   19        6.718795   0.000000
   20        6.718795   0.000000
   21        9.786659   0.000000
   22        9.786660   0.000000
   23       10.576814   0.000000
   24       10.576816   0.000000
   25       11.839278   0.000000
   26       11.839287   0.000000
   27       12.117740   0.000000
   28       12.118265   0.000000
 
  0.3851860E-33  0.3333333E+00 -0.1387779E-16  0.4629630E-02
    1      -33.907797   1.000000
    2      -33.907796   1.000000
    3      -33.902616   1.000000
    4      -33.902615   1.000000
    5      -26.940525   1.000000
    6      -26.940524   1.000000
    7      -26.939189   1.000000
    8      -26.939189   1.000000
    9      -26.937439   1.000000
   10      -26.937439   1.000000
   11      -22.374979   1.000000
   12      -22.374979   1.000000
   13       -8.219108   1.000000
   14       -8.219107   1.000000
   15        0.380473   1.000000
   16        0.380497   1.000000
   17        2.923640   1.000000
   18        2.923642   1.000000
   19        6.329812   0.000000
   20        6.329824   0.000000
   21       10.754415   0.000000
   22       10.754425   0.000000
   23       11.031407   0.000000
   24       11.031408   0.000000
   25       11.365958   0.000000
   26       11.365959   0.000000
   27       11.776270   0.000000
   28       11.776272   0.000000
 
  0.1666667E+00  0.3333333E+00  0.2775558E-16  0.4629630E-02
    1      -33.902696   1.000000
    2      -33.902696   1.000000
    3      -33.900596   1.000000
    4      -33.900595   1.000000
    5      -26.937155   1.000000
    6      -26.937155   1.000000
    7      -26.934755   1.000000
    8      -26.934755   1.000000
    9      -26.930941   1.000000
   10      -26.930941   1.000000
   11      -22.361709   1.000000
   12      -22.361709   1.000000
   13       -8.199607   1.000000
   14       -8.199607   1.000000
   15        0.582455   1.000000
   16        0.582455   1.000000
   17        2.448615   1.000000
   18        2.448615   1.000000
   19        7.032489   0.000000
   20        7.032489   0.000000
   21        9.429113   0.000000
   22        9.429114   0.000000
   23        9.991413   0.000000
   24        9.991413   0.000000
   25       12.071242   0.000000
   26       12.071242   0.000000
   27       13.424652   0.000000
   28       13.424756   0.000000
 
  0.3333333E+00  0.3333333E+00  0.2775558E-16  0.4629630E-02
    1      -33.915259   1.000000
    2      -33.915259   1.000000
    3      -33.914835   1.000000
    4      -33.914835   1.000000
    5      -26.946678   1.000000
    6      -26.946677   1.000000
    7      -26.944965   1.000000
    8      -26.944964   1.000000
    9      -26.942715   1.000000
   10      -26.942714   1.000000
   11      -22.344362   1.000000
   12      -22.344362   1.000000
   13       -8.294715   1.000000
   14       -8.294714   1.000000
   15        0.343187   1.000000
   16        0.343205   1.000000
   17        1.997882   1.000000
   18        1.997884   1.000000
   19        6.996280   0.000000
   20        6.996285   0.000000
   21        8.372592   0.000000
   22        8.372592   0.000000
   23       10.392096   0.000000
   24       10.392104   0.000000
   25       13.266572   0.000000
   26       13.266572   0.000000
   27       14.405510   0.000000
   28       14.405513   0.000000
 
  0.5000000E+00  0.3333333E+00  0.5551115E-16  0.4629630E-02
    1      -33.910164   1.000000
    2      -33.910164   1.000000
    3      -33.906287   1.000000
    4      -33.906286   1.000000
    5      -26.940468   1.000000
    6      -26.940468   1.000000
    7      -26.936530   1.000000
    8      -26.936530   1.000000
    9      -26.934116   1.000000
   10      -26.934116   1.000000
   11      -22.296423   1.000000
   12      -22.296423   1.000000
   13       -8.376842   1.000000
   14       -8.376842   1.000000
   15        0.079507   1.000000
   16        0.079508   1.000000
   17        1.531617   1.000000
   18        1.531617   1.000000
   19        7.073548   0.000000
   20        7.073548   0.000000
   21        8.631986   0.000000
   22        8.631987   0.000000
   23       10.778186   0.000000
   24       10.778187   0.000000
   25       13.270715   0.000000
   26       13.270715   0.000000
   27       14.591893   0.000000
   28       14.592002   0.000000
 
 -0.3333333E+00  0.3333333E+00 -0.2543834E-16  0.4629630E-02
    1      -33.909240   1.000000
    2      -33.909240   1.000000
    3      -33.900254   1.000000
    4      -33.900253   1.000000
    5      -26.940586   1.000000
    6      -26.940586   1.000000
    7      -26.935951   1.000000
    8      -26.935950   1.000000
    9      -26.935100   1.000000
   10      -26.935099   1.000000
   11      -22.312379   1.000000
   12      -22.312379   1.000000
   13       -8.384813   1.000000
   14       -8.384812   1.000000
   15        0.062143   1.000000
   16        0.062149   1.000000
   17        1.383699   1.000000
   18        1.383702   1.000000
   19        7.697799   0.000000
   20        7.697799   0.000000
   21        9.169967   0.000000
   22        9.169971   0.000000
   23       11.800481   0.000000
   24       11.800486   0.000000
   25       12.025854   0.000000
   26       12.025858   0.000000
   27       12.965844   0.000000
   28       12.965846   0.000000
 
 -0.1666667E+00  0.3333333E+00 -0.2775558E-16  0.4629630E-02
    1      -33.909704   1.000000
    2      -33.909704   1.000000
    3      -33.900857   1.000000
    4      -33.900857   1.000000
    5      -26.938969   1.000000
    6      -26.938969   1.000000
    7      -26.936889   1.000000
    8      -26.936889   1.000000
    9      -26.931800   1.000000
   10      -26.931799   1.000000
   11      -22.328821   1.000000
   12      -22.328820   1.000000
   13       -8.298923   1.000000
   14       -8.298923   1.000000
   15        0.132186   1.000000
   16        0.132186   1.000000
   17        2.178704   1.000000
   18        2.178704   1.000000
   19        7.397364   0.000000
   20        7.397364   0.000000
   21        9.362054   0.000000
   22        9.362054   0.000000
   23       10.981286   0.000000
   24       10.981286   0.000000
   25       11.609541   0.000000
   26       11.609541   0.000000
   27       13.637492   0.000000
   28       13.638716   0.000000
 
  0.0000000E+00  0.5000000E+00 -0.2775558E-16  0.4629630E-02
    1      -33.921856   1.000000
    2      -33.921856   1.000000
    3      -33.911614   1.000000
    4      -33.911613   1.000000
    5      -26.945808   1.000000
    6      -26.945808   1.000000
    7      -26.942326   1.000000
    8      -26.942325   1.000000
    9      -26.941889   1.000000
   10      -26.941889   1.000000
   11      -22.325590   1.000000
   12      -22.325589   1.000000
   13       -8.316596   1.000000
   14       -8.316596   1.000000
   15       -0.069564   1.000000
   16       -0.069564   1.000000
   17        2.793139   1.000000
   18        2.793139   1.000000
   19        6.340277   0.000000
   20        6.340277   0.000000
   21       10.713575   0.000000
   22       10.713575   0.000000
   23       10.925353   0.000000
   24       10.925353   0.000000
   25       10.999878   0.000000
   26       10.999878   0.000000
   27       12.642469   0.000000
   28       12.642470   0.000000
 
  0.1666667E+00  0.5000000E+00  0.1110223E-15  0.4629630E-02
    1      -33.904794   1.000000
    2      -33.904794   1.000000
    3      -33.893803   1.000000
    4      -33.893803   1.000000
    5      -26.935722   1.000000
    6      -26.935722   1.000000
    7      -26.930780   1.000000
    8      -26.930780   1.000000
    9      -26.927087   1.000000
   10      -26.927087   1.000000
   11      -22.314205   1.000000
   12      -22.314204   1.000000
   13       -8.329648   1.000000
   14       -8.329648   1.000000
   15        0.019999   1.000000
   16        0.019999   1.000000
   17        2.100101   1.000000
   18        2.100101   1.000000
   19        7.294196   0.000000
   20        7.294196   0.000000
   21        9.211637   0.000000
   22        9.211638   0.000000
   23       11.164873   0.000000
   24       11.164874   0.000000
   25       11.809247   0.000000
   26       11.809247   0.000000
   27       13.610916   0.000000
   28       13.614612   0.000000
 
  0.3333333E+00  0.5000000E+00  0.0000000E+00  0.4629630E-02
    1      -33.910164   1.000000
    2      -33.910163   1.000000
    3      -33.906287   1.000000
    4      -33.906287   1.000000
    5      -26.940467   1.000000
    6      -26.940467   1.000000
    7      -26.936530   1.000000
    8      -26.936530   1.000000
    9      -26.934116   1.000000
   10      -26.934116   1.000000
   11      -22.296423   1.000000
   12      -22.296423   1.000000
   13       -8.376842   1.000000
   14       -8.376842   1.000000
   15        0.079507   1.000000
   16        0.079508   1.000000
   17        1.531617   1.000000
   18        1.531618   1.000000
   19        7.073546   0.000000
   20        7.073546   0.000000
   21        8.631984   0.000000
   22        8.631986   0.000000
   23       10.778191   0.000000
   24       10.778191   0.000000
   25       13.270716   0.000000
   26       13.270716   0.000000
   27       14.591800   0.000000
   28       14.591805   0.000000
 
  0.5000000E+00  0.5000000E+00  0.0000000E+00  0.4629630E-02
    1      -33.919342   1.000000
    2      -33.919342   1.000000
    3      -33.906036   1.000000
    4      -33.906036   1.000000
    5      -26.945332   1.000000
    6      -26.945332   1.000000
    7      -26.937447   1.000000
    8      -26.937446   1.000000
    9      -26.934832   1.000000
   10      -26.934831   1.000000
   11      -22.280708   1.000000
   12      -22.280707   1.000000
   13       -8.405621   1.000000
   14       -8.405621   1.000000
   15       -0.038625   1.000000
   16       -0.038625   1.000000
   17        1.639046   1.000000
   18        1.639046   1.000000
   19        6.447140   0.000000
   20        6.447140   0.000000
   21        7.955525   0.000000
   22        7.955526   0.000000
   23       11.397101   0.000000
   24       11.397104   0.000000
   25       15.747139   0.000000
   26       15.778078   0.000000
   27       15.799571   0.000000
   28       15.800336   0.000000
 
 -0.3333333E+00  0.5000000E+00 -0.4163336E-16  0.4629630E-02
    1      -33.910164   1.000000
    2      -33.910163   1.000000
    3      -33.906287   1.000000
    4      -33.906287   1.000000
    5      -26.940467   1.000000
    6      -26.940467   1.000000
    7      -26.936530   1.000000
    8      -26.936530   1.000000
    9      -26.934116   1.000000
   10      -26.934116   1.000000
   11      -22.296423   1.000000
   12      -22.296423   1.000000
   13       -8.376842   1.000000
   14       -8.376842   1.000000
   15        0.079502   1.000000
   16        0.079503   1.000000
   17        1.531616   1.000000
   18        1.531617   1.000000
   19        7.073555   0.000000
   20        7.073555   0.000000
   21        8.631984   0.000000
   22        8.631985   0.000000
   23       10.778186   0.000000
   24       10.778186   0.000000
   25       13.270803   0.000000
   26       13.270827   0.000000
   27       14.885784   0.000000
   28       14.969956   0.000000
 
 -0.1666667E+00  0.5000000E+00 -0.2775558E-16  0.4629630E-02
    1      -33.904794   1.000000
    2      -33.904794   1.000000
    3      -33.893802   1.000000
    4      -33.893802   1.000000
    5      -26.935722   1.000000
    6      -26.935722   1.000000
    7      -26.930779   1.000000
    8      -26.930779   1.000000
    9      -26.927087   1.000000
   10      -26.927086   1.000000
   11      -22.314205   1.000000
   12      -22.314204   1.000000
   13       -8.329647   1.000000
   14       -8.329647   1.000000
   15        0.019995   1.000000
   16        0.019995   1.000000
   17        2.100098   1.000000
   18        2.100099   1.000000
   19        7.294211   0.000000
   20        7.294211   0.000000
   21        9.211619   0.000000
   22        9.211619   0.000000
   23       11.164874   0.000000
   24       11.164875   0.000000
   25       11.809247   0.000000
   26       11.809247   0.000000
   27       13.514039   0.000000
   28       13.514149   0.000000
 
 -0.3851860E-33 -0.3333333E+00  0.1387779E-16  0.4629630E-02
    1      -33.907797   1.000000
    2      -33.907796   1.000000
    3      -33.902616   1.000000
    4      -33.902615   1.000000
    5      -26.940525   1.000000
    6      -26.940525   1.000000
    7      -26.939189   1.000000
    8      -26.939189   1.000000
    9      -26.937439   1.000000
   10      -26.937439   1.000000
   11      -22.374977   1.000000
   12      -22.374977   1.000000
   13       -8.219111   1.000000
   14       -8.219110   1.000000
   15        0.380125   1.000000
   16        0.380147   1.000000
   17        2.923634   1.000000
   18        2.923636   1.000000
   19        6.330014   0.000000
   20        6.330027   0.000000
   21       10.754580   0.000000
   22       10.754588   0.000000
   23       11.031406   0.000000
   24       11.031407   0.000000
   25       11.365948   0.000000
   26       11.365950   0.000000
   27       11.776299   0.000000
   28       11.776301   0.000000
 
  0.1666667E+00 -0.3333333E+00  0.1387779E-16  0.4629630E-02
    1      -33.909705   1.000000
    2      -33.909705   1.000000
    3      -33.900858   1.000000
    4      -33.900857   1.000000
    5      -26.938970   1.000000
    6      -26.938969   1.000000
    7      -26.936889   1.000000
    8      -26.936889   1.000000
    9      -26.931800   1.000000
   10      -26.931800   1.000000
   11      -22.328821   1.000000
   12      -22.328820   1.000000
   13       -8.298923   1.000000
   14       -8.298923   1.000000
   15        0.132185   1.000000
   16        0.132185   1.000000
   17        2.178706   1.000000
   18        2.178706   1.000000
   19        7.397358   0.000000
   20        7.397358   0.000000
   21        9.362059   0.000000
   22        9.362060   0.000000
   23       10.981273   0.000000
   24       10.981274   0.000000
   25       11.609544   0.000000
   26       11.609544   0.000000
   27       13.587682   0.000000
   28       13.589877   0.000000
 
  0.3333333E+00 -0.3333333E+00  0.2543834E-16  0.4629630E-02
    1      -33.909240   1.000000
    2      -33.909240   1.000000
    3      -33.900254   1.000000
    4      -33.900253   1.000000
    5      -26.940586   1.000000
    6      -26.940586   1.000000
    7      -26.935951   1.000000
    8      -26.935950   1.000000
    9      -26.935100   1.000000
   10      -26.935099   1.000000
   11      -22.312379   1.000000
   12      -22.312379   1.000000
   13       -8.384813   1.000000
   14       -8.384811   1.000000
   15        0.062144   1.000000
   16        0.062149   1.000000
   17        1.383694   1.000000
   18        1.383696   1.000000
   19        7.697798   0.000000
   20        7.697798   0.000000
   21        9.169969   0.000000
   22        9.169973   0.000000
   23       11.800487   0.000000
   24       11.800493   0.000000
   25       12.025856   0.000000
   26       12.025859   0.000000
   27       12.966370   0.000000
   28       12.966555   0.000000
 
  0.5000000E+00 -0.3333333E+00  0.8326673E-16  0.4629630E-02
    1      -33.910164   1.000000
    2      -33.910164   1.000000
    3      -33.906286   1.000000
    4      -33.906286   1.000000
    5      -26.940468   1.000000
    6      -26.940468   1.000000
    7      -26.936530   1.000000
    8      -26.936530   1.000000
    9      -26.934116   1.000000
   10      -26.934116   1.000000
   11      -22.296423   1.000000
   12      -22.296423   1.000000
   13       -8.376842   1.000000
   14       -8.376842   1.000000
   15        0.079503   1.000000
   16        0.079503   1.000000
   17        1.531617   1.000000
   18        1.531617   1.000000
   19        7.073555   0.000000
   20        7.073555   0.000000
   21        8.631983   0.000000
   22        8.631984   0.000000
   23       10.778186   0.000000
   24       10.778186   0.000000
   25       13.270727   0.000000
   26       13.270731   0.000000
   27       14.639764   0.000000
   28       25.690252   0.000000
 
 -0.3333333E+00 -0.3333333E+00 -0.2775558E-16  0.4629630E-02
    1      -33.915259   1.000000
    2      -33.915259   1.000000
    3      -33.914835   1.000000
    4      -33.914835   1.000000
    5      -26.946678   1.000000
    6      -26.946677   1.000000
    7      -26.944966   1.000000
    8      -26.944965   1.000000
    9      -26.942715   1.000000
   10      -26.942714   1.000000
   11      -22.344360   1.000000
   12      -22.344360   1.000000
   13       -8.294713   1.000000
   14       -8.294712   1.000000
   15        0.342724   1.000000
   16        0.342738   1.000000
   17        1.997859   1.000000
   18        1.997862   1.000000
   19        6.996468   0.000000
   20        6.996473   0.000000
   21        8.372593   0.000000
   22        8.372594   0.000000
   23       10.392340   0.000000
   24       10.392350   0.000000
   25       13.266722   0.000000
   26       13.266728   0.000000
   27       14.405528   0.000000
   28       14.405530   0.000000
 
 -0.1666667E+00 -0.3333333E+00  0.0000000E+00  0.4629630E-02
    1      -33.902695   1.000000
    2      -33.902695   1.000000
    3      -33.900595   1.000000
    4      -33.900595   1.000000
    5      -26.937155   1.000000
    6      -26.937154   1.000000
    7      -26.934755   1.000000
    8      -26.934755   1.000000
    9      -26.930940   1.000000
   10      -26.930940   1.000000
   11      -22.361709   1.000000
   12      -22.361709   1.000000
   13       -8.199606   1.000000
   14       -8.199606   1.000000
   15        0.582442   1.000000
   16        0.582443   1.000000
   17        2.448613   1.000000
   18        2.448613   1.000000
   19        7.032515   0.000000
   20        7.032515   0.000000
   21        9.429112   0.000000
   22        9.429113   0.000000
   23        9.991410   0.000000
   24        9.991411   0.000000
   25       12.071239   0.000000
   26       12.071258   0.000000
   27       13.780633   0.000000
   28       13.788774   0.000000
 
  0.0000000E+00 -0.1666667E+00  0.6938894E-17  0.4629630E-02
    1      -33.895981   1.000000
    2      -33.895981   1.000000
    3      -33.894740   1.000000
    4      -33.894740   1.000000