   1   1   0   0
  0.6712764E+02  0.4561827E-09  0.4561827E-09  0.4561827E-09  0.5000000E-15
  1.000000000000000E-004
  CAR 
 Og_FCC                                  
     14.56509739    -31.21126499  301      0.47055332      1.00000000
    -31.211  0.0000E+00  0.0000E+00
    -31.059  0.0000E+00  0.0000E+00
    -30.906  0.0000E+00  0.0000E+00
    -30.754  0.0000E+00  0.0000E+00
    -30.601  0.0000E+00  0.0000E+00
    -30.448  0.0000E+00  0.0000E+00
    -30.296  0.0000E+00  0.0000E+00
    -30.143  0.0000E+00  0.0000E+00
    -29.991  0.0000E+00  0.0000E+00
    -29.838  0.0000E+00  0.0000E+00
    -29.685  0.0000E+00  0.0000E+00
    -29.533 -0.4329E-26 -0.6605E-27
    -29.380 -0.7025E-09 -0.1072E-09
    -29.228 -0.5098E+00 -0.7779E-01
    -29.075  0.6793E+02  0.1029E+02
    -28.922 -0.1884E+01  0.1000E+02
    -28.770 -0.3843E-05  0.1000E+02
    -28.617  0.0000E+00  0.1000E+02
    -28.465  0.0000E+00  0.1000E+02
    -28.312  0.0000E+00  0.1000E+02
    -28.160  0.0000E+00  0.1000E+02
    -28.007  0.0000E+00  0.1000E+02
    -27.854  0.0000E+00  0.1000E+02
    -27.702  0.0000E+00  0.1000E+02
    -27.549  0.0000E+00  0.1000E+02
    -27.397  0.0000E+00  0.1000E+02
    -27.244  0.0000E+00  0.1000E+02
    -27.091  0.0000E+00  0.1000E+02
    -26.939  0.0000E+00  0.1000E+02
    -26.786  0.0000E+00  0.1000E+02
    -26.634  0.0000E+00  0.1000E+02
    -26.481  0.0000E+00  0.1000E+02
    -26.328  0.0000E+00  0.1000E+02
    -26.176  0.0000E+00  0.1000E+02
    -26.023  0.0000E+00  0.1000E+02
    -25.871  0.0000E+00  0.1000E+02
    -25.718  0.0000E+00  0.1000E+02
    -25.566  0.0000E+00  0.1000E+02
    -25.413  0.0000E+00  0.1000E+02
    -25.260  0.0000E+00  0.1000E+02
    -25.108  0.0000E+00  0.1000E+02
    -24.955  0.0000E+00  0.1000E+02
    -24.803  0.0000E+00  0.1000E+02
    -24.650  0.0000E+00  0.1000E+02
    -24.497  0.0000E+00  0.1000E+02
    -24.345  0.0000E+00  0.1000E+02
    -24.192  0.0000E+00  0.1000E+02
    -24.040  0.0000E+00  0.1000E+02
    -23.887  0.0000E+00  0.1000E+02
    -23.734  0.0000E+00  0.1000E+02
    -23.582  0.0000E+00  0.1000E+02
    -23.429  0.0000E+00  0.1000E+02
    -23.277  0.0000E+00  0.1000E+02
    -23.124  0.0000E+00  0.1000E+02
    -22.972  0.0000E+00  0.1000E+02
    -22.819  0.0000E+00  0.1000E+02
    -22.666  0.0000E+00  0.1000E+02
    -22.514 -0.8016E-30  0.1000E+02
    -22.361 -0.4671E-12  0.1000E+02
    -22.209 -0.2935E-02  0.1000E+02
    -22.056  0.5660E+01  0.1086E+02
    -21.903  0.7453E+01  0.1200E+02
    -21.751 -0.2907E-02  0.1200E+02
    -21.598  0.0000E+00  0.1200E+02
    -21.446  0.0000E+00  0.1200E+02
    -21.293  0.0000E+00  0.1200E+02
    -21.140  0.0000E+00  0.1200E+02
    -20.988  0.0000E+00  0.1200E+02
    -20.835  0.0000E+00  0.1200E+02
    -20.683  0.0000E+00  0.1200E+02
    -20.530  0.0000E+00  0.1200E+02
    -20.378  0.0000E+00  0.1200E+02
    -20.225  0.0000E+00  0.1200E+02
    -20.072  0.0000E+00  0.1200E+02
    -19.920  0.0000E+00  0.1200E+02
    -19.767  0.0000E+00  0.1200E+02
    -19.615  0.0000E+00  0.1200E+02
    -19.462  0.0000E+00  0.1200E+02
    -19.309  0.0000E+00  0.1200E+02
    -19.157  0.0000E+00  0.1200E+02
    -19.004  0.0000E+00  0.1200E+02
    -18.852  0.0000E+00  0.1200E+02
    -18.699  0.0000E+00  0.1200E+02
    -18.546  0.0000E+00  0.1200E+02
    -18.394  0.0000E+00  0.1200E+02
    -18.241  0.0000E+00  0.1200E+02
    -18.089  0.0000E+00  0.1200E+02
    -17.936  0.0000E+00  0.1200E+02
    -17.784  0.0000E+00  0.1200E+02
    -17.631  0.0000E+00  0.1200E+02
    -17.478  0.0000E+00  0.1200E+02
    -17.326  0.0000E+00  0.1200E+02
    -17.173  0.0000E+00  0.1200E+02
    -17.021  0.0000E+00  0.1200E+02
    -16.868  0.0000E+00  0.1200E+02
    -16.715  0.0000E+00  0.1200E+02
    -16.563  0.0000E+00  0.1200E+02
    -16.410  0.0000E+00  0.1200E+02
    -16.258  0.0000E+00  0.1200E+02
    -16.105  0.0000E+00  0.1200E+02
    -15.952  0.0000E+00  0.1200E+02
    -15.800  0.0000E+00  0.1200E+02
    -15.647  0.0000E+00  0.1200E+02
    -15.495  0.0000E+00  0.1200E+02
    -15.342  0.0000E+00  0.1200E+02
    -15.190  0.0000E+00  0.1200E+02
    -15.037  0.0000E+00  0.1200E+02
    -14.884  0.0000E+00  0.1200E+02
    -14.732  0.0000E+00  0.1200E+02
    -14.579  0.0000E+00  0.1200E+02
    -14.427  0.0000E+00  0.1200E+02
    -14.274  0.0000E+00  0.1200E+02
    -14.121  0.0000E+00  0.1200E+02
    -13.969  0.0000E+00  0.1200E+02
    -13.816  0.0000E+00  0.1200E+02
    -13.664  0.0000E+00  0.1200E+02
    -13.511  0.0000E+00  0.1200E+02
    -13.358  0.0000E+00  0.1200E+02
    -13.206  0.0000E+00  0.1200E+02
    -13.053  0.0000E+00  0.1200E+02
    -12.901  0.0000E+00  0.1200E+02
    -12.748  0.0000E+00  0.1200E+02
    -12.596  0.0000E+00  0.1200E+02
    -12.443  0.0000E+00  0.1200E+02
    -12.290  0.0000E+00  0.1200E+02
    -12.138  0.0000E+00  0.1200E+02
    -11.985  0.0000E+00  0.1200E+02
    -11.833  0.0000E+00  0.1200E+02
    -11.680  0.0000E+00  0.1200E+02
    -11.527  0.0000E+00  0.1200E+02
    -11.375  0.0000E+00  0.1200E+02
    -11.222  0.0000E+00  0.1200E+02
    -11.070  0.0000E+00  0.1200E+02
    -10.917  0.0000E+00  0.1200E+02
    -10.764  0.0000E+00  0.1200E+02
    -10.612  0.0000E+00  0.1200E+02
    -10.459  0.0000E+00  0.1200E+02
    -10.307  0.0000E+00  0.1200E+02
    -10.154  0.0000E+00  0.1200E+02
    -10.002  0.0000E+00  0.1200E+02
     -9.849  0.0000E+00  0.1200E+02
     -9.696  0.0000E+00  0.1200E+02
     -9.544  0.0000E+00  0.1200E+02
     -9.391  0.0000E+00  0.1200E+02
     -9.239  0.0000E+00  0.1200E+02
     -9.086  0.0000E+00  0.1200E+02
     -8.933  0.0000E+00  0.1200E+02
     -8.781  0.0000E+00  0.1200E+02
     -8.628  0.0000E+00  0.1200E+02
     -8.476  0.0000E+00  0.1200E+02
     -8.323  0.0000E+00  0.1200E+02
     -8.170  0.0000E+00  0.1200E+02
     -8.018  0.0000E+00  0.1200E+02
     -7.865  0.0000E+00  0.1200E+02
     -7.713  0.0000E+00  0.1200E+02
     -7.560  0.0000E+00  0.1200E+02
     -7.408  0.0000E+00  0.1200E+02
     -7.255  0.0000E+00  0.1200E+02
     -7.102  0.0000E+00  0.1200E+02
     -6.950  0.0000E+00  0.1200E+02
     -6.797  0.0000E+00  0.1200E+02
     -6.645  0.0000E+00  0.1200E+02
     -6.492  0.0000E+00  0.1200E+02
     -6.339  0.0000E+00  0.1200E+02
     -6.187  0.0000E+00  0.1200E+02
     -6.034  0.0000E+00  0.1200E+02
     -5.882  0.0000E+00  0.1200E+02
     -5.729  0.0000E+00  0.1200E+02
     -5.577  0.0000E+00  0.1200E+02
     -5.424  0.0000E+00  0.1200E+02
     -5.271  0.0000E+00  0.1200E+02
     -5.119  0.0000E+00  0.1200E+02
     -4.966  0.0000E+00  0.1200E+02
     -4.814  0.0000E+00  0.1200E+02
     -4.661  0.0000E+00  0.1200E+02
     -4.508  0.0000E+00  0.1200E+02
     -4.356  0.0000E+00  0.1200E+02
     -4.203  0.0000E+00  0.1200E+02
     -4.051  0.0000E+00  0.1200E+02
     -3.898  0.0000E+00  0.1200E+02
     -3.745  0.0000E+00  0.1200E+02
     -3.593  0.0000E+00  0.1200E+02
     -3.440  0.0000E+00  0.1200E+02
     -3.288  0.0000E+00  0.1200E+02
     -3.135  0.0000E+00  0.1200E+02
     -2.983  0.0000E+00  0.1200E+02
     -2.830  0.0000E+00  0.1200E+02
     -2.677  0.0000E+00  0.1200E+02
     -2.525  0.0000E+00  0.1200E+02
     -2.372 -0.9288E-53  0.1200E+02
     -2.220 -0.9486E-28  0.1200E+02
     -2.067 -0.6465E-11  0.1200E+02
     -1.914 -0.2112E-02  0.1200E+02
     -1.762  0.5071E+00  0.1208E+02
     -1.609  0.1434E+01  0.1230E+02
     -1.457  0.3703E+01  0.1286E+02
     -1.304  0.4057E+01  0.1348E+02
     -1.151  0.1550E+01  0.1372E+02
     -0.999  0.1020E+01  0.1387E+02
     -0.846  0.1796E+01  0.1415E+02
     -0.694  0.1441E+01  0.1437E+02
     -0.541  0.2191E+01  0.1470E+02
     -0.389  0.3160E+01  0.1518E+02
     -0.236  0.3335E+01  0.1569E+02
     -0.083  0.3963E+01  0.1630E+02
      0.069  0.4255E+01  0.1695E+02
      0.222  0.4142E+01  0.1758E+02
      0.374  0.2202E+01  0.1791E+02
      0.527  0.5733E+00  0.1800E+02
      0.680 -0.3920E-02  0.1800E+02
      0.832 -0.1523E-09  0.1800E+02
      0.985  0.0000E+00  0.1800E+02
      1.137  0.0000E+00  0.1800E+02
      1.290  0.0000E+00  0.1800E+02
      1.443  0.0000E+00  0.1800E+02
      1.595  0.0000E+00  0.1800E+02
      1.748  0.0000E+00  0.1800E+02
      1.900  0.0000E+00  0.1800E+02
      2.053  0.0000E+00  0.1800E+02
      2.205  0.0000E+00  0.1800E+02
      2.358 -0.1341E-49  0.1800E+02
      2.511 -0.9469E-26  0.1800E+02
      2.663 -0.4327E-10  0.1800E+02
      2.816 -0.5552E-03  0.1800E+02
      2.968  0.1893E-01  0.1800E+02
      3.121 -0.3913E-03  0.1800E+02
      3.274 -0.9224E-09  0.1800E+02
      3.426 -0.4956E-02  0.1800E+02
      3.579  0.1510E+00  0.1803E+02
      3.731  0.9939E-01  0.1804E+02
      3.884  0.6266E-02  0.1804E+02
      4.037 -0.1756E-05  0.1804E+02
      4.189  0.4613E-01  0.1805E+02
      4.342  0.1697E+00  0.1807E+02
      4.494  0.8866E-01  0.1809E+02
      4.647  0.4982E+00  0.1816E+02
      4.799 -0.1161E-01  0.1816E+02
      4.952 -0.2155E-03  0.1816E+02
      5.105  0.2461E+00  0.1820E+02
      5.257  0.5582E+00  0.1828E+02
      5.410  0.7930E+00  0.1841E+02
      5.562  0.1223E+00  0.1842E+02
      5.715  0.1355E+01  0.1863E+02
      5.868  0.7726E+00  0.1875E+02
      6.020  0.4224E+00  0.1881E+02
      6.173  0.1551E+01  0.1905E+02
      6.325  0.1335E+01  0.1925E+02
      6.478  0.1278E+01  0.1945E+02
      6.631  0.1381E+01  0.1966E+02
      6.783  0.5059E+00  0.1974E+02
      6.936  0.2783E+00  0.1978E+02
      7.088  0.1137E+01  0.1995E+02
      7.241  0.3947E+00  0.2001E+02
      7.393  0.1138E+01  0.2019E+02
      7.546  0.6536E-01  0.2020E+02
      7.699  0.7326E+00  0.2031E+02
      7.851  0.6179E+00  0.2040E+02
      8.004  0.2274E+01  0.2075E+02
      8.156  0.3276E+01  0.2125E+02
      8.309  0.1028E+01  0.2141E+02
      8.462  0.1295E+01  0.2160E+02
      8.614  0.4478E+01  0.2229E+02
      8.767  0.1894E+01  0.2258E+02
      8.919  0.7378E+00  0.2269E+02
      9.072  0.2477E+00  0.2273E+02
      9.225  0.5480E+00  0.2281E+02
      9.377  0.3909E+00  0.2287E+02
      9.530  0.3639E+01  0.2342E+02
      9.682  0.2859E+01  0.2386E+02
      9.835  0.2000E+01  0.2417E+02
      9.987  0.1598E+01  0.2441E+02
     10.140  0.2869E+01  0.2485E+02
     10.293  0.1967E+01  0.2515E+02
     10.445  0.3042E+00  0.2519E+02
     10.598  0.9474E+00  0.2534E+02
     10.750  0.5592E+00  0.2542E+02
     10.903  0.4293E+00  0.2549E+02
     11.056  0.7148E+00  0.2560E+02
     11.208  0.2629E+00  0.2564E+02
     11.361  0.8620E+00  0.2577E+02
     11.513  0.6101E+00  0.2586E+02
     11.666  0.7514E+00  0.2598E+02
     11.819  0.3397E-01  0.2598E+02
     11.971 -0.7482E-06  0.2598E+02
     12.124 -0.5556E-23  0.2598E+02
     12.276 -0.3600E-08  0.2598E+02
     12.429 -0.3569E-02  0.2598E+02
     12.581  0.1125E+00  0.2600E+02
     12.734 -0.1035E-02  0.2600E+02
     12.887  0.0000E+00  0.2600E+02
     13.039  0.0000E+00  0.2600E+02
     13.192  0.0000E+00  0.2600E+02
     13.344  0.0000E+00  0.2600E+02
     13.497  0.0000E+00  0.2600E+02
     13.650  0.0000E+00  0.2600E+02
     13.802  0.0000E+00  0.2600E+02
     13.955  0.0000E+00  0.2600E+02
     14.107  0.0000E+00  0.2600E+02
     14.260  0.0000E+00  0.2600E+02
     14.413  0.0000E+00  0.2600E+02
     14.565  0.0000E+00  0.2600E+02
