    1    1    1    1
  0.6712764E+02  0.4561827E-09  0.4561827E-09  0.4561827E-09  0.5000000E-15
  1.000000000000000E-004
  CAR 
 Og_FCC                                  
     18     35     13
 
  0.0000000E+00  0.0000000E+00  0.0000000E+00  0.1371742E-02
    1      -29.129186   1.000000
    2      -29.129186   1.000000
    3      -29.129186   1.000000
    4      -29.127441   1.000000
    5      -29.127441   1.000000
    6      -22.104257   1.000000
    7        0.456757   0.723938
    8        0.456757   0.723938
    9        0.456757   0.723937
   10        2.887007   0.000000
   11        9.649480   0.000000
   12        9.649480   0.000000
   13        9.649618   0.000000
 
  0.1111111E+00  0.1014246E-17  0.6938894E-17  0.1097394E-01
    1      -29.129030   1.000000
    2      -29.128929   1.000000
    3      -29.128929   1.000000
    4      -29.127354   1.000000
    5      -29.127354   1.000000
    6      -22.098142   1.000000
    7       -0.041587   1.000000
    8        0.419965   1.026306
    9        0.419965   1.026305
   10        3.491697   0.000000
   11        8.988311   0.000000
   12        9.765699   0.000000
   13        9.765699   0.000000
 
  0.2222222E+00 -0.1184930E-16  0.1387779E-16  0.1097394E-01
    1      -29.128679   1.000000
    2      -29.128631   1.000000
    3      -29.128631   1.000000
    4      -29.126852   1.000000
    5      -29.126852   1.000000
    6      -22.082748   1.000000
    7       -0.848120   1.000000
    8        0.329617   1.000248
    9        0.329617   1.000248
   10        4.482409   0.000000
   11        8.713102   0.000000
   12        9.799261   0.000000
   13        9.799261   0.000000
 
  0.3333333E+00  0.3042738E-17  0.4163336E-16  0.1097394E-01
    1      -29.128698   1.000000
    2      -29.128698   1.000000
    3      -29.128272   1.000000
    4      -29.125878   1.000000
    5      -29.125878   1.000000
    6      -22.065159   1.000000
    7       -1.483375   1.000000
    8        0.231359   1.000000
    9        0.231359   1.000000
   10        5.074408   0.000000
   11        9.297695   0.000000
   12        9.496222   0.000000
   13        9.496302   0.000000
 
  0.4444444E+00 -0.2369859E-16  0.2775558E-16  0.1097394E-01
    1      -29.128805   1.000000
    2      -29.128805   1.000000
    3      -29.128001   1.000000
    4      -29.125150   1.000000
    5      -29.125150   1.000000
    6      -22.053554   1.000000
    7       -1.821463   1.000000
    8        0.169562   1.000000
    9        0.169562   1.000000
   10        5.228904   0.000000
   11        9.275468   0.000000
   12        9.275468   0.000000
   13        9.705032   0.000000
 
  0.1111111E+00  0.1111111E+00  0.0000000E+00  0.8230453E-02
    1      -29.129340   1.000000
    2      -29.128620   1.000000
    3      -29.128620   1.000000
    4      -29.127577   1.000000
    5      -29.127200   1.000000
    6      -22.096140   1.000000
    7       -0.067452   1.000000
    8        0.341577   1.000806
    9        0.341577   1.000806
   10        3.698766   0.000000
   11        8.714787   0.000000
   12        9.921472   0.000000
   13        9.925652   0.000000
 
  0.2222222E+00  0.1111111E+00  0.1387779E-16  0.3292181E-01
    1      -29.129264   1.000000
    2      -29.128203   1.000000
    3      -29.128185   1.000000
    4      -29.127435   1.000000
    5      -29.126718   1.000000
    6      -22.083872   1.000000
    7       -0.672586   1.000000
    8        0.222782   1.000000
    9        0.256333   1.000000
   10        4.571038   0.000000
   11        8.338519   0.000000
   12        9.450662   0.000000
   13       10.134082   0.000000
 
  0.3333333E+00  0.1111111E+00  0.2775558E-16  0.3292181E-01
    1      -29.128960   1.000000
    2      -29.128175   1.000000
    3      -29.128139   1.000000
    4      -29.126593   1.000000
    5      -29.125781   1.000000
    6      -22.067003   1.000000
    7       -1.291556   1.000000
    8        0.120986   1.000000
    9        0.124989   1.000000
   10        5.338202   0.000000
   11        8.606135   0.000000
   12        8.833830   0.000000
   13        9.957105   0.000000
 
  0.4444444E+00  0.1111111E+00  0.0000000E+00  0.3292181E-01
    1      -29.128867   1.000000
    2      -29.128318   1.000000
    3      -29.127878   1.000000
    4      -29.125747   1.000000
    5      -29.125100   1.000000
    6      -22.053383   1.000000
    7       -1.686176   1.000000
    8       -0.019728   1.000000
    9        0.079687   1.000000
   10        5.630794   0.000000
   11        8.474151   0.000000
   12        9.642237   0.000000
   13        9.703131   0.000000
 
 -0.4444444E+00  0.1111111E+00 -0.2775558E-16  0.3292181E-01
    1      -29.128814   1.000000
    2      -29.128399   1.000000
    3      -29.127757   1.000000
    4      -29.125270   1.000000
    5      -29.125169   1.000000
    6      -22.049503   1.000000
    7       -1.785332   1.000000
    8       -0.110194   1.000000
    9        0.115023   1.000000
   10        5.679325   0.000000
   11        8.421234   0.000000
   12        9.476456   0.000000
   13       10.426142   0.000000
 
 -0.3333333E+00  0.1111111E+00 -0.5551115E-16  0.3292181E-01
    1      -29.128671   1.000000
    2      -29.128349   1.000000
    3      -29.128007   1.000000
    4      -29.125969   1.000000
    5      -29.125399   1.000000
    6      -22.057232   1.000000
    7       -1.578126   1.000000
    8       -0.104166   1.000000
    9        0.212956   1.000000
   10        5.589272   0.000000
   11        8.659136   0.000000
   12        9.442091   0.000000
   13        9.539528   0.000000
 
 -0.2222222E+00  0.1111111E+00 -0.6938894E-17  0.3292181E-01
    1      -29.128583   1.000000
    2      -29.128411   1.000000
    3      -29.128263   1.000000
    4      -29.127057   1.000000
    5      -29.126066   1.000000
    6      -22.072843   1.000000
    7       -1.104928   1.000000
    8        0.008740   1.000000
    9        0.332136   1.000321
   10        5.119489   0.000000
   11        8.592060   0.000000
   12        9.155408   0.000000
   13        9.835924   0.000000
 
 -0.1111111E+00  0.1111111E+00 -0.1611458E-16  0.1646091E-01
    1      -29.128937   1.000000
    2      -29.128615   1.000000
    3      -29.128529   1.000000
    4      -29.127489   1.000000
    5      -29.126898   1.000000
    6      -22.089010   1.000000
    7       -0.494200   1.000000
    8        0.213489   1.000000
    9        0.416016   1.032162
   10        4.207293   0.000000
   11        8.602400   0.000000
   12        9.724807   0.000000
   13        9.920423   0.000000
 
  0.2222222E+00  0.2222222E+00  0.2775558E-16  0.8230453E-02
    1      -29.129744   1.000000
    2      -29.127942   1.000000
    3      -29.127241   1.000000
    4      -29.127241   1.000000
    5      -29.126586   1.000000
    6      -22.075670   1.000000
    7       -0.831680   1.000000
    8        0.070424   1.000000
    9        0.070424   1.000000
   10        5.144859   0.000000
   11        7.815467   0.000000
   12        8.990240   0.000000
   13       10.639362   0.000000
 
  0.3333333E+00  0.2222222E+00  0.2775558E-16  0.3292181E-01
    1      -29.129689   1.000000
    2      -29.128120   1.000000
    3      -29.127010   1.000000
    4      -29.126424   1.000000
    5      -29.125738   1.000000
    6      -22.061919   1.000000
    7       -1.213890   1.000000
    8       -0.106772   1.000000
    9       -0.054553   1.000000
   10        5.794462   0.000000
   11        7.689886   0.000000
   12        8.601924   0.000000
   13       10.793530   0.000000
 
  0.4444444E+00  0.2222222E+00  0.2775558E-16  0.3292181E-01
    1      -29.129309   1.000000
    2      -29.127892   1.000000
    3      -29.127161   1.000000
    4      -29.125959   1.000000
    5      -29.125026   1.000000
    6      -22.049032   1.000000
    7       -1.502182   1.000000
    8       -0.368671   1.000000
    9       -0.100713   1.000000
   10        6.207564   0.000000
   11        8.101234   0.000000
   12        8.509628   0.000000
   13       10.497327   0.000000
 
 -0.4444444E+00  0.2222222E+00 -0.1387779E-16  0.3292181E-01
    1      -29.129033   1.000000
    2      -29.127309   1.000000
    3      -29.127248   1.000000
    4      -29.125906   1.000000
    5      -29.125115   1.000000
    6      -22.043102   1.000000
    7       -1.588000   1.000000
    8       -0.608439   1.000000
    9       -0.050724   1.000000
   10        6.413578   0.000000
   11        8.026097   0.000000
   12        9.646384   0.000000
   13       10.192282   0.000000
 
 -0.3333333E+00  0.2222222E+00 -0.4163336E-16  0.3292181E-01
    1      -29.128800   1.000000
    2      -29.127348   1.000000
    3      -29.127259   1.000000
    4      -29.125978   1.000000
    5      -29.125720   1.000000
    6      -22.046947   1.000000
    7       -1.492967   1.000000
    8       -0.671081   1.000000
    9        0.076717   1.000000
   10        6.502850   0.000000
   11        8.051550   0.000000
   12        9.421462   0.000000
   13       10.039629   0.000000
 
 -0.2222222E+00  0.2222222E+00 -0.1896324E-16  0.1646091E-01
    1      -29.128562   1.000000
    2      -29.127940   1.000000
    3      -29.127268   1.000000
    4      -29.127180   1.000000
    5      -29.125596   1.000000
    6      -22.058678   1.000000
    7       -1.319664   1.000000
    8       -0.436085   1.000000
    9        0.228822   1.000000
   10        6.061996   0.000000
   11        8.411112   0.000000
   12        8.619826   0.000000
   13       10.017171   0.000000
 
  0.3333333E+00  0.3333333E+00  0.2775558E-16  0.8230453E-02
    1      -29.130221   1.000000
    2      -29.128374   1.000000
    3      -29.125885   1.000000
    4      -29.125641   1.000000
    5      -29.125641   1.000000
    6      -22.052289   1.000000
    7       -1.377359   1.000000
    8       -0.208760   1.000000
    9       -0.208760   1.000000
   10        5.841652   0.000000
   11        7.207243   0.000000
   12        9.175341   0.000000
   13       11.600948   0.000000
 
  0.4444444E+00  0.3333333E+00  0.5551115E-16  0.3292181E-01
    1      -29.130073   1.000000
    2      -29.128400   1.000000
    3      -29.125950   1.000000
    4      -29.125188   1.000000
    5      -29.124909   1.000000
    6      -22.042543   1.000000
    7       -1.525219   1.000000
    8       -0.430230   1.000000
    9       -0.278240   1.000000
   10        5.953459   0.000000
   11        7.267119   0.000000
   12        9.544929   0.000000
   13       11.636750   0.000000
 
 -0.4444444E+00  0.3333333E+00 -0.6245005E-16  0.3292181E-01
    1      -29.129535   1.000000
    2      -29.127879   1.000000
    3      -29.126123   1.000000
    4      -29.125404   1.000000
    5      -29.124936   1.000000
    6      -22.037327   1.000000
    7       -1.472130   1.000000
    8       -0.821974   1.000000
    9       -0.237684   1.000000
   10        6.231201   0.000000
   11        7.949750   0.000000
   12        9.562903   0.000000
   13       11.246334   0.000000
 
 -0.3333333E+00  0.3333333E+00 -0.6584260E-16  0.1646091E-01
    1      -29.129092   1.000000
    2      -29.126759   1.000000
    3      -29.126411   1.000000
    4      -29.126191   1.000000
    5      -29.125610   1.000000
    6      -22.039031   1.000000
    7       -1.229004   1.000000
    8       -1.166545   1.000000
    9       -0.101437   1.000000
   10        6.570767   0.000000
   11        8.456872   0.000000
   12        9.778506   0.000000
   13       10.128310   0.000000
 
  0.4444444E+00  0.4444444E+00  0.5551115E-16  0.8230453E-02
    1      -29.130521   1.000000
    2      -29.128665   1.000000
    3      -29.125427   1.000000
    4      -29.124604   1.000000
    5      -29.124604   1.000000
    6      -22.036927   1.000000
    7       -1.647606   1.000000
    8       -0.377434   1.000000
    9       -0.377433   1.000000
   10        5.637004   0.000000
   11        6.901887   0.000000
   12       11.012370   0.000000
   13       12.484354   0.000000
 
 -0.4444444E+00  0.4444444E+00 -0.3792648E-16  0.1646091E-01
    1      -29.130217   1.000000
    2      -29.128538   1.000000
    3      -29.125509   1.000000
    4      -29.124693   1.000000
    5      -29.124600   1.000000
    6      -22.034856   1.000000
    7       -1.620405   1.000000
    8       -0.558457   1.000000
    9       -0.362170   1.000000
   10        5.798468   0.000000
   11        7.123125   0.000000
   12       11.385712   0.000000
   13       11.396898   0.000000
 
  0.3333333E+00  0.2222222E+00  0.1111111E+00  0.3292181E-01
    1      -29.129165   1.000000
    2      -29.128180   1.000000
    3      -29.127442   1.000000
    4      -29.127299   1.000000
    5      -29.126027   1.000000
    6      -22.070843   1.000000
    7       -1.045504   1.000000
    8       -0.084463   1.000000
    9        0.206077   1.000000
   10        5.393969   0.000000
   11        8.111273   0.000000
   12        8.780988   0.000000
   13       10.558167   0.000000
 
  0.4444444E+00  0.2222222E+00  0.1111111E+00  0.6584362E-01
    1      -29.128755   1.000000
    2      -29.128226   1.000000
    3      -29.127449   1.000000
    4      -29.126381   1.000000
    5      -29.125413   1.000000
    6      -22.055964   1.000000
    7       -1.406634   1.000000
    8       -0.333935   1.000000
    9        0.092484   1.000000
   10        6.107313   0.000000
   11        8.218876   0.000000
   12        8.496844   0.000000
   13       10.242324   0.000000
 
 -0.4444444E+00  0.2222222E+00  0.1111111E+00  0.6584362E-01
    1      -29.128692   1.000000
    2      -29.128083   1.000000
    3      -29.127204   1.000000
    4      -29.125854   1.000000
    5      -29.125167   1.000000
    6      -22.046203   1.000000
    7       -1.620290   1.000000
    8       -0.453506   1.000000
    9       -0.007022   1.000000
   10        6.355743   0.000000
   11        7.909696   0.000000
   12        9.637447   0.000000
   13       10.059534   0.000000
 
  0.4444444E+00  0.3333333E+00  0.1111111E+00  0.3292181E-01
    1      -29.129548   1.000000
    2      -29.128226   1.000000
    3      -29.126734   1.000000
    4      -29.125669   1.000000
    5      -29.125314   1.000000
    6      -22.050171   1.000000
    7       -1.401636   1.000000
    8       -0.386945   1.000000
    9       -0.149920   1.000000
   10        6.235464   0.000000
   11        7.633162   0.000000
   12        8.526123   0.000000
   13       11.329385   0.000000
 
 -0.4444444E+00  0.3333333E+00  0.1111111E+00  0.6584362E-01
    1      -29.129016   1.000000
    2      -29.127948   1.000000
    3      -29.126765   1.000000
    4      -29.125616   1.000000
    5      -29.124985   1.000000
    6      -22.041101   1.000000
    7       -1.460592   1.000000
    8       -0.689278   1.000000
    9       -0.240544   1.000000
   10        6.636616   0.000000
   11        8.054897   0.000000
   12        8.503923   0.000000
   13       11.043109   0.000000
 
 -0.3333333E+00  0.3333333E+00  0.1111111E+00  0.6584362E-01
    1      -29.128710   1.000000
    2      -29.127413   1.000000
    3      -29.126547   1.000000
    4      -29.126370   1.000000
    5      -29.125072   1.000000
    6      -22.039050   1.000000
    7       -1.385762   1.000000
    8       -0.927164   1.000000
    9       -0.200328   1.000000
   10        6.953438   0.000000
   11        7.902060   0.000000
   12        9.482409   0.000000
   13       10.039164   0.000000
 
 -0.2222222E+00  0.3333333E+00  0.1111111E+00  0.3292181E-01
    1      -29.128494   1.000000
    2      -29.127899   1.000000
    3      -29.127018   1.000000
    4      -29.125738   1.000000
    5      -29.125707   1.000000
    6      -22.044940   1.000000
    7       -1.392023   1.000000
    8       -0.783354   1.000000
    9       -0.054862   1.000000
   10        6.990595   0.000000
   11        7.740473   0.000000
   12        8.696579   0.000000
   13       10.655825   0.000000
 
 -0.4444444E+00  0.4444444E+00  0.1111111E+00  0.3292181E-01
    1      -29.129803   1.000000
    2      -29.128386   1.000000
    3      -29.125834   1.000000
    4      -29.125129   1.000000
    5      -29.124602   1.000000
    6      -22.036612   1.000000
    7       -1.546213   1.000000
    8       -0.567960   1.000000
    9       -0.411519   1.000000
   10        6.098659   0.000000
   11        7.371966   0.000000
   12        9.873586   0.000000
   13       11.517270   0.000000
 
 -0.3333333E+00  0.4444444E+00  0.1111111E+00  0.3292181E-01
    1      -29.129125   1.000000
    2      -29.127886   1.000000
    3      -29.125998   1.000000
    4      -29.125990   1.000000
    5      -29.124628   1.000000
    6      -22.035276   1.000000
    7       -1.388908   1.000000
    8       -0.905146   1.000000
    9       -0.377923   1.000000
   10        6.538905   0.000000
   11        8.048178   0.000000
   12        9.492422   0.000000
   13       10.176436   0.000000
 
 -0.3333333E+00  0.4444444E+00  0.2222222E+00  0.3292181E-01
    1      -29.128029   1.000000
    2      -29.128027   1.000000
    3      -29.126960   1.000000
    4      -29.126077   1.000000
    5      -29.124614   1.000000
    6      -22.035945   1.000000
    7       -1.271456   1.000000
    8       -0.987523   1.000000
    9       -0.435210   1.000000
   10        7.269735   0.000000
   11        8.142626   0.000000
   12        8.597369   0.000000
   13        9.825591   0.000000
