   1   1   0   0
  0.5789729E+02  0.4342346E-09  0.4342346E-09  0.4342346E-09  0.1000000E-15
  1.000000000000000E-004
  CAR 
 Og_FCC                                  
     81.07599900    -46.20614102  301      2.37320909      1.00000000
    -46.206  0.0000E+00  0.0000E+00
    -45.782  0.0000E+00  0.0000E+00
    -45.358  0.0000E+00  0.0000E+00
    -44.933  0.0000E+00  0.0000E+00
    -44.509  0.0000E+00  0.0000E+00
    -44.085  0.0000E+00  0.0000E+00
    -43.660  0.0000E+00  0.0000E+00
    -43.236  0.0000E+00  0.0000E+00
    -42.812  0.0000E+00  0.0000E+00
    -42.388  0.0000E+00  0.0000E+00
    -41.963  0.0000E+00  0.0000E+00
    -41.539  0.0000E+00  0.0000E+00
    -41.115  0.0000E+00  0.0000E+00
    -40.691  0.0000E+00  0.0000E+00
    -40.266  0.0000E+00  0.4000E+01
    -39.842  0.0000E+00  0.4000E+01
    -39.418  0.0000E+00  0.4000E+01
    -38.993  0.0000E+00  0.4000E+01
    -38.569  0.0000E+00  0.4000E+01
    -38.145  0.0000E+00  0.4000E+01
    -37.721  0.0000E+00  0.4000E+01
    -37.296  0.0000E+00  0.4000E+01
    -36.872  0.0000E+00  0.4000E+01
    -36.448  0.0000E+00  0.4000E+01
    -36.024  0.0000E+00  0.4000E+01
    -35.599  0.0000E+00  0.4000E+01
    -35.175  0.0000E+00  0.4000E+01
    -34.751  0.0000E+00  0.4000E+01
    -34.326  0.0000E+00  0.4000E+01
    -33.902  0.0000E+00  0.4000E+01
    -33.478  0.0000E+00  0.4000E+01
    -33.054  0.0000E+00  0.4000E+01
    -32.629  0.0000E+00  0.1000E+02
    -32.205  0.0000E+00  0.1000E+02
    -31.781  0.0000E+00  0.1000E+02
    -31.357  0.0000E+00  0.1000E+02
    -30.932  0.0000E+00  0.1000E+02
    -30.508  0.0000E+00  0.1000E+02
    -30.084  0.0000E+00  0.1000E+02
    -29.659  0.0000E+00  0.1000E+02
    -29.235  0.0000E+00  0.1000E+02
    -28.811  0.0000E+00  0.1000E+02
    -28.387  0.0000E+00  0.1000E+02
    -27.962  0.0000E+00  0.1000E+02
    -27.538  0.0000E+00  0.1000E+02
    -27.114  0.0000E+00  0.1000E+02
    -26.690  0.0000E+00  0.1000E+02
    -26.265  0.0000E+00  0.1000E+02
    -25.841  0.0000E+00  0.1000E+02
    -25.417  0.0000E+00  0.1000E+02
    -24.992  0.0000E+00  0.1200E+02
    -24.568  0.0000E+00  0.1200E+02
    -24.144  0.0000E+00  0.1200E+02
    -23.720  0.0000E+00  0.1200E+02
    -23.295  0.0000E+00  0.1200E+02
    -22.871  0.0000E+00  0.1200E+02
    -22.447  0.0000E+00  0.1200E+02
    -22.023  0.0000E+00  0.1200E+02
    -21.598  0.0000E+00  0.1200E+02
    -21.174  0.0000E+00  0.1200E+02
    -20.750  0.0000E+00  0.1200E+02
    -20.325  0.0000E+00  0.1200E+02
    -19.901  0.0000E+00  0.1200E+02
    -19.477  0.0000E+00  0.1200E+02
    -19.053  0.0000E+00  0.1200E+02
    -18.628  0.0000E+00  0.1200E+02
    -18.204  0.0000E+00  0.1200E+02
    -17.780  0.0000E+00  0.1200E+02
    -17.356  0.0000E+00  0.1200E+02
    -16.931  0.0000E+00  0.1200E+02
    -16.507  0.0000E+00  0.1200E+02
    -16.083  0.0000E+00  0.1200E+02
    -15.658  0.0000E+00  0.1200E+02
    -15.234  0.0000E+00  0.1200E+02
    -14.810  0.0000E+00  0.1200E+02
    -14.386  0.0000E+00  0.1200E+02
    -13.961  0.0000E+00  0.1200E+02
    -13.537  0.0000E+00  0.1200E+02
    -13.113  0.0000E+00  0.1200E+02
    -12.689  0.0000E+00  0.1200E+02
    -12.264  0.0000E+00  0.1200E+02
    -11.840  0.0000E+00  0.1200E+02
    -11.416  0.0000E+00  0.1200E+02
    -10.991  0.0000E+00  0.1200E+02
    -10.567  0.0000E+00  0.1200E+02
    -10.143  0.0000E+00  0.1375E+02
     -9.719  0.0000E+00  0.1400E+02
     -9.294  0.0000E+00  0.1400E+02
     -8.870  0.0000E+00  0.1400E+02
     -8.446  0.0000E+00  0.1400E+02
     -8.021  0.0000E+00  0.1400E+02
     -7.597  0.0000E+00  0.1400E+02
     -7.173  0.0000E+00  0.1400E+02
     -6.749  0.0000E+00  0.1400E+02
     -6.324  0.0000E+00  0.1400E+02
     -5.900  0.0000E+00  0.1400E+02
     -5.476  0.0000E+00  0.1400E+02
     -5.052  0.0000E+00  0.1400E+02
     -4.627  0.0000E+00  0.1400E+02
     -4.203  0.0000E+00  0.1400E+02
     -3.779  0.0000E+00  0.1400E+02
     -3.354  0.0000E+00  0.1400E+02
     -2.930  0.0000E+00  0.1400E+02
     -2.506  0.0000E+00  0.1400E+02
     -2.082  0.0000E+00  0.1400E+02
     -1.657  0.0000E+00  0.1400E+02
     -1.233  0.0000E+00  0.1400E+02
     -0.809  0.0000E+00  0.1540E+02
     -0.385  0.0000E+00  0.1575E+02
      0.040  0.2619E+00  0.1597E+02
      0.464  0.0000E+00  0.1653E+02
      0.888  0.0000E+00  0.1691E+02
      1.313  0.0000E+00  0.1741E+02
      1.737  0.0000E+00  0.1778E+02
      2.161  0.0000E+00  0.1791E+02
      2.585  0.0000E+00  0.1800E+02
      3.010  0.0000E+00  0.1800E+02
      3.434  0.0000E+00  0.1801E+02
      3.858  0.0000E+00  0.1801E+02
      4.282  0.0000E+00  0.1801E+02
      4.707  0.0000E+00  0.1801E+02
      5.131  0.0000E+00  0.1801E+02
      5.555  0.0000E+00  0.1808E+02
      5.980  0.0000E+00  0.1814E+02
      6.404  0.0000E+00  0.1828E+02
      6.828  0.0000E+00  0.1839E+02
      7.252  0.0000E+00  0.1911E+02
      7.677  0.0000E+00  0.1978E+02
      8.101  0.0000E+00  0.2003E+02
      8.525  0.0000E+00  0.2008E+02
      8.949  0.2619E+00  0.2042E+02
      9.374  0.0000E+00  0.2142E+02
      9.798  0.0000E+00  0.2203E+02
     10.222  0.0000E+00  0.2232E+02
     10.647  0.0000E+00  0.2256E+02
     11.071  0.5238E+00  0.2381E+02
     11.495  0.0000E+00  0.2393E+02
     11.919  0.0000E+00  0.2489E+02
     12.344  0.0000E+00  0.2567E+02
     12.768  0.7154E-15  0.2598E+02
     13.192  0.0000E+00  0.2624E+02
     13.616  0.0000E+00  0.2726E+02
     14.041  0.0000E+00  0.2778E+02
     14.465  0.6601E-01  0.2861E+02
     14.889  0.3879E-13  0.2942E+02
     15.314  0.5229E+00  0.3047E+02
     15.738  0.0000E+00  0.3047E+02
     16.162  0.0000E+00  0.3102E+02
     16.586  0.0000E+00  0.3142E+02
     17.011  0.0000E+00  0.3219E+02
     17.435  0.0000E+00  0.3330E+02
     17.859  0.0000E+00  0.3411E+02
     18.283  0.0000E+00  0.3492E+02
     18.708  0.1377E-02  0.3591E+02
     19.132  0.0000E+00  0.3756E+02
     19.556  0.3492E+00  0.3979E+02
     19.981  0.1846E-09  0.4149E+02
     20.405  0.0000E+00  0.4444E+02
     20.829  0.0000E+00  0.4533E+02
     21.253  0.0000E+00  0.4607E+02
     21.678  0.0000E+00  0.4646E+02
     22.102  0.0000E+00  0.4718E+02
     22.526  0.0000E+00  0.4795E+02
     22.950  0.5455E-01  0.4835E+02
     23.375  0.2336E-07  0.4908E+02
     23.799  0.2619E+00  0.5017E+02
     24.223  0.0000E+00  0.5106E+02
     24.648  0.0000E+00  0.5214E+02
     25.072  0.0000E+00  0.5355E+02
     25.496  0.0000E+00  0.5532E+02
     25.920  0.0000E+00  0.5651E+02
     26.345  0.0000E+00  0.5742E+02
     26.769  0.0000E+00  0.5767E+02
     27.193  0.0000E+00  0.5849E+02
     27.618  0.2619E+00  0.5977E+02
     28.042  0.0000E+00  0.6035E+02
     28.466  0.0000E+00  0.6117E+02
     28.890  0.0000E+00  0.6191E+02
     29.315  0.0000E+00  0.6224E+02
     29.739  0.2550E+00  0.6340E+02
     30.163  0.0000E+00  0.6459E+02
     30.587  0.0000E+00  0.6510E+02
     31.012  0.0000E+00  0.6631E+02
     31.436  0.0000E+00  0.6699E+02
     31.860  0.0000E+00  0.6876E+02
     32.285  0.0000E+00  0.6993E+02
     32.709  0.1309E+00  0.7124E+02
     33.133  0.0000E+00  0.7242E+02
     33.557  0.0000E+00  0.7325E+02
     33.982  0.0000E+00  0.7427E+02
     34.406  0.0000E+00  0.7500E+02
     34.830  0.1264E+00  0.7594E+02
     35.254  0.5164E+00  0.7757E+02
     35.679  0.0000E+00  0.7861E+02
     36.103  0.0000E+00  0.7996E+02
     36.527  0.5046E-04  0.8086E+02
     36.952  0.1746E+00  0.8230E+02
     37.376  0.0000E+00  0.8330E+02
     37.800  0.0000E+00  0.8424E+02
     38.224  0.6210E-09  0.8527E+02
     38.649  0.0000E+00  0.8607E+02
     39.073  0.0000E+00  0.8635E+02
     39.497  0.5719E-11  0.8809E+02
     39.921  0.1532E-01  0.8928E+02
     40.346  0.0000E+00  0.8969E+02
     40.770  0.0000E+00  0.9111E+02
     41.194  0.5238E+00  0.9248E+02
     41.619  0.0000E+00  0.9364E+02
     42.043  0.0000E+00  0.9512E+02
     42.467  0.0000E+00  0.9601E+02
     42.891  0.0000E+00  0.9735E+02
     43.316  0.0000E+00  0.9856E+02
     43.740  0.0000E+00  0.9929E+02
     44.164  0.2476E+00  0.1004E+03
     44.588  0.0000E+00  0.1013E+03
     45.013  0.0000E+00  0.1026E+03
     45.437  0.0000E+00  0.1038E+03
     45.861  0.0000E+00  0.1056E+03
     46.286  0.0000E+00  0.1063E+03
     46.710  0.0000E+00  0.1079E+03
     47.134  0.0000E+00  0.1092E+03
     47.558  0.0000E+00  0.1104E+03
     47.983  0.2399E+00  0.1116E+03
     48.407  0.0000E+00  0.1127E+03
     48.831  0.0000E+00  0.1138E+03
     49.255  0.0000E+00  0.1148E+03
     49.680  0.0000E+00  0.1161E+03
     50.104  0.0000E+00  0.1174E+03
     50.528  0.5238E+00  0.1189E+03
     50.953  0.0000E+00  0.1196E+03
     51.377  0.5238E+00  0.1214E+03
     51.801  0.1309E+00  0.1230E+03
     52.225  0.1876E-03  0.1247E+03
     52.650  0.8730E-01  0.1264E+03
     53.074  0.0000E+00  0.1269E+03
     53.498  0.0000E+00  0.1277E+03
     53.922  0.1746E+00  0.1291E+03
     54.347  0.0000E+00  0.1311E+03
     54.771  0.0000E+00  0.1318E+03
     55.195  0.0000E+00  0.1330E+03
     55.620  0.0000E+00  0.1344E+03
     56.044  0.1744E+00  0.1362E+03
     56.468  0.0000E+00  0.1375E+03
     56.892  0.0000E+00  0.1382E+03
     57.317  0.0000E+00  0.1396E+03
     57.741  0.0000E+00  0.1407E+03
     58.165  0.0000E+00  0.1425E+03
     58.589  0.1223E+00  0.1433E+03
     59.014  0.1309E+00  0.1449E+03
     59.438  0.0000E+00  0.1462E+03
     59.862  0.0000E+00  0.1478E+03
     60.287  0.1569E-01  0.1493E+03
     60.711  0.0000E+00  0.1503E+03
     61.135  0.0000E+00  0.1516E+03
     61.559  0.0000E+00  0.1526E+03
     61.984  0.0000E+00  0.1543E+03
     62.408  0.0000E+00  0.1555E+03
     62.832  0.0000E+00  0.1568E+03
     63.256  0.2619E+00  0.1583E+03
     63.681  0.6605E-02  0.1596E+03
     64.105  0.6534E-01  0.1613E+03
     64.529  0.0000E+00  0.1631E+03
     64.954  0.0000E+00  0.1644E+03
     65.378  0.0000E+00  0.1655E+03
     65.802  0.0000E+00  0.1678E+03
     66.226  0.0000E+00  0.1691E+03
     66.651  0.0000E+00  0.1703E+03
     67.075  0.0000E+00  0.1716E+03
     67.499  0.2009E-02  0.1726E+03
     67.924  0.2382E-01  0.1741E+03
     68.348  0.0000E+00  0.1758E+03
     68.772  0.0000E+00  0.1771E+03
     69.196  0.5238E+00  0.1784E+03
     69.621  0.3839E+00  0.1795E+03
     70.045  0.0000E+00  0.1811E+03
     70.469  0.0000E+00  0.1826E+03
     70.893  0.1298E+00  0.1846E+03
     71.318  0.0000E+00  0.1856E+03
     71.742  0.0000E+00  0.1872E+03
     72.166  0.1040E+00  0.1904E+03
     72.591  0.2626E+00  0.1918E+03
     73.015  0.0000E+00  0.1939E+03
     73.439  0.0000E+00  0.1948E+03
     73.863  0.0000E+00  0.1950E+03
     74.288  0.4370E-10  0.1957E+03
     74.712  0.0000E+00  0.1959E+03
     75.136  0.0000E+00  0.1959E+03
     75.560  0.0000E+00  0.1960E+03
     75.985  0.0000E+00  0.1960E+03
     76.409  0.0000E+00  0.1960E+03
     76.833  0.0000E+00  0.1960E+03
     77.258  0.0000E+00  0.1960E+03
     77.682  0.0000E+00  0.1960E+03
     78.106  0.0000E+00  0.1960E+03
     78.530  0.0000E+00  0.1960E+03
     78.955  0.0000E+00  0.1960E+03
     79.379  0.0000E+00  0.1960E+03
     79.803  0.0000E+00  0.1960E+03
     80.227  0.0000E+00  0.1960E+03
     80.652  0.0000E+00  0.1960E+03
     81.076  0.0000E+00  0.1960E+03
