    1    1    1    1
  0.5789729E+02  0.4342346E-09  0.4342346E-09  0.4342346E-09  0.1000000E-15
  1.000000000000000E-004
  CAR 
 Og_FCC                                  
     18    216    196
 
  0.0000000E+00  0.0000000E+00  0.0000000E+00  0.4629630E-02
    1      -40.419183   1.000000
    2      -40.419173   1.000000
    3      -40.419160   1.000000
    4      -40.419158   1.000000
    5      -32.912945   1.000000
    6      -32.912935   1.000000
    7      -32.912923   1.000000
    8      -32.912912   1.000000
    9      -32.909315   1.000000
   10      -32.909303   1.000000
   11      -25.279189   1.000000
   12      -25.279160   1.000000
   13       -9.932942   1.000000
   14       -9.932865   1.000000
   15        2.356721   1.000000
   16        2.356735   1.000000
   17        2.357432   1.000000
   18        2.357446   1.000000
   19        3.362712   0.000000
   20        3.362782   0.000000
   21       11.284997   0.000000
   22       11.285011   0.000000
   23       11.285019   0.000000
   24       11.285033   0.000000
   25       11.517769   0.000000
   26       11.517809   0.000000
   27       11.832415   0.000000
   28       11.832490   0.000000
   29       14.052206   0.000000
   30       14.052443   0.000000
   31       14.474099   0.000000
   32       14.474122   0.000000
   33       14.474199   0.000000
   34       14.474221   0.000000
   35       14.792685   0.000000
   36       14.792840   0.000000
   37       14.792867   0.000000
   38       14.793022   0.000000
   39       16.360862   0.000000
   40       16.360907   0.000000
   41       20.346573   0.000000
   42       20.346869   0.000000
   43       20.347446   0.000000
   44       20.347929   0.000000
   45       20.348506   0.000000
   46       20.348802   0.000000
   47       22.947433   0.000000
   48       22.948255   0.000000
   49       26.182620   0.000000
   50       26.182751   0.000000
   51       26.184697   0.000000
   52       26.184829   0.000000
   53       26.364514   0.000000
   54       26.365234   0.000000
   55       27.708197   0.000000
   56       27.709857   0.000000
   57       29.412621   0.000000
   58       29.413585   0.000000
   59       29.414188   0.000000
   60       29.415154   0.000000
   61       30.187111   0.000000
   62       30.187783   0.000000
   63       30.342817   0.000000
   64       30.343177   0.000000
   65       30.343982   0.000000
   66       30.344346   0.000000
   67       30.788563   0.000000
   68       30.788651   0.000000
   69       31.592755   0.000000
   70       31.592915   0.000000
   71       31.594070   0.000000
   72       31.594230   0.000000
   73       37.750091   0.000000
   74       37.750601   0.000000
   75       37.750888   0.000000
   76       37.751276   0.000000
   77       37.751563   0.000000
   78       37.752072   0.000000
   79       38.585760   0.000000
   80       38.587180   0.000000
   81       38.598647   0.000000
   82       38.598878   0.000000
   83       38.599380   0.000000
   84       38.601780   0.000000
   85       38.602282   0.000000
   86       38.602513   0.000000
   87       41.101957   0.000000
   88       41.102267   0.000000
   89       41.102525   0.000000
   90       41.102838   0.000000
   91       41.288672   0.000000
   92       41.289172   0.000000
   93       42.570197   0.000000
   94       42.571050   0.000000
   95       42.850513   0.000000
   96       42.851645   0.000000
   97       42.852250   0.000000
   98       42.853380   0.000000
   99       43.167728   0.000000
  100       43.168208   0.000000
  101       43.168632   0.000000
  102       43.169112   0.000000
  103       44.052819   0.000000
  104       44.052843   0.000000
  105       44.055074   0.000000
  106       44.055099   0.000000
  107       44.137064   0.000000
  108       44.137690   0.000000
  109       44.138454   0.000000
  110       44.139081   0.000000
  111       44.330592   0.000000
  112       44.331465   0.000000
  113       45.272402   0.000000
  114       45.273261   0.000000
  115       45.676296   0.000000
  116       45.677744   0.000000
  117       46.129138   0.000000
  118       46.129251   0.000000
  119       46.130418   0.000000
  120       46.130530   0.000000
  121       46.659598   0.000000
  122       46.659846   0.000000
  123       47.022146   0.000000
  124       47.022331   0.000000
  125       47.022856   0.000000
  126       47.023042   0.000000
  127       47.150839   0.000000
  128       47.152062   0.000000
  129       51.261853   0.000000
  130       51.262273   0.000000
  131       51.262376   0.000000
  132       51.263527   0.000000
  133       51.263630   0.000000
  134       51.264050   0.000000
  135       54.019457   0.000000
  136       54.021545   0.000000
  137       54.186422   0.000000
  138       54.186595   0.000000
  139       54.187806   0.000000
  140       54.187979   0.000000
  141       58.366529   0.000000
  142       58.367289   0.000000
  143       58.377347   0.000000
  144       58.377377   0.000000
  145       58.378249   0.000000
  146       58.378275   0.000000
  147       58.901777   0.000000
  148       58.902321   0.000000
  149       65.307919   0.000000
  150       65.308689   0.000000
  151       65.871068   0.000000
  152       65.871312   0.000000
  153       65.872484   0.000000
  154       65.872726   0.000000
  155       65.942024   0.000000
  156       65.942283   0.000000
  157       66.242723   0.000000
  158       66.243154   0.000000
  159       66.243770   0.000000
  160       66.244202   0.000000
  161       67.499934   0.000000
  162       67.500705   0.000000
  163       67.501409   0.000000
  164       67.502180   0.000000
  165       67.851089   0.000000
  166       67.851172   0.000000
  167       67.851523   0.000000
  168       67.853357   0.000000
  169       67.853708   0.000000
  170       67.853791   0.000000
  171       70.316090   0.000000
  172       70.317201   0.000000
  173       71.907320   0.000000
  174       71.907690   0.000000
  175       72.319780   0.000000
  176       72.319889   0.000000
  177       72.321571   0.000000
  178       72.321681   0.000000
  179       72.823016   0.000000
  180       72.824211   0.000000
  181       72.824988   0.000000
  182       72.826183   0.000000
  183       74.012047   0.000000
  184       74.012372   0.000000
  185       74.012608   0.000000
  186       74.013235   0.000000
  187       74.013471   0.000000
  188       74.013795   0.000000
  189       74.153081   0.000000
  190       74.153320   0.000000
  191       74.153919   0.000000
  192       74.154569   0.000000
  193       74.155168   0.000000
  194       74.155407   0.000000
  195       74.262578   0.000000
  196       74.262911   0.000000
 
  0.1666667E+00  0.1566927E-17  0.2081668E-16  0.4629630E-02
    1      -40.417582   1.000000
    2      -40.417554   1.000000
    3      -40.415537   1.000000
    4      -40.415528   1.000000
    5      -32.911903   1.000000
    6      -32.911874   1.000000
    7      -32.908858   1.000000
    8      -32.908819   1.000000
    9      -32.906445   1.000000
   10      -32.906422   1.000000
   11      -25.245436   1.000000
   12      -25.245399   1.000000
   13      -10.016410   1.000000
   14      -10.016324   1.000000
   15        0.638125   1.000000
   16        0.638531   1.000000
   17        2.178255   1.000000
   18        2.178938   1.000000
   19        5.177087   0.000000
   20        5.177226   0.000000
   21       10.173248   0.000000
   22       10.173264   0.000000
   23       11.514979   0.000000
   24       11.515106   0.000000
   25       11.657472   0.000000
   26       11.657497   0.000000
   27       12.773373   0.000000
   28       12.773457   0.000000
   29       13.082387   0.000000
   30       13.082438   0.000000
   31       13.221863   0.000000
   32       13.222124   0.000000
   33       14.547807   0.000000
   34       14.547924   0.000000
   35       16.890027   0.000000
   36       16.890055   0.000000
   37       17.143222   0.000000
   38       17.143277   0.000000
   39       18.577449   0.000000
   40       18.577676   0.000000
   41       19.872805   0.000000
   42       19.874589   0.000000
   43       20.002873   0.000000
   44       20.005003   0.000000
   45       20.414632   0.000000
   46       20.415124   0.000000
   47       21.790902   0.000000
   48       21.791245   0.000000
   49       24.995838   0.000000
   50       24.996911   0.000000
   51       25.600128   0.000000
   52       25.602360   0.000000
   53       25.891477   0.000000
   54       25.893138   0.000000
   55       27.098280   0.000000
   56       27.099586   0.000000
   57       27.795233   0.000000
   58       27.795535   0.000000
   59       28.670136   0.000000
   60       28.670926   0.000000
   61       30.187536   0.000000
   62       30.189928   0.000000
   63       30.256962   0.000000
   64       30.258082   0.000000
   65       30.901541   0.000000
   66       30.902493   0.000000
   67       30.996491   0.000000
   68       30.996732   0.000000
   69       32.905720   0.000000
   70       32.907668   0.000000
   71       35.315073   0.000000
   72       35.315727   0.000000
   73       35.445797   0.000000
   74       35.447061   0.000000
   75       36.513592   0.000000
   76       36.514932   0.000000
   77       36.529598   0.000000
   78       36.529796   0.000000
   79       36.943718   0.000000
   80       36.944624   0.000000
   81       38.340425   0.000000
   82       38.341110   0.000000
   83       39.127106   0.000000
   84       39.130047   0.000000
   85       39.312374   0.000000
   86       39.313155   0.000000
   87       39.517527   0.000000
   88       39.517769   0.000000
   89       39.522851   0.000000
   90       39.523530   0.000000
   91       40.406207   0.000000
   92       40.406299   0.000000
   93       40.542720   0.000000
   94       40.543758   0.000000
   95       41.367056   0.000000
   96       41.368384   0.000000
   97       41.521295   0.000000
   98       41.522261   0.000000
   99       42.697151   0.000000
  100       42.697805   0.000000
  101       43.200076   0.000000
  102       43.200358   0.000000
  103       43.304221   0.000000
  104       43.304592   0.000000
  105       44.122708   0.000000
  106       44.123285   0.000000
  107       44.654626   0.000000
  108       44.654881   0.000000
  109       44.757311   0.000000
  110       44.758872   0.000000
  111       44.893439   0.000000
  112       44.894487   0.000000
  113       46.504661   0.000000
  114       46.505985   0.000000
  115       47.112727   0.000000
  116       47.113232   0.000000
  117       47.540280   0.000000
  118       47.541202   0.000000
  119       48.427490   0.000000
  120       48.428250   0.000000
  121       49.336080   0.000000
  122       49.336530   0.000000
  123       49.362121   0.000000
  124       49.363351   0.000000
  125       50.378933   0.000000
  126       50.380152   0.000000
  127       51.355705   0.000000
  128       51.355980   0.000000
  129       51.967645   0.000000
  130       51.968493   0.000000
  131       52.424524   0.000000
  132       52.425901   0.000000
  133       52.499436   0.000000
  134       52.499671   0.000000
  135       53.799794   0.000000
  136       53.800124   0.000000
  137       53.919347   0.000000
  138       53.919824   0.000000
  139       54.031774   0.000000
  140       54.033098   0.000000
  141       57.355027   0.000000
  142       57.356017   0.000000
  143       59.285521   0.000000
  144       59.286526   0.000000
  145       59.352099   0.000000
  146       59.353086   0.000000
  147       60.423487   0.000000
  148       60.423823   0.000000
  149       62.081009   0.000000
  150       62.082403   0.000000
  151       62.501167   0.000000
  152       62.502775   0.000000
  153       63.604684   0.000000
  154       63.605405   0.000000
  155       63.706210   0.000000
  156       63.708250   0.000000
  157       65.260626   0.000000
  158       65.261800   0.000000
  159       65.386283   0.000000
  160       65.387171   0.000000
  161       65.938435   0.000000
  162       65.938706   0.000000
  163       66.893215   0.000000
  164       66.895373   0.000000
  165       66.966920   0.000000
  166       66.967550   0.000000
  167       69.330917   0.000000
  168       69.331110   0.000000
  169       69.658090   0.000000
  170       69.658505   0.000000
  171       69.791928   0.000000
  172       69.793486   0.000000
  173       70.366323   0.000000
  174       70.366757   0.000000
  175       70.383175   0.000000
  176       70.383642   0.000000
  177       70.671856   0.000000
  178       70.672084   0.000000
  179       71.173262   0.000000
  180       71.174382   0.000000
  181       71.181449   0.000000
  182       71.181970   0.000000
  183       71.624409   0.000000
  184       71.625855   0.000000
  185       71.993516   0.000000
  186       71.993888   0.000000
  187       72.556510   0.000000
  188       72.556966   0.000000
  189       72.854334   0.000000
  190       72.856167   0.000000
  191       73.908476   0.000000
  192       73.908671   0.000000
  193       74.183317   0.000000
  194       74.183694   0.000000
  195       75.289596   0.000000
  196       75.290444   0.000000
 
  0.3333333E+00  0.3133854E-17  0.0000000E+00  0.4629630E-02
    1      -40.420581   1.000000
    2      -40.420576   1.000000
    3      -40.415907   1.000000
    4      -40.415884   1.000000
    5      -32.910582   1.000000
    6      -32.910544   1.000000
    7      -32.900949   1.000000
    8      -32.900908   1.000000
    9      -32.896830   1.000000
   10      -32.896781   1.000000
   11      -25.179523   1.000000
   12      -25.179489   1.000000
   13      -10.186501   1.000000
   14      -10.186427   1.000000
   15       -0.700820   1.000000
   16       -0.700440   1.000000
   17        1.860980   1.000000
   18        1.861626   1.000000
   19        6.165981   0.000000
   20        6.166006   0.000000
   21       10.590730   0.000000
   22       10.590769   0.000000
   23       11.025864   0.000000
   24       11.026093   0.000000
   25       11.278120   0.000000
   26       11.278135   0.000000
   27       11.888093   0.000000
   28       11.888112   0.000000
   29       14.001891   0.000000
   30       14.002069   0.000000
   31       14.329573   0.000000
   32       14.329887   0.000000
   33       17.821361   0.000000
   34       17.821397   0.000000
   35       19.065031   0.000000
   36       19.065208   0.000000
   37       19.856812   0.000000
   38       19.857131   0.000000
   39       20.010186   0.000000
   40       20.010270   0.000000
   41       18.747382   0.000000
   42       18.749423   0.000000
   43       19.052904   0.000000
   44       19.055120   0.000000
   45       20.554760   0.000000
   46       20.555280   0.000000
   47       21.135580   0.000000
   48       21.135855   0.000000
   49       23.959665   0.000000
   50       23.960035   0.000000
   51       25.190469   0.000000
   52       25.192033   0.000000
   53       25.293097   0.000000
   54       25.294770   0.000000
   55       26.365976   0.000000
   56       26.366977   0.000000
   57       27.010926   0.000000
   58       27.011246   0.000000
   59       27.586290   0.000000
   60       27.587085   0.000000
   61       29.590432   0.000000
   62       29.590564   0.000000
   63       31.021257   0.000000
   64       31.023849   0.000000
   65       31.452750   0.000000
   66       31.452982   0.000000
   67       31.892483   0.000000
   68       31.893220   0.000000
   69       32.042785   0.000000
   70       32.044599   0.000000
   71       32.188362   0.000000
   72       32.188835   0.000000
   73       33.677443   0.000000
   74       33.678786   0.000000
   75       33.837427   0.000000
   76       33.838186   0.000000
   77       34.915154   0.000000
   78       34.916493   0.000000
   79       35.696044   0.000000
   80       35.698335   0.000000
   81       35.989032   0.000000
   82       35.989735   0.000000
   83       36.440325   0.000000
   84       36.441826   0.000000
   85       39.295537   0.000000
   86       39.297381   0.000000
   87       39.326705   0.000000
   88       39.327496   0.000000
   89       40.085820   0.000000
   90       40.086025   0.000000
   91       40.663465   0.000000
   92       40.664008   0.000000
   93       40.876365   0.000000
   94       40.877281   0.000000
   95       42.067985   0.000000
   96       42.068476   0.000000
   97       42.831939   0.000000
   98       42.832179   0.000000
   99       43.050710   0.000000
  100       43.052015   0.000000
  101       43.842007   0.000000
  102       43.843330   0.000000
  103       44.681190   0.000000
  104       44.681459   0.000000
  105       44.814959   0.000000
  106       44.815641   0.000000
  107       45.963475   0.000000
  108       45.963636   0.000000
  109       46.417336   0.000000
  110       46.418690   0.000000
  111       46.499443   0.000000
  112       46.500832   0.000000
  113       47.057514   0.000000
  114       47.058302   0.000000
  115       49.647999   0.000000
  116       49.648514   0.000000
  117       51.140883   0.000000
  118       51.141535   0.000000
  119       51.393228   0.000000
  120       51.394346   0.000000
  121       51.813765   0.000000
  122       51.814241   0.000000
  123       51.974736   0.000000
  124       51.975274   0.000000
  125       52.236147   0.000000
  126       52.236673   0.000000
  127       52.568805   0.000000
  128       52.569464   0.000000
  129       53.566270   0.000000
  130       53.567158   0.000000
  131       54.240241   0.000000
  132       54.240922   0.000000
  133       54.318310   0.000000
  134       54.319378   0.000000
  135       55.083810   0.000000
  136       55.084581   0.000000
  137       55.568832   0.000000
  138       55.571170   0.000000
  139       55.841922   0.000000
  140       55.842540   0.000000
  141       56.040147   0.000000
  142       56.042151   0.000000
  143       57.557168   0.000000
  144       57.557411   0.000000
  145       59.574698   0.000000
  146       59.575511   0.000000
  147       60.021580   0.000000
  148       60.021945   0.000000
  149       60.146374   0.000000
  150       60.148072   0.000000
  151       60.385353   0.000000
  152       60.386269   0.000000
  153       60.967878   0.000000
  154       60.968236   0.000000
  155       61.903557   0.000000
  156       61.904377   0.000000
  157       63.085680   0.000000
  158       63.085928   0.000000
  159       63.148760   0.000000
  160       63.149149   0.000000
  161       64.447475   0.000000
  162       64.448077   0.000000
  163       64.846422   0.000000
  164       64.847718   0.000000
  165       64.921089   0.000000
  166       64.921816   0.000000
  167       66.994631   0.000000
  168       66.995529   0.000000
  169       67.324202   0.000000
  170       67.326300   0.000000
  171       67.562153   0.000000
  172       67.562344   0.000000
  173       68.225346   0.000000
  174       68.226006   0.000000
  175       68.691457   0.000000
  176       68.692932   0.000000
  177       70.074734   0.000000
  178       70.075160   0.000000
  179       70.652937   0.000000
  180       70.653074   0.000000
  181       70.747400   0.000000
  182       70.749339   0.000000
  183       71.862070   0.000000
  184       71.863387   0.000000
  185       71.923160   0.000000
  186       71.923512   0.000000
  187       72.165997   0.000000
  188       72.166160   0.000000
  189       72.217893   0.000000
  190       72.219616   0.000000
  191       72.981971   0.000000
  192       72.983360   0.000000
  193       73.082521   0.000000
  194       73.083654   0.000000
  195       73.664494   0.000000
  196       73.664837   0.000000
 
  0.5000000E+00  0.4700780E-17  0.5551115E-16  0.4629630E-02
    1      -40.418098   1.000000
    2      -40.418088   1.000000
    3      -40.417510   1.000000
    4      -40.417474   1.000000
    5      -32.909686   1.000000
    6      -32.909651   1.000000
    7      -32.909405   1.000000
    8      -32.909377   1.000000
    9      -32.905015   1.000000
   10      -32.904993   1.000000
   11      -25.145579   1.000000
   12      -25.145543   1.000000
   13      -10.272437   1.000000
   14      -10.272364   1.000000
   15       -1.153682   1.000000
   16       -1.153305   1.000000
   17        1.718861   1.000000
   18        1.719479   1.000000
   19        6.228235   0.000000
   20        6.228262   0.000000
   21       10.699190   0.000000
   22       10.699414   0.000000
   23       10.846279   0.000000
   24       10.846293   0.000000
   25       10.907889   0.000000
   26       10.907903   0.000000
   27       12.592047   0.000000
   28       12.592218   0.000000
   29       15.791544   0.000000
   30       15.791740   0.000000
   31       16.037108   0.000000
   32       16.037326   0.000000
   33       16.597387   0.000000
   34       16.597399   0.000000
   35       17.637177   0.000000
   36       17.637196   0.000000
   37       17.771620   0.000000
   38       17.772051   0.000000
   39       20.777266   0.000000
   40       20.777568   0.000000
   41       18.999267   0.000000
   42       19.002503   0.000000
   43       19.055430   0.000000
   44       19.057265   0.000000
   45       20.628318   0.000000
   46       20.628853   0.000000
   47       23.242469   0.000000
   48       23.243641   0.000000
   49       23.982888   0.000000
   50       23.984233   0.000000
   51       25.289398   0.000000
   52       25.289819   0.000000
   53       25.480820   0.000000
   54       25.481679   0.000000
   55       25.532635   0.000000
   56       25.533546   0.000000
   57       27.010934   0.000000
   58       27.011390   0.000000
   59       27.237532   0.000000
   60       27.238682   0.000000
   61       28.321289   0.000000
   62       28.321695   0.000000
   63       29.455049   0.000000
   64       29.455986   0.000000
   65       30.820093   0.000000
   66       30.820408   0.000000
   67       30.847328   0.000000
   68       30.849446   0.000000
   69       31.719580   0.000000
   70       31.722033   0.000000
   71       32.448862   0.000000
   72       32.449123   0.000000
   73       32.867414   0.000000
   74       32.867818   0.000000
   75       33.050704   0.000000
   76       33.052082   0.000000
   77       33.947705   0.000000
   78       33.949479   0.000000
   79       34.036673   0.000000
   80       34.039109   0.000000
   81       35.819026   0.000000
   82       35.819552   0.000000
   83       36.646973   0.000000
   84       36.648409   0.000000
   85       39.501739   0.000000
   86       39.502719   0.000000
   87       39.620760   0.000000
   88       39.623235   0.000000
   89       39.757277   0.000000
   90       39.757864   0.000000
   91       40.226160   0.000000
   92       40.227014   0.000000
   93       40.493323   0.000000
   94       40.494282   0.000000
   95       41.933480   0.000000
   96       41.934518   0.000000
   97       42.152419   0.000000
   98       42.152725   0.000000
   99       44.846567   0.000000
  100       44.847080   0.000000
  101       46.063756   0.000000
  102       46.064428   0.000000
  103       46.218154   0.000000
  104       46.219170   0.000000
  105       46.402230   0.000000
  106       46.402619   0.000000
  107       46.406175   0.000000
  108       46.406865   0.000000
  109       47.679610   0.000000
  110       47.680344   0.000000
  111       49.426296   0.000000
  112       49.427243   0.000000
  113       50.026334   0.000000
  114       50.027072   0.000000
  115       50.208402   0.000000
  116       50.209456   0.000000
  117       50.926879   0.000000
  118       50.928518   0.000000
  119       51.286338   0.000000
  120       51.287135   0.000000
  121       51.487401   0.000000
  122       51.487465   0.000000
  123       52.615511   0.000000
  124       52.617141   0.000000
  125       52.643777   0.000000
  126       52.644740   0.000000
  127       52.784828   0.000000
  128       52.786557   0.000000
  129       52.952144   0.000000
  130       52.952742   0.000000
  131       53.061758   0.000000
  132       53.062758   0.000000
  133       53.094269   0.000000
  134       53.097057   0.000000
  135       57.057682   0.000000
  136       57.058922   0.000000
  137       57.144974   0.000000
  138       57.145130   0.000000
  139       57.231517   0.000000
  140       57.231664   0.000000
  141       57.417688   0.000000
  142       57.418442   0.000000
  143       57.678395   0.000000
  144       57.678814   0.000000
  145       57.762279   0.000000
  146       57.763065   0.000000
  147       58.007355   0.000000
  148       58.007989   0.000000
  149       59.497897   0.000000
  150       59.498888   0.000000
  151       59.815648   0.000000
  152       59.817895   0.000000
  153       60.126458   0.000000
  154       60.127521   0.000000
  155       61.364071   0.000000
  156       61.365372   0.000000
  157       61.608177   0.000000
  158       61.609072   0.000000
  159       62.977116   0.000000
  160       62.977654   0.000000
  161       63.058088   0.000000
  162       63.058439   0.000000
  163       63.107986   0.000000
  164       63.109607   0.000000
  165       65.929510   0.000000
  166       65.931118   0.000000
  167       66.116471   0.000000
  168       66.116492   0.000000
  169       67.364970   0.000000
  170       67.365234   0.000000
  171       67.869760   0.000000
  172       67.871029   0.000000
  173       67.872546   0.000000
  174       67.872721   0.000000
  175       67.965389   0.000000
  176       67.966145   0.000000
  177       69.815287   0.000000
  178       69.816030   0.000000
  179       69.885286   0.000000
  180       69.887136   0.000000
  181       70.293636   0.000000
  182       70.294389   0.000000
  183       71.970732   0.000000
  184       71.971088   0.000000
  185       72.030394   0.000000
  186       72.031491   0.000000
  187       72.343352   0.000000
  188       72.344381   0.000000
  189       72.344546   0.000000
  190       72.345744   0.000000
  191       72.359175   0.000000
  192       72.360572   0.000000
  193       72.652322   0.000000
  194       72.653549   0.000000
  195       74.111519   0.000000
  196       74.111848   0.000000
 
 -0.3333333E+00 -0.3133854E-17  0.0000000E+00  0.4629630E-02
    1      -40.420583   1.000000
    2      -40.420577   1.000000
    3      -40.415910   1.000000
    4      -40.415884   1.000000
    5      -32.910585   1.000000
    6      -32.910545   1.000000
    7      -32.900946   1.000000
    8      -32.900905   1.000000
    9      -32.896834   1.000000
   10      -32.896787   1.000000
   11      -25.179521   1.000000
   12      -25.179489   1.000000
   13      -10.186499   1.000000
   14      -10.186426   1.000000
   15       -0.700821   1.000000
   16       -0.700440   1.000000
   17        1.860980   1.000000
   18        1.861626   1.000000
   19        6.165979   0.000000
   20        6.166006   0.000000
   21       10.590730   0.000000
   22       10.590770   0.000000
   23       11.025865   0.000000
   24       11.026093   0.000000
   25       11.278119   0.000000
   26       11.278134   0.000000
   27       11.888094   0.000000
   28       11.888112   0.000000
   29       14.001890   0.000000
   30       14.002069   0.000000
   31       14.329574   0.000000
   32       14.329887   0.000000
   33       17.821361   0.000000
   34       17.821397   0.000000
   35       19.065030   0.000000
   36       19.065208   0.000000
   37       19.856812   0.000000
   38       19.857131   0.000000
   39       20.010186   0.000000
   40       20.010270   0.000000
   41       18.747382   0.000000
   42       18.749423   0.000000
   43       19.052904   0.000000
   44       19.055120   0.000000
   45       20.554760   0.000000
   46       20.555280   0.000000
   47       21.135580   0.000000
   48       21.135854   0.000000
   49       23.959667   0.000000
   50       23.960037   0.000000
   51       25.190468   0.000000
   52       25.192032   0.000000
   53       25.293096   0.000000
   54       25.294770   0.000000
   55       26.365977   0.000000
   56       26.366978   0.000000
   57       27.010926   0.000000
   58       27.011246   0.000000
   59       27.586289   0.000000
   60       27.587085   0.000000
   61       29.590432   0.000000
   62       29.590563   0.000000
   63       31.021258   0.000000
   64       31.023850   0.000000
   65       31.452751   0.000000
   66       31.452983   0.000000
   67       31.892483   0.000000
   68       31.893220   0.000000
   69       32.042785   0.000000
   70       32.044599   0.000000
   71       32.188362   0.000000
   72       32.188834   0.000000
   73       33.677443   0.000000
   74       33.678786   0.000000
   75       33.837426   0.000000
   76       33.838185   0.000000
   77       34.915153   0.000000
   78       34.916492   0.000000
   79       35.696043   0.000000
   80       35.698334   0.000000
   81       35.989033   0.000000
   82       35.989736   0.000000
   83       36.440325   0.000000
   84       36.441826   0.000000
   85       39.295537   0.000000
   86       39.297381   0.000000
   87       39.326705   0.000000
   88       39.327496   0.000000
   89       40.085822   0.000000
   90       40.086027   0.000000
   91       40.663465   0.000000
   92       40.664008   0.000000
   93       40.876363   0.000000
   94       40.877279   0.000000
   95       42.067985   0.000000
   96       42.068475   0.000000
   97       42.831939   0.000000
   98       42.832179   0.000000
   99       43.050711   0.000000
  100       43.052016   0.000000
  101       43.842006   0.000000
  102       43.843329   0.000000
  103       44.681189   0.000000
  104       44.681458   0.000000
  105       44.814959   0.000000
  106       44.815641   0.000000
  107       45.963475   0.000000
  108       45.963637   0.000000
  109       46.417336   0.000000