   1   1   0   0
  0.1628488E+02  0.2845115E-09  0.2845115E-09  0.2845115E-09  0.1000000E-15
  1.000000000000000E-004
  CAR 
 Og_FCC                                  
    161.70685710    -24.26019466  301    -14.18697936      1.00000000
    -24.260  0.0000E+00  0.0000E+00
    -23.640  0.0000E+00  0.0000E+00
    -23.020  0.0000E+00  0.0000E+00
    -22.401  0.0000E+00  0.0000E+00
    -21.781  0.0000E+00  0.0000E+00
    -21.161  0.0000E+00  0.0000E+00
    -20.541  0.0000E+00  0.0000E+00
    -19.921  0.0000E+00  0.0000E+00
    -19.301  0.0000E+00  0.0000E+00
    -18.681  0.0000E+00  0.0000E+00
    -18.061  0.0000E+00  0.0000E+00
    -17.441  0.0000E+00  0.0000E+00
    -16.822  0.0000E+00  0.0000E+00
    -16.202  0.0000E+00  0.0000E+00
    -15.582  0.0000E+00  0.8746E-01
    -14.962  0.0000E+00  0.6589E+00
    -14.342  0.0000E+00  0.2000E+01
    -13.722  0.0000E+00  0.2000E+01
    -13.102  0.0000E+00  0.2000E+01
    -12.482  0.0000E+00  0.2000E+01
    -11.862  0.0000E+00  0.2000E+01
    -11.243  0.0000E+00  0.2000E+01
    -10.623  0.0000E+00  0.2000E+01
    -10.003  0.0000E+00  0.2000E+01
     -9.383  0.0000E+00  0.2000E+01
     -8.763  0.0000E+00  0.2000E+01
     -8.143  0.0000E+00  0.2000E+01
     -7.523  0.0000E+00  0.2000E+01
     -6.903  0.0000E+00  0.2000E+01
     -6.283  0.0000E+00  0.2000E+01
     -5.663  0.0000E+00  0.2000E+01
     -5.044  0.0000E+00  0.2000E+01
     -4.424  0.0000E+00  0.2000E+01
     -3.804  0.0000E+00  0.2000E+01
     -3.184  0.0000E+00  0.2000E+01
     -2.564  0.0000E+00  0.2000E+01
     -1.944  0.0000E+00  0.2000E+01
     -1.324  0.0000E+00  0.2000E+01
     -0.704  0.0000E+00  0.2000E+01
     -0.084  0.0000E+00  0.2000E+01
      0.535  0.0000E+00  0.2000E+01
      1.155  0.0000E+00  0.2000E+01
      1.775  0.0000E+00  0.2000E+01
      2.395  0.0000E+00  0.2000E+01
      3.015  0.0000E+00  0.2000E+01
      3.635  0.7525E-01  0.2805E+01
      4.255  0.0000E+00  0.3125E+01
      4.875  0.0000E+00  0.3510E+01
      5.495  0.0000E+00  0.3860E+01
      6.114  0.0000E+00  0.3860E+01
      6.734  0.0000E+00  0.4000E+01
      7.354  0.0000E+00  0.4140E+01
      7.974  0.0000E+00  0.4280E+01
      8.594  0.0000E+00  0.4420E+01
      9.214  0.0000E+00  0.4700E+01
      9.834  0.0000E+00  0.5120E+01
     10.454  0.0000E+00  0.5446E+01
     11.074  0.0000E+00  0.5761E+01
     11.693  0.0000E+00  0.5901E+01
     12.313  0.0000E+00  0.5901E+01
     12.933  0.0000E+00  0.6297E+01
     13.553  0.0000E+00  0.6507E+01
     14.173  0.0000E+00  0.6997E+01
     14.793  0.0000E+00  0.7277E+01
     15.413  0.0000E+00  0.7487E+01
     16.033  0.0000E+00  0.7557E+01
     16.653  0.0000E+00  0.8327E+01
     17.272  0.0000E+00  0.8758E+01
     17.892  0.0000E+00  0.9248E+01
     18.512  0.0000E+00  0.9388E+01
     19.132  0.0000E+00  0.9784E+01
     19.752  0.1437E+00  0.1015E+02
     20.372  0.0000E+00  0.1019E+02
     20.992  0.0000E+00  0.1042E+02
     21.612  0.0000E+00  0.1084E+02
     22.232  0.0000E+00  0.1143E+02
     22.851  0.0000E+00  0.1188E+02
     23.471  0.0000E+00  0.1224E+02
     24.091  0.0000E+00  0.1230E+02
     24.711  0.0000E+00  0.1290E+02
     25.331  0.0000E+00  0.1325E+02
     25.951  0.0000E+00  0.1384E+02
     26.571  0.0000E+00  0.1412E+02
     27.191  0.0000E+00  0.1433E+02
     27.811  0.0000E+00  0.1455E+02
     28.430  0.1451E+00  0.1496E+02
     29.050  0.0000E+00  0.1588E+02
     29.670  0.0000E+00  0.1616E+02
     30.290  0.1124E-09  0.1637E+02
     30.910  0.0000E+00  0.1671E+02
     31.530  0.0000E+00  0.1708E+02
     32.150  0.0000E+00  0.1743E+02
     32.770  0.0000E+00  0.1788E+02
     33.390  0.0000E+00  0.1844E+02
     34.009  0.0000E+00  0.1872E+02
     34.629  0.0000E+00  0.1900E+02
     35.249  0.0000E+00  0.1970E+02
     35.869  0.0000E+00  0.2002E+02
     36.489  0.0000E+00  0.2074E+02
     37.109  0.0000E+00  0.2116E+02
     37.729  0.1129E+00  0.2148E+02
     38.349  0.0000E+00  0.2221E+02
     38.969  0.0000E+00  0.2230E+02
     39.588  0.0000E+00  0.2262E+02
     40.208  0.0000E+00  0.2297E+02
     40.828  0.0000E+00  0.2384E+02
     41.448  0.0000E+00  0.2412E+02
     42.068  0.0000E+00  0.2468E+02
     42.688  0.0000E+00  0.2534E+02
     43.308  0.0000E+00  0.2551E+02
     43.928  0.1715E-04  0.2628E+02
     44.548  0.0000E+00  0.2678E+02
     45.168  0.0000E+00  0.2731E+02
     45.787  0.0000E+00  0.2757E+02
     46.407  0.0000E+00  0.2799E+02
     47.027  0.2926E-03  0.2888E+02
     47.647  0.0000E+00  0.2934E+02
     48.267  0.0000E+00  0.2945E+02
     48.887  0.0000E+00  0.2973E+02
     49.507  0.0000E+00  0.3008E+02
     50.127  0.2258E+00  0.3092E+02
     50.747  0.0000E+00  0.3150E+02
     51.366  0.0000E+00  0.3199E+02
     51.986  0.0000E+00  0.3273E+02
     52.606  0.0000E+00  0.3290E+02
     53.226  0.0000E+00  0.3417E+02
     53.846  0.0000E+00  0.3462E+02
     54.466  0.0000E+00  0.3501E+02
     55.086  0.0000E+00  0.3529E+02
     55.706  0.0000E+00  0.3578E+02
     56.326  0.0000E+00  0.3638E+02
     56.945  0.0000E+00  0.3701E+02
     57.565  0.1978E-02  0.3716E+02
     58.185  0.0000E+00  0.3752E+02
     58.805  0.0000E+00  0.3787E+02
     59.425  0.0000E+00  0.3880E+02
     60.045  0.2258E+00  0.3932E+02
     60.665  0.0000E+00  0.3974E+02
     61.285  0.0000E+00  0.4072E+02
     61.905  0.0000E+00  0.4149E+02
     62.524  0.0000E+00  0.4194E+02
     63.144  0.0000E+00  0.4272E+02
     63.764  0.0000E+00  0.4356E+02
     64.384  0.0000E+00  0.4409E+02
     65.004  0.0000E+00  0.4437E+02
     65.624  0.0000E+00  0.4484E+02
     66.244  0.0000E+00  0.4557E+02
     66.864  0.0000E+00  0.4573E+02
     67.484  0.0000E+00  0.4587E+02
     68.103  0.0000E+00  0.4659E+02
     68.723  0.0000E+00  0.4703E+02
     69.343  0.0000E+00  0.4733E+02
     69.963  0.0000E+00  0.4846E+02
     70.583  0.0000E+00  0.4930E+02
     71.203  0.0000E+00  0.4984E+02
     71.823  0.0000E+00  0.5100E+02
     72.443  0.0000E+00  0.5126E+02
     73.063  0.0000E+00  0.5203E+02
     73.682  0.0000E+00  0.5275E+02
     74.302  0.0000E+00  0.5338E+02
     74.922  0.0000E+00  0.5443E+02
     75.542  0.0000E+00  0.5471E+02
     76.162  0.0000E+00  0.5520E+02
     76.782  0.0000E+00  0.5555E+02
     77.402  0.0000E+00  0.5560E+02
     78.022  0.0000E+00  0.5594E+02
     78.642  0.0000E+00  0.5701E+02
     79.261  0.0000E+00  0.5729E+02
     79.881  0.0000E+00  0.5802E+02
     80.501  0.0000E+00  0.5921E+02
     81.121  0.0000E+00  0.5963E+02
     81.741  0.0000E+00  0.6052E+02
     82.361  0.0000E+00  0.6111E+02
     82.981  0.0000E+00  0.6233E+02
     83.601  0.1053E-07  0.6303E+02
     84.221  0.0000E+00  0.6371E+02
     84.840  0.0000E+00  0.6385E+02
     85.460  0.0000E+00  0.6469E+02
     86.080  0.0000E+00  0.6571E+02
     86.700  0.0000E+00  0.6592E+02
     87.320  0.0000E+00  0.6638E+02
     87.940  0.0000E+00  0.6695E+02
     88.560  0.0000E+00  0.6709E+02
     89.180  0.0000E+00  0.6803E+02
     89.800  0.1129E+00  0.6884E+02
     90.419  0.0000E+00  0.6940E+02
     91.039  0.0000E+00  0.7006E+02
     91.659  0.5644E-01  0.7069E+02
     92.279  0.4243E-11  0.7169E+02
     92.899  0.2069E+00  0.7211E+02
     93.519  0.0000E+00  0.7307E+02
     94.139  0.0000E+00  0.7358E+02
     94.759  0.1545E-04  0.7428E+02
     95.379  0.1410E-06  0.7505E+02
     95.998  0.0000E+00  0.7632E+02
     96.618  0.5849E-07  0.7681E+02
     97.238  0.0000E+00  0.7779E+02
     97.858  0.0000E+00  0.7868E+02
     98.478  0.0000E+00  0.7910E+02
     99.098  0.3296E-08  0.7936E+02
     99.718  0.0000E+00  0.7968E+02
    100.338  0.0000E+00  0.8066E+02
    100.958  0.0000E+00  0.8080E+02
    101.578  0.0000E+00  0.8136E+02
    102.197  0.0000E+00  0.8220E+02
    102.817  0.0000E+00  0.8333E+02
    103.437  0.0000E+00  0.8371E+02
    104.057  0.0000E+00  0.8433E+02
    104.677  0.0000E+00  0.8517E+02
    105.297  0.0000E+00  0.8634E+02
    105.917  0.0000E+00  0.8697E+02
    106.537  0.0000E+00  0.8825E+02
    107.157  0.0000E+00  0.8890E+02
    107.776  0.0000E+00  0.8966E+02
    108.396  0.0000E+00  0.9012E+02
    109.016  0.0000E+00  0.9068E+02
    109.636  0.0000E+00  0.9159E+02
    110.256  0.0000E+00  0.9239E+02
    110.876  0.0000E+00  0.9331E+02
    111.496  0.0000E+00  0.9429E+02
    112.116  0.0000E+00  0.9471E+02
    112.736  0.2258E+00  0.9506E+02
    113.355  0.0000E+00  0.9583E+02
    113.975  0.0000E+00  0.9632E+02
    114.595  0.0000E+00  0.9667E+02
    115.215  0.0000E+00  0.9709E+02
    115.835  0.0000E+00  0.9828E+02
    116.455  0.2258E+00  0.9926E+02
    117.075  0.0000E+00  0.1001E+03
    117.695  0.0000E+00  0.1006E+03
    118.315  0.0000E+00  0.1013E+03
    118.934  0.0000E+00  0.1024E+03
    119.554  0.8635E-01  0.1035E+03
    120.174  0.0000E+00  0.1043E+03
    120.794  0.0000E+00  0.1052E+03
    121.414  0.6266E-04  0.1063E+03
    122.034  0.0000E+00  0.1070E+03
    122.654  0.0000E+00  0.1075E+03
    123.274  0.0000E+00  0.1084E+03
    123.894  0.0000E+00  0.1088E+03
    124.513  0.0000E+00  0.1097E+03
    125.133  0.0000E+00  0.1103E+03
    125.753  0.0000E+00  0.1113E+03
    126.373  0.0000E+00  0.1117E+03
    126.993  0.0000E+00  0.1124E+03
    127.613  0.0000E+00  0.1132E+03
    128.233  0.7624E-01  0.1134E+03
    128.853  0.0000E+00  0.1149E+03
    129.473  0.1129E+00  0.1156E+03
    130.092  0.0000E+00  0.1162E+03
    130.712  0.0000E+00  0.1169E+03
    131.332  0.0000E+00  0.1177E+03
    131.952  0.0000E+00  0.1183E+03
    132.572  0.2258E+00  0.1195E+03
    133.192  0.1126E+00  0.1204E+03
    133.812  0.0000E+00  0.1213E+03
    134.432  0.0000E+00  0.1220E+03
    135.052  0.0000E+00  0.1226E+03
    135.671  0.0000E+00  0.1237E+03
    136.291  0.1180E-01  0.1244E+03
    136.911  0.0000E+00  0.1255E+03
    137.531  0.0000E+00  0.1263E+03
    138.151  0.0000E+00  0.1264E+03
    138.771  0.0000E+00  0.1269E+03
    139.391  0.0000E+00  0.1273E+03
    140.011  0.0000E+00  0.1274E+03
    140.631  0.0000E+00  0.1274E+03
    141.250  0.0000E+00  0.1274E+03
    141.870  0.0000E+00  0.1275E+03
    142.490  0.0000E+00  0.1277E+03
    143.110  0.0000E+00  0.1277E+03
    143.730  0.0000E+00  0.1278E+03
    144.350  0.0000E+00  0.1279E+03
    144.970  0.0000E+00  0.1279E+03
    145.590  0.0000E+00  0.1279E+03
    146.210  0.0000E+00  0.1279E+03
    146.829  0.0000E+00  0.1279E+03
    147.449  0.0000E+00  0.1279E+03
    148.069  0.0000E+00  0.1279E+03
    148.689  0.0000E+00  0.1280E+03
    149.309  0.0000E+00  0.1280E+03
    149.929  0.0000E+00  0.1280E+03
    150.549  0.0000E+00  0.1280E+03
    151.169  0.0000E+00  0.1280E+03
    151.789  0.0000E+00  0.1280E+03
    152.409  0.0000E+00  0.1280E+03
    153.028  0.0000E+00  0.1280E+03
    153.648  0.0000E+00  0.1280E+03
    154.268  0.0000E+00  0.1280E+03
    154.888  0.0000E+00  0.1280E+03
    155.508  0.0000E+00  0.1280E+03
    156.128  0.0000E+00  0.1280E+03
    156.748  0.0000E+00  0.1280E+03
    157.368  0.0000E+00  0.1280E+03
    157.988  0.0000E+00  0.1280E+03
    158.607  0.0000E+00  0.1280E+03
    159.227  0.0000E+00  0.1280E+03
    159.847  0.0000E+00  0.1280E+03
    160.467  0.0000E+00  0.1280E+03
    161.087  0.0000E+00  0.1280E+03
    161.707  0.0000E+00  0.1280E+03
