    1    1    1    1
  0.1628488E+02  0.2845115E-09  0.2845115E-09  0.2845115E-09  0.1000000E-15
  1.000000000000000E-004
  CAR 
 Og_FCC                                  
      2    343    128
 
  0.0000000E+00  0.0000000E+00  0.0000000E+00  0.2915452E-02
    1      -15.807147   1.000000
    2      -15.807146   1.000000
    3        3.750622   0.000000
    4        3.750623   0.000000
    5       20.703958   0.000000
    6       20.703958   0.000000
    7       20.704580   0.000000
    8       20.704580   0.000000
    9       20.704582   0.000000
   10       20.704582   0.000000
   11       24.010791   0.000000
   12       24.010791   0.000000
   13       24.010793   0.000000
   14       24.010793   0.000000
   15       24.010865   0.000000
   16       24.010865   0.000000
   17       25.250539   0.000000
   18       25.250540   0.000000
   19       31.785963   0.000000
   20       31.785973   0.000000
   21       32.502978   0.000000
   22       32.502978   0.000000
   23       32.503167   0.000000
   24       32.503167   0.000000
   25       32.503171   0.000000
   26       32.503171   0.000000
   27       32.562992   0.000000
   28       32.562992   0.000000
   29       32.562992   0.000000
   30       32.562992   0.000000
   31       56.850382   0.000000
   32       56.850384   0.000000
   33       66.658790   0.000000
   34       66.658791   0.000000
   35       66.660039   0.000000
   36       66.660040   0.000000
   37       66.660045   0.000000
   38       66.660045   0.000000
   39       69.352199   0.000000
   40       69.352199   0.000000
   41       69.352204   0.000000
   42       69.352204   0.000000
   43       69.353323   0.000000
   44       69.353323   0.000000
   45       69.752922   0.000000
   46       69.752922   0.000000
   47       69.752922   0.000000
   48       69.752922   0.000000
   49       69.752931   0.000000
   50       69.752931   0.000000
   51       69.788578   0.000000
   52       69.788578   0.000000
   53       69.788578   0.000000
   54       69.788578   0.000000
   55       86.221098   0.000000
   56       86.221110   0.000000
   57       92.283489   0.000000
   58       92.283490   0.000000
   59       92.285124   0.000000
   60       92.285125   0.000000
   61       92.285140   0.000000
   62       92.285142   0.000000
   63       95.648642   0.000000
   64       95.648642   0.000000
   65       95.648643   0.000000
   66       95.648643   0.000000
   67       97.280101   0.000000
   68       97.280101   0.000000
   69       97.280104   0.000000
   70       97.280104   0.000000
   71       97.282985   0.000000
   72       97.282985   0.000000
   73       97.309821   0.000000
   74       97.309822   0.000000
   75       97.309837   0.000000
   76       97.309838   0.000000
   77       97.309843   0.000000
   78       97.309844   0.000000
   79       97.667312   0.000000
   80       97.667312   0.000000
   81       97.667312   0.000000
   82       97.667312   0.000000
   83       97.667314   0.000000
   84       97.667314   0.000000
   85       97.811996   0.000000
   86       97.811996   0.000000
   87       97.811996   0.000000
   88       97.811996   0.000000
   89       97.812006   0.000000
   90       97.812007   0.000000
   91       98.501190   0.000000
   92       98.501191   0.000000
   93       98.985919   0.000000
   94       98.985919   0.000000
   95       98.985938   0.000000
   96       98.985938   0.000000
   97       98.985938   0.000000
   98       98.985939   0.000000
   99       99.047195   0.000000
  100       99.047195   0.000000
  101       99.047195   0.000000
  102       99.047195   0.000000
  103      106.717669   0.000000
  104      106.717678   0.000000
  105      106.751562   0.000000
  106      106.751562   0.000000
  107      106.751716   0.000000
  108      106.751716   0.000000
  109      106.751724   0.000000
  110      106.751725   0.000000
  111      107.202398   0.000000
  112      107.202398   0.000000
  113      107.202405   0.000000
  114      107.202405   0.000000
  115      107.203564   0.000000
  116      107.203564   0.000000
  117      107.363158   0.000000
  118      107.363158   0.000000
  119      141.482682   0.000000
  120      141.482685   0.000000
  121      142.947448   0.000000
  122      142.947448   0.000000
  123      142.948032   0.000000
  124      142.948032   0.000000
  125      142.948047   0.000000
  126      142.948047   0.000000
  127      144.641169   0.000000
  128      144.641169   0.000000
 
  0.1428571E+00  0.1387779E-16  0.6938894E-17  0.2915452E-02
    1      -15.634146   1.000000
    2      -15.634145   1.000000
    3        3.630862   0.000000
    4        3.630863   0.000000
    5       16.929249   0.000000
    6       16.929249   0.000000
    7       19.750619   0.000000
    8       19.750619   0.000000
    9       19.750941   0.000000
   10       19.750942   0.000000
   11       24.050905   0.000000
   12       24.050906   0.000000
   13       25.595500   0.000000
   14       25.595500   0.000000
   15       25.595552   0.000000
   16       25.595552   0.000000
   17       28.023665   0.000000
   18       28.023670   0.000000
   19       28.429173   0.000000
   20       28.429174   0.000000
   21       28.429212   0.000000
   22       28.429212   0.000000
   23       31.105413   0.000000
   24       31.105414   0.000000
   25       37.829983   0.000000
   26       37.829987   0.000000
   27       38.268862   0.000000
   28       38.268862   0.000000
   29       38.268953   0.000000
   30       38.268953   0.000000
   31       53.023439   0.000000
   32       53.023441   0.000000
   33       59.137466   0.000000
   34       59.137466   0.000000
   35       59.137737   0.000000
   36       59.137737   0.000000
   37       64.045742   0.000000
   38       64.045742   0.000000
   39       67.968133   0.000000
   40       67.968133   0.000000
   41       67.968775   0.000000
   42       67.968775   0.000000
   43       70.130026   0.000000
   44       70.130026   0.000000
   45       70.131175   0.000000
   46       70.131175   0.000000
   47       70.314005   0.000000
   48       70.314006   0.000000
   49       76.933204   0.000000
   50       76.933205   0.000000
   51       80.149210   0.000000
   52       80.149216   0.000000
   53       80.487091   0.000000
   54       80.487091   0.000000
   55       80.487380   0.000000
   56       80.487380   0.000000
   57       84.200530   0.000000
   58       84.200530   0.000000
   59       84.201132   0.000000
   60       84.201132   0.000000
   61       87.905583   0.000000
   62       87.905586   0.000000
   63       88.728319   0.000000
   64       88.728319   0.000000
   65       88.728889   0.000000
   66       88.728889   0.000000
   67       90.275615   0.000000
   68       90.275615   0.000000
   69       90.276731   0.000000
   70       90.276731   0.000000
   71       90.361295   0.000000
   72       90.361296   0.000000
   73       91.838181   0.000000
   74       91.838183   0.000000
   75       94.761223   0.000000
   76       94.761225   0.000000
   77       95.152321   0.000000
   78       95.152321   0.000000
   79       95.152664   0.000000
   80       95.152664   0.000000
   81       97.569390   0.000000
   82       97.569391   0.000000
   83       98.874143   0.000000
   84       98.874143   0.000000
   85       98.875262   0.000000
   86       98.875262   0.000000
   87      102.614440   0.000000
   88      102.614445   0.000000
   89      102.772437   0.000000
   90      102.772437   0.000000
   91      102.772644   0.000000
   92      102.772644   0.000000
   93      103.588979   0.000000
   94      103.588980   0.000000
   95      105.079291   0.000000
   96      105.079291   0.000000
   97      105.080206   0.000000
   98      105.080206   0.000000
   99      106.169129   0.000000
  100      106.169129   0.000000
  101      106.170002   0.000000
  102      106.170002   0.000000
  103      106.262856   0.000000
  104      106.262856   0.000000
  105      110.389618   0.000000
  106      110.389618   0.000000
  107      111.683287   0.000000
  108      111.683287   0.000000
  109      111.683465   0.000000
  110      111.683465   0.000000
  111      112.917999   0.000000
  112      112.917999   0.000000
  113      112.918406   0.000000
  114      112.918407   0.000000
  115      113.005742   0.000000
  116      113.005746   0.000000
  117      123.359689   0.000000
  118      123.359690   0.000000
  119      132.232513   0.000000
  120      132.232515   0.000000
  121      133.654077   0.000000
  122      133.654077   0.000000
  123      133.654233   0.000000
  124      133.654233   0.000000
  125      148.465538   0.000000
  126      148.465539   0.000000
  127      153.253809   0.000000
  128      153.253809   0.000000
 
  0.2857143E+00  0.5551115E-16  0.2775558E-16  0.2915452E-02
    1      -15.263890   1.000000
    2      -15.263890   1.000000
    3        3.330828   0.000000
    4        3.330830   0.000000
    5       12.724490   0.000000
    6       12.724490   0.000000
    7       18.818678   0.000000
    8       18.818678   0.000000
    9       18.818986   0.000000
   10       18.818986   0.000000
   11       24.108070   0.000000
   12       24.108070   0.000000
   13       24.108080   0.000000
   14       24.108080   0.000000
   15       24.338130   0.000000
   16       24.338133   0.000000
   17       27.624303   0.000000
   18       27.624304   0.000000
   19       30.696898   0.000000
   20       30.696898   0.000000
   21       30.697001   0.000000
   22       30.697001   0.000000
   23       38.903786   0.000000
   24       38.903787   0.000000
   25       44.428865   0.000000
   26       44.428869   0.000000
   27       45.192364   0.000000
   28       45.192364   0.000000
   29       45.192484   0.000000
   30       45.192484   0.000000
   31       46.747495   0.000000
   32       46.747496   0.000000
   33       50.312674   0.000000
   34       50.312674   0.000000
   35       50.312881   0.000000
   36       50.312881   0.000000
   37       63.098399   0.000000
   38       63.098399   0.000000
   39       69.258914   0.000000
   40       69.258914   0.000000
   41       69.259677   0.000000
   42       69.259677   0.000000
   43       71.008931   0.000000
   44       71.008935   0.000000
   45       71.792007   0.000000
   46       71.792007   0.000000
   47       71.793269   0.000000
   48       71.793269   0.000000
   49       71.986084   0.000000
   50       71.986085   0.000000
   51       73.137654   0.000000
   52       73.137654   0.000000
   53       73.137917   0.000000
   54       73.137917   0.000000
   55       77.988046   0.000000
   56       77.988048   0.000000
   57       81.261751   0.000000
   58       81.261755   0.000000
   59       82.667489   0.000000
   60       82.667489   0.000000
   61       82.668074   0.000000
   62       82.668074   0.000000
   63       84.050480   0.000000
   64       84.050480   0.000000
   65       84.051391   0.000000
   66       84.051391   0.000000
   67       84.143061   0.000000
   68       84.143062   0.000000
   69       88.627185   0.000000
   70       88.627186   0.000000
   71       92.717287   0.000000
   72       92.717287   0.000000
   73       92.717750   0.000000
   74       92.717750   0.000000
   75       94.157699   0.000000
   76       94.157699   0.000000
   77       94.158049   0.000000
   78       94.158049   0.000000
   79       94.185835   0.000000
   80       94.185836   0.000000
   81       97.659255   0.000000
   82       97.659257   0.000000
   83       97.816508   0.000000
   84       97.816508   0.000000
   85       97.817672   0.000000
   86       97.817672   0.000000
   87      104.037909   0.000000
   88      104.037914   0.000000
   89      104.754332   0.000000
   90      104.754332   0.000000
   91      104.754344   0.000000
   92      104.754345   0.000000
   93      111.819179   0.000000
   94      111.819180   0.000000
   95      114.329505   0.000000
   96      114.329505   0.000000
   97      114.330662   0.000000
   98      114.330662   0.000000
   99      115.844398   0.000000
  100      115.844398   0.000000
  101      115.845367   0.000000
  102      115.845367   0.000000
  103      115.926068   0.000000
  104      115.926069   0.000000
  105      120.180601   0.000000
  106      120.180601   0.000000
  107      120.180985   0.000000
  108      120.180985   0.000000
  109      120.276986   0.000000
  110      120.276990   0.000000
  111      123.175181   0.000000
  112      123.175182   0.000000
  113      124.687280   0.000000
  114      124.687280   0.000000
  115      124.687390   0.000000
  116      124.687390   0.000000
  117      124.923667   0.000000
  118      124.923669   0.000000
  119      126.581929   0.000000
  120      126.581929   0.000000
  121      126.582224   0.000000
  122      126.582224   0.000000
  123      133.152146   0.000000
  124      133.152148   0.000000
  125      136.773737   0.000000
  126      136.773737   0.000000
  127      136.774512   0.000000
  128      136.774512   0.000000
 
  0.4285714E+00  0.2775558E-16  0.0000000E+00  0.2915452E-02
    1      -14.919013   1.000000
    2      -14.919012   1.000000
    3        3.135105   0.000000
    4        3.135106   0.000000
    5       10.405520   0.000000
    6       10.405520   0.000000
    7       18.540362   0.000000
    8       18.540362   0.000000
    9       18.540705   0.000000
   10       18.540705   0.000000
   11       22.290924   0.000000
   12       22.290924   0.000000
   13       22.290971   0.000000
   14       22.290971   0.000000
   15       23.177362   0.000000
   16       23.177366   0.000000
   17       31.277657   0.000000
   18       31.277657   0.000000
   19       36.004336   0.000000
   20       36.004336   0.000000
   21       36.004475   0.000000
   22       36.004475   0.000000
   23       38.787487   0.000000
   24       38.787489   0.000000
   25       42.576028   0.000000
   26       42.576028   0.000000
   27       42.576186   0.000000
   28       42.576186   0.000000
   29       48.120300   0.000000
   30       48.120300   0.000000
   31       53.282654   0.000000
   32       53.282654   0.000000
   33       53.282827   0.000000
   34       53.282827   0.000000
   35       54.394332   0.000000
   36       54.394334   0.000000
   37       57.566677   0.000000
   38       57.566680   0.000000
   39       62.480127   0.000000
   40       62.480127   0.000000
   41       62.480367   0.000000
   42       62.480367   0.000000
   43       65.460594   0.000000
   44       65.460596   0.000000
   45       68.128376   0.000000
   46       68.128377   0.000000
   47       71.650908   0.000000
   48       71.650909   0.000000
   49       71.651722   0.000000
   50       71.651722   0.000000
   51       74.409200   0.000000
   52       74.409200   0.000000
   53       74.410803   0.000000
   54       74.410804   0.000000
   55       74.650657   0.000000
   56       74.650657   0.000000
   57       77.862304   0.000000
   58       77.862310   0.000000
   59       78.408766   0.000000
   60       78.408766   0.000000
   61       78.409195   0.000000
   62       78.409195   0.000000
   63       79.157187   0.000000
   64       79.157187   0.000000
   65       79.157687   0.000000
   66       79.157687   0.000000
   67       79.206572   0.000000
   68       79.206572   0.000000
   69       92.816850   0.000000
   70       92.816850   0.000000
   71       94.042622   0.000000
   72       94.042622   0.000000
   73       94.042722   0.000000
   74       94.042722   0.000000
   75       95.584856   0.000000
   76       95.584856   0.000000
   77       95.586168   0.000000
   78       95.586168   0.000000
   79       95.595389   0.000000
   80       95.595392   0.000000
   81      102.233945   0.000000
   82      102.233945   0.000000
   83      106.316460   0.000000
   84      106.316460   0.000000
   85      106.317087   0.000000
   86      106.317087   0.000000
   87      109.691105   0.000000
   88      109.691108   0.000000
   89      110.117019   0.000000
   90      110.117019   0.000000
   91      110.117289   0.000000
   92      110.117289   0.000000
   93      114.151165   0.000000
   94      114.151166   0.000000
   95      116.778515   0.000000
   96      116.778516   0.000000
   97      116.778745   0.000000
   98      116.778745   0.000000
   99      119.096378   0.000000
  100      119.096381   0.000000
  101      120.962306   0.000000
  102      120.962306   0.000000
  103      120.962645   0.000000
  104      120.962645   0.000000
  105      122.114239   0.000000
  106      122.114241   0.000000
  107      124.794188   0.000000
  108      124.794188   0.000000
  109      124.795817   0.000000
  110      124.795817   0.000000
  111      126.647283   0.000000
  112      126.647283   0.000000
  113      126.648251   0.000000
  114      126.648251   0.000000
  115      126.728252   0.000000
  116      126.728252   0.000000
  117      128.932779   0.000000
  118      128.932779   0.000000
  119      128.932962   0.000000
  120      128.932962   0.000000
  121      129.116911   0.000000
  122      129.116915   0.000000
  123      133.176866   0.000000
  124      133.176866   0.000000
  125      135.839489   0.000000
  126      135.839489   0.000000
  127      135.840721   0.000000
  128      135.840721   0.000000
 
 -0.4285714E+00 -0.2775558E-16  0.0000000E+00  0.2915452E-02
    1      -14.919013   1.000000
    2      -14.919012   1.000000
    3        3.135105   0.000000
    4        3.135106   0.000000
    5       10.405520   0.000000
    6       10.405520   0.000000
    7       18.540362   0.000000
    8       18.540362   0.000000
    9       18.540705   0.000000
   10       18.540705   0.000000
   11       22.290924   0.000000
   12       22.290924   0.000000
   13       22.290971   0.000000
   14       22.290971   0.000000
   15       23.177362   0.000000
   16       23.177366   0.000000
   17       31.277657   0.000000
   18       31.277657   0.000000
   19       36.004336   0.000000
   20       36.004336   0.000000
   21       36.004475   0.000000
   22       36.004475   0.000000
   23       38.787487   0.000000
   24       38.787489   0.000000
   25       42.576028   0.000000
   26       42.576028   0.000000
   27       42.576186   0.000000
   28       42.576186   0.000000
   29       48.120300   0.000000
   30       48.120300   0.000000
   31       53.282654   0.000000
   32       53.282654   0.000000
   33       53.282827   0.000000
   34       53.282827   0.000000
   35       54.394332   0.000000
   36       54.394334   0.000000
   37       57.566677   0.000000
   38       57.566680   0.000000
   39       62.480127   0.000000
   40       62.480127   0.000000
   41       62.480367   0.000000
   42       62.480367   0.000000
   43       65.460594   0.000000
   44       65.460596   0.000000
   45       68.128376   0.000000
   46       68.128377   0.000000
   47       71.650908   0.000000
   48       71.650909   0.000000
   49       71.651722   0.000000
   50       71.651722   0.000000
   51       74.409200   0.000000
   52       74.409200   0.000000
   53       74.410803   0.000000
   54       74.410804   0.000000
   55       74.650657   0.000000
   56       74.650657   0.000000
   57       77.862304   0.000000
   58       77.862310   0.000000
   59       78.408766   0.000000
   60       78.408766   0.000000
   61       78.409195   0.000000
   62       78.409195   0.000000
   63       79.157187   0.000000
   64       79.157187   0.000000
   65       79.157687   0.000000
   66       79.157687   0.000000
   67       79.206572   0.000000
   68       79.206572   0.000000
   69       92.816850   0.000000
   70       92.816850   0.000000
   71       94.042622   0.000000
   72       94.042622   0.000000
   73       94.042722   0.000000
   74       94.042722   0.000000
   75       95.584856   0.000000
   76       95.584856   0.000000
   77       95.586168   0.000000
   78       95.586168   0.000000
   79       95.595389   0.000000
   80       95.595392   0.000000
   81      102.233945   0.000000
   82      102.233945   0.000000
   83      106.316460   0.000000
   84      106.316460   0.000000
   85      106.317087   0.000000
   86      106.317087   0.000000
   87      109.691105   0.000000
   88      109.691108   0.000000
   89      110.117019   0.000000
   90      110.117019   0.000000
   91      110.117289   0.000000
   92      110.117289   0.000000
   93      114.151165   0.000000
   94      114.151166   0.000000
   95      116.778515   0.000000
   96      116.778516   0.000000
   97      116.778745   0.000000
   98      116.778745   0.000000
   99      119.096378   0.000000
  100      119.096381   0.000000
  101      120.962306   0.000000
  102      120.962306   0.000000
  103      120.962645   0.000000
  104      120.962645   0.000000
  105      122.114239   0.000000
  106      122.114241   0.000000
  107      124.794188   0.000000
  108      124.794188   0.000000
  109      124.795817   0.000000
  110      124.795817   0.000000
  111      126.647283   0.000000
  112      126.647283   0.000000
  113      126.648251   0.000000
  114      126.648251   0.000000
  115      126.728252   0.000000
  116      126.728252   0.000000
  117      128.932779   0.000000
  118      128.932779   0.000000
  119      128.932962   0.000000
  120      128.932962   0.000000
  121      129.116911   0.000000
  122      129.116915   0.000000
  123      133.176866   0.000000
  124      133.176866   0.000000
  125      135.839489   0.000000
  126      135.839489   0.000000
  127      135.840721   0.000000
  128      135.840721   0.000000
 
 -0.2857143E+00 -0.5551115E-16 -0.2775558E-16  0.2915452E-02
    1      -15.263890   1.000000
    2      -15.263890   1.000000
    3        3.330828   0.000000
    4        3.330830   0.000000
    5       12.724490   0.000000
    6       12.724490   0.000000
    7       18.818678   0.000000
    8       18.818678   0.000000
    9       18.818986   0.000000
   10       18.818986   0.000000
   11       24.108070   0.000000
   12       24.108070   0.000000
   13       24.108080   0.000000
   14       24.108080   0.000000
   15       24.338130   0.000000
   16       24.338133   0.000000
   17       27.624303   0.000000
   18       27.624304   0.000000
   19       30.696898   0.000000
   20       30.696898   0.000000
   21       30.697001   0.000000
   22       30.697001   0.000000
   23       38.903786   0.000000
   24       38.903787   0.000000
   25       44.428865   0.000000
   26       44.428869   0.000000
   27       45.192364   0.000000
   28       45.192364   0.000000
   29       45.192484   0.000000
   30       45.192484   0.000000
   31       46.747495   0.000000
   32       46.747496   0.000000
   33       50.312674   0.000000
   34       50.312674   0.000000
   35       50.312881   0.000000
   36       50.312881   0.000000
   37       63.098399   0.000000
   38       63.098399   0.000000
   39       69.258914   0.000000
   40       69.258914   0.000000
   41       69.259677   0.000000
   42       69.259677   0.000000
   43       71.008931   0.000000
   44       71.008935   0.000000
   45       71.792007   0.000000
   46       71.792007   0.000000
   47       71.793269   0.000000
   48       71.793269   0.000000
   49       71.986084   0.000000
   50       71.986085   0.000000
   51       73.137654   0.000000
   52       73.137654   0.000000
   53       73.137917   0.000000
   54       73.137917   0.000000
   55       77.988046   0.000000
   56       77.988048   0.000000
   57       81.261751   0.000000
   58       81.261755   0.000000
   59       82.667489   0.000000
   60       82.667489   0.000000
   61       82.668074   0.000000
   62       82.668074   0.000000
   63       84.050480   0.000000
   64       84.050480   0.000000
   65       84.051391   0.000000
   66       84.051391   0.000000
   67       84.143061   0.000000
   68       84.143062   0.000000
   69       88.627185   0.000000
   70       88.627186   0.000000
   71       92.717287   0.000000
   72       92.717287   0.000000
   73       92.717750   0.000000
   74       92.717750   0.000000
   75       94.157699   0.000000
   76       94.157699   0.000000
   77       94.158049   0.000000
   78       94.158049   0.000000
   79       94.185835   0.000000
   80       94.185836   0.000000
   81       97.659255   0.000000
   82       97.659257   0.000000
   83       97.816508   0.000000
   84       97.816508   0.000000
   85       97.817672   0.000000
   86       97.817672   0.000000
   87      104.037909   0.000000
   88      104.037914   0.000000
   89      104.754332   0.000000
   90      104.754332   0.000000
   91      104.754344   0.000000
   92      104.754345   0.000000
   93      111.819179   0.000000
   94      111.819180   0.000000
   95      114.329505   0.000000
   96      114.329505   0.000000
   97      114.330662   0.000000
   98      114.330662   0.000000
   99      115.844398   0.000000
  100      115.844398   0.000000
  101      115.845367   0.000000
  102      115.845367   0.000000
  103      115.926068   0.000000
  104      115.926069   0.000000
  105      120.180601   0.000000
  106      120.180601   0.000000
  107      120.180985   0.000000
  108      120.180985   0.000000
  109      120.276986   0.000000
  110      120.276990   0.000000
  111      123.175181   0.000000
  112      123.175182   0.000000
  113      124.687280   0.000000
  114      124.687280   0.000000
  115      124.687390   0.000000
  116      124.687390   0.000000
  117      124.923667   0.000000
  118      124.923669   0.000000
  119      126.581929   0.000000
  120      126.581929   0.000000
  121      126.582224   0.000000
  122      126.582224   0.000000
  123      133.152146   0.000000
  124      133.152148   0.000000
  125      136.773737   0.000000
  126      136.773737   0.000000
  127      136.774512   0.000000
  128      136.774512   0.000000
 
 -0.1428571E+00 -0.1387779E-16 -0.6938894E-17  0.2915452E-02
    1      -15.634146   1.000000
    2      -15.634145   1.000000
    3        3.630862   0.000000
    4        3.630863   0.000000
    5       16.929249   0.000000
    6       16.929249   0.000000
    7       19.750619   0.000000
    8       19.750619   0.000000
    9       19.750941   0.000000
   10       19.750942   0.000000
   11       24.050905   0.000000
   12       24.050906   0.000000
   13       25.595500   0.000000
   14       25.595500   0.000000
   15       25.595552   0.000000
   16       25.595552   0.000000
   17       28.023665   0.000000
   18       28.023670   0.000000
   19       28.429173   0.000000
   20       28.429174   0.000000
   21       28.429212   0.000000
   22       28.429212   0.000000
   23       31.105413   0.000000
   24       31.105414   0.000000
   25       37.829983   0.000000
   26       37.829987   0.000000
   27       38.268862   0.000000
   28       38.268862   0.000000
   29       38.268953   0.000000
   30       38.268953   0.000000
   31       53.023439   0.000000
   32       53.023441   0.000000
   33       59.137466   0.000000
   34       59.137466   0.000000
   35       59.137737   0.000000
   36       59.137737   0.000000
   37       64.045742   0.000000
   38       64.045742   0.000000
   39       67.968133   0.000000
   40       67.968133   0.000000
   41       67.968775   0.000000
   42       67.968775   0.000000
   43       70.130026   0.000000
   44       70.130026   0.000000
   45       70.131175   0.000000
   46       70.131175   0.000000
   47       70.314005   0.000000
   48       70.314006   0.000000
   49       76.933204   0.000000
   50       76.933205   0.000000
   51       80.149210   0.000000
   52       80.149216   0.000000
   53       80.487091   0.000000
   54       80.487091   0.000000
   55       80.487380   0.000000
   56       80.487380   0.000000
   57       84.200530   0.000000
   58       84.200530   0.000000
   59       84.201132   0.000000
   60       84.201132   0.000000
   61       87.905583   0.000000
   62       87.905586   0.000000
   63       88.728319   0.000000
   64       88.728319   0.000000
   65       88.728889   0.000000
   66       88.728889   0.000000
   67       90.275615   0.000000
   68       90.275615   0.000000
   69       90.276731   0.000000
   70       90.276731   0.000000
   71       90.361295   0.000000
   72       90.361296   0.000000
   73       91.838181   0.000000
   74       91.838183   0.000000
   75       94.761223   0.000000
   76       94.761225   0.000000
   77       95.152321   0.000000
   78       95.152321   0.000000
   79       95.152664   0.000000
   80       95.152664   0.000000
   81       97.569390   0.000000
   82       97.569391   0.000000
   83       98.874143   0.000000
   84       98.874143   0.000000
   85       98.875262   0.000000
   86       98.875262   0.000000
   87      102.614440   0.000000
   88      102.614445   0.000000
   89      102.772437   0.000000
   90      102.772437   0.000000
   91      102.772644   0.000000
   92      102.772644   0.000000
   93      103.588979   0.000000
   94      103.588980   0.000000
   95      105.079291   0.000000
   96      105.079291   0.000000
   97      105.080206   0.000000
   98      105.080206   0.000000
   99      106.169129   0.000000
  100      106.169129   0.000000
  101      106.170002   0.000000
  102      106.170002   0.000000
  103      106.262856   0.000000
  104      106.262856   0.000000
  105      110.389618   0.000000
  106      110.389618   0.000000
  107      111.683287   0.000000
  108      111.683287   0.000000
  109      111.683465   0.000000
  110      111.683465   0.000000
  111      112.917999   0.000000
  112      112.917999   0.000000
  113      112.918406   0.000000
  114      112.918407   0.000000
  115      113.005742   0.000000
  116      113.005746   0.000000
  117      123.359689   0.000000
  118      123.359690   0.000000
  119      132.232513   0.000000
  120      132.232515   0.000000
  121      133.654077   0.000000