   1   1   0   0
  0.5789729E+02  0.4342346E-09  0.4342346E-09  0.4342346E-09  0.1000000E-15
  1.000000000000000E-004
  CAR 
 Og_FCC                                  
     97.80738139    -36.58584838  301      3.96099059      1.00000000
    -36.586  0.0000E+00  0.0000E+00
    -36.138  0.0000E+00  0.0000E+00
    -35.690  0.0000E+00  0.0000E+00
    -35.242  0.0000E+00  0.0000E+00
    -34.794  0.0000E+00  0.0000E+00
    -34.346  0.0000E+00  0.0000E+00
    -33.898  0.0000E+00  0.0000E+00
    -33.450  0.0000E+00  0.0000E+00
    -33.002  0.0000E+00  0.0000E+00
    -32.554  0.0000E+00  0.0000E+00
    -32.106  0.0000E+00  0.0000E+00
    -31.658  0.0000E+00  0.0000E+00
    -31.210  0.0000E+00  0.0000E+00
    -30.762  0.0000E+00  0.0000E+00
    -30.314  0.0000E+00  0.4000E+01
    -29.866  0.0000E+00  0.4000E+01
    -29.418  0.0000E+00  0.4000E+01
    -28.970  0.0000E+00  0.4000E+01
    -28.522  0.0000E+00  0.4000E+01
    -28.074  0.0000E+00  0.4000E+01
    -27.626  0.0000E+00  0.4000E+01
    -27.178  0.0000E+00  0.4000E+01
    -26.730  0.0000E+00  0.4000E+01
    -26.282  0.0000E+00  0.4000E+01
    -25.834  0.0000E+00  0.4000E+01
    -25.386  0.0000E+00  0.4000E+01
    -24.938  0.0000E+00  0.4000E+01
    -24.490  0.0000E+00  0.4000E+01
    -24.042  0.0000E+00  0.4000E+01
    -23.595  0.0000E+00  0.1000E+02
    -23.147  0.0000E+00  0.1000E+02
    -22.699  0.0000E+00  0.1000E+02
    -22.251  0.0000E+00  0.1000E+02
    -21.803  0.0000E+00  0.1000E+02
    -21.355  0.0000E+00  0.1000E+02
    -20.907  0.0000E+00  0.1000E+02
    -20.459  0.0000E+00  0.1000E+02
    -20.011  0.0000E+00  0.1200E+02
    -19.563  0.0000E+00  0.1200E+02
    -19.115  0.0000E+00  0.1200E+02
    -18.667  0.0000E+00  0.1200E+02
    -18.219  0.0000E+00  0.1200E+02
    -17.771  0.0000E+00  0.1200E+02
    -17.323  0.0000E+00  0.1200E+02
    -16.875  0.0000E+00  0.1200E+02
    -16.427  0.0000E+00  0.1200E+02
    -15.979  0.0000E+00  0.1200E+02
    -15.531  0.0000E+00  0.1200E+02
    -15.083  0.0000E+00  0.1200E+02
    -14.635  0.0000E+00  0.1200E+02
    -14.187  0.0000E+00  0.1200E+02
    -13.739  0.0000E+00  0.1200E+02
    -13.291  0.0000E+00  0.1200E+02
    -12.843  0.0000E+00  0.1200E+02
    -12.395  0.0000E+00  0.1200E+02
    -11.947  0.0000E+00  0.1200E+02
    -11.499  0.0000E+00  0.1200E+02
    -11.051  0.0000E+00  0.1200E+02
    -10.603  0.0000E+00  0.1200E+02
    -10.155  0.0000E+00  0.1200E+02
     -9.707  0.0000E+00  0.1200E+02
     -9.259  0.0000E+00  0.1200E+02
     -8.811  0.0000E+00  0.1200E+02
     -8.363  0.0000E+00  0.1200E+02
     -7.915  0.0000E+00  0.1200E+02
     -7.467  0.0000E+00  0.1200E+02
     -7.019  0.0000E+00  0.1392E+02
     -6.571  0.0000E+00  0.1400E+02
     -6.123  0.0000E+00  0.1400E+02
     -5.675  0.0000E+00  0.1400E+02
     -5.227  0.0000E+00  0.1400E+02
     -4.779  0.0000E+00  0.1400E+02
     -4.331  0.0000E+00  0.1400E+02
     -3.883  0.0000E+00  0.1400E+02
     -3.436  0.0000E+00  0.1400E+02
     -2.988  0.0000E+00  0.1400E+02
     -2.540  0.0000E+00  0.1400E+02
     -2.092  0.0000E+00  0.1400E+02
     -1.644  0.0000E+00  0.1400E+02
     -1.196  0.0000E+00  0.1400E+02
     -0.748  0.0000E+00  0.1400E+02
     -0.300  0.0000E+00  0.1400E+02
      0.148  0.0000E+00  0.1400E+02
      0.596  0.0000E+00  0.1400E+02
      1.044  0.0000E+00  0.1540E+02
      1.492  0.2196E+00  0.1585E+02
      1.940  0.0000E+00  0.1597E+02
      2.388  0.0000E+00  0.1691E+02
      2.836  0.0000E+00  0.1741E+02
      3.284  0.0000E+00  0.1774E+02
      3.732  0.0000E+00  0.1792E+02
      4.180  0.0000E+00  0.1801E+02
      4.628  0.0000E+00  0.1801E+02
      5.076  0.0000E+00  0.1801E+02
      5.524  0.1571E-10  0.1801E+02
      5.972  0.0000E+00  0.1808E+02
      6.420  0.0000E+00  0.1828E+02
      6.868  0.0000E+00  0.1844E+02
      7.316  0.0000E+00  0.1944E+02
      7.764  0.0000E+00  0.1981E+02
      8.212  0.0000E+00  0.2008E+02
      8.660  0.0000E+00  0.2031E+02
      9.108  0.0000E+00  0.2142E+02
      9.556  0.0000E+00  0.2203E+02
     10.004  0.0000E+00  0.2238E+02
     10.452  0.0000E+00  0.2294E+02
     10.900  0.0000E+00  0.2385E+02
     11.348  0.0000E+00  0.2431E+02
     11.796  0.0000E+00  0.2556E+02
     12.244  0.0000E+00  0.2606E+02
     12.692  0.0000E+00  0.2631E+02
     13.140  0.0000E+00  0.2748E+02
     13.588  0.9622E-01  0.2859E+02
     14.036  0.0000E+00  0.2940E+02
     14.484  0.0000E+00  0.3019E+02
     14.932  0.0000E+00  0.3077E+02
     15.380  0.0000E+00  0.3121E+02
     15.828  0.0000E+00  0.3199E+02
     16.275  0.0000E+00  0.3307E+02
     16.723  0.0000E+00  0.3365E+02
     17.171  0.0000E+00  0.3457E+02
     17.619  0.3720E+00  0.3547E+02
     18.067  0.6201E-01  0.3722E+02
     18.515  0.0000E+00  0.3910E+02
     18.963  0.0000E+00  0.4144E+02
     19.411  0.0000E+00  0.4208E+02
     19.859  0.0000E+00  0.4342E+02
     20.307  0.2480E+00  0.4462E+02
     20.755  0.4931E+00  0.4578E+02
     21.203  0.0000E+00  0.4641E+02
     21.651  0.0000E+00  0.4646E+02
     22.099  0.0000E+00  0.4718E+02
     22.547  0.0000E+00  0.4795E+02
     22.995  0.0000E+00  0.4835E+02
     23.443  0.0000E+00  0.4911E+02
     23.891  0.0000E+00  0.5017E+02
     24.339  0.0000E+00  0.5111E+02
     24.787  0.2480E+00  0.5269E+02
     25.235  0.1654E+00  0.5440E+02
     25.683  0.0000E+00  0.5577E+02
     26.131  0.0000E+00  0.5673E+02
     26.579  0.0000E+00  0.5756E+02
     27.027  0.0000E+00  0.5781E+02
     27.475  0.0000E+00  0.5942E+02
     27.923  0.4961E+00  0.6030E+02
     28.371  0.2480E+00  0.6091E+02
     28.819  0.0000E+00  0.6191E+02
     29.267  0.0000E+00  0.6224E+02
     29.715  0.0000E+00  0.6329E+02
     30.163  0.0000E+00  0.6459E+02
     30.611  0.0000E+00  0.6510E+02
     31.059  0.0000E+00  0.6638E+02
     31.507  0.0000E+00  0.6706E+02
     31.955  0.0000E+00  0.6906E+02
     32.403  0.0000E+00  0.6993E+02
     32.851  0.0000E+00  0.7146E+02
     33.299  0.0000E+00  0.7275E+02
     33.747  0.0000E+00  0.7377E+02
     34.195  0.0000E+00  0.7444E+02
     34.643  0.0000E+00  0.7567E+02
     35.091  0.0000E+00  0.7652E+02
     35.539  0.2480E+00  0.7839E+02
     35.986  0.4848E-01  0.7947E+02
     36.434  0.0000E+00  0.8069E+02
     36.882  0.0000E+00  0.8169E+02
     37.330  0.0000E+00  0.8330E+02
     37.778  0.0000E+00  0.8421E+02
     38.226  0.0000E+00  0.8527E+02
     38.674  0.0000E+00  0.8607E+02
     39.122  0.0000E+00  0.8635E+02
     39.570  0.2480E+00  0.8872E+02
     40.018  0.0000E+00  0.8955E+02
     40.466  0.1240E+00  0.9031E+02
     40.914  0.4910E+00  0.9141E+02
     41.362  0.5844E-02  0.9272E+02
     41.810  0.0000E+00  0.9392E+02
     42.258  0.0000E+00  0.9551E+02
     42.706  0.0000E+00  0.9649E+02
     43.154  0.0000E+00  0.9781E+02
     43.602  0.0000E+00  0.9884E+02
     44.050  0.0000E+00  0.1000E+03
     44.498  0.0000E+00  0.1010E+03
     44.946  0.2200E-04  0.1025E+03
     45.394  0.0000E+00  0.1037E+03
     45.842  0.0000E+00  0.1054E+03
     46.290  0.0000E+00  0.1063E+03
     46.738  0.0000E+00  0.1079E+03
     47.186  0.0000E+00  0.1093E+03
     47.634  0.0000E+00  0.1105E+03
     48.082  0.0000E+00  0.1116E+03
     48.530  0.0000E+00  0.1128E+03
     48.978  0.4961E+00  0.1140E+03
     49.426  0.0000E+00  0.1153E+03
     49.874  0.2888E-05  0.1165E+03
     50.322  0.0000E+00  0.1177E+03
     50.770  0.0000E+00  0.1189E+03
     51.218  0.0000E+00  0.1205E+03
     51.666  0.0000E+00  0.1222E+03
     52.114  0.0000E+00  0.1241E+03
     52.562  0.9517E-07  0.1254E+03
     53.010  0.0000E+00  0.1266E+03
     53.458  0.0000E+00  0.1276E+03
     53.906  0.2480E+00  0.1291E+03
     54.354  0.6599E-01  0.1304E+03
     54.802  0.0000E+00  0.1318E+03
     55.250  0.0000E+00  0.1330E+03
     55.698  0.0000E+00  0.1344E+03
     56.145  0.0000E+00  0.1362E+03
     56.593  0.0000E+00  0.1375E+03
     57.041  0.0000E+00  0.1385E+03
     57.489  0.4134E-01  0.1396E+03
     57.937  0.0000E+00  0.1413E+03
     58.385  0.0000E+00  0.1430E+03
     58.833  0.0000E+00  0.1437E+03
     59.281  0.1061E+00  0.1455E+03
     59.729  0.0000E+00  0.1470E+03
     60.177  0.5778E-09  0.1489E+03
     60.625  0.0000E+00  0.1501E+03
     61.073  0.2534E-01  0.1513E+03
     61.521  0.0000E+00  0.1525E+03
     61.969  0.0000E+00  0.1540E+03
     62.417  0.0000E+00  0.1555E+03
     62.865  0.0000E+00  0.1566E+03
     63.313  0.0000E+00  0.1580E+03
     63.761  0.4848E-02  0.1596E+03
     64.209  0.0000E+00  0.1613E+03
     64.657  0.0000E+00  0.1631E+03
     65.105  0.0000E+00  0.1646E+03
     65.553  0.0000E+00  0.1656E+03
     66.001  0.0000E+00  0.1683E+03
     66.449  0.0000E+00  0.1696E+03
     66.897  0.0000E+00  0.1706E+03
     67.345  0.0000E+00  0.1721E+03
     67.793  0.0000E+00  0.1735E+03
     68.241  0.0000E+00  0.1750E+03
     68.689  0.6201E-01  0.1768E+03
     69.137  0.0000E+00  0.1779E+03
     69.585  0.0000E+00  0.1792E+03
     70.033  0.0000E+00  0.1807E+03
     70.481  0.0000E+00  0.1825E+03
     70.929  0.1654E+00  0.1845E+03
     71.377  0.0000E+00  0.1856E+03
     71.825  0.0000E+00  0.1872E+03
     72.273  0.0000E+00  0.1888E+03
     72.721  0.0000E+00  0.1905E+03
     73.169  0.4961E+00  0.1927E+03
     73.617  0.0000E+00  0.1942E+03
     74.065  0.7049E-08  0.1951E+03
     74.513  0.0000E+00  0.1966E+03
     74.961  0.0000E+00  0.1983E+03
     75.409  0.0000E+00  0.1998E+03
     75.856  0.3738E+00  0.2018E+03
     76.304  0.0000E+00  0.2026E+03
     76.752  0.0000E+00  0.2046E+03
     77.200  0.0000E+00  0.2062E+03
     77.648  0.0000E+00  0.2085E+03
     78.096  0.0000E+00  0.2106E+03
     78.544  0.4961E+00  0.2130E+03
     78.992  0.6032E-02  0.2144E+03
     79.440  0.4960E-08  0.2160E+03
     79.888  0.0000E+00  0.2174E+03
     80.336  0.0000E+00  0.2195E+03
     80.784  0.7204E+00  0.2211E+03
     81.232  0.0000E+00  0.2227E+03
     81.680  0.4773E+00  0.2250E+03
     82.128  0.0000E+00  0.2268E+03
     82.576  0.0000E+00  0.2284E+03
     83.024  0.0000E+00  0.2298E+03
     83.472  0.1239E+00  0.2310E+03
     83.920  0.0000E+00  0.2325E+03
     84.368  0.0000E+00  0.2339E+03
     84.816  0.0000E+00  0.2357E+03
     85.264  0.0000E+00  0.2376E+03
     85.712  0.0000E+00  0.2389E+03
     86.160  0.4961E+00  0.2403E+03
     86.608  0.0000E+00  0.2422E+03
     87.056  0.0000E+00  0.2444E+03
     87.504  0.9906E-05  0.2463E+03
     87.952  0.0000E+00  0.2476E+03
     88.400  0.4013E-13  0.2500E+03
     88.848  0.0000E+00  0.2517E+03
     89.296  0.0000E+00  0.2527E+03
     89.744  0.0000E+00  0.2538E+03
     90.192  0.0000E+00  0.2551E+03
     90.640  0.0000E+00  0.2558E+03
     91.088  0.0000E+00  0.2559E+03
     91.536  0.0000E+00  0.2559E+03
     91.984  0.0000E+00  0.2560E+03
     92.432  0.0000E+00  0.2560E+03
     92.880  0.0000E+00  0.2560E+03
     93.328  0.0000E+00  0.2560E+03
     93.776  0.0000E+00  0.2560E+03
     94.224  0.0000E+00  0.2560E+03
     94.672  0.0000E+00  0.2560E+03
     95.120  0.0000E+00  0.2560E+03
     95.567  0.0000E+00  0.2560E+03
     96.015  0.0000E+00  0.2560E+03
     96.463  0.0000E+00  0.2560E+03
     96.911  0.0000E+00  0.2560E+03
     97.359  0.0000E+00  0.2560E+03
     97.807  0.0000E+00  0.2560E+03
