<?xml version="1.0" encoding="ISO-8859-1"?>
<modeling>
 <generator>
  <i name="program" type="string">vasp </i>
  <i name="version" type="string">5.4.4.18Apr17-6-g9f103f2a35  </i>
  <i name="subversion" type="string">(build Nov 03 2018 10:20:46) complex            parallel </i>
  <i name="platform" type="string">LinuxIFC </i>
  <i name="date" type="string">2018 12 07 </i>
  <i name="time" type="string">03:45:32 </i>
 </generator>
 <incar>
  <i type="string" name="SYSTEM">   Og_FCC</i>
  <i type="string" name="PREC">accurate</i>
  <i type="string" name="ALGO">   EXACT</i>
  <i type="logical" name="ADDGRID"> T  </i>
  <i type="logical" name="LSORBIT"> T  </i>
  <i type="int" name="ISPIN">     1</i>
  <i type="int" name="MAXMIX">    50</i>
  <i type="int" name="NELM">    50</i>
  <i type="int" name="NELMDL">    -5</i>
  <i type="int" name="NELMIN">     2</i>
  <i type="int" name="IBRION">    -1</i>
  <i type="int" name="NFREE">     5</i>
  <i name="EDIFF">      0.00000001</i>
  <i name="EDIFFG">      0.00001000</i>
  <i type="int" name="NSW">     1</i>
  <i type="int" name="ISIF">     3</i>
  <i type="int" name="ISYM">     0</i>
  <i name="SYMPREC">      0.00000010</i>
  <i name="ENCUT">    300.00000000</i>
  <i type="int" name="NBANDS">   256</i>
  <i name="POTIM">      0.10000000</i>
  <i type="logical" name="LREAL"> F  </i>
  <i type="int" name="ISMEAR">     0</i>
  <i name="SIGMA">      0.00100000</i>
  <i type="int" name="NWRITE">     2</i>
  <i type="logical" name="LWAVE"> T  </i>
  <i type="logical" name="LCHARG"> F  </i>
  <i type="logical" name="LVTOT"> F  </i>
  <i type="logical" name="LOPTICS"> T  </i>
  <i type="logical" name="GGA_COMPAT"> F  </i>
  <v type="int" name="KPOINT_BSE">    -1     0     0     0</v>
  <i type="int" name="NELM">    50</i>
  <i type="string" name="GGA"> PE</i>
 </incar>
 <structure name="primitive_cell" >
  <crystal>
   <varray name="basis" >
    <v>       4.34234588       0.00000000       0.00000000 </v>
    <v>       2.17117294       3.76058184      -0.00000000 </v>
    <v>       2.17117294       1.25352728       3.54551056 </v>
   </varray>
   <i name="volume">     57.89729060 </i>
   <varray name="rec_basis" >
    <v>       0.23029027      -0.13295815      -0.09401561 </v>
    <v>       0.00000000       0.26591630      -0.09401561 </v>
    <v>      -0.00000000       0.00000000       0.28204683 </v>
   </varray>
  </crystal>
  <varray name="positions" >
   <v>       0.00000000       0.00000000       0.00000000 </v>
  </varray>
 </structure>
 <varray name="primitive_index" >
  <v type="int" >        1 </v>
 </varray>
 <kpoints>
  <generation param="Gamma">
   <v type="int" name="divisions">       6        6        6 </v>
   <v name="usershift">      0.00000000       0.00000000       0.00000000 </v>
   <v name="genvec1">      0.16666667       0.00000000       0.00000000 </v>
   <v name="genvec2">     -0.00000000       0.16666667      -0.00000000 </v>
   <v name="genvec3">      0.00000000      -0.00000000       0.16666667 </v>
   <v name="shift">      0.00000000       0.00000000       0.00000000 </v>
  </generation>
  <varray name="kpointlist" >
   <v>       0.00000000       0.00000000       0.00000000 </v>
   <v>       0.16666667       0.00000000       0.00000000 </v>
   <v>       0.33333333       0.00000000       0.00000000 </v>
   <v>       0.50000000       0.00000000       0.00000000 </v>
   <v>      -0.33333333      -0.00000000       0.00000000 </v>
   <v>      -0.16666667      -0.00000000      -0.00000000 </v>
   <v>      -0.00000000       0.16666667      -0.00000000 </v>
   <v>       0.16666667       0.16666667       0.00000000 </v>
   <v>       0.33333333       0.16666667      -0.00000000 </v>
   <v>       0.50000000       0.16666667       0.00000000 </v>
   <v>      -0.33333333       0.16666667      -0.00000000 </v>
   <v>      -0.16666667       0.16666667      -0.00000000 </v>
   <v>       0.00000000       0.33333333      -0.00000000 </v>
   <v>       0.16666667       0.33333333       0.00000000 </v>
   <v>       0.33333333       0.33333333       0.00000000 </v>
   <v>       0.50000000       0.33333333       0.00000000 </v>
   <v>      -0.33333333       0.33333333      -0.00000000 </v>
   <v>      -0.16666667       0.33333333      -0.00000000 </v>
   <v>       0.00000000       0.50000000      -0.00000000 </v>
   <v>       0.16666667       0.50000000       0.00000000 </v>
   <v>       0.33333333       0.50000000       0.00000000 </v>
   <v>       0.50000000       0.50000000       0.00000000 </v>
   <v>      -0.33333333       0.50000000      -0.00000000 </v>
   <v>      -0.16666667       0.50000000      -0.00000000 </v>
   <v>      -0.00000000      -0.33333333       0.00000000 </v>
   <v>       0.16666667      -0.33333333       0.00000000 </v>
   <v>       0.33333333      -0.33333333       0.00000000 </v>
   <v>       0.50000000      -0.33333333       0.00000000 </v>
   <v>      -0.33333333      -0.33333333      -0.00000000 </v>
   <v>      -0.16666667      -0.33333333       0.00000000 </v>
   <v>       0.00000000      -0.16666667       0.00000000 </v>
   <v>       0.16666667      -0.16666667       0.00000000 </v>
   <v>       0.33333333      -0.16666667       0.00000000 </v>
   <v>       0.50000000      -0.16666667       0.00000000 </v>
   <v>      -0.33333333      -0.16666667       0.00000000 </v>
   <v>      -0.16666667      -0.16666667       0.00000000 </v>
   <v>       0.00000000       0.00000000       0.16666667 </v>
   <v>       0.16666667       0.00000000       0.16666667 </v>
   <v>       0.33333333      -0.00000000       0.16666667 </v>
   <v>       0.50000000      -0.00000000       0.16666667 </v>
   <v>      -0.33333333      -0.00000000       0.16666667 </v>
   <v>      -0.16666667       0.00000000       0.16666667 </v>
   <v>      -0.00000000       0.16666667       0.16666667 </v>
   <v>       0.16666667       0.16666667       0.16666667 </v>
   <v>       0.33333333       0.16666667       0.16666667 </v>
   <v>       0.50000000       0.16666667       0.16666667 </v>
   <v>      -0.33333333       0.16666667       0.16666667 </v>
   <v>      -0.16666667       0.16666667       0.16666667 </v>
   <v>      -0.00000000       0.33333333       0.16666667 </v>
   <v>       0.16666667       0.33333333       0.16666667 </v>
   <v>       0.33333333       0.33333333       0.16666667 </v>
   <v>       0.50000000       0.33333333       0.16666667 </v>
   <v>      -0.33333333       0.33333333       0.16666667 </v>
   <v>      -0.16666667       0.33333333       0.16666667 </v>
   <v>      -0.00000000       0.50000000       0.16666667 </v>
   <v>       0.16666667       0.50000000       0.16666667 </v>
   <v>       0.33333333       0.50000000       0.16666667 </v>
   <v>       0.50000000       0.50000000       0.16666667 </v>
   <v>      -0.33333333       0.50000000       0.16666667 </v>
   <v>      -0.16666667       0.50000000       0.16666667 </v>
   <v>      -0.00000000      -0.33333333       0.16666667 </v>
   <v>       0.16666667      -0.33333333       0.16666667 </v>
   <v>       0.33333333      -0.33333333       0.16666667 </v>
   <v>       0.50000000      -0.33333333       0.16666667 </v>
   <v>      -0.33333333      -0.33333333       0.16666667 </v>
   <v>      -0.16666667      -0.33333333       0.16666667 </v>
   <v>       0.00000000      -0.16666667       0.16666667 </v>
   <v>       0.16666667      -0.16666667       0.16666667 </v>
   <v>       0.33333333      -0.16666667       0.16666667 </v>
   <v>       0.50000000      -0.16666667       0.16666667 </v>
   <v>      -0.33333333      -0.16666667       0.16666667 </v>
   <v>      -0.16666667      -0.16666667       0.16666667 </v>
   <v>       0.00000000       0.00000000       0.33333333 </v>
   <v>       0.16666667       0.00000000       0.33333333 </v>
   <v>       0.33333333       0.00000000       0.33333333 </v>
   <v>       0.50000000      -0.00000000       0.33333333 </v>
   <v>      -0.33333333       0.00000000       0.33333333 </v>
   <v>      -0.16666667       0.00000000       0.33333333 </v>
   <v>      -0.00000000       0.16666667       0.33333333 </v>
   <v>       0.16666667       0.16666667       0.33333333 </v>
   <v>       0.33333333       0.16666667       0.33333333 </v>
   <v>       0.50000000       0.16666667       0.33333333 </v>
   <v>      -0.33333333       0.16666667       0.33333333 </v>
   <v>      -0.16666667       0.16666667       0.33333333 </v>
   <v>      -0.00000000       0.33333333       0.33333333 </v>
   <v>       0.16666667       0.33333333       0.33333333 </v>
   <v>       0.33333333       0.33333333       0.33333333 </v>
   <v>       0.50000000       0.33333333       0.33333333 </v>
   <v>      -0.33333333       0.33333333       0.33333333 </v>
   <v>      -0.16666667       0.33333333       0.33333333 </v>
   <v>       0.00000000       0.50000000       0.33333333 </v>
   <v>       0.16666667       0.50000000       0.33333333 </v>
   <v>       0.33333333       0.50000000       0.33333333 </v>
   <v>       0.50000000       0.50000000       0.33333333 </v>
   <v>      -0.33333333       0.50000000       0.33333333 </v>
   <v>      -0.16666667       0.50000000       0.33333333 </v>
   <v>       0.00000000      -0.33333333       0.33333333 </v>
   <v>       0.16666667      -0.33333333       0.33333333 </v>
   <v>       0.33333333      -0.33333333       0.33333333 </v>
   <v>       0.50000000      -0.33333333       0.33333333 </v>
   <v>      -0.33333333      -0.33333333       0.33333333 </v>
   <v>      -0.16666667      -0.33333333       0.33333333 </v>
   <v>       0.00000000      -0.16666667       0.33333333 </v>
   <v>       0.16666667      -0.16666667       0.33333333 </v>
   <v>       0.33333333      -0.16666667       0.33333333 </v>
   <v>       0.50000000      -0.16666667       0.33333333 </v>
   <v>      -0.33333333      -0.16666667       0.33333333 </v>
   <v>      -0.16666667      -0.16666667       0.33333333 </v>
   <v>       0.00000000       0.00000000       0.50000000 </v>
   <v>       0.16666667       0.00000000       0.50000000 </v>
   <v>       0.33333333       0.00000000       0.50000000 </v>
   <v>       0.50000000      -0.00000000       0.50000000 </v>
   <v>      -0.33333333       0.00000000       0.50000000 </v>
   <v>      -0.16666667       0.00000000       0.50000000 </v>
   <v>      -0.00000000       0.16666667       0.50000000 </v>
   <v>       0.16666667       0.16666667       0.50000000 </v>
   <v>       0.33333333       0.16666667       0.50000000 </v>
   <v>       0.50000000       0.16666667       0.50000000 </v>
   <v>      -0.33333333       0.16666667       0.50000000 </v>
   <v>      -0.16666667       0.16666667       0.50000000 </v>
   <v>       0.00000000       0.33333333       0.50000000 </v>
   <v>       0.16666667       0.33333333       0.50000000 </v>
   <v>       0.33333333       0.33333333       0.50000000 </v>
   <v>       0.50000000       0.33333333       0.50000000 </v>
   <v>      -0.33333333       0.33333333       0.50000000 </v>
   <v>      -0.16666667       0.33333333       0.50000000 </v>
   <v>      -0.00000000       0.50000000       0.50000000 </v>
   <v>       0.16666667       0.50000000       0.50000000 </v>
   <v>       0.33333333       0.50000000       0.50000000 </v>
   <v>       0.50000000       0.50000000       0.50000000 </v>
   <v>      -0.33333333       0.50000000       0.50000000 </v>
   <v>      -0.16666667       0.50000000       0.50000000 </v>
   <v>       0.00000000      -0.33333333       0.50000000 </v>
   <v>       0.16666667      -0.33333333       0.50000000 </v>
   <v>       0.33333333      -0.33333333       0.50000000 </v>
   <v>       0.50000000      -0.33333333       0.50000000 </v>
   <v>      -0.33333333      -0.33333333       0.50000000 </v>
   <v>      -0.16666667      -0.33333333       0.50000000 </v>
   <v>       0.00000000      -0.16666667       0.50000000 </v>
   <v>       0.16666667      -0.16666667       0.50000000 </v>
   <v>       0.33333333      -0.16666667       0.50000000 </v>
   <v>       0.50000000      -0.16666667       0.50000000 </v>
   <v>      -0.33333333      -0.16666667       0.50000000 </v>
   <v>      -0.16666667      -0.16666667       0.50000000 </v>
   <v>       0.00000000       0.00000000      -0.33333333 </v>
   <v>       0.16666667      -0.00000000      -0.33333333 </v>
   <v>       0.33333333      -0.00000000      -0.33333333 </v>
   <v>       0.50000000       0.00000000      -0.33333333 </v>
   <v>      -0.33333333      -0.00000000      -0.33333333 </v>
   <v>      -0.16666667      -0.00000000      -0.33333333 </v>
   <v>      -0.00000000       0.16666667      -0.33333333 </v>
   <v>       0.16666667       0.16666667      -0.33333333 </v>
   <v>       0.33333333       0.16666667      -0.33333333 </v>
   <v>       0.50000000       0.16666667      -0.33333333 </v>
   <v>      -0.33333333       0.16666667      -0.33333333 </v>
   <v>      -0.16666667       0.16666667      -0.33333333 </v>
   <v>       0.00000000       0.33333333      -0.33333333 </v>
   <v>       0.16666667       0.33333333      -0.33333333 </v>
   <v>       0.33333333       0.33333333      -0.33333333 </v>
   <v>       0.50000000       0.33333333      -0.33333333 </v>
   <v>      -0.33333333       0.33333333      -0.33333333 </v>
   <v>      -0.16666667       0.33333333      -0.33333333 </v>
   <v>      -0.00000000       0.50000000      -0.33333333 </v>
   <v>       0.16666667       0.50000000      -0.33333333 </v>
   <v>       0.33333333       0.50000000      -0.33333333 </v>
   <v>       0.50000000       0.50000000      -0.33333333 </v>
   <v>      -0.33333333       0.50000000      -0.33333333 </v>
   <v>      -0.16666667       0.50000000      -0.33333333 </v>
   <v>       0.00000000      -0.33333333      -0.33333333 </v>
   <v>       0.16666667      -0.33333333      -0.33333333 </v>
   <v>       0.33333333      -0.33333333      -0.33333333 </v>
   <v>       0.50000000      -0.33333333      -0.33333333 </v>
   <v>      -0.33333333      -0.33333333      -0.33333333 </v>
   <v>      -0.16666667      -0.33333333      -0.33333333 </v>
   <v>       0.00000000      -0.16666667      -0.33333333 </v>
   <v>       0.16666667      -0.16666667      -0.33333333 </v>
   <v>       0.33333333      -0.16666667      -0.33333333 </v>
   <v>       0.50000000      -0.16666667      -0.33333333 </v>
   <v>      -0.33333333      -0.16666667      -0.33333333 </v>
   <v>      -0.16666667      -0.16666667      -0.33333333 </v>
   <v>      -0.00000000      -0.00000000      -0.16666667 </v>
   <v>       0.16666667      -0.00000000      -0.16666667 </v>
   <v>       0.33333333       0.00000000      -0.16666667 </v>
   <v>       0.50000000       0.00000000      -0.16666667 </v>
   <v>      -0.33333333       0.00000000      -0.16666667 </v>
   <v>      -0.16666667      -0.00000000      -0.16666667 </v>
   <v>      -0.00000000       0.16666667      -0.16666667 </v>
   <v>       0.16666667       0.16666667      -0.16666667 </v>
   <v>       0.33333333       0.16666667      -0.16666667 </v>
   <v>       0.50000000       0.16666667      -0.16666667 </v>
   <v>      -0.33333333       0.16666667      -0.16666667 </v>
   <v>      -0.16666667       0.16666667      -0.16666667 </v>
   <v>       0.00000000       0.33333333      -0.16666667 </v>
   <v>       0.16666667       0.33333333      -0.16666667 </v>
   <v>       0.33333333       0.33333333      -0.16666667 </v>
   <v>       0.50000000       0.33333333      -0.16666667 </v>
   <v>      -0.33333333       0.33333333      -0.16666667 </v>
   <v>      -0.16666667       0.33333333      -0.16666667 </v>
   <v>      -0.00000000       0.50000000      -0.16666667 </v>
   <v>       0.16666667       0.50000000      -0.16666667 </v>
   <v>       0.33333333       0.50000000      -0.16666667 </v>
   <v>       0.50000000       0.50000000      -0.16666667 </v>
   <v>      -0.33333333       0.50000000      -0.16666667 </v>
   <v>      -0.16666667       0.50000000      -0.16666667 </v>
   <v>       0.00000000      -0.33333333      -0.16666667 </v>
   <v>       0.16666667      -0.33333333      -0.16666667 </v>
   <v>       0.33333333      -0.33333333      -0.16666667 </v>
   <v>       0.50000000      -0.33333333      -0.16666667 </v>
   <v>      -0.33333333      -0.33333333      -0.16666667 </v>
   <v>      -0.16666667      -0.33333333      -0.16666667 </v>
   <v>       0.00000000      -0.16666667      -0.16666667 </v>
   <v>       0.16666667      -0.16666667      -0.16666667 </v>
   <v>       0.33333333      -0.16666667      -0.16666667 </v>
   <v>       0.50000000      -0.16666667      -0.16666667 </v>
   <v>      -0.33333333      -0.16666667      -0.16666667 </v>
   <v>      -0.16666667      -0.16666667      -0.16666667 </v>
  </varray>
  <varray name="weights" >
   <v>       0.00462963 </v>
   <v>       0.00462963 </v>
   <v>       0.00462963 </v>
   <v>       0.00462963 </v>
   <v>       0.00462963 </v>
   <v>       0.00462963 </v>
   <v>       0.00462963 </v>
   <v>       0.00462963 </v>
   <v>       0.00462963 </v>
   <v>       0.00462963 </v>
   <v>       0.00462963 </v>
   <v>       0.00462963 </v>
   <v>       0.00462963 </v>
   <v>       0.00462963 </v>
   <v>       0.00462963 </v>
   <v>       0.00462963 </v>
   <v>       0.00462963 </v>
   <v>       0.00462963 </v>
   <v>       0.00462963 </v>
   <v>       0.00462963 </v>
   <v>       0.00462963 </v>
   <v>       0.00462963 </v>
   <v>       0.00462963 </v>
   <v>       0.00462963 </v>
   <v>       0.00462963 </v>
   <v>       0.00462963 </v>
   <v>       0.00462963 </v>
   <v>       0.00462963 </v>
   <v>       0.00462963 </v>
   <v>       0.00462963 </v>
   <v>       0.00462963 </v>
   <v>       0.00462963 </v>
   <v>       0.00462963 </v>
   <v>       0.00462963 </v>
   <v>       0.00462963 </v>
   <v>       0.00462963 </v>
   <v>       0.00462963 </v>
   <v>       0.00462963 </v>
   <v>       0.00462963 </v>
   <v>       0.00462963 </v>
   <v>       0.00462963 </v>
   <v>       0.00462963 </v>
   <v>       0.00462963 </v>
   <v>       0.00462963 </v>
   <v>       0.00462963 </v>
   <v>       0.00462963 </v>
   <v>       0.00462963 </v>
   <v>       0.00462963 </v>
   <v>       0.00462963 </v>
   <v>       0.00462963 </v>
   <v>       0.00462963 </v>
   <v>       0.00462963 </v>
   <v>       0.00462963 </v>
   <v>       0.00462963 </v>
   <v>       0.00462963 </v>
   <v>       0.00462963 </v>
   <v>       0.00462963 </v>
   <v>       0.00462963 </v>
   <v>       0.00462963 </v>
   <v>       0.00462963 </v>
   <v>       0.00462963 </v>
   <v>       0.00462963 </v>
   <v>       0.00462963 </v>
   <v>       0.00462963 </v>
   <v>       0.00462963 </v>
   <v>       0.00462963 </v>
   <v>       0.00462963 </v>
   <v>       0.00462963 </v>
   <v>       0.00462963 </v>
   <v>       0.00462963 </v>
   <v>       0.00462963 </v>
   <v>       0.00462963 </v>
   <v>       0.00462963 </v>
   <v>       0.00462963 </v>
   <v>       0.00462963 </v>
   <v>       0.00462963 </v>
   <v>       0.00462963 </v>
   <v>       0.00462963 </v>
   <v>       0.00462963 </v>
   <v>       0.00462963 </v>
   <v>       0.00462963 </v>
   <v>       0.00462963 </v>
   <v>       0.00462963 </v>
   <v>       0.00462963 </v>
   <v>       0.00462963 </v>
   <v>       0.00462963 </v>
   <v>       0.00462963 </v>
   <v>       0.00462963 </v>
   <v>       0.00462963 </v>
   <v>       0.00462963 </v>
   <v>       0.00462963 </v>
   <v>       0.00462963 </v>
   <v>       0.00462963 </v>
   <v>       0.00462963 </v>
   <v>       0.00462963 </v>
   <v>       0.00462963 </v>
   <v>       0.00462963 </v>
   <v>       0.00462963 </v>
   <v>       0.00462963 </v>
   <v>       0.00462963 </v>
   <v>       0.00462963 </v>
   <v>       0.00462963 </v>
   <v>       0.00462963 </v>
   <v>       0.00462963 </v>
   <v>       0.00462963 </v>
   <v>       0.00462963 </v>
   <v>       0.00462963 </v>
   <v>       0.00462963 </v>
   <v>       0.00462963 </v>
   <v>       0.00462963 </v>
   <v>       0.00462963 </v>
   <v>       0.00462963 </v>
   <v>       0.00462963 </v>
   <v>       0.00462963 </v>
   <v>       0.00462963 </v>
   <v>       0.00462963 </v>
   <v>       0.00462963 </v>
   <v>       0.00462963 </v>
   <v>       0.00462963 </v>
   <v>       0.00462963 </v>
   <v>       0.00462963 </v>
   <v>       0.00462963 </v>
   <v>       0.00462963 </v>
   <v>       0.00462963 </v>
   <v>       0.00462963 </v>
   <v>       0.00462963 </v>
   <v>       0.00462963 </v>
   <v>       0.00462963 </v>
   <v>       0.00462963 </v>
   <v>       0.00462963 </v>
   <v>       0.00462963 </v>
   <v>       0.00462963 </v>
   <v>       0.00462963 </v>
   <v>       0.00462963 </v>
   <v>       0.00462963 </v>
   <v>       0.00462963 </v>
   <v>       0.00462963 </v>
   <v>       0.00462963 </v>
   <v>       0.00462963 </v>
   <v>       0.00462963 </v>
   <v>       0.00462963 </v>
   <v>       0.00462963 </v>
   <v>       0.00462963 </v>
   <v>       0.00462963 </v>
   <v>       0.00462963 </v>
   <v>       0.00462963 </v>
   <v>       0.00462963 </v>
   <v>       0.00462963 </v>
   <v>       0.00462963 </v>
   <v>       0.00462963 </v>
   <v>       0.00462963 </v>
   <v>       0.00462963 </v>
   <v>       0.00462963 </v>
   <v>       0.00462963 </v>
   <v>       0.00462963 </v>
   <v>       0.00462963 </v>
   <v>       0.00462963 </v>
   <v>       0.00462963 </v>
   <v>       0.00462963 </v>
   <v>       0.00462963 </v>
   <v>       0.00462963 </v>
   <v>       0.00462963 </v>
   <v>       0.00462963 </v>
   <v>       0.00462963 </v>
   <v>       0.00462963 </v>
   <v>       0.00462963 </v>
   <v>       0.00462963 </v>
   <v>       0.00462963 </v>
   <v>       0.00462963 </v>
   <v>       0.00462963 </v>
   <v>       0.00462963 </v>
   <v>       0.00462963 </v>
   <v>       0.00462963 </v>
   <v>       0.00462963 </v>
   <v>       0.00462963 </v>
   <v>       0.00462963 </v>
   <v>       0.00462963 </v>
   <v>       0.00462963 </v>
   <v>       0.00462963 </v>
   <v>       0.00462963 </v>
   <v>       0.00462963 </v>
   <v>       0.00462963 </v>
   <v>       0.00462963 </v>
   <v>       0.00462963 </v>
   <v>       0.00462963 </v>
   <v>       0.00462963 </v>
   <v>       0.00462963 </v>
   <v>       0.00462963 </v>
   <v>       0.00462963 </v>
   <v>       0.00462963 </v>
   <v>       0.00462963 </v>
   <v>       0.00462963 </v>
   <v>       0.00462963 </v>
   <v>       0.00462963 </v>
   <v>       0.00462963 </v>
   <v>       0.00462963 </v>
   <v>       0.00462963 </v>
   <v>       0.00462963 </v>
   <v>       0.00462963 </v>
   <v>       0.00462963 </v>
   <v>       0.00462963 </v>
   <v>       0.00462963 </v>
   <v>       0.00462963 </v>
   <v>       0.00462963 </v>
   <v>       0.00462963 </v>
   <v>       0.00462963 </v>
   <v>       0.00462963 </v>
   <v>       0.00462963 </v>
   <v>       0.00462963 </v>
   <v>       0.00462963 </v>
   <v>       0.00462963 </v>
   <v>       0.00462963 </v>
   <v>       0.00462963 </v>
   <v>       0.00462963 </v>
   <v>       0.00462963 </v>
   <v>       0.00462963 </v>
  </varray>
 </kpoints>
 <parameters>
  <separator name="general" >
   <i type="string" name="SYSTEM">Og_FCC</i>
   <i type="logical" name="LCOMPAT"> F  </i>
  </separator>
  <separator name="electronic" >
   <i type="string" name="PREC">accura</i>
   <i name="ENMAX">    300.00000000</i>
   <i name="ENAUG">    361.02500000</i>
   <i name="EDIFF">      0.00000001</i>
   <i type="int" name="IALGO">    90</i>
   <i type="int" name="IWAVPR">    10</i>
   <i type="int" name="NBANDS">   256</i>
   <i name="NELECT">     18.00000000</i>
   <i type="int" name="TURBO">     0</i>
   <i type="int" name="IRESTART">     0</i>
   <i type="int" name="NREBOOT">     0</i>
   <i type="int" name="NMIN">     0</i>
   <i name="EREF">      0.00000000</i>
   <separator name="electronic smearing" >
    <i type="int" name="ISMEAR">     0</i>
    <i name="SIGMA">      0.00100000</i>
    <i name="KSPACING">      0.50000000</i>
    <i type="logical" name="KGAMMA"> T  </i>
   </separator>
   <separator name="electronic projectors" >
    <i type="logical" name="LREAL"> F  </i>
    <v name="ROPT">      0.00000000</v>
    <i type="int" name="LMAXPAW">  -100</i>
    <i type="int" name="LMAXMIX">     2</i>
    <i type="logical" name="NLSPLINE"> F  </i>
   </separator>
   <separator name="electronic startup" >
    <i type="int" name="ISTART">     1</i>
    <i type="int" name="ICHARG">     0</i>
    <i type="int" name="INIWAV">     1</i>
   </separator>
   <separator name="electronic spin" >
    <i type="int" name="ISPIN">     1</i>
    <i type="logical" name="LNONCOLLINEAR"> T  </i>
    <v name="MAGMOM">      1.00000000      1.00000000      1.00000000</v>
    <i name="NUPDOWN">     -1.00000000</i>
    <i type="logical" name="LSORBIT"> T  </i>
    <v name="SAXIS">      0.00000000      0.00000000      1.00000000</v>
    <i type="logical" name="LSPIRAL"> F  </i>
    <v name="QSPIRAL">      0.00000000      0.00000000      0.00000000</v>
    <i type="logical" name="LZEROZ"> F  </i>
   </separator>
   <separator name="electronic exchange-correlation" >
    <i type="logical" name="LASPH"> F  </i>
    <i type="logical" name="LMETAGGA"> F  </i>
   </separator>
   <separator name="electronic convergence" >
    <i type="int" name="NELM">    50</i>
    <i type="int" name="NELMDL">    -5</i>
    <i type="int" name="NELMIN">     2</i>
    <i name="ENINI">    300.00000000</i>
    <separator name="electronic convergence detail" >
     <i type="logical" name="LDIAG"> T  </i>
     <i type="logical" name="LSUBROT"> F  </i>
     <i name="WEIMIN">      0.00000000</i>
     <i name="EBREAK">      0.00000000</i>
     <i name="DEPER">      0.30000000</i>
     <i type="int" name="NRMM">     4</i>
     <i name="TIME">      0.40000000</i>
    </separator>
   </separator>
   <separator name="electronic mixer" >
    <i name="AMIX">      0.40000000</i>
    <i name="BMIX">      1.00000000</i>
    <i name="AMIN">      0.10000000</i>
    <i name="AMIX_MAG">      1.60000000</i>
    <i name="BMIX_MAG">      1.00000000</i>
    <separator name="electronic mixer details" >
     <i type="int" name="IMIX">     4</i>
     <i type="logical" name="MIXFIRST"> F  </i>
     <i type="int" name="MAXMIX">    50</i>
     <i name="WC">    100.00000000</i>
     <i type="int" name="INIMIX">     1</i>
     <i type="int" name="MIXPRE">     1</i>
     <i type="int" name="MREMOVE">     5</i>
    </separator>
   </separator>
   <separator name="electronic dipolcorrection" >
    <i type="logical" name="LDIPOL"> F  </i>
    <i type="logical" name="LMONO"> F  </i>
    <i type="int" name="IDIPOL">     0</i>
    <i name="EPSILON">      1.00000000</i>
    <v name="DIPOL">   -100.00000000   -100.00000000   -100.00000000</v>
    <i name="EFIELD">      0.00000000</i>
   </separator>
  </separator>
  <separator name="grids" >
   <i type="int" name="NGX">    28</i>
   <i type="int" name="NGY">    28</i>
   <i type="int" name="NGZ">    28</i>
   <i type="int" name="NGXF">    56</i>
   <i type="int" name="NGYF">    56</i>
   <i type="int" name="NGZF">    56</i>
   <i type="logical" name="ADDGRID"> T  </i>
  </separator>
  <separator name="ionic" >
   <i type="int" name="NSW">     1</i>
   <i type="int" name="IBRION">    -1</i>
   <i type="int" name="MDALGO">     0</i>
   <i type="int" name="ISIF">     3</i>
   <i name="PSTRESS">      0.00000000</i>
   <i name="EDIFFG">      0.00001000</i>
   <i type="int" name="NFREE">     5</i>
   <i name="POTIM">      0.10000000</i>
   <i name="SMASS">     -3.00000000</i>
   <i name="SCALEE">      1.00000000</i>
  </separator>
  <separator name="ionic md" >
   <i name="TEBEG">      0.00010000</i>
   <i name="TEEND">      0.00010000</i>
   <i type="int" name="NBLOCK">     1</i>
   <i type="int" name="KBLOCK">     1</i>
   <i type="int" name="NPACO">   256</i>
   <i name="APACO">     16.00000000</i>
  </separator>
  <separator name="symmetry" >
   <i type="int" name="ISYM">     0</i>
   <i name="SYMPREC">      0.00000010</i>
  </separator>
  <separator name="dos" >
   <i type="int" name="LORBIT">     0</i>
   <v name="RWIGS">     -1.00000000</v>
   <i type="int" name="NEDOS">   301</i>
   <i name="EMIN">     10.00000000</i>
   <i name="EMAX">    -10.00000000</i>
   <i name="EFERMI">      0.00000000</i>
  </separator>
  <separator name="writing" >
   <i type="int" name="NWRITE">     2</i>
   <i type="logical" name="LWAVE"> T  </i>
   <i type="logical" name="LDOWNSAMPLE"> F  </i>
   <i type="logical" name="LCHARG"> F  </i>
   <i type="logical" name="LPARD"> F  </i>
   <i type="logical" name="LVTOT"> F  </i>
   <i type="logical" name="LVHAR"> F  </i>
   <i type="logical" name="LELF"> F  </i>
   <i type="logical" name="LOPTICS"> T  </i>
   <v name="STM">      0.00000000      0.00000000      0.00000000      0.00000000      0.00000000      0.00000000      0.00000000</v>
  </separator>
  <separator name="performance" >
   <i type="int" name="NPAR">     2</i>
   <i type="int" name="NSIM">     4</i>
   <i type="int" name="NBLK">    -1</i>
   <i type="logical" name="LPLANE"> T  </i>
   <i type="logical" name="LSCALAPACK"> T  </i>
   <i type="logical" name="LSCAAWARE"> T  </i>
   <i type="logical" name="LSCALU"> F  </i>
   <i type="logical" name="LASYNC"> F  </i>
   <i type="logical" name="LORBITALREAL"> F  </i>
  </separator>
  <separator name="miscellaneous" >
   <i type="int" name="IDIOT">     3</i>
   <i type="int" name="ISPECIAL">     0</i>
   <i type="logical" name="LMUSIC"> F  </i>
   <v name="POMASS">      0.01000000</v>
   <v name="DARWINR">      0.00000000</v>
   <v name="DARWINV">      1.00000000</v>
   <i type="logical" name="LCORR"> T  </i>
  </separator>
  <i type="logical" name="GGA_COMPAT"> F  </i>
  <i type="logical" name="LBERRY"> F  </i>
  <i type="int" name="ICORELEVEL">     0</i>
  <i type="logical" name="LDAU"> F  </i>
  <i type="int" name="I_CONSTRAINED_M">     0</i>
  <separator name="electronic exchange-correlation" >
   <i type="string" name="GGA">PE</i>
   <i type="int" name="VOSKOWN">     0</i>
   <i type="logical" name="LHFCALC"> F  </i>
   <i type="string" name="PRECFOCK"></i>
   <i type="logical" name="LSYMGRAD"> F  </i>
   <i type="logical" name="LHFONE"> F  </i>
   <i type="logical" name="LRHFCALC"> F  </i>
   <i type="logical" name="LTHOMAS"> F  </i>
   <i type="logical" name="LMODELHF"> F  </i>
   <i name="ENCUT4O">     -1.00000000</i>
   <i type="int" name="EXXOEP">     0</i>
   <i type="int" name="FOURORBIT">     0</i>
   <i name="AEXX">      0.00000000</i>
   <i name="HFALPHA">      0.00000000</i>
   <i name="MCALPHA">      0.00000000</i>
   <i name="ALDAX">      1.00000000</i>
   <i name="AGGAX">      1.00000000</i>
   <i name="ALDAC">      1.00000000</i>
   <i name="AGGAC">      1.00000000</i>
   <i type="int" name="NKREDX">     1</i>
   <i type="int" name="NKREDY">     1</i>
   <i type="int" name="NKREDZ">     1</i>
   <i type="logical" name="SHIFTRED"> F  </i>
   <i type="logical" name="ODDONLY"> F  </i>
   <i type="logical" name="EVENONLY"> F  </i>
   <i type="int" name="LMAXFOCK">     0</i>
   <i type="int" name="NMAXFOCKAE">     0</i>
   <i type="logical" name="LFOCKAEDFT"> F  </i>
   <i name="HFSCREEN">      0.00000000</i>
   <i name="HFSCREENC">      0.00000000</i>
   <i type="int" name="NBANDSGWLOW">     0</i>
  </separator>
  <separator name="vdW DFT" >
   <i type="logical" name="LUSE_VDW"> F  </i>
   <i name="Zab_VDW">     -0.84910000</i>
   <i name="PARAM1">      0.12340000</i>
   <i name="PARAM2">      1.00000000</i>
   <i name="PARAM3">      0.00000000</i>
  </separator>
  <separator name="model GW" >
   <i type="int" name="MODEL_GW">     0</i>
   <i name="MODEL_EPS0">     34.73837436</i>
   <i name="MODEL_ALPHA">      1.00000000</i>
  </separator>
  <separator name="linear response parameters" >
   <i type="logical" name="LEPSILON"> F  </i>
   <i type="logical" name="LRPA"> F  </i>
   <i type="logical" name="LNABLA"> F  </i>
   <i type="logical" name="LVEL"> F  </i>
   <i type="int" name="KINTER">     0</i>
   <i name="CSHIFT">      0.10000000</i>
   <i name="OMEGAMAX">     -1.00000000</i>
   <i name="DEG_THRESHOLD">      0.00200000</i>
   <i name="RTIME">     -0.10000000</i>
   <i name="WPLASMAI">      0.00000000</i>
   <v name="DFIELD">      0.00000000      0.00000000      0.00000000</v>
   <v name="WPLASMA">      0.00000000      0.00000000      0.00000000      0.00000000      0.00000000      0.00000000      0.00000000      0.00000000      0.00000000</v>
  </separator>
  <separator name="orbital magnetization" >
   <i type="logical" name="NUCIND"> F  </i>
   <v name="MAGPOS">      0.00000000      0.00000000      0.00000000</v>
   <i type="logical" name="LNICSALL"> T  </i>
   <i type="logical" name="ORBITALMAG"> F  </i>
   <i type="logical" name="LMAGBLOCH"> F  </i>
   <i type="logical" name="LCHIMAG"> F  </i>
   <i type="logical" name="LGAUGE"> T  </i>
   <i type="int" name="MAGATOM">     0</i>
   <v name="MAGDIPOL">      0.00000000      0.00000000      0.00000000</v>
   <v name="AVECCONST">      0.00000000      0.00000000      0.00000000</v>
  </separator>
  <separator name="response functions" >
   <i type="logical" name="LADDER"> F  </i>
   <i type="logical" name="LRPAFORCE"> F  </i>
   <i type="logical" name="LFXC"> F  </i>
   <i type="logical" name="LHARTREE"> T  </i>
   <i type="int" name="IBSE">     0</i>
   <v type="int" name="KPOINT">    -1     0     0     0</v>
   <i type="logical" name="LTCTE"> F  </i>
   <i type="logical" name="LTETE"> F  </i>
   <i type="logical" name="LTRIPLET"> F  </i>
   <i type="logical" name="LFXCEPS"> F  </i>
   <i type="logical" name="LFXHEG"> F  </i>
   <i type="int" name="NATURALO">     2</i>
   <i type="logical" name="L2ORDER"> F  </i>
   <i type="logical" name="LMP2LT"> F  </i>
   <i type="logical" name="LUSEW"> F  </i>
   <i name="ENCUTGW">     -2.00000000</i>
   <i name="ENCUTGWSOFT">     -2.00000000</i>
   <i name="ENCUTLF">     -1.00000000</i>
   <i type="int" name="LMAXMP2">    -1</i>
   <i name="SCISSOR">      0.00000000</i>
   <i type="int" name="NOMEGA">     0</i>
   <i type="int" name="NOMEGAR">     0</i>
   <i type="int" name="NBANDSGW">    -1</i>
   <i type="int" name="NBANDSO">    -1</i>
   <i type="int" name="NBANDSV">    -1</i>
   <i type="int" name="NELM">    50</i>
   <i type="int" name="NELMHF">     1</i>
   <i type="int" name="DIM">     3</i>
   <i type="int" name="ANTIRES">     0</i>
   <i name="OMEGAMAX">    -30.00000000</i>
   <i name="OMEGAMIN">    -30.00000000</i>
   <i name="OMEGATL">   -200.00000000</i>
   <i type="int" name="OMEGAGRID">   140</i>
   <i name="CSHIFT">     -0.10000000</i>
   <i type="logical" name="SELFENERGY"> F  </i>
   <i type="logical" name="LSPECTRAL"> F  </i>
   <i type="logical" name="LSPECTRALGW"> F  </i>
   <i type="logical" name="LSINGLES"> F  </i>
   <i type="logical" name="LFERMIGW"> F  </i>
   <i type="logical" name="ODDONLYGW"> F  </i>
   <i type="logical" name="EVENONLYGW"> F  </i>
   <i type="int" name="NKREDLFX">     1</i>
   <i type="int" name="NKREDLFY">     1</i>
   <i type="int" name="NKREDLFZ">     1</i>
   <i type="int" name="MAXMEM">  2800</i>
   <i type="int" name="TELESCOPE">     0</i>
   <i type="int" name="TAUPAR">     1</i>
   <i type="int" name="OMEGAPAR">    -1</i>
   <i name="LAMBDA">      1.00000000</i>
  </separator>
  <separator name="External order field" >
   <i name="OFIELD_KAPPA">      0.00000000</i>
   <v name="OFIELD_K">      0.00000000      0.00000000      0.00000000</v>
   <i name="OFIELD_Q6_NEAR">      0.00000000</i>
   <i name="OFIELD_Q6_FAR">      0.00000000</i>
   <i name="OFIELD_A">      0.00000000</i>
  </separator>
 </parameters>
 <atominfo>
  <atoms>       1 </atoms>
  <types>       1 </types>
  <array name="atoms" >
   <dimension dim="1">ion</dimension>
   <field type="string">element</field>
   <field type="int">atomtype</field>
   <set>
    <rc><c>Og</c><c>   1</c></rc>
   </set>
  </array>
  <array name="atomtypes" >
   <dimension dim="1">type</dimension>
   <field type="int">atomspertype</field>
   <field type="string">element</field>
   <field>mass</field>
   <field>valence</field>
   <field type="string">pseudopotential</field>
   <set>
    <rc><c>   1</c><c>Og</c><c>      0.01000000</c><c>     18.00000000</c><c>  PAW Og, JanMewes Oct 18               </c></rc>
   </set>
  </array>
 </atominfo>
 <structure name="initialpos" >
  <crystal>
   <varray name="basis" >
    <v>       4.34234588       0.00000000       0.00000000 </v>
    <v>       2.17117294       3.76058184      -0.00000000 </v>
    <v>       2.17117294       1.25352728       3.54551056 </v>
   </varray>
   <i name="volume">     57.89729060 </i>
   <varray name="rec_basis" >
    <v>       0.23029027      -0.13295815      -0.09401561 </v>
    <v>       0.00000000       0.26591630      -0.09401561 </v>
    <v>      -0.00000000       0.00000000       0.28204683 </v>
   </varray>
  </crystal>
  <varray name="positions" >
   <v>       0.00000000       0.00000000       0.00000000 </v>
  </varray>
  <varray name="velocities" >
   <v>       0.00000000       0.00000000       0.00000000 </v>
  </varray>
 </structure>
 <calculation>
  <scstep>
   <time name="diag">  108.15  108.10</time>
   <time name="total">  108.25  108.20</time>
   <energy>
    <i name="alphaZ">     65.89697999 </i>
    <i name="ewald">  -1741.63824267 </i>
    <i name="hartreedc">   -672.03596706 </i>
    <i name="XCdc">    -68.73380318 </i>
    <i name="pawpsdc">   2336.01598153 </i>
    <i name="pawaedc">  -2260.61968163 </i>
    <i name="eentropy">     -0.00000001 </i>
    <i name="bandstr">   -311.97047800 </i>
    <i name="atom">   2639.90492407 </i>
    <i name="e_fr_energy">    -13.18028696 </i>
    <i name="e_wo_entrp">    -13.18028695 </i>
    <i name="e_0_energy">    -13.18028695 </i>
   </energy>
  </scstep>
  <scstep>
   <time name="diag">  108.15  108.11</time>
   <time name="total">  108.16  108.12</time>
   <energy>
    <i name="e_fr_energy">    -13.18028696 </i>
    <i name="e_wo_entrp">    -13.18028695 </i>
    <i name="e_0_energy">    -13.18028695 </i>
   </energy>
  </scstep>
  <scstep>
   <time name="diag">  107.96  107.96</time>
   <time name="total">  107.97  107.97</time>
   <energy>
    <i name="e_fr_energy">    -13.18028696 </i>
    <i name="e_wo_entrp">    -13.18028695 </i>
    <i name="e_0_energy">    -13.18028695 </i>
   </energy>
  </scstep>
  <scstep>
   <time name="diag">  108.10  108.05</time>
   <time name="total">  108.11  108.07</time>
   <energy>
    <i name="e_fr_energy">    -13.18028696 </i>
    <i name="e_wo_entrp">    -13.18028695 </i>
    <i name="e_0_energy">    -13.18028695 </i>
   </energy>
  </scstep>
  <scstep>
   <time name="diag">  108.14  108.09</time>
   <time name="total">  108.30  108.25</time>
   <energy>
    <i name="e_fr_energy">    -13.18028696 </i>
    <i name="e_wo_entrp">    -13.18028695 </i>
    <i name="e_0_energy">    -13.18028695 </i>
   </energy>
  </scstep>
  <scstep>
   <time name="diag">  108.16  108.13</time>
   <time name="total">  108.26  108.23</time>
   <energy>
    <i name="alphaZ">     65.89697999 </i>
    <i name="ewald">  -1741.63824267 </i>
    <i name="hartreedc">   -672.03596702 </i>
    <i name="XCdc">    -68.73380318 </i>
    <i name="pawpsdc">   2336.01598174 </i>
    <i name="pawaedc">  -2260.61968183 </i>
    <i name="eentropy">     -0.00000001 </i>
    <i name="bandstr">   -311.97047804 </i>
    <i name="atom">   2639.90492407 </i>
    <i name="e_fr_energy">    -13.18028696 </i>
    <i name="e_wo_entrp">    -13.18028695 </i>
    <i name="e_0_energy">    -13.18028695 </i>
   </energy>
  </scstep>
  <structure>
   <crystal>
    <varray name="basis" >
     <v>       4.34234588       0.00000000       0.00000000 </v>
     <v>       2.17117294       3.76058184      -0.00000000 </v>
     <v>       2.17117294       1.25352728       3.54551056 </v>
    </varray>
    <i name="volume">     57.89729060 </i>
    <varray name="rec_basis" >
     <v>       0.23029027      -0.13295815      -0.09401561 </v>
     <v>       0.00000000       0.26591630      -0.09401561 </v>
     <v>      -0.00000000       0.00000000       0.28204683 </v>
    </varray>
   </crystal>
   <varray name="positions" >
    <v>       0.00000000       0.00000000       0.00000000 </v>
   </varray>
  </structure>
  <varray name="forces" >
   <v>       0.00000000      -0.00000000      -0.00000000 </v>
  </varray>
  <varray name="stress" >
   <v>    -146.28746056       0.00008479       0.00005898 </v>
   <v>       0.00008497    -146.28731952      -0.00003520 </v>
   <v>       0.00005884      -0.00003513    -146.28729164 </v>
  </varray>
  <energy>
   <i name="e_fr_energy">    -13.62024905 </i>
   <i name="e_wo_entrp">    -13.62024905 </i>
   <i name="e_0_energy">     -0.00000001 </i>
  </energy>
  <time name="totalsc">  656.40  658.68</time>
  <eigenvalues>
   <array>
    <dimension dim="1">band</dimension>
    <dimension dim="2">kpoint</dimension>
    <dimension dim="3">spin</dimension>
    <field>eigene</field>
    <field>occ</field>
    <set>
     <set comment="spin 1">
      <set comment="kpoint 1">
       <r>  -30.4710    1.0000 </r>
       <r>  -30.4710    1.0000 </r>
       <r>  -30.4708    1.0000 </r>
       <r>  -30.4708    1.0000 </r>
       <r>  -23.8047    1.0000 </r>
       <r>  -23.8043    1.0000 </r>
       <r>  -23.8040    1.0000 </r>
       <r>  -23.8036    1.0000 </r>
       <r>  -23.8034    1.0000 </r>
       <r>  -23.8027    1.0000 </r>
       <r>  -20.2095    1.0000 </r>
       <r>  -20.2088    1.0000 </r>
       <r>   -6.9156    1.0000 </r>
       <r>   -6.9145    1.0000 </r>
       <r>    3.7123    1.0000 </r>
       <r>    3.7126    1.0000 </r>
       <r>    3.9585    0.9998 </r>
       <r>    3.9586    0.9997 </r>
       <r>    3.9634    0.0003 </r>
       <r>    3.9635    0.0002 </r>
       <r>   10.8782    0.0000 </r>
       <r>   10.8784    0.0000 </r>
       <r>   10.8790    0.0000 </r>
       <r>   10.8792    0.0000 </r>
       <r>   11.1157    0.0000 </r>
       <r>   11.1162    0.0000 </r>
       <r>   11.3024    0.0000 </r>
       <r>   11.3039    0.0000 </r>
       <r>   13.2149    0.0000 </r>
       <r>   13.2179    0.0000 </r>
       <r>   13.5196    0.0000 </r>
       <r>   13.5197    0.0000 </r>
       <r>   13.5206    0.0000 </r>
       <r>   13.5208    0.0000 </r>
       <r>   14.3539    0.0000 </r>
       <r>   14.3553    0.0000 </r>
       <r>   14.3563    0.0000 </r>
       <r>   14.3577    0.0000 </r>
       <r>   16.2605    0.0000 </r>
       <r>   16.2608    0.0000 </r>
       <r>   20.3962    0.0000 </r>
       <r>   20.3964    0.0000 </r>
       <r>   20.3971    0.0000 </r>
       <r>   20.3974    0.0000 </r>
       <r>   20.3981    0.0000 </r>
       <r>   20.3984    0.0000 </r>
       <r>   22.9568    0.0000 </r>
       <r>   22.9576    0.0000 </r>
       <r>   26.2446    0.0000 </r>
       <r>   26.2447    0.0000 </r>
       <r>   26.2466    0.0000 </r>
       <r>   26.2468    0.0000 </r>
       <r>   26.4495    0.0000 </r>
       <r>   26.4502    0.0000 </r>
       <r>   27.7688    0.0000 </r>
       <r>   27.7705    0.0000 </r>
       <r>   29.4160    0.0000 </r>
       <r>   29.4169    0.0000 </r>
       <r>   29.4176    0.0000 </r>
       <r>   29.4184    0.0000 </r>
       <r>   30.1781    0.0000 </r>
       <r>   30.1788    0.0000 </r>
       <r>   30.3431    0.0000 </r>
       <r>   30.3435    0.0000 </r>
       <r>   30.3442    0.0000 </r>
       <r>   30.3446    0.0000 </r>
       <r>   30.7878    0.0000 </r>
       <r>   30.7879    0.0000 </r>
       <r>   31.6109    0.0000 </r>
       <r>   31.6110    0.0000 </r>
       <r>   31.6121    0.0000 </r>
       <r>   31.6123    0.0000 </r>
       <r>   37.7908    0.0000 </r>
       <r>   37.7915    0.0000 </r>
       <r>   37.7916    0.0000 </r>
       <r>   37.7920    0.0000 </r>
       <r>   37.7921    0.0000 </r>
       <r>   37.7928    0.0000 </r>
       <r>   38.5857    0.0000 </r>
       <r>   38.5871    0.0000 </r>
       <r>   38.6185    0.0000 </r>
       <r>   38.6187    0.0000 </r>
       <r>   38.6191    0.0000 </r>
       <r>   38.6217    0.0000 </r>
       <r>   38.6221    0.0000 </r>
       <r>   38.6223    0.0000 </r>
       <r>   41.1202    0.0000 </r>
       <r>   41.1206    0.0000 </r>
       <r>   41.1208    0.0000 </r>
       <r>   41.1211    0.0000 </r>
       <r>   41.3056    0.0000 </r>
       <r>   41.3061    0.0000 </r>
       <r>   42.5777    0.0000 </r>
       <r>   42.5785    0.0000 </r>
       <r>   42.8568    0.0000 </r>
       <r>   42.8578    0.0000 </r>
       <r>   42.8584    0.0000 </r>
       <r>   42.8595    0.0000 </r>
       <r>   43.1691    0.0000 </r>
       <r>   43.1695    0.0000 </r>
       <r>   43.1700    0.0000 </r>
       <r>   43.1704    0.0000 </r>
       <r>   44.0611    0.0000 </r>
       <r>   44.0611    0.0000 </r>
       <r>   44.0633    0.0000 </r>
       <r>   44.0634    0.0000 </r>
       <r>   44.1395    0.0000 </r>
       <r>   44.1400    0.0000 </r>
       <r>   44.1409    0.0000 </r>
       <r>   44.1414    0.0000 </r>
       <r>   44.3317    0.0000 </r>
       <r>   44.3326    0.0000 </r>
       <r>   45.2765    0.0000 </r>
       <r>   45.2773    0.0000 </r>
       <r>   45.6842    0.0000 </r>
       <r>   45.6857    0.0000 </r>
       <r>   46.1397    0.0000 </r>
       <r>   46.1398    0.0000 </r>
       <r>   46.1410    0.0000 </r>
       <r>   46.1411    0.0000 </r>
       <r>   46.6655    0.0000 </r>
       <r>   46.6656    0.0000 </r>
       <r>   47.0263    0.0000 </r>
       <r>   47.0264    0.0000 </r>
       <r>   47.0269    0.0000 </r>
       <r>   47.0270    0.0000 </r>
       <r>   47.1556    0.0000 </r>
       <r>   47.1567    0.0000 </r>
       <r>   51.4476    0.0000 </r>
       <r>   51.4480    0.0000 </r>
       <r>   51.4480    0.0000 </r>
       <r>   51.4492    0.0000 </r>
       <r>   51.4493    0.0000 </r>
       <r>   51.4497    0.0000 </r>
       <r>   54.1450    0.0000 </r>
       <r>   54.1472    0.0000 </r>
       <r>   54.3158    0.0000 </r>
       <r>   54.3159    0.0000 </r>
       <r>   54.3172    0.0000 </r>
       <r>   54.3173    0.0000 </r>
       <r>   58.4260    0.0000 </r>
       <r>   58.4267    0.0000 </r>
       <r>   58.4868    0.0000 </r>
       <r>   58.4868    0.0000 </r>
       <r>   58.4876    0.0000 </r>
       <r>   58.4877    0.0000 </r>
       <r>   59.1425    0.0000 </r>
       <r>   59.1429    0.0000 </r>
       <r>   65.4066    0.0000 </r>
       <r>   65.4074    0.0000 </r>
       <r>   66.0322    0.0000 </r>
       <r>   66.0325    0.0000 </r>
       <r>   66.0336    0.0000 </r>
       <r>   66.0338    0.0000 </r>
       <r>   66.1035    0.0000 </r>
       <r>   66.1037    0.0000 </r>
       <r>   66.3538    0.0000 </r>
       <r>   66.3543    0.0000 </r>
       <r>   66.3548    0.0000 </r>
       <r>   66.3553    0.0000 </r>
       <r>   67.5632    0.0000 </r>
       <r>   67.5640    0.0000 </r>
       <r>   67.5647    0.0000 </r>
       <r>   67.5654    0.0000 </r>
       <r>   68.0350    0.0000 </r>
       <r>   68.0350    0.0000 </r>
       <r>   68.0353    0.0000 </r>
       <r>   68.0373    0.0000 </r>
       <r>   68.0375    0.0000 </r>
       <r>   68.0375    0.0000 </r>
       <r>   70.3502    0.0000 </r>
       <r>   70.3513    0.0000 </r>
       <r>   72.3522    0.0000 </r>
       <r>   72.3523    0.0000 </r>
       <r>   72.3539    0.0000 </r>
       <r>   72.3541    0.0000 </r>
       <r>   72.8504    0.0000 </r>
       <r>   72.8515    0.0000 </r>
       <r>   72.8524    0.0000 </r>
       <r>   72.8535    0.0000 </r>
       <r>   74.0680    0.0000 </r>
       <r>   74.0685    0.0000 </r>
       <r>   74.0685    0.0000 </r>
       <r>   74.0692    0.0000 </r>
       <r>   74.0692    0.0000 </r>
       <r>   74.0697    0.0000 </r>
       <r>   74.1650    0.0000 </r>
       <r>   74.1652    0.0000 </r>
       <r>   74.1658    0.0000 </r>
       <r>   74.1665    0.0000 </r>
       <r>   74.1671    0.0000 </r>
       <r>   74.1673    0.0000 </r>
       <r>   74.2890    0.0000 </r>
       <r>   74.2893    0.0000 </r>
       <r>   74.4491    0.0000 </r>
       <r>   74.4498    0.0000 </r>
       <r>   76.5889    0.0000 </r>
       <r>   76.5901    0.0000 </r>
       <r>   76.6492    0.0000 </r>
       <r>   76.6493    0.0000 </r>
       <r>   76.6508    0.0000 </r>
       <r>   76.6509    0.0000 </r>
       <r>   77.0857    0.0000 </r>
       <r>   77.0860    0.0000 </r>
       <r>   77.0868    0.0000 </r>
       <r>   77.0870    0.0000 </r>
       <r>   77.2333    0.0000 </r>
       <r>   77.2340    0.0000 </r>
       <r>   77.3017    0.0000 </r>
       <r>   77.3020    0.0000 </r>
       <r>   78.0118    0.0000 </r>
       <r>   78.0129    0.0000 </r>
       <r>   78.4301    0.0000 </r>
       <r>   78.4314    0.0000 </r>
       <r>   78.4317    0.0000 </r>
       <r>   78.4329    0.0000 </r>
       <r>   78.5153    0.0000 </r>
       <r>   78.5157    0.0000 </r>
       <r>   78.5158    0.0000 </r>
       <r>   78.5170    0.0000 </r>
       <r>   78.5171    0.0000 </r>
       <r>   78.5175    0.0000 </r>
       <r>   80.0746    0.0000 </r>
       <r>   80.0747    0.0000 </r>
       <r>   80.0756    0.0000 </r>
       <r>   80.0757    0.0000 </r>
       <r>   80.5324    0.0000 </r>
       <r>   80.5329    0.0000 </r>
       <r>   82.2932    0.0000 </r>
       <r>   82.2933    0.0000 </r>
       <r>   82.2937    0.0000 </r>
       <r>   82.2938    0.0000 </r>
       <r>   82.7098    0.0000 </r>
       <r>   82.7105    0.0000 </r>
       <r>   82.8304    0.0000 </r>
       <r>   82.8306    0.0000 </r>
       <r>   82.8534    0.0000 </r>
       <r>   82.8546    0.0000 </r>
       <r>   82.8551    0.0000 </r>
       <r>   82.8563    0.0000 </r>
       <r>   85.8886    0.0000 </r>
       <r>   85.8900    0.0000 </r>
       <r>   86.3250    0.0000 </r>
       <r>   86.3251    0.0000 </r>
       <r>   86.3258    0.0000 </r>
       <r>   86.3259    0.0000 </r>
       <r>   88.1515    0.0000 </r>
       <r>   88.1518    0.0000 </r>
       <r>   88.1523    0.0000 </r>
       <r>   88.1527    0.0000 </r>
       <r>   88.1877    0.0000 </r>
       <r>   88.1878    0.0000 </r>
       <r>   88.1880    0.0000 </r>
       <r>   88.1893    0.0000 </r>
       <r>   88.1894    0.0000 </r>
       <r>   88.1896    0.0000 </r>
      </set>
      <set comment="kpoint 2">
       <r>  -30.4496    1.0000 </r>
       <r>  -30.4495    1.0000 </r>
       <r>  -30.4476    1.0000 </r>
       <r>  -30.4474    1.0000 </r>
       <r>  -23.7898    1.0000 </r>
       <r>  -23.7887    1.0000 </r>
       <r>  -23.7884    1.0000 </r>
       <r>  -23.7882    1.0000 </r>
       <r>  -23.7873    1.0000 </r>
       <r>  -23.7865    1.0000 </r>
       <r>  -20.1818    1.0000 </r>
       <r>  -20.1811    1.0000 </r>
       <r>   -7.0066    1.0000 </r>
       <r>   -7.0056    1.0000 </r>
       <r>    2.1913    1.0000 </r>
       <r>    2.1944    1.0000 </r>
       <r>    3.8022    1.0000 </r>
       <r>    3.8067    1.0000 </r>
       <r>    5.5283    0.0000 </r>
       <r>    5.5298    0.0000 </r>
       <r>    9.8152    0.0000 </r>
       <r>    9.8164    0.0000 </r>
       <r>   11.0518    0.0000 </r>
       <r>   11.0524    0.0000 </r>
       <r>   11.3750    0.0000 </r>
       <r>   11.3752    0.0000 </r>
       <r>   12.1621    0.0000 </r>
       <r>   12.1626    0.0000 </r>
       <r>   12.5034    0.0000 </r>
       <r>   12.5051    0.0000 </r>
       <r>   12.6747    0.0000 </r>
       <r>   12.6768    0.0000 </r>
       <r>   13.7745    0.0000 </r>
       <r>   13.7762    0.0000 </r>
       <r>   15.8867    0.0000 </r>
       <r>   15.8880    0.0000 </r>
       <r>   16.0378    0.0000 </r>
       <r>   16.0406    0.0000 </r>
       <r>   18.0379    0.0000 </r>
       <r>   18.0380    0.0000 </r>
       <r>   19.9161    0.0000 </r>
       <r>   19.9179    0.0000 </r>
       <r>   20.0497    0.0000 </r>
       <r>   20.0518    0.0000 </r>
       <r>   20.4849    0.0000 </r>
       <r>   20.4853    0.0000 </r>
       <r>   21.8005    0.0000 </r>
       <r>   21.8008    0.0000 </r>
       <r>   25.0344    0.0000 </r>
       <r>   25.0355    0.0000 </r>
       <r>   25.6602    0.0000 </r>
       <r>   25.6624    0.0000 </r>
       <r>   25.9675    0.0000 </r>
       <r>   25.9692    0.0000 </r>
       <r>   27.1715    0.0000 </r>
       <r>   27.1729    0.0000 </r>
       <r>   27.8413    0.0000 </r>
       <r>   27.8416    0.0000 </r>
       <r>   28.7068    0.0000 </r>
       <r>   28.7076    0.0000 </r>
       <r>   30.1964    0.0000 </r>
       <r>   30.1987    0.0000 </r>
       <r>   30.2824    0.0000 </r>
       <r>   30.2835    0.0000 </r>
       <r>   30.9063    0.0000 </r>
       <r>   30.9074    0.0000 </r>
       <r>   31.0000    0.0000 </r>
       <r>   31.0002    0.0000 </r>
       <r>   32.9249    0.0000 </r>
       <r>   32.9268    0.0000 </r>
       <r>   35.3266    0.0000 </r>
       <r>   35.3272    0.0000 </r>
       <r>   35.4690    0.0000 </r>
       <r>   35.4703    0.0000 </r>
       <r>   36.5292    0.0000 </r>
       <r>   36.5305    0.0000 </r>
       <r>   36.5426    0.0000 </r>
       <r>   36.5429    0.0000 </r>
       <r>   36.9433    0.0000 </r>
       <r>   36.9442    0.0000 </r>
       <r>   38.3467    0.0000 </r>
       <r>   38.3474    0.0000 </r>
       <r>   39.1446    0.0000 </r>
       <r>   39.1475    0.0000 </r>
       <r>   39.3422    0.0000 </r>
       <r>   39.3430    0.0000 </r>
       <r>   39.5323    0.0000 </r>
       <r>   39.5327    0.0000 </r>
       <r>   39.5463    0.0000 </r>
       <r>   39.5469    0.0000 </r>
       <r>   40.4281    0.0000 </r>
       <r>   40.4283    0.0000 </r>
       <r>   40.5747    0.0000 </r>
       <r>   40.5757    0.0000 </r>
       <r>   41.3887    0.0000 </r>
       <r>   41.3900    0.0000 </r>
       <r>   41.5898    0.0000 </r>
       <r>   41.5907    0.0000 </r>
       <r>   42.7230    0.0000 </r>
       <r>   42.7235    0.0000 </r>
       <r>   43.2137    0.0000 </r>
       <r>   43.2139    0.0000 </r>
       <r>   43.3238    0.0000 </r>
       <r>   43.3241    0.0000 </r>
       <r>   44.1543    0.0000 </r>
       <r>   44.1549    0.0000 </r>
       <r>   44.6758    0.0000 </r>
       <r>   44.6759    0.0000 </r>
       <r>   44.7704    0.0000 </r>
       <r>   44.7719    0.0000 </r>
       <r>   44.9084    0.0000 </r>
       <r>   44.9093    0.0000 </r>
       <r>   46.5572    0.0000 </r>
       <r>   46.5585    0.0000 </r>
       <r>   47.1332    0.0000 </r>
       <r>   47.1336    0.0000 </r>
       <r>   47.5521    0.0000 </r>
       <r>   47.5530    0.0000 </r>
       <r>   48.4447    0.0000 </r>
       <r>   48.4453    0.0000 </r>
       <r>   49.3535    0.0000 </r>
       <r>   49.3539    0.0000 </r>
       <r>   49.3860    0.0000 </r>
       <r>   49.3872    0.0000 </r>
       <r>   50.4110    0.0000 </r>
       <r>   50.4122    0.0000 </r>
       <r>   51.5871    0.0000 </r>
       <r>   51.5873    0.0000 </r>
       <r>   52.0512    0.0000 </r>
       <r>   52.0520    0.0000 </r>
       <r>   52.5071    0.0000 </r>
       <r>   52.5085    0.0000 </r>
       <r>   52.5651    0.0000 </r>
       <r>   52.5653    0.0000 </r>
       <r>   53.8394    0.0000 </r>
       <r>   53.8397    0.0000 </r>
       <r>   54.0611    0.0000 </r>
       <r>   54.0616    0.0000 </r>
       <r>   54.1819    0.0000 </r>
       <r>   54.1832    0.0000 </r>
       <r>   57.5467    0.0000 </r>
       <r>   57.5477    0.0000 </r>
       <r>   59.4348    0.0000 </r>
       <r>   59.4358    0.0000 </r>
       <r>   59.5055    0.0000 </r>
       <r>   59.5065    0.0000 </r>
       <r>   60.5661    0.0000 </r>
       <r>   60.5662    0.0000 </r>
       <r>   62.2344    0.0000 </r>
       <r>   62.2357    0.0000 </r>
       <r>   62.6548    0.0000 </r>
       <r>   62.6563    0.0000 </r>
       <r>   63.7026    0.0000 </r>
       <r>   63.7033    0.0000 </r>
       <r>   63.8065    0.0000 </r>
       <r>   63.8086    0.0000 </r>
       <r>   65.3847    0.0000 </r>
       <r>   65.3858    0.0000 </r>
       <r>   65.5226    0.0000 </r>
       <r>   65.5234    0.0000 </r>
       <r>   66.0142    0.0000 </r>
       <r>   66.0143    0.0000 </r>
       <r>   67.0461    0.0000 </r>
       <r>   67.0482    0.0000 </r>
       <r>   67.1162    0.0000 </r>
       <r>   67.1169    0.0000 </r>
       <r>   69.4336    0.0000 </r>
       <r>   69.4337    0.0000 </r>
       <r>   69.7399    0.0000 </r>
       <r>   69.7402    0.0000 </r>
       <r>   69.9097    0.0000 </r>
       <r>   69.9111    0.0000 </r>
       <r>   70.4504    0.0000 </r>
       <r>   70.4508    0.0000 </r>
       <r>   70.4573    0.0000 </r>
       <r>   70.4578    0.0000 </r>
       <r>   70.7268    0.0000 </r>
       <r>   70.7269    0.0000 </r>
       <r>   71.2233    0.0000 </r>
       <r>   71.2244    0.0000 </r>
       <r>   71.2301    0.0000 </r>
       <r>   71.2307    0.0000 </r>
       <r>   71.7087    0.0000 </r>
       <r>   71.7102    0.0000 </r>
       <r>   72.6025    0.0000 </r>
       <r>   72.6030    0.0000 </r>
       <r>   72.8924    0.0000 </r>
       <r>   72.8941    0.0000 </r>
       <r>   73.9661    0.0000 </r>
       <r>   73.9663    0.0000 </r>
       <r>   74.1974    0.0000 </r>
       <r>   74.1976    0.0000 </r>
       <r>   75.3537    0.0000 </r>
       <r>   75.3544    0.0000 </r>
       <r>   75.4957    0.0000 </r>
       <r>   75.4971    0.0000 </r>
       <r>   75.7374    0.0000 </r>
       <r>   75.7385    0.0000 </r>
       <r>   76.5204    0.0000 </r>
       <r>   76.5221    0.0000 </r>
       <r>   76.6221    0.0000 </r>
       <r>   76.6226    0.0000 </r>
       <r>   78.0011    0.0000 </r>
       <r>   78.0020    0.0000 </r>
       <r>   78.0578    0.0000 </r>
       <r>   78.0604    0.0000 </r>
       <r>   78.2130    0.0000 </r>
       <r>   78.2130    0.0000 </r>
       <r>   78.3827    0.0000 </r>
       <r>   78.3835    0.0000 </r>
       <r>   78.5150    0.0000 </r>
       <r>   78.5156    0.0000 </r>
       <r>   78.6661    0.0000 </r>
       <r>   78.6663    0.0000 </r>
       <r>   78.9776    0.0000 </r>
       <r>   78.9787    0.0000 </r>
       <r>   79.6069    0.0000 </r>
       <r>   79.6071    0.0000 </r>
       <r>   79.6466    0.0000 </r>
       <r>   79.6476    0.0000 </r>
       <r>   80.0504    0.0000 </r>
       <r>   80.0508    0.0000 </r>
       <r>   80.8280    0.0000 </r>
       <r>   80.8296    0.0000 </r>
       <r>   81.2195    0.0000 </r>
       <r>   81.2221    0.0000 </r>
       <r>   81.2387    0.0000 </r>
       <r>   81.2398    0.0000 </r>
       <r>   82.8907    0.0000 </r>
       <r>   82.8920    0.0000 </r>
       <r>   83.1487    0.0000 </r>
       <r>   83.1488    0.0000 </r>
       <r>   83.4955    0.0000 </r>
       <r>   83.4958    0.0000 </r>
       <r>   83.5236    0.0000 </r>
       <r>   83.5248    0.0000 </r>
       <r>   84.3194    0.0000 </r>
       <r>   84.3195    0.0000 </r>
       <r>   84.5419    0.0000 </r>
       <r>   84.5422    0.0000 </r>
       <r>   84.7277    0.0000 </r>
       <r>   84.7282    0.0000 </r>
       <r>   85.7512    0.0000 </r>
       <r>   85.7514    0.0000 </r>
       <r>   85.9179    0.0000 </r>
       <r>   85.9185    0.0000 </r>
       <r>   86.6550    0.0000 </r>
       <r>   86.6553    0.0000 </r>
       <r>   86.8242    0.0000 </r>
       <r>   86.8252    0.0000 </r>
       <r>   87.9603    0.0000 </r>
       <r>   87.9607    0.0000 </r>
       <r>   88.2546    0.0000 </r>
       <r>   88.2570    0.0000 </r>
       <r>   88.5201    0.0000 </r>
       <r>   88.5205    0.0000 </r>
      </set>
      <set comment="kpoint 3">
       <r>  -30.4606    1.0000 </r>
       <r>  -30.4605    1.0000 </r>
       <r>  -30.4550    1.0000 </r>
       <r>  -30.4547    1.0000 </r>
       <r>  -23.7946    1.0000 </r>
       <r>  -23.7940    1.0000 </r>
       <r>  -23.7928    1.0000 </r>
       <r>  -23.7927    1.0000 </r>
       <r>  -23.7912    1.0000 </r>
       <r>  -23.7901    1.0000 </r>
       <r>  -20.1265    1.0000 </r>
       <r>  -20.1257    1.0000 </r>
       <r>   -7.1896    1.0000 </r>
       <r>   -7.1886    1.0000 </r>
       <r>    1.0956    1.0000 </r>
       <r>    1.0990    1.0000 </r>
       <r>    3.5219    1.0000 </r>
       <r>    3.5261    1.0000 </r>
       <r>    6.2114    0.0000 </r>
       <r>    6.2115    0.0000 </r>
       <r>   10.4119    0.0000 </r>
       <r>   10.4128    0.0000 </r>
       <r>   10.6063    0.0000 </r>
       <r>   10.6069    0.0000 </r>
       <r>   11.0392    0.0000 </r>
       <r>   11.0396    0.0000 </r>
       <r>   11.2777    0.0000 </r>
       <r>   11.2778    0.0000 </r>
       <r>   13.3054    0.0000 </r>
       <r>   13.3059    0.0000 </r>
       <r>   13.5742    0.0000 </r>
       <r>   13.5756    0.0000 </r>
       <r>   16.6523    0.0000 </r>
       <r>   16.6543    0.0000 </r>
       <r>   17.7049    0.0000 </r>
       <r>   17.7067    0.0000 </r>
       <r>   17.9564    0.0000 </r>
       <r>   17.9594    0.0000 </r>
       <r>   18.3221    0.0000 </r>
       <r>   18.3238    0.0000 </r>
       <r>   18.7582    0.0000 </r>
       <r>   18.7602    0.0000 </r>
       <r>   19.0584    0.0000 </r>
       <r>   19.0606    0.0000 </r>
       <r>   20.6197    0.0000 </r>
       <r>   20.6201    0.0000 </r>
       <r>   21.1514    0.0000 </r>
       <r>   21.1516    0.0000 </r>
       <r>   23.9841    0.0000 </r>
       <r>   23.9845    0.0000 </r>
       <r>   25.2306    0.0000 </r>
       <r>   25.2322    0.0000 </r>
       <r>   25.3239    0.0000 </r>
       <r>   25.3255    0.0000 </r>
       <r>   26.3984    0.0000 </r>
       <r>   26.3994    0.0000 </r>
       <r>   27.0832    0.0000 </r>
       <r>   27.0833    0.0000 </r>
       <r>   27.6397    0.0000 </r>
       <r>   27.6404    0.0000 </r>
       <r>   29.6273    0.0000 </r>
       <r>   29.6274    0.0000 </r>
       <r>   31.0248    0.0000 </r>
       <r>   31.0274    0.0000 </r>
       <r>   31.4623    0.0000 </r>
       <r>   31.4624    0.0000 </r>
       <r>   31.9040    0.0000 </r>
       <r>   31.9049    0.0000 </r>
       <r>   32.0630    0.0000 </r>
       <r>   32.0646    0.0000 </r>
       <r>   32.1860    0.0000 </r>
       <r>   32.1864    0.0000 </r>
       <r>   33.6894    0.0000 </r>
       <r>   33.6907    0.0000 </r>
       <r>   33.8480    0.0000 </r>
       <r>   33.8486    0.0000 </r>
       <r>   34.9235    0.0000 </r>
       <r>   34.9249    0.0000 </r>
       <r>   35.7060    0.0000 </r>
       <r>   35.7083    0.0000 </r>
       <r>   36.0274    0.0000 </r>
       <r>   36.0281    0.0000 </r>
       <r>   36.4735    0.0000 </r>
       <r>   36.4749    0.0000 </r>
       <r>   39.3377    0.0000 </r>
       <r>   39.3395    0.0000 </r>
       <r>   39.3716    0.0000 </r>
       <r>   39.3724    0.0000 </r>
       <r>   40.1108    0.0000 </r>
       <r>   40.1110    0.0000 </r>
       <r>   40.6870    0.0000 </r>
       <r>   40.6874    0.0000 </r>
       <r>   40.9006    0.0000 </r>
       <r>   40.9016    0.0000 </r>
       <r>   42.0977    0.0000 </r>
       <r>   42.0982    0.0000 </r>
       <r>   42.8535    0.0000 </r>
       <r>   42.8537    0.0000 </r>
       <r>   43.0860    0.0000 </r>
       <r>   43.0873    0.0000 </r>
       <r>   43.8859    0.0000 </r>
       <r>   43.8872    0.0000 </r>
       <r>   44.7083    0.0000 </r>
       <r>   44.7085    0.0000 </r>
       <r>   44.9486    0.0000 </r>
       <r>   44.9493    0.0000 </r>
       <r>   46.0021    0.0000 </r>
       <r>   46.0022    0.0000 </r>
       <r>   46.4576    0.0000 </r>
       <r>   46.4590    0.0000 </r>
       <r>   46.5199    0.0000 </r>
       <r>   46.5213    0.0000 </r>
       <r>   47.0960    0.0000 </r>
       <r>   47.0968    0.0000 </r>
       <r>   49.7054    0.0000 </r>
       <r>   49.7058    0.0000 </r>
       <r>   51.1729    0.0000 </r>
       <r>   51.1736    0.0000 </r>
       <r>   51.4344    0.0000 </r>
       <r>   51.4355    0.0000 </r>
       <r>   51.9589    0.0000 </r>
       <r>   51.9593    0.0000 </r>
       <r>   52.0121    0.0000 </r>
       <r>   52.0127    0.0000 </r>
       <r>   52.2779    0.0000 </r>
       <r>   52.2784    0.0000 </r>
       <r>   52.5976    0.0000 </r>
       <r>   52.5982    0.0000 </r>
       <r>   53.6427    0.0000 </r>
       <r>   53.6435    0.0000 </r>
       <r>   54.2542    0.0000 </r>
       <r>   54.2549    0.0000 </r>
       <r>   54.3314    0.0000 </r>
       <r>   54.3323    0.0000 </r>
       <r>   55.1801    0.0000 </r>
       <r>   55.1808    0.0000 </r>
       <r>   55.6531    0.0000 </r>
       <r>   55.6554    0.0000 </r>
       <r>   55.8638    0.0000 </r>
       <r>   55.8643    0.0000 </r>
       <r>   56.0610    0.0000 </r>
       <r>   56.0630    0.0000 </r>
       <r>   57.6072    0.0000 </r>
       <r>   57.6074    0.0000 </r>
       <r>   59.5954    0.0000 </r>
       <r>   59.5962    0.0000 </r>
       <r>   60.0781    0.0000 </r>
       <r>   60.0785    0.0000 </r>
       <r>   60.2070    0.0000 </r>
       <r>   60.2087    0.0000 </r>
       <r>   60.4542    0.0000 </r>
       <r>   60.4551    0.0000 </r>
       <r>   61.0740    0.0000 </r>
       <r>   61.0741    0.0000 </r>
       <r>   62.0014    0.0000 </r>
       <r>   62.0021    0.0000 </r>
       <r>   63.1516    0.0000 </r>
       <r>   63.1519    0.0000 </r>
       <r>   63.2118    0.0000 </r>
       <r>   63.2121    0.0000 </r>
       <r>   64.4983    0.0000 </r>
       <r>   64.4988    0.0000 </r>
       <r>   64.9831    0.0000 </r>
       <r>   64.9843    0.0000 </r>
       <r>   65.0617    0.0000 </r>
       <r>   65.0624    0.0000 </r>
       <r>   67.0672    0.0000 </r>
       <r>   67.0681    0.0000 </r>
       <r>   67.4816    0.0000 </r>
       <r>   67.4837    0.0000 </r>
       <r>   67.7256    0.0000 </r>
       <r>   67.7257    0.0000 </r>
       <r>   68.3812    0.0000 </r>
       <r>   68.3818    0.0000 </r>
       <r>   68.7748    0.0000 </r>
       <r>   68.7762    0.0000 </r>
       <r>   70.1511    0.0000 </r>
       <r>   70.1515    0.0000 </r>
       <r>   70.7798    0.0000 </r>
       <r>   70.7799    0.0000 </r>
       <r>   70.9229    0.0000 </r>
       <r>   70.9248    0.0000 </r>
       <r>   72.0181    0.0000 </r>
       <r>   72.0195    0.0000 </r>
       <r>   72.2115    0.0000 </r>
       <r>   72.2118    0.0000 </r>
       <r>   72.2566    0.0000 </r>
       <r>   72.2583    0.0000 </r>
       <r>   73.1289    0.0000 </r>
       <r>   73.1303    0.0000 </r>
       <r>   73.2149    0.0000 </r>
       <r>   73.2160    0.0000 </r>
       <r>   73.6806    0.0000 </r>
       <r>   73.6809    0.0000 </r>
       <r>   73.7301    0.0000 </r>
       <r>   73.7305    0.0000 </r>
       <r>   74.8588    0.0000 </r>
       <r>   74.8593    0.0000 </r>
       <r>   75.3952    0.0000 </r>
       <r>   75.3961    0.0000 </r>
       <r>   76.0448    0.0000 </r>
       <r>   76.0472    0.0000 </r>
       <r>   76.1676    0.0000 </r>
       <r>   76.1687    0.0000 </r>
       <r>   77.9425    0.0000 </r>
       <r>   77.9428    0.0000 </r>
       <r>   78.2035    0.0000 </r>
       <r>   78.2039    0.0000 </r>
       <r>   79.1001    0.0000 </r>
       <r>   79.1010    0.0000 </r>
       <r>   79.2482    0.0000 </r>
       <r>   79.2485    0.0000 </r>
       <r>   79.4282    0.0000 </r>
       <r>   79.4303    0.0000 </r>
       <r>   79.6916    0.0000 </r>
       <r>   79.6930    0.0000 </r>
       <r>   79.7610    0.0000 </r>
       <r>   79.7614    0.0000 </r>
       <r>   81.7731    0.0000 </r>
       <r>   81.7740    0.0000 </r>
       <r>   81.8329    0.0000 </r>
       <r>   81.8339    0.0000 </r>
       <r>   82.0284    0.0000 </r>
       <r>   82.0288    0.0000 </r>
       <r>   82.0447    0.0000 </r>
       <r>   82.0456    0.0000 </r>
       <r>   82.1597    0.0000 </r>
       <r>   82.1611    0.0000 </r>
       <r>   82.2037    0.0000 </r>
       <r>   82.2045    0.0000 </r>
       <r>   83.0590    0.0000 </r>
       <r>   83.0595    0.0000 </r>
       <r>   83.7572    0.0000 </r>
       <r>   83.7579    0.0000 </r>
       <r>   83.7770    0.0000 </r>
       <r>   83.7783    0.0000 </r>
       <r>   84.7806    0.0000 </r>
       <r>   84.7821    0.0000 </r>
       <r>   84.9048    0.0000 </r>
       <r>   84.9070    0.0000 </r>
       <r>   85.2991    0.0000 </r>
       <r>   85.3003    0.0000 </r>
       <r>   86.1811    0.0000 </r>
       <r>   86.1822    0.0000 </r>
       <r>   87.2355    0.0000 </r>
       <r>   87.2358    0.0000 </r>
       <r>   88.2195    0.0000 </r>
       <r>   88.2205    0.0000 </r>
       <r>   88.3773    0.0000 </r>
       <r>   88.3775    0.0000 </r>
       <r>   88.4880    0.0000 </r>
       <r>   88.4881    0.0000 </r>
       <r>   89.2602    0.0000 </r>
       <r>   89.2611    0.0000 </r>
       <r>   89.3381    0.0000 </r>
       <r>   89.3400    0.0000 </r>
      </set>
      <set comment="kpoint 4">
       <r>  -30.4771    1.0000 </r>
       <r>  -30.4769    1.0000 </r>
       <r>  -30.4655    1.0000 </r>
       <r>  -30.4652    1.0000 </r>
       <r>  -23.8045    1.0000 </r>
       <r>  -23.8038    1.0000 </r>
       <r>  -23.8001    1.0000 </r>
       <r>  -23.7990    1.0000 </r>
       <r>  -23.7983    1.0000 </r>
       <r>  -23.7981    1.0000 </r>
       <r>  -20.0984    1.0000 </r>
       <r>  -20.0976    1.0000 </r>
       <r>   -7.2816    1.0000 </r>
       <r>   -7.2807    1.0000 </r>
       <r>    0.7153    1.0000 </r>
       <r>    0.7187    1.0000 </r>
       <r>    3.3948    1.0000 </r>
       <r>    3.3989    1.0000 </r>
       <r>    6.2115    0.0000 </r>
       <r>    6.2117    0.0000 </r>
       <r>   10.3158    0.0000 </r>
       <r>   10.3167    0.0000 </r>
       <r>   10.5287    0.0000 </r>
       <r>   10.5293    0.0000 </r>
       <r>   10.7192    0.0000 </r>
       <r>   10.7196    0.0000 </r>
       <r>   12.1021    0.0000 </r>
       <r>   12.1026    0.0000 </r>
       <r>   14.6877    0.0000 </r>
       <r>   14.6878    0.0000 </r>
       <r>   14.7744    0.0000 </r>
       <r>   14.7755    0.0000 </r>
       <r>   16.1086    0.0000 </r>
       <r>   16.1099    0.0000 </r>
       <r>   17.0992    0.0000 </r>
       <r>   17.0992    0.0000 </r>
       <r>   17.2692    0.0000 </r>
       <r>   17.2716    0.0000 </r>
       <r>   18.5284    0.0000 </r>
       <r>   18.5307    0.0000 </r>
       <r>   19.0327    0.0000 </r>
       <r>   19.0360    0.0000 </r>
       <r>   19.0874    0.0000 </r>
       <r>   19.0893    0.0000 </r>
       <r>   20.6888    0.0000 </r>
       <r>   20.6893    0.0000 </r>
       <r>   23.2743    0.0000 </r>
       <r>   23.2755    0.0000 </r>
       <r>   23.9786    0.0000 </r>
       <r>   23.9799    0.0000 </r>
       <r>   25.3314    0.0000 </r>
       <r>   25.3318    0.0000 </r>
       <r>   25.4793    0.0000 </r>
       <r>   25.4801    0.0000 </r>
       <r>   25.5311    0.0000 </r>
       <r>   25.5319    0.0000 </r>
       <r>   27.0121    0.0000 </r>
       <r>   27.0124    0.0000 </r>
       <r>   27.2924    0.0000 </r>
       <r>   27.2936    0.0000 </r>
       <r>   28.3735    0.0000 </r>
       <r>   28.3740    0.0000 </r>
       <r>   29.4882    0.0000 </r>
       <r>   29.4892    0.0000 </r>
       <r>   30.8444    0.0000 </r>
       <r>   30.8445    0.0000 </r>
       <r>   30.8733    0.0000 </r>
       <r>   30.8753    0.0000 </r>
       <r>   31.7239    0.0000 </r>
       <r>   31.7264    0.0000 </r>
       <r>   32.4525    0.0000 </r>
       <r>   32.4529    0.0000 </r>
       <r>   32.8602    0.0000 </r>
       <r>   32.8605    0.0000 </r>
       <r>   33.0572    0.0000 </r>
       <r>   33.0586    0.0000 </r>
       <r>   33.9516    0.0000 </r>
       <r>   33.9534    0.0000 </r>
       <r>   34.0412    0.0000 </r>
       <r>   34.0436    0.0000 </r>
       <r>   35.8750    0.0000 </r>
       <r>   35.8755    0.0000 </r>
       <r>   36.6870    0.0000 </r>
       <r>   36.6884    0.0000 </r>
       <r>   39.5480    0.0000 </r>
       <r>   39.5489    0.0000 </r>
       <r>   39.6776    0.0000 </r>
       <r>   39.6801    0.0000 </r>
       <r>   39.7734    0.0000 </r>
       <r>   39.7739    0.0000 </r>
       <r>   40.2413    0.0000 </r>
       <r>   40.2421    0.0000 </r>
       <r>   40.5600    0.0000 </r>
       <r>   40.5609    0.0000 </r>
       <r>   41.9389    0.0000 </r>
       <r>   41.9398    0.0000 </r>
       <r>   42.1889    0.0000 </r>
       <r>   42.1893    0.0000 </r>
       <r>   44.8972    0.0000 </r>
       <r>   44.8977    0.0000 </r>
       <r>   46.0938    0.0000 </r>
       <r>   46.0944    0.0000 </r>
       <r>   46.2482    0.0000 </r>
       <r>   46.2493    0.0000 </r>
       <r>   46.4378    0.0000 </r>
       <r>   46.4384    0.0000 </r>
       <r>   46.5884    0.0000 </r>
       <r>   46.5887    0.0000 </r>
       <r>   47.7282    0.0000 </r>
       <r>   47.7289    0.0000 </r>
       <r>   49.4534    0.0000 </r>
       <r>   49.4544    0.0000 </r>
       <r>   50.0392    0.0000 </r>
       <r>   50.0400    0.0000 </r>
       <r>   50.2206    0.0000 </r>
       <r>   50.2216    0.0000 </r>
       <r>   50.9478    0.0000 </r>
       <r>   50.9494    0.0000 </r>
       <r>   51.3025    0.0000 </r>
       <r>   51.3031    0.0000 </r>
       <r>   51.5028    0.0000 </r>
       <r>   51.5028    0.0000 </r>
       <r>   52.6445    0.0000 </r>
       <r>   52.6461    0.0000 </r>
       <r>   52.6957    0.0000 </r>
       <r>   52.6967    0.0000 </r>
       <r>   52.8457    0.0000 </r>
       <r>   52.8473    0.0000 </r>
       <r>   52.9864    0.0000 </r>
       <r>   52.9870    0.0000 </r>
       <r>   53.1228    0.0000 </r>
       <r>   53.1238    0.0000 </r>
       <r>   53.1366    0.0000 </r>
       <r>   53.1394    0.0000 </r>
       <r>   57.1138    0.0000 </r>
       <r>   57.1150    0.0000 </r>
       <r>   57.1723    0.0000 </r>
       <r>   57.1724    0.0000 </r>
       <r>   57.2589    0.0000 </r>
       <r>   57.2591    0.0000 </r>
       <r>   57.4812    0.0000 </r>
       <r>   57.4819    0.0000 </r>
       <r>   57.7059    0.0000 </r>
       <r>   57.7062    0.0000 </r>
       <r>   57.7842    0.0000 </r>
       <r>   57.7849    0.0000 </r>
       <r>   58.0171    0.0000 </r>
       <r>   58.0176    0.0000 </r>
       <r>   59.5045    0.0000 </r>
       <r>   59.5054    0.0000 </r>
       <r>   59.8218    0.0000 </r>
       <r>   59.8240    0.0000 </r>
       <r>   60.1907    0.0000 </r>
       <r>   60.1918    0.0000 </r>
       <r>   61.3997    0.0000 </r>
       <r>   61.4010    0.0000 </r>
       <r>   61.6923    0.0000 </r>
       <r>   61.6931    0.0000 </r>
       <r>   63.0237    0.0000 </r>
       <r>   63.0242    0.0000 </r>
       <r>   63.1560    0.0000 </r>
       <r>   63.1576    0.0000 </r>
       <r>   63.1776    0.0000 </r>
       <r>   63.1777    0.0000 </r>
       <r>   66.0699    0.0000 </r>
       <r>   66.0714    0.0000 </r>
       <r>   66.2579    0.0000 </r>
       <r>   66.2580    0.0000 </r>
       <r>   67.4531    0.0000 </r>
       <r>   67.4535    0.0000 </r>
       <r>   68.0093    0.0000 </r>
       <r>   68.0100    0.0000 </r>
       <r>   68.0788    0.0000 </r>
       <r>   68.0793    0.0000 </r>
       <r>   68.0796    0.0000 </r>
       <r>   68.0801    0.0000 </r>
       <r>   69.8804    0.0000 </r>
       <r>   69.8811    0.0000 </r>
       <r>   69.9881    0.0000 </r>
       <r>   69.9899    0.0000 </r>
       <r>   70.3366    0.0000 </r>
       <r>   70.3373    0.0000 </r>
       <r>   72.1498    0.0000 </r>
       <r>   72.1509    0.0000 </r>
       <r>   72.3846    0.0000 </r>
       <r>   72.3851    0.0000 </r>
       <r>   72.3853    0.0000 </r>
       <r>   72.3868    0.0000 </r>
       <r>   72.4462    0.0000 </r>
       <r>   72.4475    0.0000 </r>
       <r>   72.7399    0.0000 </r>
       <r>   72.7411    0.0000 </r>
       <r>   74.1732    0.0000 </r>
       <r>   74.1734    0.0000 </r>
       <r>   74.3459    0.0000 </r>
       <r>   74.3474    0.0000 </r>
       <r>   74.9683    0.0000 </r>
       <r>   74.9685    0.0000 </r>
       <r>   75.5414    0.0000 </r>
       <r>   75.5427    0.0000 </r>
       <r>   75.7031    0.0000 </r>
       <r>   75.7049    0.0000 </r>
       <r>   75.9412    0.0000 </r>
       <r>   75.9418    0.0000 </r>
       <r>   77.1308    0.0000 </r>
       <r>   77.1310    0.0000 </r>
       <r>   77.2599    0.0000 </r>
       <r>   77.2602    0.0000 </r>
       <r>   77.7523    0.0000 </r>
       <r>   77.7540    0.0000 </r>
       <r>   77.9960    0.0000 </r>
       <r>   77.9967    0.0000 </r>
       <r>   78.0341    0.0000 </r>
       <r>   78.0342    0.0000 </r>
       <r>   79.1740    0.0000 </r>
       <r>   79.1756    0.0000 </r>
       <r>   79.1762    0.0000 </r>
       <r>   79.1779    0.0000 </r>
       <r>   79.1831    0.0000 </r>
       <r>   79.1844    0.0000 </r>
       <r>   79.2003    0.0000 </r>
       <r>   79.2018    0.0000 </r>
       <r>   81.7287    0.0000 </r>
       <r>   81.7299    0.0000 </r>
       <r>   81.8292    0.0000 </r>
       <r>   81.8298    0.0000 </r>
       <r>   81.8824    0.0000 </r>
       <r>   81.8826    0.0000 </r>
       <r>   82.9312    0.0000 </r>
       <r>   82.9313    0.0000 </r>
       <r>   83.5593    0.0000 </r>
       <r>   83.5612    0.0000 </r>
       <r>   83.8417    0.0000 </r>
       <r>   83.8418    0.0000 </r>
       <r>   85.8664    0.0000 </r>
       <r>   85.8667    0.0000 </r>
       <r>   85.9186    0.0000 </r>
       <r>   85.9188    0.0000 </r>
       <r>   86.0955    0.0000 </r>
       <r>   86.0964    0.0000 </r>
       <r>   86.1708    0.0000 </r>
       <r>   86.1715    0.0000 </r>
       <r>   86.5022    0.0000 </r>
       <r>   86.5026    0.0000 </r>
       <r>   86.5062    0.0000 </r>
       <r>   86.5070    0.0000 </r>
       <r>   87.9281    0.0000 </r>
       <r>   87.9288    0.0000 </r>
       <r>   87.9676    0.0000 </r>
       <r>   87.9679    0.0000 </r>
       <r>   88.4145    0.0000 </r>
       <r>   88.4153    0.0000 </r>
       <r>   88.5427    0.0000 </r>
       <r>   88.5432    0.0000 </r>
       <r>   88.6518    0.0000 </r>
       <r>   88.6525    0.0000 </r>
      </set>
      <set comment="kpoint 5">
       <r>  -30.4606    1.0000 </r>
       <r>  -30.4605    1.0000 </r>
       <r>  -30.4550    1.0000 </r>
       <r>  -30.4547    1.0000 </r>
       <r>  -23.7946    1.0000 </r>
       <r>  -23.7940    1.0000 </r>
       <r>  -23.7928    1.0000 </r>
       <r>  -23.7927    1.0000 </r>
       <r>  -23.7912    1.0000 </r>
       <r>  -23.7901    1.0000 </r>
       <r>  -20.1265    1.0000 </r>
       <r>  -20.1257    1.0000 </r>
       <r>   -7.1896    1.0000 </r>
       <r>   -7.1886    1.0000 </r>
       <r>    1.0956    1.0000 </r>
       <r>    1.0990    1.0000 </r>
       <r>    3.5219    1.0000 </r>
       <r>    3.5261    1.0000 </r>
       <r>    6.2114    0.0000 </r>
       <r>    6.2115    0.0000 </r>
       <r>   10.4119    0.0000 </r>
       <r>   10.4128    0.0000 </r>
       <r>   10.6063    0.0000 </r>
       <r>   10.6069    0.0000 </r>
       <r>   11.0392    0.0000 </r>
       <r>   11.0396    0.0000 </r>
       <r>   11.2777    0.0000 </r>
       <r>   11.2778    0.0000 </r>
       <r>   13.3054    0.0000 </r>
       <r>   13.3059    0.0000 </r>
       <r>   13.5742    0.0000 </r>
       <r>   13.5756    0.0000 </r>
       <r>   16.6523    0.0000 </r>
       <r>   16.6543    0.0000 </r>
       <r>   17.7049    0.0000 </r>
       <r>   17.7067    0.0000 </r>
       <r>   17.9564    0.0000 </r>
       <r>   17.9594    0.0000 </r>
       <r>   18.3221    0.0000 </r>
       <r>   18.3238    0.0000 </r>
       <r>   18.7582    0.0000 </r>
       <r>   18.7602    0.0000 </r>
       <r>   19.0584    0.0000 </r>
       <r>   19.0606    0.0000 </r>
       <r>   20.6197    0.0000 </r>
       <r>   20.6201    0.0000 </r>
       <r>   21.1514    0.0000 </r>
       <r>   21.1516    0.0000 </r>
       <r>   23.9841    0.0000 </r>
       <r>   23.9845    0.0000 </r>
       <r>   25.2306    0.0000 </r>
       <r>   25.2322    0.0000 </r>
[...]
       <r>    58.8333     0.0000     0.0000 </r>
       <r>    59.2813     0.0000     0.0000 </r>
       <r>    59.7293     0.0000     0.0000 </r>
       <r>    60.1773     0.0000     0.0000 </r>
       <r>    60.6253     0.0000     0.0000 </r>
       <r>    61.0732     0.0000     0.0000 </r>
       <r>    61.5212     0.0000     0.0000 </r>
       <r>    61.9692     0.0000     0.0000 </r>
       <r>    62.4172     0.0000     0.0000 </r>
       <r>    62.8651     0.0000     0.0000 </r>
       <r>    63.3131     0.0000     0.0000 </r>
       <r>    63.7611     0.0000     0.0000 </r>
       <r>    64.2091     0.0000     0.0000 </r>
       <r>    64.6571     0.0000     0.0000 </r>
       <r>    65.1050     0.0000     0.0000 </r>
       <r>    65.5530     0.0000     0.0000 </r>
       <r>    66.0010     0.0000     0.0000 </r>
       <r>    66.4490     0.0000     0.0000 </r>
       <r>    66.8969     0.0000     0.0000 </r>
       <r>    67.3449     0.0000     0.0000 </r>
       <r>    67.7929     0.0000     0.0000 </r>
       <r>    68.2409     0.0000     0.0000 </r>
       <r>    68.6888     0.0000     0.0000 </r>
       <r>    69.1368     0.0000     0.0000 </r>
       <r>    69.5848     0.0000     0.0000 </r>
       <r>    70.0328     0.0000     0.0000 </r>
       <r>    70.4808     0.0000     0.0000 </r>
       <r>    70.9287     0.0000     0.0000 </r>
       <r>    71.3767     0.0000     0.0000 </r>
       <r>    71.8247     0.0000     0.0000 </r>
       <r>    72.2727     0.0000     0.0000 </r>
       <r>    72.7206     0.0000     0.0000 </r>
       <r>    73.1686     0.0000     0.0000 </r>
       <r>    73.6166     0.0000     0.0000 </r>
       <r>    74.0646     0.0000     0.0000 </r>
       <r>    74.5126     0.0000     0.0000 </r>
       <r>    74.9605     0.0000     0.0000 </r>
       <r>    75.4085     0.0000     0.0000 </r>
       <r>    75.8565     0.0000     0.0000 </r>
       <r>    76.3045     0.0000     0.0000 </r>
       <r>    76.7524     0.0000     0.0000 </r>
       <r>    77.2004     0.0000     0.0000 </r>
       <r>    77.6484     0.0000     0.0000 </r>
       <r>    78.0964     0.0000     0.0000 </r>
       <r>    78.5444     0.0000     0.0000 </r>
       <r>    78.9923     0.0000     0.0000 </r>
       <r>    79.4403     0.0000     0.0000 </r>
       <r>    79.8883     0.0000     0.0000 </r>
       <r>    80.3363     0.0000     0.0000 </r>
       <r>    80.7842     0.0000     0.0000 </r>
       <r>    81.2322     0.0000     0.0000 </r>
       <r>    81.6802     0.0000     0.0000 </r>
       <r>    82.1282     0.0000     0.0000 </r>
       <r>    82.5761     0.0000     0.0000 </r>
       <r>    83.0241     0.0000     0.0000 </r>
       <r>    83.4721     0.0000     0.0000 </r>
       <r>    83.9201     0.0000     0.0000 </r>
       <r>    84.3681     0.0000     0.0000 </r>
       <r>    84.8160     0.0000     0.0000 </r>
       <r>    85.2640     0.0000     0.0000 </r>
       <r>    85.7120     0.0000     0.0000 </r>
       <r>    86.1600     0.0000     0.0000 </r>
       <r>    86.6079     0.0000     0.0000 </r>
       <r>    87.0559     0.0000     0.0000 </r>
       <r>    87.5039     0.0000     0.0000 </r>
       <r>    87.9519     0.0000     0.0000 </r>
       <r>    88.3999     0.0000     0.0000 </r>
       <r>    88.8478     0.0000     0.0000 </r>
       <r>    89.2958     0.0000     0.0000 </r>
       <r>    89.7438     0.0000     0.0000 </r>
       <r>    90.1918     0.0000     0.0000 </r>
       <r>    90.6397     0.0000     0.0000 </r>
       <r>    91.0877     0.0000     0.0000 </r>
       <r>    91.5357     0.0000     0.0000 </r>
       <r>    91.9837     0.0000     0.0000 </r>
       <r>    92.4317     0.0000     0.0000 </r>
       <r>    92.8796     0.0000     0.0000 </r>
       <r>    93.3276     0.0000     0.0000 </r>
       <r>    93.7756     0.0000     0.0000 </r>
       <r>    94.2236     0.0000     0.0000 </r>
       <r>    94.6715     0.0000     0.0000 </r>
       <r>    95.1195     0.0000     0.0000 </r>
       <r>    95.5675     0.0000     0.0000 </r>
       <r>    96.0155     0.0000     0.0000 </r>
       <r>    96.4634     0.0000     0.0000 </r>
       <r>    96.9114     0.0000     0.0000 </r>
       <r>    97.3594     0.0000     0.0000 </r>
       <r>    97.8074     0.0000     0.0000 </r>
      </set>
      <set comment="spin 4">
       <r>   -36.5858     0.0000     0.0000 </r>
       <r>   -36.1379     0.0000     0.0000 </r>
       <r>   -35.6899     0.0000     0.0000 </r>
       <r>   -35.2419     0.0000     0.0000 </r>
       <r>   -34.7939     0.0000     0.0000 </r>
       <r>   -34.3460     0.0000     0.0000 </r>
       <r>   -33.8980     0.0000     0.0000 </r>
       <r>   -33.4500     0.0000     0.0000 </r>
       <r>   -33.0020     0.0000     0.0000 </r>
       <r>   -32.5541     0.0000     0.0000 </r>
       <r>   -32.1061     0.0000     0.0000 </r>
       <r>   -31.6581     0.0000     0.0000 </r>
       <r>   -31.2101     0.0000     0.0000 </r>
       <r>   -30.7621     0.0000     0.0000 </r>
       <r>   -30.3142     0.0000     0.0000 </r>
       <r>   -29.8662     0.0000     0.0000 </r>
       <r>   -29.4182     0.0000     0.0000 </r>
       <r>   -28.9702     0.0000     0.0000 </r>
       <r>   -28.5223     0.0000     0.0000 </r>
       <r>   -28.0743     0.0000     0.0000 </r>
       <r>   -27.6263     0.0000     0.0000 </r>
       <r>   -27.1783     0.0000     0.0000 </r>
       <r>   -26.7303     0.0000     0.0000 </r>
       <r>   -26.2824     0.0000     0.0000 </r>
       <r>   -25.8344     0.0000     0.0000 </r>
       <r>   -25.3864     0.0000     0.0000 </r>
       <r>   -24.9384     0.0000     0.0000 </r>
       <r>   -24.4905     0.0000     0.0000 </r>
       <r>   -24.0425     0.0000     0.0000 </r>
       <r>   -23.5945     0.0000     0.0000 </r>
       <r>   -23.1465     0.0000     0.0000 </r>
       <r>   -22.6985     0.0000     0.0000 </r>
       <r>   -22.2506     0.0000     0.0000 </r>
       <r>   -21.8026     0.0000     0.0000 </r>
       <r>   -21.3546     0.0000     0.0000 </r>
       <r>   -20.9066     0.0000     0.0000 </r>
       <r>   -20.4587     0.0000     0.0000 </r>
       <r>   -20.0107     0.0000     0.0000 </r>
       <r>   -19.5627     0.0000     0.0000 </r>
       <r>   -19.1147     0.0000     0.0000 </r>
       <r>   -18.6668     0.0000     0.0000 </r>
       <r>   -18.2188     0.0000     0.0000 </r>
       <r>   -17.7708     0.0000     0.0000 </r>
       <r>   -17.3228     0.0000     0.0000 </r>
       <r>   -16.8748     0.0000     0.0000 </r>
       <r>   -16.4269     0.0000     0.0000 </r>
       <r>   -15.9789     0.0000     0.0000 </r>
       <r>   -15.5309     0.0000     0.0000 </r>
       <r>   -15.0829     0.0000     0.0000 </r>
       <r>   -14.6350     0.0000     0.0000 </r>
       <r>   -14.1870     0.0000     0.0000 </r>
       <r>   -13.7390     0.0000     0.0000 </r>
       <r>   -13.2910     0.0000     0.0000 </r>
       <r>   -12.8430     0.0000     0.0000 </r>
       <r>   -12.3951     0.0000     0.0000 </r>
       <r>   -11.9471     0.0000     0.0000 </r>
       <r>   -11.4991     0.0000     0.0000 </r>
       <r>   -11.0511     0.0000     0.0000 </r>
       <r>   -10.6032     0.0000     0.0000 </r>
       <r>   -10.1552     0.0000     0.0000 </r>
       <r>    -9.7072     0.0000     0.0000 </r>
       <r>    -9.2592     0.0000     0.0000 </r>
       <r>    -8.8112     0.0000     0.0000 </r>
       <r>    -8.3633     0.0000     0.0000 </r>
       <r>    -7.9153     0.0000     0.0000 </r>
       <r>    -7.4673     0.0000     0.0000 </r>
       <r>    -7.0193     0.0000     0.0000 </r>
       <r>    -6.5714     0.0000     0.0000 </r>
       <r>    -6.1234     0.0000     0.0000 </r>
       <r>    -5.6754     0.0000     0.0000 </r>
       <r>    -5.2274     0.0000     0.0000 </r>
       <r>    -4.7795     0.0000     0.0000 </r>
       <r>    -4.3315     0.0000     0.0000 </r>
       <r>    -3.8835     0.0000     0.0000 </r>
       <r>    -3.4355     0.0000     0.0000 </r>
       <r>    -2.9875     0.0000     0.0000 </r>
       <r>    -2.5396     0.0000     0.0000 </r>
       <r>    -2.0916     0.0000     0.0000 </r>
       <r>    -1.6436     0.0000     0.0000 </r>
       <r>    -1.1956     0.0000     0.0000 </r>
       <r>    -0.7477     0.0000     0.0000 </r>
       <r>    -0.2997     0.0000     0.0000 </r>
       <r>     0.1483     0.0000     0.0000 </r>
       <r>     0.5963     0.0000     0.0000 </r>
       <r>     1.0443     0.0000     0.0000 </r>
       <r>     1.4922     0.0000     0.0000 </r>
       <r>     1.9402     0.0000     0.0000 </r>
       <r>     2.3882     0.0000     0.0000 </r>
       <r>     2.8362     0.0000     0.0000 </r>
       <r>     3.2841     0.0000     0.0000 </r>
       <r>     3.7321     0.0000     0.0000 </r>
       <r>     4.1801     0.0000     0.0000 </r>
       <r>     4.6281     0.0000     0.0000 </r>
       <r>     5.0761     0.0000     0.0000 </r>
       <r>     5.5240     0.0000     0.0000 </r>
       <r>     5.9720     0.0000     0.0000 </r>
       <r>     6.4200     0.0000     0.0000 </r>
       <r>     6.8680     0.0000     0.0000 </r>
       <r>     7.3159     0.0000     0.0000 </r>
       <r>     7.7639     0.0000     0.0000 </r>
       <r>     8.2119     0.0000     0.0000 </r>
       <r>     8.6599     0.0000     0.0000 </r>
       <r>     9.1078     0.0000     0.0000 </r>
       <r>     9.5558     0.0000     0.0000 </r>
       <r>    10.0038     0.0000     0.0000 </r>
       <r>    10.4518     0.0000     0.0000 </r>
       <r>    10.8998     0.0000     0.0000 </r>
       <r>    11.3477     0.0000     0.0000 </r>
       <r>    11.7957     0.0000     0.0000 </r>
       <r>    12.2437     0.0000     0.0000 </r>
       <r>    12.6917     0.0000     0.0000 </r>
       <r>    13.1396     0.0000     0.0000 </r>
       <r>    13.5876     0.0000     0.0000 </r>
       <r>    14.0356     0.0000     0.0000 </r>
       <r>    14.4836     0.0000     0.0000 </r>
       <r>    14.9316     0.0000     0.0000 </r>
       <r>    15.3795     0.0000     0.0000 </r>
       <r>    15.8275     0.0000     0.0000 </r>
       <r>    16.2755     0.0000     0.0000 </r>
       <r>    16.7235     0.0000     0.0000 </r>
       <r>    17.1714     0.0000     0.0000 </r>
       <r>    17.6194     0.0000     0.0000 </r>
       <r>    18.0674     0.0000     0.0000 </r>
       <r>    18.5154     0.0000     0.0000 </r>
       <r>    18.9634     0.0000     0.0000 </r>
       <r>    19.4113     0.0000     0.0000 </r>
       <r>    19.8593     0.0000     0.0000 </r>
       <r>    20.3073     0.0000     0.0000 </r>
       <r>    20.7553     0.0000     0.0000 </r>
       <r>    21.2032     0.0000     0.0000 </r>
       <r>    21.6512     0.0000     0.0000 </r>
       <r>    22.0992     0.0000     0.0000 </r>
       <r>    22.5472     0.0000     0.0000 </r>
       <r>    22.9952     0.0000     0.0000 </r>
       <r>    23.4431     0.0000     0.0000 </r>
       <r>    23.8911     0.0000     0.0000 </r>
       <r>    24.3391     0.0000     0.0000 </r>
       <r>    24.7871     0.0000     0.0000 </r>
       <r>    25.2350     0.0000     0.0000 </r>
       <r>    25.6830     0.0000     0.0000 </r>
       <r>    26.1310     0.0000     0.0000 </r>
       <r>    26.5790     0.0000     0.0000 </r>
       <r>    27.0269     0.0000     0.0000 </r>
       <r>    27.4749     0.0000     0.0000 </r>
       <r>    27.9229     0.0000     0.0000 </r>
       <r>    28.3709     0.0000     0.0000 </r>
       <r>    28.8189     0.0000     0.0000 </r>
       <r>    29.2668     0.0000     0.0000 </r>
       <r>    29.7148     0.0000     0.0000 </r>
       <r>    30.1628     0.0000     0.0000 </r>
       <r>    30.6108     0.0000     0.0000 </r>
       <r>    31.0587     0.0000     0.0000 </r>
       <r>    31.5067     0.0000     0.0000 </r>
       <r>    31.9547     0.0000     0.0000 </r>
       <r>    32.4027     0.0000     0.0000 </r>
       <r>    32.8507     0.0000     0.0000 </r>
       <r>    33.2986     0.0000     0.0000 </r>
       <r>    33.7466     0.0000     0.0000 </r>
       <r>    34.1946     0.0000     0.0000 </r>
       <r>    34.6426     0.0000     0.0000 </r>
       <r>    35.0905     0.0000     0.0000 </r>
       <r>    35.5385     0.0000     0.0000 </r>
       <r>    35.9865     0.0000     0.0000 </r>
       <r>    36.4345     0.0000     0.0000 </r>
       <r>    36.8825     0.0000     0.0000 </r>
       <r>    37.3304     0.0000     0.0000 </r>
       <r>    37.7784     0.0000     0.0000 </r>
       <r>    38.2264     0.0000     0.0000 </r>
       <r>    38.6744     0.0000     0.0000 </r>
       <r>    39.1223     0.0000     0.0000 </r>
       <r>    39.5703     0.0000     0.0000 </r>
       <r>    40.0183     0.0000     0.0000 </r>
       <r>    40.4663     0.0000     0.0000 </r>
       <r>    40.9142     0.0000     0.0000 </r>
       <r>    41.3622     0.0000     0.0000 </r>
       <r>    41.8102     0.0000     0.0000 </r>
       <r>    42.2582     0.0000     0.0000 </r>
       <r>    42.7062     0.0000     0.0000 </r>
       <r>    43.1541     0.0000     0.0000 </r>
       <r>    43.6021     0.0000     0.0000 </r>
       <r>    44.0501     0.0000     0.0000 </r>
       <r>    44.4981     0.0000     0.0000 </r>
       <r>    44.9460     0.0000     0.0000 </r>
       <r>    45.3940     0.0000     0.0000 </r>
       <r>    45.8420     0.0000     0.0000 </r>
       <r>    46.2900     0.0000     0.0000 </r>
       <r>    46.7380     0.0000     0.0000 </r>
       <r>    47.1859     0.0000     0.0000 </r>
       <r>    47.6339     0.0000     0.0000 </r>
       <r>    48.0819     0.0000     0.0000 </r>
       <r>    48.5299     0.0000     0.0000 </r>
       <r>    48.9778     0.0000     0.0000 </r>
       <r>    49.4258     0.0000     0.0000 </r>
       <r>    49.8738     0.0000     0.0000 </r>
       <r>    50.3218     0.0000     0.0000 </r>
       <r>    50.7698     0.0000     0.0000 </r>
       <r>    51.2177     0.0000     0.0000 </r>
       <r>    51.6657     0.0000     0.0000 </r>
       <r>    52.1137     0.0000     0.0000 </r>
       <r>    52.5617     0.0000     0.0000 </r>
       <r>    53.0096     0.0000     0.0000 </r>
       <r>    53.4576     0.0000     0.0000 </r>
       <r>    53.9056     0.0000     0.0000 </r>
       <r>    54.3536     0.0000     0.0000 </r>
       <r>    54.8015     0.0000     0.0000 </r>
       <r>    55.2495     0.0000     0.0000 </r>
       <r>    55.6975     0.0000     0.0000 </r>
       <r>    56.1455     0.0000     0.0000 </r>
       <r>    56.5935     0.0000     0.0000 </r>
       <r>    57.0414     0.0000     0.0000 </r>
       <r>    57.4894     0.0000     0.0000 </r>
       <r>    57.9374     0.0000     0.0000 </r>
       <r>    58.3854     0.0000     0.0000 </r>
       <r>    58.8333     0.0000     0.0000 </r>
       <r>    59.2813     0.0000     0.0000 </r>
       <r>    59.7293     0.0000     0.0000 </r>
       <r>    60.1773     0.0000     0.0000 </r>
       <r>    60.6253     0.0000     0.0000 </r>
       <r>    61.0732     0.0000     0.0000 </r>
       <r>    61.5212     0.0000     0.0000 </r>
       <r>    61.9692     0.0000     0.0000 </r>
       <r>    62.4172     0.0000     0.0000 </r>
       <r>    62.8651     0.0000     0.0000 </r>
       <r>    63.3131     0.0000     0.0000 </r>
       <r>    63.7611     0.0000     0.0000 </r>
       <r>    64.2091     0.0000     0.0000 </r>
       <r>    64.6571     0.0000     0.0000 </r>
       <r>    65.1050     0.0000     0.0000 </r>
       <r>    65.5530     0.0000     0.0000 </r>
       <r>    66.0010     0.0000     0.0000 </r>
       <r>    66.4490     0.0000     0.0000 </r>
       <r>    66.8969     0.0000     0.0000 </r>
       <r>    67.3449     0.0000     0.0000 </r>
       <r>    67.7929     0.0000     0.0000 </r>
       <r>    68.2409     0.0000     0.0000 </r>
       <r>    68.6888     0.0000     0.0000 </r>
       <r>    69.1368     0.0000     0.0000 </r>
       <r>    69.5848     0.0000     0.0000 </r>
       <r>    70.0328     0.0000     0.0000 </r>
       <r>    70.4808     0.0000     0.0000 </r>
       <r>    70.9287     0.0000     0.0000 </r>
       <r>    71.3767     0.0000     0.0000 </r>
       <r>    71.8247     0.0000     0.0000 </r>
       <r>    72.2727     0.0000     0.0000 </r>
       <r>    72.7206     0.0000     0.0000 </r>
       <r>    73.1686     0.0000     0.0000 </r>
       <r>    73.6166     0.0000     0.0000 </r>
       <r>    74.0646     0.0000     0.0000 </r>
       <r>    74.5126     0.0000     0.0000 </r>
       <r>    74.9605     0.0000     0.0000 </r>
       <r>    75.4085     0.0000     0.0000 </r>
       <r>    75.8565     0.0000     0.0000 </r>
       <r>    76.3045     0.0000     0.0000 </r>
       <r>    76.7524     0.0000     0.0000 </r>
       <r>    77.2004     0.0000     0.0000 </r>
       <r>    77.6484     0.0000     0.0000 </r>
       <r>    78.0964     0.0000     0.0000 </r>
       <r>    78.5444     0.0000     0.0000 </r>
       <r>    78.9923     0.0000     0.0000 </r>
       <r>    79.4403     0.0000     0.0000 </r>
       <r>    79.8883     0.0000     0.0000 </r>
       <r>    80.3363     0.0000     0.0000 </r>
       <r>    80.7842     0.0000     0.0000 </r>
       <r>    81.2322     0.0000     0.0000 </r>
       <r>    81.6802     0.0000     0.0000 </r>
       <r>    82.1282     0.0000     0.0000 </r>
       <r>    82.5761     0.0000     0.0000 </r>
       <r>    83.0241     0.0000     0.0000 </r>
       <r>    83.4721     0.0000     0.0000 </r>
       <r>    83.9201     0.0000     0.0000 </r>
       <r>    84.3681     0.0000     0.0000 </r>
       <r>    84.8160     0.0000     0.0000 </r>
       <r>    85.2640     0.0000     0.0000 </r>
       <r>    85.7120     0.0000     0.0000 </r>
       <r>    86.1600     0.0000     0.0000 </r>
       <r>    86.6079     0.0000     0.0000 </r>
       <r>    87.0559     0.0000     0.0000 </r>
       <r>    87.5039     0.0000     0.0000 </r>
       <r>    87.9519     0.0000     0.0000 </r>
       <r>    88.3999     0.0000     0.0000 </r>
       <r>    88.8478     0.0000     0.0000 </r>
       <r>    89.2958     0.0000     0.0000 </r>
       <r>    89.7438     0.0000     0.0000 </r>
       <r>    90.1918     0.0000     0.0000 </r>
       <r>    90.6397     0.0000     0.0000 </r>
       <r>    91.0877     0.0000     0.0000 </r>
       <r>    91.5357     0.0000     0.0000 </r>
       <r>    91.9837     0.0000     0.0000 </r>
       <r>    92.4317     0.0000     0.0000 </r>
       <r>    92.8796     0.0000     0.0000 </r>
       <r>    93.3276     0.0000     0.0000 </r>
       <r>    93.7756     0.0000     0.0000 </r>
       <r>    94.2236     0.0000     0.0000 </r>
       <r>    94.6715     0.0000     0.0000 </r>
       <r>    95.1195     0.0000     0.0000 </r>
       <r>    95.5675     0.0000     0.0000 </r>
       <r>    96.0155     0.0000     0.0000 </r>
       <r>    96.4634     0.0000     0.0000 </r>
       <r>    96.9114     0.0000     0.0000 </r>
       <r>    97.3594     0.0000     0.0000 </r>
       <r>    97.8074     0.0000     0.0000 </r>
      </set>
     </set>
    </array>
   </total>
  </dos>
 </calculation>
 <structure name="finalpos" >
  <crystal>
   <varray name="basis" >
    <v>       4.34234588       0.00000000       0.00000000 </v>
    <v>       2.17117294       3.76058184      -0.00000000 </v>
    <v>       2.17117294       1.25352728       3.54551056 </v>
   </varray>
   <i name="volume">     57.89729060 </i>
   <varray name="rec_basis" >
    <v>       0.23029027      -0.13295815      -0.09401561 </v>
    <v>       0.00000000       0.26591630      -0.09401561 </v>
    <v>      -0.00000000       0.00000000       0.28204683 </v>
   </varray>
  </crystal>
  <varray name="positions" >
   <v>       0.00000000       0.00000000       0.00000000 </v>
  </varray>
  <varray name="velocities" >
   <v>       0.00000000       0.00000000       0.00000000 </v>
  </varray>
 </structure>
</modeling>
