   1   1   0   0
  0.4928368E+02  0.4115343E-09  0.4115343E-09  0.4115343E-09  0.1000000E-15
  1.000000000000000E-004
  CAR 
 Og_FCC                                  
     69.58861119    -26.68645389  301     -7.27098243      1.00000000
    -26.686  0.0000E+00  0.0000E+00
    -26.366  0.0000E+00  0.0000E+00
    -26.045  0.0000E+00  0.0000E+00
    -25.724  0.0000E+00  0.0000E+00
    -25.403  0.0000E+00  0.0000E+00
    -25.082  0.0000E+00  0.0000E+00
    -24.761  0.0000E+00  0.0000E+00
    -24.440  0.0000E+00  0.0000E+00
    -24.119  0.0000E+00  0.0000E+00
    -23.798  0.0000E+00  0.0000E+00
    -23.477  0.0000E+00  0.0000E+00
    -23.156  0.0000E+00  0.0000E+00
    -22.835  0.0000E+00  0.0000E+00
    -22.515  0.0000E+00  0.0000E+00
    -22.194  0.0000E+00  0.3440E+00
    -21.873  0.0000E+00  0.2000E+01
    -21.552  0.0000E+00  0.2000E+01
    -21.231  0.0000E+00  0.2000E+01
    -20.910  0.0000E+00  0.2000E+01
    -20.589  0.0000E+00  0.2000E+01
    -20.268  0.0000E+00  0.2000E+01
    -19.947  0.0000E+00  0.2000E+01
    -19.626  0.0000E+00  0.2000E+01
    -19.305  0.0000E+00  0.2000E+01
    -18.984  0.0000E+00  0.2000E+01
    -18.664  0.0000E+00  0.2000E+01
    -18.343  0.0000E+00  0.2000E+01
    -18.022  0.0000E+00  0.2000E+01
    -17.701  0.0000E+00  0.2000E+01
    -17.380  0.0000E+00  0.2000E+01
    -17.059  0.0000E+00  0.2000E+01
    -16.738  0.0000E+00  0.2000E+01
    -16.417  0.0000E+00  0.2000E+01
    -16.096  0.0000E+00  0.2000E+01
    -15.775  0.0000E+00  0.2000E+01
    -15.454  0.0000E+00  0.2000E+01
    -15.133  0.0000E+00  0.2000E+01
    -14.813  0.0000E+00  0.2000E+01
    -14.492  0.0000E+00  0.2000E+01
    -14.171  0.0000E+00  0.2000E+01
    -13.850  0.0000E+00  0.2000E+01
    -13.529  0.0000E+00  0.2000E+01
    -13.208  0.0000E+00  0.2000E+01
    -12.887  0.0000E+00  0.2000E+01
    -12.566  0.0000E+00  0.2000E+01
    -12.245  0.0000E+00  0.2000E+01
    -11.924  0.0000E+00  0.2000E+01
    -11.603  0.0000E+00  0.2000E+01
    -11.282  0.0000E+00  0.2000E+01
    -10.962  0.0000E+00  0.2000E+01
    -10.641  0.0000E+00  0.2000E+01
    -10.320  0.0000E+00  0.2000E+01
     -9.999  0.0000E+00  0.2000E+01
     -9.678  0.0000E+00  0.2000E+01
     -9.357  0.0000E+00  0.2000E+01
     -9.036  0.4495E+00  0.2576E+01
     -8.715  0.0000E+00  0.3703E+01
     -8.394  0.2001E+00  0.4117E+01
     -8.073  0.0000E+00  0.5294E+01
     -7.752  0.0000E+00  0.6927E+01
     -7.431  0.1156E+00  0.7979E+01
     -7.111  0.0000E+00  0.8000E+01
     -6.790  0.0000E+00  0.8000E+01
     -6.469  0.0000E+00  0.8000E+01
     -6.148  0.0000E+00  0.8000E+01
     -5.827  0.0000E+00  0.8000E+01
     -5.506  0.0000E+00  0.8000E+01
     -5.185  0.0000E+00  0.8000E+01
     -4.864  0.0000E+00  0.8000E+01
     -4.543  0.0000E+00  0.8000E+01
     -4.222  0.0000E+00  0.8000E+01
     -3.901  0.0000E+00  0.8000E+01
     -3.580  0.0000E+00  0.8000E+01
     -3.260  0.0000E+00  0.8000E+01
     -2.939  0.0000E+00  0.8000E+01
     -2.618  0.0000E+00  0.8000E+01
     -2.297  0.0000E+00  0.8000E+01
     -1.976  0.0000E+00  0.8000E+01
     -1.655  0.0000E+00  0.8000E+01
     -1.334  0.0000E+00  0.8000E+01
     -1.013  0.0000E+00  0.8000E+01
     -0.692  0.0000E+00  0.8000E+01
     -0.371  0.0000E+00  0.8000E+01
     -0.050  0.0000E+00  0.8000E+01
      0.271  0.0000E+00  0.8000E+01
      0.591  0.0000E+00  0.8000E+01
      0.912  0.0000E+00  0.8000E+01
      1.233  0.0000E+00  0.8000E+01
      1.554  0.0000E+00  0.8000E+01
      1.875  0.0000E+00  0.8000E+01
      2.196  0.0000E+00  0.8000E+01
      2.517  0.0000E+00  0.8000E+01
      2.838  0.0000E+00  0.8000E+01
      3.159  0.0000E+00  0.8000E+01
      3.480  0.0000E+00  0.8000E+01
      3.801  0.0000E+00  0.8000E+01
      4.122  0.0000E+00  0.8000E+01
      4.442  0.0000E+00  0.8006E+01
      4.763  0.0000E+00  0.8006E+01
      5.084  0.1052E+00  0.8086E+01
      5.405  0.0000E+00  0.8087E+01
      5.726  0.0000E+00  0.8157E+01
      6.047  0.0000E+00  0.8157E+01
      6.368  0.0000E+00  0.8344E+01
      6.689  0.0000E+00  0.8379E+01
      7.010  0.1119E-08  0.8601E+01
      7.331  0.0000E+00  0.9090E+01
      7.652  0.0000E+00  0.9370E+01
      7.973  0.8067E+00  0.9909E+01
      8.293  0.0000E+00  0.1000E+02
      8.614  0.0000E+00  0.1010E+02
      8.935  0.0000E+00  0.1087E+02
      9.256  0.0000E+00  0.1133E+02
      9.577  0.0000E+00  0.1166E+02
      9.898  0.0000E+00  0.1233E+02
     10.219  0.0000E+00  0.1300E+02
     10.540  0.0000E+00  0.1356E+02
     10.861  0.5322E-05  0.1388E+02
     11.182  0.0000E+00  0.1433E+02
     11.503  0.0000E+00  0.1470E+02
     11.824  0.0000E+00  0.1578E+02
     12.144  0.0000E+00  0.1693E+02
     12.465  0.0000E+00  0.1732E+02
     12.786  0.0000E+00  0.1808E+02
     13.107  0.1068E-10  0.1840E+02
     13.428  0.0000E+00  0.1933E+02
     13.749  0.0000E+00  0.1983E+02
     14.070  0.0000E+00  0.2053E+02
     14.391  0.0000E+00  0.2071E+02
     14.712  0.0000E+00  0.2149E+02
     15.033  0.0000E+00  0.2198E+02
     15.354  0.0000E+00  0.2260E+02
     15.675  0.0000E+00  0.2302E+02
     15.995  0.0000E+00  0.2372E+02
     16.316  0.0000E+00  0.2379E+02
     16.637  0.4356E+00  0.2490E+02
     16.958  0.0000E+00  0.2548E+02
     17.279  0.4361E+00  0.2595E+02
     17.600  0.0000E+00  0.2623E+02
     17.921  0.0000E+00  0.2655E+02
     18.242  0.0000E+00  0.2722E+02
     18.563  0.0000E+00  0.2761E+02
     18.884  0.0000E+00  0.2785E+02
     19.205  0.0000E+00  0.2841E+02
     19.526  0.0000E+00  0.2883E+02
     19.846  0.0000E+00  0.2956E+02
     20.167  0.0000E+00  0.3012E+02
     20.488  0.0000E+00  0.3026E+02
     20.809  0.4361E+00  0.3110E+02
     21.130  0.0000E+00  0.3135E+02
     21.451  0.0000E+00  0.3167E+02
     21.772  0.3156E+00  0.3257E+02
     22.093  0.1454E+00  0.3316E+02
     22.414  0.0000E+00  0.3356E+02
     22.735  0.1453E+00  0.3416E+02
     23.056  0.0000E+00  0.3468E+02
     23.377  0.4741E-04  0.3513E+02
     23.697  0.0000E+00  0.3590E+02
     24.018  0.0000E+00  0.3632E+02
     24.339  0.0000E+00  0.3737E+02
     24.660  0.0000E+00  0.3822E+02
     24.981  0.0000E+00  0.3861E+02
     25.302  0.0000E+00  0.3910E+02
     25.623  0.0000E+00  0.3973E+02
     25.944  0.0000E+00  0.4001E+02
     26.265  0.1454E+00  0.4032E+02
     26.586  0.0000E+00  0.4148E+02
     26.907  0.0000E+00  0.4190E+02
     27.228  0.0000E+00  0.4226E+02
     27.548  0.0000E+00  0.4275E+02
     27.869  0.0000E+00  0.4331E+02
     28.190  0.2585E-10  0.4453E+02
     28.511  0.4361E+00  0.4536E+02
     28.832  0.0000E+00  0.4581E+02
     29.153  0.0000E+00  0.4649E+02
     29.474  0.1201E-07  0.4733E+02
     29.795  0.0000E+00  0.4784E+02
     30.116  0.0000E+00  0.4863E+02
     30.437  0.0000E+00  0.4882E+02
     30.758  0.0000E+00  0.4922E+02
     31.079  0.0000E+00  0.4985E+02
     31.400  0.0000E+00  0.4997E+02
     31.720  0.4587E+00  0.5089E+02
     32.041  0.0000E+00  0.5166E+02
     32.362  0.0000E+00  0.5268E+02
     32.683  0.0000E+00  0.5314E+02
     33.004  0.1246E+00  0.5405E+02
     33.325  0.0000E+00  0.5482E+02
     33.646  0.3057E+00  0.5558E+02
     33.967  0.0000E+00  0.5636E+02
     34.288  0.0000E+00  0.5727E+02
     34.609  0.0000E+00  0.5744E+02
     34.930  0.0000E+00  0.5807E+02
     35.251  0.1694E-01  0.5833E+02
     35.571  0.0000E+00  0.5882E+02
     35.892  0.0000E+00  0.5954E+02
     36.213  0.0000E+00  0.6024E+02
     36.534  0.0000E+00  0.6155E+02
     36.855  0.0000E+00  0.6247E+02
     37.176  0.0000E+00  0.6320E+02
     37.497  0.0000E+00  0.6390E+02
     37.818  0.4361E+00  0.6472E+02
     38.139  0.0000E+00  0.6507E+02
     38.460  0.0000E+00  0.6563E+02
     38.781  0.4361E+00  0.6641E+02
     39.102  0.2111E-13  0.6694E+02
     39.422  0.0000E+00  0.6778E+02
     39.743  0.0000E+00  0.6849E+02
     40.064  0.0000E+00  0.6905E+02
     40.385  0.0000E+00  0.6984E+02
     40.706  0.0000E+00  0.7066E+02
     41.027  0.4361E+00  0.7166E+02
     41.348  0.3634E-01  0.7239E+02
     41.669  0.1454E+00  0.7307E+02
     41.990  0.0000E+00  0.7423E+02
     42.311  0.0000E+00  0.7476E+02
     42.632  0.0000E+00  0.7536E+02
     42.953  0.7760E-01  0.7574E+02
     43.273  0.0000E+00  0.7641E+02
     43.594  0.0000E+00  0.7662E+02
     43.915  0.1308E+00  0.7802E+02
     44.236  0.2034E+00  0.7859E+02
     44.557  0.0000E+00  0.7957E+02
     44.878  0.0000E+00  0.8071E+02
     45.199  0.0000E+00  0.8150E+02
     45.520  0.2962E-09  0.8203E+02
     45.841  0.0000E+00  0.8278E+02
     46.162  0.0000E+00  0.8329E+02
     46.483  0.1071E+00  0.8455E+02
     46.804  0.0000E+00  0.8541E+02
     47.124  0.0000E+00  0.8645E+02
     47.445  0.0000E+00  0.8715E+02
     47.766  0.4332E+00  0.8821E+02
     48.087  0.0000E+00  0.8851E+02
     48.408  0.0000E+00  0.8904E+02
     48.729  0.0000E+00  0.8972E+02
     49.050  0.0000E+00  0.9063E+02
     49.371  0.3225E+00  0.9147E+02
     49.692  0.0000E+00  0.9206E+02
     50.013  0.0000E+00  0.9283E+02
     50.334  0.5417E-03  0.9351E+02
     50.655  0.0000E+00  0.9454E+02
     50.975  0.0000E+00  0.9560E+02
     51.296  0.8719E+00  0.9624E+02
     51.617  0.1090E+00  0.9727E+02
     51.938  0.0000E+00  0.9834E+02
     52.259  0.0000E+00  0.9915E+02
     52.580  0.0000E+00  0.1003E+03
     52.901  0.0000E+00  0.1007E+03
     53.222  0.0000E+00  0.1012E+03
     53.543  0.0000E+00  0.1023E+03
     53.864  0.1017E-13  0.1029E+03
     54.185  0.8721E+00  0.1038E+03
     54.506  0.1337E-01  0.1043E+03
     54.826  0.6415E-15  0.1048E+03
     55.147  0.0000E+00  0.1059E+03
     55.468  0.1454E+00  0.1063E+03
     55.789  0.2180E+00  0.1071E+03
     56.110  0.0000E+00  0.1084E+03
     56.431  0.0000E+00  0.1095E+03
     56.752  0.0000E+00  0.1108E+03
     57.073  0.5807E-01  0.1117E+03
     57.394  0.0000E+00  0.1123E+03
     57.715  0.0000E+00  0.1134E+03
     58.036  0.0000E+00  0.1142E+03
     58.357  0.0000E+00  0.1152E+03
     58.677  0.0000E+00  0.1159E+03
     58.998  0.0000E+00  0.1169E+03
     59.319  0.0000E+00  0.1173E+03
     59.640  0.0000E+00  0.1179E+03
     59.961  0.4278E+00  0.1187E+03
     60.282  0.0000E+00  0.1195E+03
     60.603  0.0000E+00  0.1201E+03
     60.924  0.0000E+00  0.1212E+03
     61.245  0.0000E+00  0.1223E+03
     61.566  0.0000E+00  0.1235E+03
     61.887  0.4361E+00  0.1248E+03
     62.208  0.0000E+00  0.1254E+03
     62.528  0.0000E+00  0.1261E+03
     62.849  0.0000E+00  0.1265E+03
     63.170  0.0000E+00  0.1272E+03
     63.491  0.0000E+00  0.1275E+03
     63.812  0.0000E+00  0.1277E+03
     64.133  0.0000E+00  0.1279E+03
     64.454  0.0000E+00  0.1279E+03
     64.775  0.0000E+00  0.1279E+03
     65.096  0.0000E+00  0.1280E+03
     65.417  0.0000E+00  0.1280E+03
     65.738  0.0000E+00  0.1280E+03
     66.059  0.0000E+00  0.1280E+03
     66.379  0.0000E+00  0.1280E+03
     66.700  0.0000E+00  0.1280E+03
     67.021  0.0000E+00  0.1280E+03
     67.342  0.0000E+00  0.1280E+03
     67.663  0.0000E+00  0.1280E+03
     67.984  0.0000E+00  0.1280E+03
     68.305  0.0000E+00  0.1280E+03
     68.626  0.0000E+00  0.1280E+03
     68.947  0.0000E+00  0.1280E+03
     69.268  0.0000E+00  0.1280E+03
     69.589  0.0000E+00  0.1280E+03
