   1   1   0   0
  0.1860393E+02  0.2974221E-09  0.2974221E-09  0.2974221E-09  0.1000000E-15
  1.000000000000000E-004
  CAR 
 Og_FCC                                  
    135.19519082    -53.78001111  301     -9.52831799      1.00000000
    -53.780  0.0000E+00  0.0000E+00
    -53.150  0.0000E+00  0.0000E+00
    -52.520  0.0000E+00  0.0000E+00
    -51.890  0.0000E+00  0.0000E+00
    -51.260  0.0000E+00  0.0000E+00
    -50.630  0.0000E+00  0.0000E+00
    -50.001  0.0000E+00  0.0000E+00
    -49.371  0.0000E+00  0.0000E+00
    -48.741  0.0000E+00  0.0000E+00
    -48.111  0.0000E+00  0.0000E+00
    -47.481  0.0000E+00  0.0000E+00
    -46.851  0.0000E+00  0.0000E+00
    -46.221  0.0000E+00  0.0000E+00
    -45.591  0.0000E+00  0.0000E+00
    -44.961  0.0000E+00  0.1688E+01
    -44.331  0.0000E+00  0.2000E+01
    -43.701  0.0000E+00  0.2000E+01
    -43.071  0.0000E+00  0.2000E+01
    -42.441  0.0000E+00  0.2000E+01
    -41.812  0.0000E+00  0.2000E+01
    -41.182  0.0000E+00  0.2000E+01
    -40.552  0.0000E+00  0.2000E+01
    -39.922  0.0000E+00  0.2000E+01
    -39.292  0.0000E+00  0.2000E+01
    -38.662  0.0000E+00  0.2000E+01
    -38.032  0.0000E+00  0.2000E+01
    -37.402  0.0000E+00  0.2000E+01
    -36.772  0.0000E+00  0.2000E+01
    -36.142  0.0000E+00  0.2000E+01
    -35.512  0.0000E+00  0.2000E+01
    -34.882  0.0000E+00  0.2000E+01
    -34.253  0.0000E+00  0.2000E+01
    -33.623  0.0000E+00  0.2000E+01
    -32.993  0.0000E+00  0.2000E+01
    -32.363  0.0000E+00  0.2000E+01
    -31.733  0.0000E+00  0.2000E+01
    -31.103  0.0000E+00  0.2000E+01
    -30.473  0.0000E+00  0.2000E+01
    -29.843  0.0000E+00  0.2000E+01
    -29.213  0.0000E+00  0.2000E+01
    -28.583  0.0000E+00  0.2000E+01
    -27.953  0.0000E+00  0.2000E+01
    -27.323  0.0000E+00  0.2000E+01
    -26.694  0.0000E+00  0.2000E+01
    -26.064  0.0000E+00  0.2000E+01
    -25.434  0.0000E+00  0.2000E+01
    -24.804  0.0000E+00  0.2000E+01
    -24.174  0.0000E+00  0.2000E+01
    -23.544  0.0000E+00  0.2000E+01
    -22.914  0.0000E+00  0.2000E+01
    -22.284  0.0000E+00  0.2000E+01
    -21.654  0.0000E+00  0.2000E+01
    -21.024  0.0000E+00  0.2000E+01
    -20.394  0.0000E+00  0.2000E+01
    -19.764  0.0000E+00  0.2000E+01
    -19.135  0.0000E+00  0.2000E+01
    -18.505  0.0000E+00  0.2000E+01
    -17.875  0.0000E+00  0.2000E+01
    -17.245  0.0000E+00  0.2000E+01
    -16.615  0.0000E+00  0.2000E+01
    -15.985  0.0000E+00  0.2000E+01
    -15.355  0.0000E+00  0.2000E+01
    -14.725  0.0000E+00  0.2000E+01
    -14.095  0.0000E+00  0.2000E+01
    -13.465  0.0000E+00  0.2375E+01
    -12.835  0.0000E+00  0.2625E+01
    -12.205  0.0000E+00  0.4312E+01
    -11.576  0.0000E+00  0.5875E+01
    -10.946  0.0000E+00  0.7062E+01
    -10.316  0.0000E+00  0.7812E+01
     -9.686  0.0000E+00  0.8000E+01
     -9.056  0.0000E+00  0.8000E+01
     -8.426  0.0000E+00  0.8000E+01
     -7.796  0.0000E+00  0.8000E+01
     -7.166  0.0000E+00  0.8000E+01
     -6.536  0.0000E+00  0.8000E+01
     -5.906  0.0000E+00  0.8000E+01
     -5.276  0.0000E+00  0.8000E+01
     -4.646  0.0000E+00  0.8000E+01
     -4.017  0.0000E+00  0.8000E+01
     -3.387  0.0000E+00  0.8000E+01
     -2.757  0.0000E+00  0.8000E+01
     -2.127  0.0000E+00  0.8000E+01
     -1.497  0.0000E+00  0.8000E+01
     -0.867  0.0000E+00  0.8000E+01
     -0.237  0.0000E+00  0.8000E+01
      0.393  0.0000E+00  0.8000E+01
      1.023  0.0000E+00  0.8031E+01
      1.653  0.0000E+00  0.8031E+01
      2.283  0.0000E+00  0.8031E+01
      2.913  0.0000E+00  0.8281E+01
      3.542  0.0000E+00  0.8469E+01
      4.172  0.0000E+00  0.8469E+01
      4.802  0.0000E+00  0.8469E+01
      5.432  0.0000E+00  0.8469E+01
      6.062  0.0000E+00  0.8469E+01
      6.692  0.0000E+00  0.8844E+01
      7.322  0.0000E+00  0.8969E+01
      7.952  0.0000E+00  0.9719E+01
      8.582  0.0000E+00  0.9812E+01
      9.212  0.0000E+00  0.9812E+01
      9.842  0.0000E+00  0.9938E+01
     10.472  0.0000E+00  0.1012E+02
     11.101  0.0000E+00  0.1012E+02
     11.731  0.0000E+00  0.1088E+02
     12.361  0.0000E+00  0.1125E+02
     12.991  0.0000E+00  0.1172E+02
     13.621  0.0000E+00  0.1219E+02
     14.251  0.0000E+00  0.1244E+02
     14.881  0.0000E+00  0.1338E+02
     15.511  0.0000E+00  0.1356E+02
     16.141  0.0000E+00  0.1356E+02
     16.771  0.0000E+00  0.1375E+02
     17.401  0.0000E+00  0.1375E+02
     18.031  0.0000E+00  0.1375E+02
     18.660  0.0000E+00  0.1375E+02
     19.290  0.0000E+00  0.1475E+02
     19.920  0.0000E+00  0.1569E+02
     20.550  0.0000E+00  0.1694E+02
     21.180  0.0000E+00  0.1703E+02
     21.810  0.0000E+00  0.1716E+02
     22.440  0.0000E+00  0.1741E+02
     23.070  0.0000E+00  0.1753E+02
     23.700  0.0000E+00  0.1791E+02
     24.330  0.0000E+00  0.1791E+02
     24.960  0.0000E+00  0.1878E+02
     25.590  0.0000E+00  0.1916E+02
     26.219  0.0000E+00  0.1916E+02
     26.849  0.0000E+00  0.1941E+02
     27.479  0.0000E+00  0.1981E+02
     28.109  0.0000E+00  0.1988E+02
     28.739  0.0000E+00  0.1988E+02
     29.369  0.0000E+00  0.2197E+02
     29.999  0.0000E+00  0.2216E+02
     30.629  0.0000E+00  0.2353E+02
     31.259  0.0000E+00  0.2353E+02
     31.889  0.0000E+00  0.2353E+02
     32.519  0.0000E+00  0.2428E+02
     33.149  0.0000E+00  0.2516E+02
     33.778  0.0000E+00  0.2559E+02
     34.408  0.0000E+00  0.2781E+02
     35.038  0.0000E+00  0.2781E+02
     35.668  0.0000E+00  0.2781E+02
     36.298  0.0000E+00  0.2819E+02
     36.928  0.0000E+00  0.2819E+02
     37.558  0.2977E+00  0.2856E+02
     38.188  0.0000E+00  0.2894E+02
     38.818  0.0000E+00  0.2903E+02
     39.448  0.0000E+00  0.2947E+02
     40.078  0.0000E+00  0.2947E+02
     40.708  0.0000E+00  0.3044E+02
     41.338  0.0000E+00  0.3231E+02
     41.967  0.0000E+00  0.3294E+02
     42.597  0.0000E+00  0.3344E+02
     43.227  0.0000E+00  0.3419E+02
     43.857  0.0000E+00  0.3419E+02
     44.487  0.0000E+00  0.3438E+02
     45.117  0.0000E+00  0.3456E+02
     45.747  0.0000E+00  0.3562E+02
     46.377  0.0000E+00  0.3619E+02
     47.007  0.0000E+00  0.3722E+02
     47.637  0.0000E+00  0.3769E+02
     48.267  0.0000E+00  0.3919E+02
     48.897  0.0000E+00  0.3919E+02
     49.526  0.0000E+00  0.3969E+02
     50.156  0.0000E+00  0.3997E+02
     50.786  0.0000E+00  0.3997E+02
     51.416  0.0000E+00  0.3997E+02
     52.046  0.0000E+00  0.4072E+02
     52.676  0.0000E+00  0.4166E+02
     53.306  0.0000E+00  0.4178E+02
     53.936  0.0000E+00  0.4259E+02
     54.566  0.0000E+00  0.4334E+02
     55.196  0.0000E+00  0.4372E+02
     55.826  0.0000E+00  0.4484E+02
     56.456  0.0000E+00  0.4678E+02
     57.085  0.2977E+00  0.4772E+02
     57.715  0.0000E+00  0.4772E+02
     58.345  0.0000E+00  0.4850E+02
     58.975  0.0000E+00  0.4888E+02
     59.605  0.0000E+00  0.4944E+02
     60.235  0.0000E+00  0.5066E+02
     60.865  0.0000E+00  0.5122E+02
     61.495  0.0000E+00  0.5159E+02
     62.125  0.0000E+00  0.5159E+02
     62.755  0.0000E+00  0.5288E+02
     63.385  0.0000E+00  0.5288E+02
     64.015  0.0000E+00  0.5425E+02
     64.644  0.0000E+00  0.5500E+02
     65.274  0.0000E+00  0.5575E+02
     65.904  0.0000E+00  0.5625E+02
     66.534  0.0000E+00  0.5681E+02
     67.164  0.0000E+00  0.5750E+02
     67.794  0.0000E+00  0.5788E+02
     68.424  0.0000E+00  0.5806E+02
     69.054  0.0000E+00  0.5916E+02
     69.684  0.0000E+00  0.5916E+02
     70.314  0.0000E+00  0.6028E+02
     70.944  0.0000E+00  0.6141E+02
     71.574  0.0000E+00  0.6234E+02
     72.203  0.0000E+00  0.6303E+02
     72.833  0.0000E+00  0.6350E+02
     73.463  0.0000E+00  0.6375E+02
     74.093  0.0000E+00  0.6478E+02
     74.723  0.0000E+00  0.6597E+02
     75.353  0.0000E+00  0.6722E+02
     75.983  0.0000E+00  0.6778E+02
     76.613  0.0000E+00  0.6903E+02
     77.243  0.0000E+00  0.7059E+02
     77.873  0.0000E+00  0.7097E+02
     78.503  0.0000E+00  0.7122E+02
     79.133  0.0000E+00  0.7197E+02
     79.762  0.0000E+00  0.7203E+02
     80.392  0.0000E+00  0.7228E+02
     81.022  0.0000E+00  0.7284E+02
     81.652  0.0000E+00  0.7453E+02
     82.282  0.0000E+00  0.7453E+02
     82.912  0.0000E+00  0.7472E+02
     83.542  0.0000E+00  0.7559E+02
     84.172  0.0000E+00  0.7622E+02
     84.802  0.0000E+00  0.7753E+02
     85.432  0.0000E+00  0.7816E+02
     86.062  0.0000E+00  0.7891E+02
     86.692  0.1479E+00  0.7900E+02
     87.321  0.0000E+00  0.7925E+02
     87.951  0.1488E+00  0.8122E+02
     88.581  0.0000E+00  0.8162E+02
     89.211  0.0000E+00  0.8247E+02
     89.841  0.0000E+00  0.8347E+02
     90.471  0.0000E+00  0.8475E+02
     91.101  0.0000E+00  0.8662E+02
     91.731  0.0000E+00  0.8750E+02
     92.361  0.0000E+00  0.8750E+02
     92.991  0.0000E+00  0.8775E+02
     93.621  0.0000E+00  0.8825E+02
     94.251  0.0000E+00  0.8900E+02
     94.880  0.0000E+00  0.8938E+02
     95.510  0.0000E+00  0.8975E+02
     96.140  0.0000E+00  0.9122E+02
     96.770  0.0000E+00  0.9216E+02
     97.400  0.0000E+00  0.9409E+02
     98.030  0.0000E+00  0.9484E+02
     98.660  0.0000E+00  0.9597E+02
     99.290  0.0000E+00  0.9709E+02
     99.920  0.0000E+00  0.9803E+02
    100.550  0.0000E+00  0.9897E+02
    101.180  0.0000E+00  0.9947E+02
    101.810  0.0000E+00  0.1007E+03
    102.439  0.0000E+00  0.1008E+03
    103.069  0.0000E+00  0.1019E+03
    103.699  0.0000E+00  0.1025E+03
    104.329  0.0000E+00  0.1028E+03
    104.959  0.0000E+00  0.1032E+03
    105.589  0.0000E+00  0.1032E+03
    106.219  0.0000E+00  0.1035E+03
    106.849  0.0000E+00  0.1042E+03
    107.479  0.0000E+00  0.1054E+03
    108.109  0.0000E+00  0.1058E+03
    108.739  0.0000E+00  0.1080E+03
    109.369  0.0000E+00  0.1090E+03
    109.998  0.0000E+00  0.1094E+03
    110.628  0.1822E-04  0.1099E+03
    111.258  0.0000E+00  0.1124E+03
    111.888  0.0000E+00  0.1127E+03
    112.518  0.0000E+00  0.1131E+03
    113.148  0.0000E+00  0.1152E+03
    113.778  0.0000E+00  0.1161E+03
    114.408  0.0000E+00  0.1176E+03
    115.038  0.0000E+00  0.1182E+03
    115.668  0.0000E+00  0.1185E+03
    116.298  0.0000E+00  0.1195E+03
    116.928  0.0000E+00  0.1204E+03
    117.558  0.0000E+00  0.1209E+03
    118.187  0.0000E+00  0.1218E+03
    118.817  0.0000E+00  0.1219E+03
    119.447  0.0000E+00  0.1236E+03
    120.077  0.0000E+00  0.1248E+03
    120.707  0.0000E+00  0.1259E+03
    121.337  0.0000E+00  0.1272E+03
    121.967  0.0000E+00  0.1276E+03
    122.597  0.0000E+00  0.1278E+03
    123.227  0.0000E+00  0.1278E+03
    123.857  0.0000E+00  0.1278E+03
    124.487  0.0000E+00  0.1279E+03
    125.117  0.0000E+00  0.1279E+03
    125.746  0.0000E+00  0.1279E+03
    126.376  0.0000E+00  0.1279E+03
    127.006  0.0000E+00  0.1280E+03
    127.636  0.0000E+00  0.1280E+03
    128.266  0.0000E+00  0.1280E+03
    128.896  0.0000E+00  0.1280E+03
    129.526  0.0000E+00  0.1280E+03
    130.156  0.0000E+00  0.1280E+03
    130.786  0.0000E+00  0.1280E+03
    131.416  0.0000E+00  0.1280E+03
    132.046  0.0000E+00  0.1280E+03
    132.676  0.0000E+00  0.1280E+03
    133.305  0.0000E+00  0.1280E+03
    133.935  0.0000E+00  0.1280E+03
    134.565  0.0000E+00  0.1280E+03
    135.195  0.0000E+00  0.1280E+03
