    1    1    1    1
  0.1860393E+02  0.2974221E-09  0.2974221E-09  0.2974221E-09  0.1000000E-15
  1.000000000000000E-004
  CAR 
 Og_FCC                                  
      8     64    128
 
  0.0000000E+00  0.0000000E+00  0.0000000E+00  0.1562500E-01
    1      -44.787906   1.000000
    2      -44.787906   1.000000
    3       -9.802961   1.000000
    4       -9.802961   1.000000
    5       -9.759376   1.000000
    6       -9.759376   1.000000
    7       -9.759373   1.000000
    8       -9.759373   1.000000
    9        0.451063   0.000000
   10        0.451063   0.000000
   11       20.636949   0.000000
   12       20.636949   0.000000
   13       20.636965   0.000000
   14       20.636965   0.000000
   15       20.637184   0.000000
   16       20.637184   0.000000
   17       22.996993   0.000000
   18       22.996993   0.000000
   19       26.964107   0.000000
   20       26.964107   0.000000
   21       26.966369   0.000000
   22       26.966369   0.000000
   23       26.966396   0.000000
   24       26.966396   0.000000
   25       27.641534   0.000000
   26       27.641534   0.000000
   27       27.641536   0.000000
   28       27.641536   0.000000
   29       29.019866   0.000000
   30       29.019866   0.000000
   31       40.525610   0.000000
   32       40.525610   0.000000
   33       40.540695   0.000000
   34       40.540695   0.000000
   35       40.540727   0.000000
   36       40.540727   0.000000
   37       49.662935   0.000000
   38       49.662935   0.000000
   39       58.296924   0.000000
   40       58.296924   0.000000
   41       58.296939   0.000000
   42       58.296939   0.000000
   43       58.298348   0.000000
   44       58.298348   0.000000
   45       60.444150   0.000000
   46       60.444150   0.000000
   47       60.444152   0.000000
   48       60.444152   0.000000
   49       62.403444   0.000000
   50       62.403444   0.000000
   51       62.403461   0.000000
   52       62.403461   0.000000
   53       62.403525   0.000000
   54       62.403525   0.000000
   55       72.625988   0.000000
   56       72.625988   0.000000
   57       72.633693   0.000000
   58       72.633693   0.000000
   59       72.633783   0.000000
   60       72.633783   0.000000
   61       78.423214   0.000000
   62       78.423214   0.000000
   63       79.277899   0.000000
   64       79.277899   0.000000
   65       79.277912   0.000000
   66       79.277912   0.000000
   67       82.783115   0.000000
   68       82.783115   0.000000
   69       82.783158   0.000000
   70       82.783158   0.000000
   71       82.784556   0.000000
   72       82.784556   0.000000
   73       86.689728   0.000000
   74       86.689728   0.000000
   75       86.689789   0.000000
   76       86.689789   0.000000
   77       86.689813   0.000000
   78       86.689813   0.000000
   79       87.943828   0.000000
   80       87.943828   0.000000
   81       87.943838   0.000000
   82       87.943838   0.000000
   83       87.943965   0.000000
   84       87.943965   0.000000
   85       88.124909   0.000000
   86       88.124909   0.000000
   87       88.656352   0.000000
   88       88.656352   0.000000
   89       88.656360   0.000000
   90       88.656360   0.000000
   91       88.656391   0.000000
   92       88.656391   0.000000
   93       90.126501   0.000000
   94       90.126501   0.000000
   95       90.126501   0.000000
   96       90.126501   0.000000
   97       90.201996   0.000000
   98       90.201996   0.000000
   99       90.202068   0.000000
  100       90.202068   0.000000
  101       90.202084   0.000000
  102       90.202084   0.000000
  103       96.105229   0.000000
  104       96.105229   0.000000
  105       96.106128   0.000000
  106       96.106128   0.000000
  107       96.106233   0.000000
  108       96.106233   0.000000
  109       96.739300   0.000000
  110       96.739300   0.000000
  111       96.739364   0.000000
  112       96.739364   0.000000
  113       96.739521   0.000000
  114       96.739521   0.000000
  115       97.226160   0.000000
  116       97.226160   0.000000
  117       97.392088   0.000000
  118       97.392088   0.000000
  119      117.193060   0.000000
  120      117.193060   0.000000
  121      117.218411   0.000000
  122      117.218411   0.000000
  123      117.218535   0.000000
  124      117.218535   0.000000
  125      126.605366   0.000000
  126      126.605366   0.000000
  127      126.605409   0.000000
  128      126.605409   0.000000
 
  0.2500000E+00  0.2775558E-16 -0.4163336E-16  0.1562500E-01
    1      -45.092455   1.000000
    2      -45.092455   1.000000
    3      -13.247835   1.000000
    4      -13.247835   1.000000
    5      -11.361147   1.000000
    6      -11.361147   1.000000
    7      -11.328107   1.000000
    8      -11.328107   1.000000
    9        2.558270   0.000000
   10        2.558270   0.000000
   11       14.169450   0.000000
   12       14.169450   0.000000
   13       20.262746   0.000000
   14       20.262746   0.000000
   15       20.262947   0.000000
   16       20.262947   0.000000
   17       22.323280   0.000000
   18       22.323280   0.000000
   19       24.666445   0.000000
   20       24.666446   0.000000
   21       24.667319   0.000000
   22       24.667319   0.000000
   23       30.055213   0.000000
   24       30.055213   0.000000
   25       32.890250   0.000000
   26       32.890250   0.000000
   27       32.896164   0.000000
   28       32.896164   0.000000
   29       33.825380   0.000000
   30       33.825380   0.000000
   31       38.980814   0.000000
   32       38.980814   0.000000
   33       40.636237   0.000000
   34       40.636237   0.000000
   35       40.639148   0.000000
   36       40.639148   0.000000
   37       49.316182   0.000000
   38       49.316182   0.000000
   39       49.319861   0.000000
   40       49.319861   0.000000
   41       53.535963   0.000000
   42       53.535963   0.000000
   43       56.163292   0.000000
   44       56.163292   0.000000
   45       60.426975   0.000000
   46       60.426975   0.000000
   47       60.428719   0.000000
   48       60.428719   0.000000
   49       63.900043   0.000000
   50       63.900043   0.000000
   51       65.864321   0.000000
   52       65.864321   0.000000
   53       65.864925   0.000000
   54       65.864925   0.000000
   55       66.006512   0.000000
   56       66.006512   0.000000
   57       71.937567   0.000000
   58       71.937567   0.000000
   59       71.940234   0.000000
   60       71.940234   0.000000
   61       73.157694   0.000000
   62       73.157694   0.000000
   63       74.548744   0.000000
   64       74.548744   0.000000
   65       75.250766   0.000000
   66       75.250766   0.000000
   67       75.250999   0.000000
   68       75.250999   0.000000
   69       76.515233   0.000000
   70       76.515233   0.000000
   71       76.516657   0.000000
   72       76.516657   0.000000
   73       77.212454   0.000000
   74       77.212454   0.000000
   75       83.320518   0.000000
   76       83.320518   0.000000
   77       83.322031   0.000000
   78       83.322031   0.000000
   79       84.409792   0.000000
   80       84.409792   0.000000
   81       84.871135   0.000000
   82       84.871135   0.000000
   83       84.871249   0.000000
   84       84.871249   0.000000
   85       87.261877   0.000000
   86       87.261877   0.000000
   87       89.700495   0.000000
   88       89.700495   0.000000
   89       91.439943   0.000000
   90       91.439943   0.000000
   91       91.440859   0.000000
   92       91.440859   0.000000
   93       95.850232   0.000000
   94       95.850232   0.000000
   95       96.414873   0.000000
   96       96.414873   0.000000
   97       96.416239   0.000000
   98       96.416239   0.000000
   99      101.152290   0.000000
  100      101.152290   0.000000
  101      101.152541   0.000000
  102      101.152541   0.000000
  103      102.592279   0.000000
  104      102.592279   0.000000
  105      104.040590   0.000000
  106      104.040590   0.000000
  107      106.598314   0.000000
  108      106.598314   0.000000
  109      106.600712   0.000000
  110      106.600712   0.000000
  111      107.022438   0.000000
  112      107.022439   0.000000
  113      108.864019   0.000000
  114      108.864019   0.000000
  115      108.868575   0.000000
  116      108.868575   0.000000
  117      109.074513   0.000000
  118      109.074513   0.000000
  119      110.691100   0.000000
  120      110.691100   0.000000
  121      110.691190   0.000000
  122      110.691190   0.000000
  123      116.198754   0.000000
  124      116.198754   0.000000
  125      119.420865   0.000000
  126      119.420865   0.000000
  127      119.425853   0.000000
  128      119.425853   0.000000
 
  0.5000000E+00  0.5551115E-16 -0.8326673E-16  0.1562500E-01
    1      -45.011348   1.000000
    2      -45.011348   1.000000
    3      -12.154609   1.000000
    4      -12.154609   1.000000
    5      -12.118780   1.000000
    6      -12.118780   1.000000
    7      -11.246909   1.000000
    8      -11.246909   1.000000
    9        7.110913   0.000000
   10        7.110913   0.000000
   11        9.692450   0.000000
   12        9.692450   0.000000
   13       19.113630   0.000000
   14       19.113630   0.000000
   15       19.113857   0.000000
   16       19.113857   0.000000
   17       21.764113   0.000000
   18       21.764113   0.000000
   19       26.791170   0.000000
   20       26.791170   0.000000
   21       26.797235   0.000000
   22       26.797235   0.000000
   23       27.453817   0.000000
   24       27.453817   0.000000
   25       33.260520   0.000000
   26       33.260520   0.000000
   27       33.260719   0.000000
   28       33.260719   0.000000
   29       41.685054   0.000000
   30       41.685054   0.000000
   31       41.691338   0.000000
   32       41.691338   0.000000
   33       42.273807   0.000000
   34       42.273807   0.000000
   35       45.299830   0.000000
   36       45.299830   0.000000
   37       49.899777   0.000000
   38       49.899777   0.000000
   39       49.899810   0.000000
   40       49.899810   0.000000
   41       52.890411   0.000000
   42       52.890411   0.000000
   43       54.579651   0.000000
   44       54.579651   0.000000
   45       54.797741   0.000000
   46       54.797741   0.000000
   47       54.800118   0.000000
   48       54.800118   0.000000
   49       57.890958   0.000000
   50       57.890958   0.000000
   51       62.484053   0.000000
   52       62.484053   0.000000
   53       62.486177   0.000000
   54       62.486177   0.000000
   55       66.240337   0.000000
   56       66.240337   0.000000
   57       67.107375   0.000000
   58       67.107375   0.000000
   59       68.980705   0.000000
   60       68.980705   0.000000
   61       68.981055   0.000000
   62       68.981055   0.000000
   63       70.620332   0.000000
   64       70.620332   0.000000
   65       70.620367   0.000000
   66       70.620367   0.000000
   67       70.793875   0.000000
   68       70.793875   0.000000
   69       78.021068   0.000000
   70       78.021068   0.000000
   71       79.830655   0.000000
   72       79.830655   0.000000
   73       79.836786   0.000000
   74       79.836786   0.000000
   75       83.825644   0.000000
   76       83.825644   0.000000
   77       83.826520   0.000000
   78       83.826520   0.000000
   79       84.359148   0.000000
   80       84.359148   0.000000
   81       85.189548   0.000000
   82       85.189548   0.000000
   83       92.874646   0.000000
   84       92.874646   0.000000
   85       92.881074   0.000000
   86       92.881074   0.000000
   87       93.280431   0.000000
   88       93.280431   0.000000
   89       96.480398   0.000000
   90       96.480398   0.000000
   91       96.481896   0.000000
   92       96.481896   0.000000
   93      101.641947   0.000000
   94      101.641947   0.000000
   95      101.648108   0.000000
   96      101.648108   0.000000
   97      101.648892   0.000000
   98      101.648892   0.000000
   99      101.794395   0.000000
  100      101.794395   0.000000
  101      101.794454   0.000000
  102      101.794454   0.000000
  103      102.130646   0.000000
  104      102.130646   0.000000
  105      109.895184   0.000000
  106      109.895184   0.000000
  107      109.899903   0.000000
  108      109.899903   0.000000
  109      111.315036   0.000000
  110      111.315036   0.000000
  111      112.787838   0.000000
  112      112.787838   0.000000
  113      112.788099   0.000000
  114      112.788099   0.000000
  115      115.386153   0.000000
  116      115.386153   0.000000
  117      117.844727   0.000000
  118      117.844727   0.000000
  119      117.845543   0.000000
  120      117.845543   0.000000
  121      118.161584   0.000000
  122      118.161584   0.000000
  123      118.161782   0.000000
  124      118.161782   0.000000
  125      120.033880   0.000000
  126      120.033880   0.000000
  127      120.157494   0.000000
  128      120.157494   0.000000
 
 -0.2500000E+00 -0.2775558E-16  0.4163336E-16  0.1562500E-01
    1      -45.092455   1.000000
    2      -45.092455   1.000000
    3      -13.247835   1.000000
    4      -13.247835   1.000000
    5      -11.361147   1.000000
    6      -11.361147   1.000000
    7      -11.328107   1.000000
    8      -11.328107   1.000000
    9        2.558270   0.000000
   10        2.558270   0.000000
   11       14.169450   0.000000
   12       14.169450   0.000000
   13       20.262746   0.000000
   14       20.262746   0.000000
   15       20.262947   0.000000
   16       20.262947   0.000000
   17       22.323280   0.000000
   18       22.323280   0.000000
   19       24.666445   0.000000
   20       24.666446   0.000000
   21       24.667319   0.000000
   22       24.667319   0.000000
   23       30.055213   0.000000
   24       30.055213   0.000000
   25       32.890250   0.000000
   26       32.890250   0.000000
   27       32.896164   0.000000
   28       32.896164   0.000000
   29       33.825380   0.000000
   30       33.825380   0.000000
   31       38.980814   0.000000
   32       38.980814   0.000000
   33       40.636237   0.000000
   34       40.636237   0.000000
   35       40.639148   0.000000
   36       40.639148   0.000000
   37       49.316182   0.000000
   38       49.316182   0.000000
   39       49.319861   0.000000
   40       49.319861   0.000000
   41       53.535963   0.000000
   42       53.535963   0.000000
   43       56.163292   0.000000
   44       56.163292   0.000000
   45       60.426975   0.000000
   46       60.426975   0.000000
   47       60.428719   0.000000
   48       60.428719   0.000000
   49       63.900043   0.000000
   50       63.900043   0.000000
   51       65.864321   0.000000
   52       65.864321   0.000000
   53       65.864925   0.000000
   54       65.864925   0.000000
   55       66.006512   0.000000
   56       66.006512   0.000000
   57       71.937567   0.000000
   58       71.937567   0.000000
   59       71.940234   0.000000
   60       71.940234   0.000000
   61       73.157694   0.000000
   62       73.157694   0.000000
   63       74.548744   0.000000
   64       74.548744   0.000000
   65       75.250766   0.000000
   66       75.250766   0.000000
   67       75.250999   0.000000
   68       75.250999   0.000000
   69       76.515233   0.000000
   70       76.515233   0.000000
   71       76.516657   0.000000
   72       76.516657   0.000000
   73       77.212454   0.000000
   74       77.212454   0.000000
   75       83.320518   0.000000
   76       83.320518   0.000000
   77       83.322031   0.000000
   78       83.322031   0.000000
   79       84.409792   0.000000
   80       84.409792   0.000000
   81       84.871135   0.000000
   82       84.871135   0.000000
   83       84.871249   0.000000
   84       84.871249   0.000000
   85       87.261877   0.000000
   86       87.261877   0.000000
   87       89.700495   0.000000
   88       89.700495   0.000000
   89       91.439943   0.000000
   90       91.439943   0.000000
   91       91.440859   0.000000
   92       91.440859   0.000000
   93       95.850232   0.000000
   94       95.850232   0.000000
   95       96.414873   0.000000
   96       96.414873   0.000000
   97       96.416239   0.000000
   98       96.416239   0.000000
   99      101.152290   0.000000
  100      101.152290   0.000000
  101      101.152541   0.000000
  102      101.152541   0.000000
  103      102.592279   0.000000
  104      102.592279   0.000000
  105      104.040590   0.000000
  106      104.040590   0.000000
  107      106.598314   0.000000
  108      106.598314   0.000000
  109      106.600712   0.000000
  110      106.600712   0.000000
  111      107.022438   0.000000
  112      107.022439   0.000000
  113      108.864019   0.000000
  114      108.864019   0.000000
  115      108.868575   0.000000
  116      108.868575   0.000000
  117      109.074513   0.000000
  118      109.074513   0.000000
  119      110.691100   0.000000
  120      110.691100   0.000000
  121      110.691190   0.000000
  122      110.691190   0.000000
  123      116.198754   0.000000
  124      116.198754   0.000000
  125      119.420865   0.000000
  126      119.420865   0.000000
  127      119.425853   0.000000
  128      119.425853   0.000000
 
  0.0000000E+00  0.2500000E+00  0.2775558E-16  0.1562500E-01
    1      -45.092455   1.000000
    2      -45.092455   1.000000
    3      -13.247835   1.000000
    4      -13.247835   1.000000
    5      -11.361147   1.000000
    6      -11.361147   1.000000
    7      -11.328107   1.000000
    8      -11.328107   1.000000
    9        2.558270   0.000000
   10        2.558270   0.000000
   11       14.169449   0.000000
   12       14.169449   0.000000
   13       20.262745   0.000000
   14       20.262745   0.000000
   15       20.262947   0.000000
   16       20.262947   0.000000
   17       22.323279   0.000000
   18       22.323279   0.000000
   19       24.666448   0.000000
   20       24.666448   0.000000
   21       24.667321   0.000000
   22       24.667321   0.000000
   23       30.055210   0.000000
   24       30.055210   0.000000
   25       32.890250   0.000000
   26       32.890250   0.000000
   27       32.896164   0.000000
   28       32.896164   0.000000
   29       33.825383   0.000000
   30       33.825383   0.000000
   31       38.980813   0.000000
   32       38.980813   0.000000
   33       40.636237   0.000000
   34       40.636237   0.000000
   35       40.639148   0.000000
   36       40.639148   0.000000
   37       49.316181   0.000000
   38       49.316181   0.000000
   39       49.319860   0.000000
   40       49.319860   0.000000
   41       53.535965   0.000000
   42       53.535965   0.000000
   43       56.163290   0.000000
   44       56.163290   0.000000
   45       60.426976   0.000000
   46       60.426976   0.000000
   47       60.428720   0.000000
   48       60.428720   0.000000
   49       63.900040   0.000000
   50       63.900040   0.000000
   51       65.864320   0.000000
   52       65.864320   0.000000
   53       65.864925   0.000000
   54       65.864925   0.000000
   55       66.006513   0.000000
   56       66.006513   0.000000
   57       71.937563   0.000000
   58       71.937563   0.000000
   59       71.940230   0.000000
   60       71.940230   0.000000
   61       73.157697   0.000000
   62       73.157697   0.000000
   63       74.548740   0.000000
   64       74.548740   0.000000
   65       75.250774   0.000000
   66       75.250774   0.000000
   67       75.251006   0.000000
   68       75.251006   0.000000
   69       76.515233   0.000000
   70       76.515233   0.000000
   71       76.516656   0.000000
   72       76.516656   0.000000
   73       77.212450   0.000000
   74       77.212450   0.000000
   75       83.320517   0.000000
   76       83.320517   0.000000
   77       83.322029   0.000000
   78       83.322029   0.000000
   79       84.409799   0.000000
   80       84.409799   0.000000
   81       84.871131   0.000000
   82       84.871131   0.000000
   83       84.871251   0.000000
   84       84.871251   0.000000
   85       87.261874   0.000000
   86       87.261874   0.000000
   87       89.700501   0.000000
   88       89.700501   0.000000
   89       91.439935   0.000000
   90       91.439935   0.000000
   91       91.440854   0.000000
   92       91.440854   0.000000
   93       95.850236   0.000000
   94       95.850236   0.000000
   95       96.414874   0.000000
   96       96.414874   0.000000
   97       96.416240   0.000000
   98       96.416240   0.000000
   99      101.152291   0.000000
  100      101.152291   0.000000
  101      101.152542   0.000000
  102      101.152542   0.000000
  103      102.592275   0.000000
  104      102.592275   0.000000
  105      104.040594   0.000000
  106      104.040594   0.000000
  107      106.598310   0.000000
  108      106.598310   0.000000
  109      106.600709   0.000000
  110      106.600709   0.000000
  111      107.022441   0.000000
  112      107.022441   0.000000
  113      108.864014   0.000000
  114      108.864014   0.000000
  115      108.868571   0.000000
  116      108.868571   0.000000
  117      109.074528   0.000000
  118      109.074528   0.000000
  119      110.691099   0.000000
  120      110.691099   0.000000
  121      110.691189   0.000000
  122      110.691189   0.000000
  123      116.198758   0.000000
  124      116.198758   0.000000
  125      119.420866   0.000000
  126      119.420866   0.000000
  127      119.425854   0.000000
  128      119.425854   0.000000
 
  0.2500000E+00  0.2500000E+00 -0.2775558E-16  0.1562500E-01
    1      -45.190229   1.000000
    2      -45.190229   1.000000
    3      -12.807104   1.000000
    4      -12.807104   1.000000
    5      -12.371864   1.000000
    6      -12.371864   1.000000
    7      -12.337827   1.000000
    8      -12.337827   1.000000
    9        3.443364   0.000000
   10        3.443364   0.000000
   11       15.353207   0.000000
   12       15.353207   0.000000
   13       16.671720   0.000000
   14       16.671720   0.000000
   15       19.537701   0.000000
   16       19.537701   0.000000
   17       19.541418   0.000000
   18       19.541418   0.000000
   19       26.965211   0.000000
   20       26.965211   0.000000
   21       29.618722   0.000000
   22       29.618722   0.000000
   23       32.442088   0.000000
   24       32.442088   0.000000
   25       32.489345   0.000000
   26       32.489345   0.000000
   27       32.489849   0.000000
   28       32.489849   0.000000
   29       33.759162   0.000000
   30       33.759162   0.000000
   31       37.547569   0.000000
   32       37.547569   0.000000
   33       37.553655   0.000000
   34       37.553655   0.000000
   35       45.091602   0.000000
   36       45.091602   0.000000
   37       46.934694   0.000000
   38       46.934694   0.000000
   39       51.567931   0.000000
   40       51.567931   0.000000
   41       51.573530   0.000000
   42       51.573530   0.000000
   43       53.501526   0.000000
   44       53.501526   0.000000
   45       57.846305   0.000000
   46       57.846305   0.000000
   47       59.426760   0.000000
   48       59.426760   0.000000
   49       63.537457   0.000000
   50       63.537457   0.000000
   51       63.537805   0.000000
   52       63.537805   0.000000
   53       66.436011   0.000000
   54       66.436011   0.000000
   55       66.691684   0.000000
   56       66.691684   0.000000
   57       70.072092   0.000000
   58       70.072092   0.000000
   59       70.075750   0.000000
   60       70.075750   0.000000
   61       73.946700   0.000000
   62       73.946700   0.000000
   63       74.574357   0.000000
   64       74.574357   0.000000
   65       76.641082   0.000000
   66       76.641082   0.000000
   67       76.641994   0.000000
   68       76.641994   0.000000
   69       77.195388   0.000000
   70       77.195388   0.000000
   71       81.368932   0.000000
   72       81.368932   0.000000
   73       81.398851   0.000000
   74       81.398851   0.000000
   75       81.398889   0.000000
   76       81.398889   0.000000
   77       82.955965   0.000000
   78       82.955965   0.000000
   79       83.046821   0.000000
   80       83.046821   0.000000
   81       84.079450   0.000000
   82       84.079450   0.000000
   83       84.079587   0.000000
   84       84.079587   0.000000
   85       84.688954   0.000000
   86       84.688954   0.000000
   87       89.404874   0.000000
   88       89.404874   0.000000
   89       91.018261   0.000000
   90       91.018261   0.000000
   91       91.022565   0.000000
   92       91.022565   0.000000
   93       95.330403   0.000000
   94       95.330403   0.000000
   95       95.331586   0.000000
   96       95.331586   0.000000
   97       97.335197   0.000000
   98       97.335197   0.000000
   99       99.452804   0.000000
  100       99.452804   0.000000
  101       99.452880   0.000000
  102       99.452880   0.000000
  103      100.044487   0.000000
  104      100.044487   0.000000
  105      101.567554   0.000000
  106      101.567554   0.000000
  107      108.217833   0.000000
  108      108.217833   0.000000
  109      108.229293   0.000000
  110      108.229293   0.000000
  111      112.583988   0.000000
  112      112.583988   0.000000
  113      112.587217   0.000000
  114      112.587217   0.000000
  115      112.998483   0.000000
  116      112.998483   0.000000
  117      113.765556   0.000000
  118      113.765556   0.000000
  119      116.603827   0.000000
  120      116.603827   0.000000
  121      117.506446   0.000000
  122      117.506446   0.000000
  123      117.506514   0.000000
  124      117.506514   0.000000
  125      118.746431   0.000000
  126      118.746431   0.000000
  127      124.025149   0.000000
  128      124.025149   0.000000
 
  0.5000000E+00  0.2500000E+00  0.5551115E-16  0.1562500E-01
    1      -44.982532   1.000000
    2      -44.982532   1.000000
    3      -12.607703   1.000000
    4      -12.607703   1.000000
    5      -12.064364   1.000000
    6      -12.064364   1.000000
    7      -10.505994   1.000000
    8      -10.505994   1.000000
    9        7.822869   0.000000
   10        7.822869   0.000000
   11       11.415615   0.000000
   12       11.415615   0.000000
   13       14.262065   0.000000
   14       14.262065   0.000000
   15       19.235709   0.000000
   16       19.235709   0.000000
   17       19.984527   0.000000
   18       19.984527   0.000000
   19       28.907578   0.000000
   20       28.907578   0.000000
   21       29.302117   0.000000
   22       29.302117   0.000000
   23       30.259638   0.000000
   24       30.259638   0.000000
   25       34.130832   0.000000
   26       34.130832   0.000000
   27       34.393617   0.000000
   28       34.393617   0.000000
   29       41.019259   0.000000
   30       41.019259   0.000000
   31       41.328806   0.000000
   32       41.328806   0.000000
   33       42.731659   0.000000
   34       42.731659   0.000000
   35       45.484862   0.000000
   36       45.484862   0.000000
   37       46.631696   0.000000
   38       46.631696   0.000000
   39       47.751015   0.000000
   40       47.751015   0.000000
   41       52.513290   0.000000
   42       52.513290   0.000000
   43       53.962015   0.000000
   44       53.962015   0.000000
   45       55.654735   0.000000
   46       55.654735   0.000000
   47       56.239126   0.000000
   48       56.239126   0.000000
   49       56.304432   0.000000
   50       56.304432   0.000000
   51       60.045004   0.000000
   52       60.045004   0.000000
   53       62.667636   0.000000
   54       62.667636   0.000000
   55       63.420116   0.000000
   56       63.420116   0.000000
   57       64.031853   0.000000
   58       64.031853   0.000000
   59       68.434806   0.000000
   60       68.434806   0.000000
   61       69.958411   0.000000
   62       69.958411   0.000000
   63       71.081983   0.000000
   64       71.081983   0.000000
   65       73.821082   0.000000
   66       73.821082   0.000000
   67       75.002700   0.000000
   68       75.002700   0.000000
   69       76.813690   0.000000
   70       76.813690   0.000000
   71       78.786164   0.000000
   72       78.786164   0.000000
   73       81.265917   0.000000
   74       81.265917   0.000000
   75       84.664352   0.000000
   76       84.664352   0.000000
   77       85.768472   0.000000
   78       85.768472   0.000000
   79       87.749036   0.000000
   80       87.749036   0.000000
   81       89.183573   0.000000
   82       89.183573   0.000000
   83       89.860307   0.000000
   84       89.860307   0.000000
   85       90.709017   0.000000
   86       90.709017   0.000000
   87       93.741003   0.000000
   88       93.741003   0.000000
   89       96.048177   0.000000
   90       96.048177   0.000000
   91       96.882083   0.000000
   92       96.882083   0.000000
   93       97.045764   0.000000
   94       97.045764   0.000000
   95       98.481340   0.000000
   96       98.481340   0.000000
   97       98.800539   0.000000
   98       98.800539   0.000000
   99      100.185269   0.000000
  100      100.185269   0.000000
  101      103.042952   0.000000
  102      103.042952   0.000000
  103      108.262962   0.000000
  104      108.262962   0.000000
  105      108.492876   0.000000
  106      108.492876   0.000000
  107      110.631345   0.000000
  108      110.631345   0.000000
  109      111.180054   0.000000
  110      111.180054   0.000000
  111      112.696482   0.000000
  112      112.696482   0.000000
  113      113.273040   0.000000
  114      113.273040   0.000000
  115      113.893474   0.000000
  116      113.893474   0.000000
  117      116.134635   0.000000
  118      116.134635   0.000000
  119      116.394314   0.000000
  120      116.394314   0.000000
  121      119.272572   0.000000