    1    1    1    1
  0.6194686E+02  0.4441314E-09  0.4441314E-09  0.4441314E-09  0.1000000E-15
  1.000000000000000E-004
  CAR 
 Og_FCC                                  
     18    365     28
 
  0.0000000E+00  0.0000000E+00  0.0000000E+00  0.1371742E-02
    1      -31.120427   1.000000
    2      -31.120426   1.000000
    3      -31.120426   1.000000
    4      -31.120425   1.000000
    5      -24.430873   1.000000
    6      -24.430873   1.000000
    7      -24.427990   1.000000
    8      -24.427989   1.000000
    9      -24.427989   1.000000
   10      -24.427989   1.000000
   11      -20.829442   1.000000
   12      -20.829442   1.000000
   13       -7.651117   1.000000
   14       -7.651114   1.000000
   15        3.018133   1.020468
   16        3.018151   1.020445
   17        3.105532   0.572523
   18        3.105534   0.572512
   19        3.105534   0.572508
   20        3.105535   0.572505
   21       10.039586   0.000000
   22       10.039586   0.000000
   23       10.039587   0.000000
   24       10.039587   0.000000
   25       10.409226   0.000000
   26       10.409232   0.000000
   27       10.433113   0.000000
   28       10.433114   0.000000
 
  0.1111111E+00  0.7980661E-17  0.0000000E+00  0.2743484E-02
    1      -31.120345   1.000000
    2      -31.120345   1.000000
    3      -31.120132   1.000000
    4      -31.120131   1.000000
    5      -24.430277   1.000000
    6      -24.430277   1.000000
    7      -24.428060   1.000000
    8      -24.428059   1.000000
    9      -24.427300   1.000000
   10      -24.427299   1.000000
   11      -20.819660   1.000000
   12      -20.819659   1.000000
   13       -7.685606   1.000000
   14       -7.685604   1.000000
   15        2.001277   1.000000
   16        2.001283   1.000000
   17        3.039776   0.974182
   18        3.039777   0.974180
   19        4.178946  -0.000000
   20        4.178956  -0.000000
   21        9.271581   0.000000
   22        9.271584   0.000000
   23       10.153872   0.000000
   24       10.153873   0.000000
   25       10.429916   0.000000
   26       10.429917   0.000000
   27       11.501989   0.000000
   28       11.517276   0.000000
 
  0.2222222E+00 -0.1179425E-16  0.0000000E+00  0.2743484E-02
    1      -31.120175   1.000000
    2      -31.120175   1.000000
    3      -31.119467   1.000000
    4      -31.119466   1.000000
    5      -24.429419   1.000000
    6      -24.429419   1.000000
    7      -24.427623   1.000000
    8      -24.427622   1.000000
    9      -24.425567   1.000000
   10      -24.425567   1.000000
   11      -20.794778   1.000000
   12      -20.794777   1.000000
   13       -7.773126   1.000000
   14       -7.773124   1.000000
   15        1.133671   1.000000
   16        1.133677   1.000000
   17        2.883244   1.002605
   18        2.883245   1.002605
   19        5.069000  -0.000000
   20        5.069011  -0.000000
   21        8.975953   0.000000
   22        8.975961   0.000000
   23       10.134753   0.000000
   24       10.134778   0.000000
   25       10.483374   0.000000
   26       10.484051   0.000000
   27       11.003631   0.000000
   28       11.504616   0.000000
 
  0.3333333E+00  0.3088088E-16 -0.2775558E-16  0.2743484E-02
    1      -31.119988   1.000000
    2      -31.119988   1.000000
    3      -31.118699   1.000000
    4      -31.118698   1.000000
    5      -24.429607   1.000000
    6      -24.429607   1.000000
    7      -24.425967   1.000000
    8      -24.425966   1.000000
    9      -24.423595   1.000000
   10      -24.423594   1.000000
   11      -20.766163   1.000000
   12      -20.766162   1.000000
   13       -7.872859   1.000000
   14       -7.872857   1.000000
   15        0.526050   1.000000
   16        0.526055   1.000000
   17        2.719752   1.000000
   18        2.719753   1.000000
   19        5.440029  -0.000000
   20        5.440037  -0.000000
   21        9.435026   0.000000
   22        9.435048   0.000000
   23        9.788571   0.000000
   24        9.788573   0.000000
   25       10.184685   0.000000
   26       10.184689   0.000000
   27       10.521174   0.000000
   28       10.521196   0.000000
 
  0.4444444E+00 -0.2358851E-16  0.0000000E+00  0.2743484E-02
    1      -31.119876   1.000000
    2      -31.119876   1.000000
    3      -31.118226   1.000000
    4      -31.118226   1.000000
    5      -24.429890   1.000000
    6      -24.429890   1.000000
    7      -24.424736   1.000000
    8      -24.424735   1.000000
    9      -24.422311   1.000000
   10      -24.422311   1.000000
   11      -20.747327   1.000000
   12      -20.747327   1.000000
   13       -7.938134   1.000000
   14       -7.938132   1.000000
   15        0.214567   1.000000
   16        0.214571   1.000000
   17        2.619946   1.000000
   18        2.619947   1.000000
   19        5.484594  -0.000000
   20        5.484601  -0.000000
   21        9.544507   0.000000
   22        9.544509   0.000000
   23        9.681036   0.000000
   24        9.681081   0.000000
   25        9.923108   0.000000
   26        9.923111   0.000000
   27       10.944185   0.000000
   28       10.944191   0.000000
 
 -0.3851860E-33  0.1111111E+00 -0.6938894E-17  0.2743484E-02
    1      -31.120345   1.000000
    2      -31.120345   1.000000
    3      -31.120132   1.000000
    4      -31.120131   1.000000
    5      -24.430277   1.000000
    6      -24.430277   1.000000
    7      -24.428060   1.000000
    8      -24.428059   1.000000
    9      -24.427300   1.000000
   10      -24.427299   1.000000
   11      -20.819660   1.000000
   12      -20.819659   1.000000
   13       -7.685606   1.000000
   14       -7.685604   1.000000
   15        2.001276   1.000000
   16        2.001283   1.000000
   17        3.039776   0.974182
   18        3.039777   0.974180
   19        4.178946  -0.000000
   20        4.178956  -0.000000
   21        9.271581   0.000000
   22        9.271584   0.000000
   23       10.153872   0.000000
   24       10.153873   0.000000
   25       10.429916   0.000000
   26       10.429932   0.000000
   27       11.500898   0.000000
   28       11.581674   0.000000
 
  0.1111111E+00  0.1111111E+00 -0.2775558E-16  0.2743484E-02
    1      -31.120256   1.000000
    2      -31.120255   1.000000
    3      -31.120100   1.000000
    4      -31.120100   1.000000
    5      -24.430172   1.000000
    6      -24.430171   1.000000
    7      -24.427661   1.000000
    8      -24.427661   1.000000
    9      -24.427401   1.000000
   10      -24.427400   1.000000
   11      -20.816401   1.000000
   12      -20.816400   1.000000
   13       -7.696713   1.000000
   14       -7.696710   1.000000
   15        1.901689   1.000000
   16        1.901696   1.000000
   17        2.884723   1.002763
   18        2.884723   1.002763
   19        4.448768  -0.000000
   20        4.448778  -0.000000
   21        9.000709   0.000000
   22        9.000712   0.000000
   23       10.166822   0.000000
   24       10.166823   0.000000
   25       10.706181   0.000000
   26       10.706194   0.000000
   27       10.848759   0.000000
   28       10.849024   0.000000
 
  0.2222222E+00  0.1111111E+00  0.0000000E+00  0.2743484E-02
    1      -31.120098   1.000000
    2      -31.120097   1.000000
    3      -31.119604   1.000000
    4      -31.119603   1.000000
    5      -24.429381   1.000000
    6      -24.429381   1.000000
    7      -24.427605   1.000000
    8      -24.427605   1.000000
    9      -24.425836   1.000000
   10      -24.425836   1.000000
   11      -20.796580   1.000000
   12      -20.796579   1.000000
   13       -7.765549   1.000000
   14       -7.765546   1.000000
   15        1.258792   1.000000
   16        1.258797   1.000000
   17        2.690420   1.000000
   18        2.690421   1.000000
   19        5.250123  -0.000000
   20        5.250134  -0.000000
   21        8.608535   0.000000
   22        8.608539   0.000000
   23        9.712688   0.000000
   24        9.712705   0.000000
   25       10.569890   0.000000
   26       10.569892   0.000000
   27       11.202778   0.000000
   28       11.202916   0.000000
 
  0.3333333E+00  0.1111111E+00 -0.2775558E-16  0.2743484E-02
    1      -31.119907   1.000000
    2      -31.119907   1.000000
    3      -31.118898   1.000000
    4      -31.118897   1.000000
    5      -24.429082   1.000000
    6      -24.429082   1.000000
    7      -24.426541   1.000000
    8      -24.426540   1.000000
    9      -24.423899   1.000000
   10      -24.423898   1.000000
   11      -20.769235   1.000000
   12      -20.769234   1.000000
   13       -7.859760   1.000000
   14       -7.859758   1.000000
   15        0.663411   1.000000
   16        0.663415   1.000000
   17        2.478571   1.000000
   18        2.478571   1.000000
   19        5.796003  -0.000000
   20        5.796013  -0.000000
   21        8.821139   0.000000
   22        8.821153   0.000000
   23        9.137218   0.000000
   24        9.137232   0.000000
   25       10.455909   0.000000
   26       10.455916   0.000000
   27       11.752607   0.000000
   28       11.855828   0.000000
 
  0.4444444E+00  0.1111111E+00  0.0000000E+00  0.2743484E-02
    1      -31.119761   1.000000
    2      -31.119761   1.000000
    3      -31.118348   1.000000
    4      -31.118348   1.000000
    5      -24.429285   1.000000
    6      -24.429285   1.000000
    7      -24.424995   1.000000
    8      -24.424994   1.000000
    9      -24.422612   1.000000
   10      -24.422612   1.000000
   11      -20.747133   1.000000
   12      -20.747132   1.000000
   13       -7.935186   1.000000
   14       -7.935184   1.000000
   15        0.293350   1.000000
   16        0.293354   1.000000
   17        2.314621   1.000000
   18        2.314622   1.000000
   19        5.941566   0.000000
   20        5.941574   0.000000
   21        8.615084   0.000000
   22        8.615111   0.000000
   23        9.774292   0.000000
   24        9.774299   0.000000
   25       10.300953   0.000000
   26       10.300956   0.000000
   27       11.509614   0.000000
   28       11.509956   0.000000
 
 -0.4444444E+00  0.1111111E+00 -0.1387779E-16  0.2743484E-02
    1      -31.119716   1.000000
    2      -31.119716   1.000000
    3      -31.118177   1.000000
    4      -31.118177   1.000000
    5      -24.429339   1.000000
    6      -24.429339   1.000000
    7      -24.424426   1.000000
    8      -24.424425   1.000000
    9      -24.422376   1.000000
   10      -24.422375   1.000000
   11      -20.740818   1.000000
   12      -20.740817   1.000000
   13       -7.956581   1.000000
   14       -7.956579   1.000000
   15        0.197535   1.000000
   16        0.197538   1.000000
   17        2.266736   1.000000
   18        2.266737   1.000000
   19        5.967960   0.000000
   20        5.967967   0.000000
   21        8.545803   0.000000
   22        8.545832   0.000000
   23        9.853995   0.000000
   24        9.853997   0.000000
   25       10.551585   0.000000
   26       10.551598   0.000000
   27       11.642253   0.000000
   28       11.642376   0.000000
 
 -0.3333333E+00  0.1111111E+00  0.2775558E-16  0.2743484E-02
    1      -31.119794   1.000000
    2      -31.119794   1.000000
    3      -31.118494   1.000000
    4      -31.118494   1.000000
    5      -24.429132   1.000000
    6      -24.429132   1.000000
    7      -24.425437   1.000000
    8      -24.425437   1.000000
    9      -24.423064   1.000000
   10      -24.423063   1.000000
   11      -20.753370   1.000000
   12      -20.753370   1.000000
   13       -7.914063   1.000000
   14       -7.914061   1.000000
   15        0.384901   1.000000
   16        0.384905   1.000000
   17        2.357761   1.000000
   18        2.357762   1.000000
   19        5.951933   0.000000
   20        5.951941   0.000000
   21        8.756319   0.000000
   22        8.756346   0.000000
   23        9.696537   0.000000
   24        9.696547   0.000000
   25       10.085195   0.000000
   26       10.085200   0.000000
   27       11.740283   0.000000
   28       11.766087   0.000000
 
 -0.2222222E+00  0.1111111E+00 -0.1387779E-16  0.2743484E-02
    1      -31.119986   1.000000
    2      -31.119986   1.000000
    3      -31.119128   1.000000
    4      -31.119127   1.000000
    5      -24.428831   1.000000
    6      -24.428831   1.000000
    7      -24.427284   1.000000
    8      -24.427284   1.000000
    9      -24.424555   1.000000
   10      -24.424554   1.000000
   11      -20.778732   1.000000
   12      -20.778731   1.000000
   13       -7.827528   1.000000
   14       -7.827526   1.000000
   15        0.831637   1.000000
   16        0.831641   1.000000
   17        2.566733   1.000000
   18        2.566734   1.000000
   19        5.670704  -0.000000
   20        5.670714  -0.000000
   21        8.806228   0.000000
   22        8.806236   0.000000
   23        9.481131   0.000000
   24        9.481153   0.000000
   25       10.333743   0.000000
   26       10.333748   0.000000
   27       11.242339   0.000000
   28       11.243760   0.000000
 
 -0.1111111E+00  0.1111111E+00  0.1293442E-16  0.2743484E-02
    1      -31.120201   1.000000
    2      -31.120201   1.000000
    3      -31.119772   1.000000
    4      -31.119771   1.000000
    5      -24.429469   1.000000
    6      -24.429469   1.000000
    7      -24.428060   1.000000
    8      -24.428060   1.000000
    9      -24.426301   1.000000
   10      -24.426301   1.000000
   11      -20.804852   1.000000
   12      -20.804852   1.000000
   13       -7.737313   1.000000
   14       -7.737311   1.000000
   15        1.455491   1.000000
   16        1.455496   1.000000
   17        2.836204   1.000304
   18        2.836205   1.000304
   19        4.913806  -0.000000
   20        4.913817  -0.000000
   21        8.865875   0.000000
   22        8.865878   0.000000
   23       10.047597   0.000000
   24       10.047610   0.000000
   25       10.530687   0.000000
   26       10.530728   0.000000
   27       11.089673   0.000000
   28       11.100522   0.000000
 
 -0.3851860E-33  0.2222222E+00  0.1387779E-16  0.2743484E-02
    1      -31.120175   1.000000
    2      -31.120175   1.000000
    3      -31.119467   1.000000
    4      -31.119466   1.000000
    5      -24.429419   1.000000
    6      -24.429419   1.000000
    7      -24.427623   1.000000
    8      -24.427622   1.000000
    9      -24.425567   1.000000
   10      -24.425567   1.000000
   11      -20.794778   1.000000
   12      -20.794777   1.000000
   13       -7.773126   1.000000
   14       -7.773124   1.000000
   15        1.133671   1.000000
   16        1.133677   1.000000
   17        2.883244   1.002605
   18        2.883245   1.002605
   19        5.069000  -0.000000
   20        5.069011  -0.000000
   21        8.975953   0.000000
   22        8.975961   0.000000
   23       10.134754   0.000000
   24       10.134754   0.000000
   25       10.483368   0.000000
   26       10.483482   0.000000
   27       11.005306   0.000000
   28       11.016897   0.000000
 
  0.1111111E+00  0.2222222E+00  0.1387779E-16  0.2743484E-02
    1      -31.120098   1.000000
    2      -31.120097   1.000000
    3      -31.119604   1.000000
    4      -31.119603   1.000000
    5      -24.429381   1.000000
    6      -24.429381   1.000000
    7      -24.427605   1.000000
    8      -24.427605   1.000000
    9      -24.425836   1.000000
   10      -24.425836   1.000000
   11      -20.796580   1.000000
   12      -20.796579   1.000000
   13       -7.765549   1.000000
   14       -7.765546   1.000000
   15        1.258792   1.000000
   16        1.258798   1.000000
   17        2.690420   1.000000
   18        2.690421   1.000000
   19        5.250122  -0.000000
   20        5.250134  -0.000000
   21        8.608535   0.000000
   22        8.608538   0.000000
   23        9.712688   0.000000
   24        9.712705   0.000000
   25       10.569892   0.000000
   26       10.569891   0.000000
   27       11.202797   0.000000
   28       11.202977   0.000000
 
  0.2222222E+00  0.2222222E+00  0.2775558E-16  0.2743484E-02
    1      -31.119868   1.000000
    2      -31.119867   1.000000
    3      -31.119389   1.000000
    4      -31.119389   1.000000
    5      -24.429379   1.000000
    6      -24.429378   1.000000
    7      -24.426872   1.000000
    8      -24.426872   1.000000
    9      -24.424953   1.000000
   10      -24.424953   1.000000
   11      -20.783319   1.000000
   12      -20.783318   1.000000
   13       -7.809185   1.000000
   14       -7.809183   1.000000
   15        1.047261   1.000000
   16        1.047266   1.000000
   17        2.401047   1.000000
   18        2.401048   1.000000
   19        5.760558  -0.000000
   20        5.760572  -0.000000
   21        8.049494   0.000000
   22        8.049498   0.000000
   23        9.173466   0.000000
   24        9.173483   0.000000
   25       10.785938   0.000000
   26       10.785940   0.000000
   27       11.676120   0.000000
   28       11.676119   0.000000
 
  0.3333333E+00  0.2222222E+00  0.0000000E+00  0.2743484E-02
    1      -31.119650   1.000000
    2      -31.119650   1.000000
    3      -31.118878   1.000000
    4      -31.118878   1.000000
    5      -24.428918   1.000000
    6      -24.428917   1.000000
    7      -24.426442   1.000000
    8      -24.426442   1.000000
    9      -24.423155   1.000000
   10      -24.423155   1.000000
   11      -20.761071   1.000000
   12      -20.761070   1.000000
   13       -7.883037   1.000000
   14       -7.883035   1.000000
   15        0.671608   1.000000
   16        0.671612   1.000000
   17        2.131165   1.000000
   18        2.131166   1.000000
   19        6.199702   0.000000
   20        6.199721   0.000000
   21        7.909789   0.000000
   22        7.909794   0.000000
   23        8.789157   0.000000
   24        8.789171   0.000000
   25       11.068345   0.000000
   26       11.068347   0.000000
   27       12.190435   0.000000
   28       12.190459   0.000000
 
  0.4444444E+00  0.2222222E+00  0.2775558E-16  0.2743484E-02
    1      -31.119455   1.000000
    2      -31.119455   1.000000
    3      -31.118414   1.000000
    4      -31.118414   1.000000
    5      -24.428460   1.000000
    6      -24.428459   1.000000
    7      -24.425483   1.000000
    8      -24.425483   1.000000
    9      -24.422076   1.000000
   10      -24.422076   1.000000
   11      -20.740192   1.000000
   12      -20.740191   1.000000
   13       -7.951611   1.000000
   14       -7.951609   1.000000
   15        0.376636   1.000000
   16        0.376638   1.000000
   17        1.853121   1.000000
   18        1.853121   1.000000
   19        6.449184   0.000000
   20        6.449202   0.000000
   21        8.009654   0.000000
   22        8.009671   0.000000
   23        9.032631   0.000000
   24        9.032637   0.000000
   25       10.908055   0.000000
   26       10.908059   0.000000
   27       12.486899   0.000000
   28       12.487027   0.000000
 
 -0.4444444E+00  0.2222222E+00  0.2775558E-16  0.2743484E-02
    1      -31.119342   1.000000
    2      -31.119342   1.000000
    3      -31.118203   1.000000
    4      -31.118202   1.000000
    5      -24.428227   1.000000
    6      -24.428227   1.000000
    7      -24.424272   1.000000
    8      -24.424272   1.000000
    9      -24.422372   1.000000
   10      -24.422372   1.000000
   11      -20.730525   1.000000
   12      -20.730525   1.000000
   13       -7.982995   1.000000
   14       -7.982993   1.000000
   15        0.249787   1.000000
   16        0.249789   1.000000
   17        1.701588   1.000000
   18        1.701589   1.000000
   19        6.644054   0.000000
   20        6.644067   0.000000
   21        7.912811   0.000000
   22        7.912835   0.000000
   23        9.953083   0.000000
   24        9.953090   0.000000
   25       10.752123   0.000000
   26       10.752832   0.000000
   27       11.891354   0.000000
   28       13.323270   0.000000
 
 -0.3333333E+00  0.2222222E+00  0.1387779E-16  0.2743484E-02
    1      -31.119409   1.000000
    2      -31.119409   1.000000
    3      -31.118334   1.000000
    4      -31.118333   1.000000
    5      -24.428028   1.000000
    6      -24.428027   1.000000
    7      -24.424496   1.000000
    8      -24.424496   1.000000
    9      -24.423092   1.000000
   10      -24.423091   1.000000
   11      -20.736740   1.000000
   12      -20.736739   1.000000
   13       -7.963532   1.000000
   14       -7.963530   1.000000
   15        0.305321   1.000000
   16        0.305323   1.000000
   17        1.777874   1.000000
   18        1.777875   1.000000
   19        6.809921   0.000000
   20        6.809929   0.000000
   21        7.938702   0.000000
   22        7.938731   0.000000
   23        9.738906   0.000000
   24        9.738916   0.000000
   25       10.717509   0.000000
   26       10.717530   0.000000
   27       12.160671   0.000000
   28       12.252309   0.000000
 
 -0.2222222E+00  0.2222222E+00  0.1199105E-16  0.2743484E-02
    1      -31.119673   1.000000
    2      -31.119672   1.000000
    3      -31.118711   1.000000
    4      -31.118710   1.000000
    5      -24.427961   1.000000
    6      -24.427961   1.000000
    7      -24.426453   1.000000
    8      -24.426453   1.000000
    9      -24.423493   1.000000
   10      -24.423492   1.000000
   11      -20.755867   1.000000
   12      -20.755867   1.000000
   13       -7.902544   1.000000
   14       -7.902541   1.000000
   15        0.520234   1.000000
   16        0.520237   1.000000
   17        2.095150   1.000000
   18        2.095151   1.000000
   19        6.508855   0.000000
   20        6.508864   0.000000
   21        8.316466   0.000000
   22        8.316488   0.000000
   23        9.168149   0.000000
   24        9.168162   0.000000
   25       10.536187   0.000000
   26       10.536197   0.000000
   27       11.314101   0.000000
   28       11.314103   0.000000
 
 -0.1111111E+00  0.2222222E+00  0.0000000E+00  0.2743484E-02
    1      -31.119987   1.000000
    2      -31.119986   1.000000
    3      -31.119128   1.000000
    4      -31.119127   1.000000
    5      -24.428831   1.000000
    6      -24.428831   1.000000
    7      -24.427284   1.000000
    8      -24.427284   1.000000
    9      -24.424555   1.000000
   10      -24.424554   1.000000
   11      -20.778732   1.000000
   12      -20.778731   1.000000
   13       -7.827528   1.000000
   14       -7.827526   1.000000
   15        0.831637   1.000000
   16        0.831641   1.000000
   17        2.566733   1.000000
   18        2.566734   1.000000
   19        5.670704  -0.000000
   20        5.670714  -0.000000
   21        8.806228   0.000000
   22        8.806236   0.000000
   23        9.481131   0.000000
   24        9.481152   0.000000
   25       10.333743   0.000000
   26       10.333748   0.000000
   27       11.242317   0.000000
   28       11.245123   0.000000
 
 -0.7703720E-33  0.3333333E+00  0.1387779E-16  0.2743484E-02
    1      -31.119988   1.000000
    2      -31.119988   1.000000
    3      -31.118699   1.000000
    4      -31.118698   1.000000
    5      -24.429607   1.000000
    6      -24.429607   1.000000
    7      -24.425967   1.000000
    8      -24.425966   1.000000
    9      -24.423595   1.000000
   10      -24.423594   1.000000
   11      -20.766163   1.000000
   12      -20.766162   1.000000
   13       -7.872859   1.000000
   14       -7.872857   1.000000
   15        0.526050   1.000000
   16        0.526055   1.000000
   17        2.719752   1.000000
   18        2.719753   1.000000
   19        5.440029  -0.000000
   20        5.440038  -0.000000
   21        9.435026   0.000000
   22        9.435048   0.000000
   23        9.788571   0.000000
   24        9.788573   0.000000
   25       10.184685   0.000000
   26       10.184688   0.000000
   27       10.521173   0.000000
   28       10.521196   0.000000
 
  0.1111111E+00  0.3333333E+00 -0.2775558E-16  0.2743484E-02
    1      -31.119907   1.000000
    2      -31.119907   1.000000
    3      -31.118898   1.000000
    4      -31.118897   1.000000
    5      -24.429082   1.000000
    6      -24.429082   1.000000
    7      -24.426541   1.000000
    8      -24.426540   1.000000
    9      -24.423899   1.000000
   10      -24.423898   1.000000
   11      -20.769235   1.000000
   12      -20.769234   1.000000
   13       -7.859760   1.000000
   14       -7.859758   1.000000
   15        0.663411   1.000000
   16        0.663415   1.000000
   17        2.478570   1.000000
   18        2.478571   1.000000
   19        5.796003  -0.000000
   20        5.796014  -0.000000
   21        8.821139   0.000000
   22        8.821153   0.000000
   23        9.137218   0.000000
   24        9.137232   0.000000
   25       10.455909   0.000000
   26       10.455933   0.000000
   27       11.754897   0.000000
   28       11.915755   0.000000
 
  0.2222222E+00  0.3333333E+00  0.0000000E+00  0.2743484E-02
    1      -31.119650   1.000000
    2      -31.119650   1.000000
    3      -31.118878   1.000000
    4      -31.118878   1.000000
    5      -24.428918   1.000000
    6      -24.428917   1.000000
    7      -24.426442   1.000000
    8      -24.426442   1.000000
    9      -24.423155   1.000000
   10      -24.423155   1.000000
   11      -20.761071   1.000000
   12      -20.761070   1.000000
   13       -7.883037   1.000000
   14       -7.883035   1.000000
   15        0.671608   1.000000
   16        0.671612   1.000000
   17        2.131165   1.000000
   18        2.131166   1.000000
   19        6.199702   0.000000
   20        6.199721   0.000000
   21        7.909789   0.000000
   22        7.909794   0.000000
   23        8.789157   0.000000
   24        8.789171   0.000000
   25       11.068345   0.000000
   26       11.068347   0.000000
   27       12.190440   0.000000
   28       12.190444   0.000000
 
  0.3333333E+00  0.3333333E+00 -0.2775558E-16  0.2743484E-02
    1      -31.119444   1.000000
    2      -31.119444   1.000000
    3      -31.118588   1.000000
    4      -31.118588   1.000000
    5      -24.429087   1.000000
    6      -24.429086   1.000000
    7      -24.425993   1.000000
    8      -24.425993   1.000000
    9      -24.421548   1.000000
   10      -24.421548   1.000000
   11      -20.745470   1.000000
   12      -20.745469   1.000000
   13       -7.932010   1.000000
   14       -7.932008   1.000000
   15        0.505430   1.000000
   16        0.505432   1.000000
   17        1.940345   1.000000
   18        1.940346   1.000000
   19        6.090078   0.000000
   20        6.090106   0.000000
   21        7.411090   0.000000
   22        7.411094   0.000000
   23        9.049326   0.000000
   24        9.049334   0.000000
   25       11.740150   0.000000
   26       11.740154   0.000000
   27       12.828274   0.000000
   28       12.828336   0.000000
 
  0.4444444E+00  0.3333333E+00  0.0000000E+00  0.2743484E-02
    1      -31.119246   1.000000
    2      -31.119246   1.000000
    3      -31.118265   1.000000
    4      -31.118265   1.000000
    5      -24.428670   1.000000
    6      -24.428670   1.000000
    7      -24.425583   1.000000
    8      -24.425583   1.000000
    9      -24.420483   1.000000
   10      -24.420483   1.000000
   11      -20.729689   1.000000
   12      -20.729688   1.000000
   13       -7.981646   1.000000
   14       -7.981643   1.000000
   15        0.344932   1.000000
   16        0.344934   1.000000
   17        1.685453   1.000000
   18        1.685453   1.000000
   19        6.099023   0.000000
   20        6.099053   0.000000
   21        7.430583   0.000000
   22        7.430587   0.000000
   23        9.293080   0.000000
   24        9.293086   0.000000
   25       11.951240   0.000000
   26       11.951243   0.000000
   27       13.189018   0.000000
   28       13.189121   0.000000
 
 -0.4444444E+00  0.3333333E+00 -0.2081668E-16  0.2743484E-02
    1      -31.119078   1.000000
    2      -31.119078   1.000000
    3      -31.118167   1.000000
    4      -31.118166   1.000000
    5      -24.427933   1.000000
    6      -24.427933   1.000000
    7      -24.424930   1.000000
    8      -24.424930   1.000000
    9      -24.420867   1.000000
   10      -24.420867   1.000000
   11      -20.721225   1.000000
   12      -20.721224   1.000000
   13       -8.007895   1.000000
   14       -8.007893   1.000000
   15        0.293350   1.000000
   16        0.293351   1.000000
   17        1.411124   1.000000
   18        1.411125   1.000000
   19        6.363854   0.000000
   20        6.363882   0.000000
   21        7.831297   0.000000
   22        7.831306   0.000000
   23        9.622438   0.000000
   24        9.622441   0.000000
   25       11.408585   0.000000
   26       11.408591   0.000000
   27       12.472380   0.000000
   28       12.472479   0.000000
 
 -0.3333333E+00  0.3333333E+00  0.1819761E-16  0.2743484E-02
    1      -31.119098   1.000000
    2      -31.119098   1.000000
    3      -31.118244   1.000000
    4      -31.118243   1.000000
    5      -24.427579   1.000000
    6      -24.427579   1.000000
    7      -24.423984   1.000000
    8      -24.423983   1.000000
    9      -24.422518   1.000000
   10      -24.422518   1.000000
   11      -20.724035   1.000000
   12      -20.724034   1.000000
   13       -8.000148   1.000000
   14       -8.000146   1.000000
   15        0.292867   1.000000
   16        0.292869   1.000000
   17        1.404074   1.000000
   18        1.404076   1.000000
   19        6.768223   0.000000
   20        6.768245   0.000000
   21        7.955588   0.000000
   22        7.955604   0.000000
   23       10.371615   0.000000
   24       10.371625   0.000000
   25       10.661499   0.000000
   26       10.661501   0.000000
   27       11.560076   0.000000
   28       11.560130   0.000000
 
 -0.2222222E+00  0.3333333E+00  0.6938894E-17  0.2743484E-02
    1      -31.119409   1.000000
    2      -31.119409   1.000000
    3      -31.118334   1.000000
    4      -31.118333   1.000000