Og_FCC                                  
           1
     4.441314    0.000000    0.000000
     2.220657    3.846290   -0.000000
     2.220657    1.282097    3.626317
   Og
   1
Direct configuration=     1
   0.00000000  0.00000000  0.00000000
