   1   1   0   0
  0.5789729E+02  0.4342346E-09  0.4342346E-09  0.4342346E-09  0.1000000E-15
  1.000000000000000E-004
  CAR 
 Og_FCC                                  
     17.76331847    -32.99753435  301      3.63488110      1.00000000
    -32.998  0.0000E+00  0.0000E+00
    -32.828  0.0000E+00  0.0000E+00
    -32.659  0.0000E+00  0.0000E+00
    -32.490  0.0000E+00  0.0000E+00
    -32.321  0.0000E+00  0.0000E+00
    -32.152  0.0000E+00  0.0000E+00
    -31.982  0.0000E+00  0.0000E+00
    -31.813  0.0000E+00  0.0000E+00
    -31.644  0.0000E+00  0.0000E+00
    -31.475  0.0000E+00  0.0000E+00
    -31.306  0.0000E+00  0.0000E+00
    -31.136  0.0000E+00  0.0000E+00
    -30.967  0.0000E+00  0.0000E+00
    -30.798  0.0000E+00  0.0000E+00
    -30.629  0.0000E+00  0.4000E+01
    -30.459  0.0000E+00  0.4000E+01
    -30.290  0.0000E+00  0.4000E+01
    -30.121  0.0000E+00  0.4000E+01
    -29.952  0.0000E+00  0.4000E+01
    -29.783  0.0000E+00  0.4000E+01
    -29.613  0.0000E+00  0.4000E+01
    -29.444  0.0000E+00  0.4000E+01
    -29.275  0.0000E+00  0.4000E+01
    -29.106  0.0000E+00  0.4000E+01
    -28.937  0.0000E+00  0.4000E+01
    -28.767  0.0000E+00  0.4000E+01
    -28.598  0.0000E+00  0.4000E+01
    -28.429  0.0000E+00  0.4000E+01
    -28.260  0.0000E+00  0.4000E+01
    -28.091  0.0000E+00  0.4000E+01
    -27.921  0.0000E+00  0.4000E+01
    -27.752  0.0000E+00  0.4000E+01
    -27.583  0.0000E+00  0.4000E+01
    -27.414  0.0000E+00  0.4000E+01
    -27.245  0.0000E+00  0.4000E+01
    -27.075  0.0000E+00  0.4000E+01
    -26.906  0.0000E+00  0.4000E+01
    -26.737  0.0000E+00  0.4000E+01
    -26.568  0.0000E+00  0.4000E+01
    -26.399  0.0000E+00  0.4000E+01
    -26.229  0.0000E+00  0.4000E+01
    -26.060  0.0000E+00  0.4000E+01
    -25.891  0.0000E+00  0.4000E+01
    -25.722  0.0000E+00  0.4000E+01
    -25.553  0.0000E+00  0.4000E+01
    -25.383  0.0000E+00  0.4000E+01
    -25.214  0.0000E+00  0.4000E+01
    -25.045  0.0000E+00  0.4000E+01
    -24.876  0.0000E+00  0.4000E+01
    -24.707  0.0000E+00  0.4000E+01
    -24.537  0.0000E+00  0.4000E+01
    -24.368  0.0000E+00  0.4000E+01
    -24.199  0.0000E+00  0.4000E+01
    -24.030  0.0000E+00  0.4000E+01
    -23.861  0.0000E+00  0.1000E+02
    -23.691  0.0000E+00  0.1000E+02
    -23.522  0.0000E+00  0.1000E+02
    -23.353  0.0000E+00  0.1000E+02
    -23.184  0.0000E+00  0.1000E+02
    -23.015  0.0000E+00  0.1000E+02
    -22.845  0.0000E+00  0.1000E+02
    -22.676  0.0000E+00  0.1000E+02
    -22.507  0.0000E+00  0.1000E+02
    -22.338  0.0000E+00  0.1000E+02
    -22.169  0.0000E+00  0.1000E+02
    -21.999  0.0000E+00  0.1000E+02
    -21.830  0.0000E+00  0.1000E+02
    -21.661  0.0000E+00  0.1000E+02
    -21.492  0.0000E+00  0.1000E+02
    -21.323  0.0000E+00  0.1000E+02
    -21.153  0.0000E+00  0.1000E+02
    -20.984  0.0000E+00  0.1000E+02
    -20.815  0.0000E+00  0.1000E+02
    -20.646  0.0000E+00  0.1000E+02
    -20.477  0.0000E+00  0.1000E+02
    -20.307  0.4378E+00  0.1008E+02
    -20.138  0.0000E+00  0.1200E+02
    -19.969  0.0000E+00  0.1200E+02
    -19.800  0.0000E+00  0.1200E+02
    -19.631  0.0000E+00  0.1200E+02
    -19.461  0.0000E+00  0.1200E+02
    -19.292  0.0000E+00  0.1200E+02
    -19.123  0.0000E+00  0.1200E+02
    -18.954  0.0000E+00  0.1200E+02
    -18.784  0.0000E+00  0.1200E+02
    -18.615  0.0000E+00  0.1200E+02
    -18.446  0.0000E+00  0.1200E+02
    -18.277  0.0000E+00  0.1200E+02
    -18.108  0.0000E+00  0.1200E+02
    -17.938  0.0000E+00  0.1200E+02
    -17.769  0.0000E+00  0.1200E+02
    -17.600  0.0000E+00  0.1200E+02
    -17.431  0.0000E+00  0.1200E+02
    -17.262  0.0000E+00  0.1200E+02
    -17.092  0.0000E+00  0.1200E+02
    -16.923  0.0000E+00  0.1200E+02
    -16.754  0.0000E+00  0.1200E+02
    -16.585  0.0000E+00  0.1200E+02
    -16.416  0.0000E+00  0.1200E+02
    -16.246  0.0000E+00  0.1200E+02
    -16.077  0.0000E+00  0.1200E+02
    -15.908  0.0000E+00  0.1200E+02
    -15.739  0.0000E+00  0.1200E+02
    -15.570  0.0000E+00  0.1200E+02
    -15.400  0.0000E+00  0.1200E+02
    -15.231  0.0000E+00  0.1200E+02
    -15.062  0.0000E+00  0.1200E+02
    -14.893  0.0000E+00  0.1200E+02
    -14.724  0.0000E+00  0.1200E+02
    -14.554  0.0000E+00  0.1200E+02
    -14.385  0.0000E+00  0.1200E+02
    -14.216  0.0000E+00  0.1200E+02
    -14.047  0.0000E+00  0.1200E+02
    -13.878  0.0000E+00  0.1200E+02
    -13.708  0.0000E+00  0.1200E+02
    -13.539  0.0000E+00  0.1200E+02
    -13.370  0.0000E+00  0.1200E+02
    -13.201  0.0000E+00  0.1200E+02
    -13.032  0.0000E+00  0.1200E+02
    -12.862  0.0000E+00  0.1200E+02
    -12.693  0.0000E+00  0.1200E+02
    -12.524  0.0000E+00  0.1200E+02
    -12.355  0.0000E+00  0.1200E+02
    -12.186  0.0000E+00  0.1200E+02
    -12.016  0.0000E+00  0.1200E+02
    -11.847  0.0000E+00  0.1200E+02
    -11.678  0.0000E+00  0.1200E+02
    -11.509  0.0000E+00  0.1200E+02
    -11.340  0.0000E+00  0.1200E+02
    -11.170  0.0000E+00  0.1200E+02
    -11.001  0.0000E+00  0.1200E+02
    -10.832  0.0000E+00  0.1200E+02
    -10.663  0.0000E+00  0.1200E+02
    -10.494  0.0000E+00  0.1200E+02
    -10.324  0.0000E+00  0.1200E+02
    -10.155  0.0000E+00  0.1200E+02
     -9.986  0.0000E+00  0.1200E+02
     -9.817  0.0000E+00  0.1200E+02
     -9.648  0.0000E+00  0.1200E+02
     -9.478  0.0000E+00  0.1200E+02
     -9.309  0.0000E+00  0.1200E+02
     -9.140  0.0000E+00  0.1200E+02
     -8.971  0.0000E+00  0.1200E+02
     -8.802  0.0000E+00  0.1200E+02
     -8.632  0.0000E+00  0.1200E+02
     -8.463  0.0000E+00  0.1200E+02
     -8.294  0.0000E+00  0.1200E+02
     -8.125  0.0000E+00  0.1200E+02
     -7.956  0.0000E+00  0.1200E+02
     -7.786  0.0000E+00  0.1200E+02
     -7.617  0.0000E+00  0.1200E+02
     -7.448  0.0000E+00  0.1200E+02
     -7.279  0.0000E+00  0.1200E+02
     -7.109  0.3283E+01  0.1269E+02
     -6.940  0.4144E+00  0.1352E+02
     -6.771  0.0000E+00  0.1386E+02
     -6.602  0.0000E+00  0.1400E+02
     -6.433  0.0000E+00  0.1400E+02
     -6.263  0.0000E+00  0.1400E+02
     -6.094  0.0000E+00  0.1400E+02
     -5.925  0.0000E+00  0.1400E+02
     -5.756  0.0000E+00  0.1400E+02
     -5.587  0.0000E+00  0.1400E+02
     -5.417  0.0000E+00  0.1400E+02
     -5.248  0.0000E+00  0.1400E+02
     -5.079  0.0000E+00  0.1400E+02
     -4.910  0.0000E+00  0.1400E+02
     -4.741  0.0000E+00  0.1400E+02
     -4.571  0.0000E+00  0.1400E+02
     -4.402  0.0000E+00  0.1400E+02
     -4.233  0.0000E+00  0.1400E+02
     -4.064  0.0000E+00  0.1400E+02
     -3.895  0.0000E+00  0.1400E+02
     -3.725  0.0000E+00  0.1400E+02
     -3.556  0.0000E+00  0.1400E+02
     -3.387  0.0000E+00  0.1400E+02
     -3.218  0.0000E+00  0.1400E+02
     -3.049  0.0000E+00  0.1400E+02
     -2.879  0.0000E+00  0.1400E+02
     -2.710  0.0000E+00  0.1400E+02
     -2.541  0.0000E+00  0.1400E+02
     -2.372  0.0000E+00  0.1400E+02
     -2.203  0.0000E+00  0.1400E+02
     -2.033  0.0000E+00  0.1400E+02
     -1.864  0.0000E+00  0.1400E+02
     -1.695  0.0000E+00  0.1400E+02
     -1.526  0.0000E+00  0.1400E+02
     -1.357  0.0000E+00  0.1400E+02
     -1.187  0.0000E+00  0.1400E+02
     -1.018  0.0000E+00  0.1400E+02
     -0.849  0.0000E+00  0.1400E+02
     -0.680  0.0000E+00  0.1400E+02
     -0.511  0.0000E+00  0.1400E+02
     -0.341  0.0000E+00  0.1400E+02
     -0.172  0.0000E+00  0.1400E+02
     -0.003  0.0000E+00  0.1400E+02
      0.166  0.0000E+00  0.1400E+02
      0.335  0.0000E+00  0.1400E+02
      0.505  0.0000E+00  0.1484E+02
      0.674  0.0000E+00  0.1540E+02
      0.843  0.0000E+00  0.1553E+02
      1.012  0.0000E+00  0.1575E+02
      1.181  0.6567E+00  0.1586E+02
      1.351  0.0000E+00  0.1586E+02
      1.520  0.0000E+00  0.1597E+02
      1.689  0.5752E+00  0.1629E+02
      1.858  0.0000E+00  0.1658E+02
      2.027  0.0000E+00  0.1691E+02
      2.197  0.0000E+00  0.1691E+02
      2.366  0.0000E+00  0.1719E+02
      2.535  0.0000E+00  0.1741E+02
      2.704  0.0000E+00  0.1763E+02
      2.873  0.0000E+00  0.1763E+02
      3.043  0.0000E+00  0.1778E+02
      3.212  0.0000E+00  0.1791E+02
      3.381  0.0000E+00  0.1791E+02
      3.550  0.0000E+00  0.1798E+02
      3.719  0.3836E-01  0.1801E+02
      3.889  0.0000E+00  0.1801E+02
      4.058  0.0000E+00  0.1801E+02
      4.227  0.0000E+00  0.1801E+02
      4.396  0.0000E+00  0.1801E+02
      4.565  0.0000E+00  0.1801E+02
      4.735  0.0000E+00  0.1801E+02
      4.904  0.0000E+00  0.1801E+02
      5.073  0.0000E+00  0.1801E+02
      5.242  0.0000E+00  0.1801E+02
      5.412  0.0000E+00  0.1801E+02
      5.581  0.0000E+00  0.1808E+02
      5.750  0.0000E+00  0.1808E+02
      5.919  0.0000E+00  0.1808E+02
      6.088  0.0000E+00  0.1814E+02
      6.258  0.0000E+00  0.1825E+02
      6.427  0.0000E+00  0.1828E+02
      6.596  0.0000E+00  0.1828E+02
      6.765  0.0000E+00  0.1839E+02
      6.934  0.1410E+00  0.1847E+02
      7.104  0.0000E+00  0.1889E+02
      7.273  0.2596E+00  0.1916E+02
      7.442  0.0000E+00  0.1944E+02
      7.611  0.0000E+00  0.1956E+02
      7.780  0.0000E+00  0.1978E+02
      7.950  0.0000E+00  0.2003E+02
      8.119  0.0000E+00  0.2003E+02
      8.288  0.0000E+00  0.2008E+02
      8.457  0.0000E+00  0.2008E+02
      8.626  0.0000E+00  0.2031E+02
      8.796  0.0000E+00  0.2031E+02
      8.965  0.1313E+01  0.2086E+02
      9.134  0.0000E+00  0.2119E+02
      9.303  0.0000E+00  0.2164E+02
      9.472  0.0000E+00  0.2169E+02
      9.642  0.0000E+00  0.2203E+02
      9.811  0.0000E+00  0.2225E+02
      9.980  0.0000E+00  0.2232E+02
     10.149  0.0000E+00  0.2238E+02
     10.318  0.6567E+00  0.2249E+02
     10.488  0.0000E+00  0.2264E+02
     10.657  0.4378E+00  0.2323E+02
     10.826  0.0000E+00  0.2358E+02
     10.995  0.0000E+00  0.2382E+02
     11.164  0.4499E-03  0.2397E+02
     11.334  0.1299E+01  0.2422E+02
     11.503  0.9127E+00  0.2469E+02
     11.672  0.0000E+00  0.2489E+02
     11.841  0.0000E+00  0.2556E+02
     12.010  0.0000E+00  0.2567E+02
     12.180  0.3871E-06  0.2567E+02
     12.349  0.0000E+00  0.2594E+02
     12.518  0.0000E+00  0.2606E+02
     12.687  0.0000E+00  0.2617E+02
     12.856  0.0000E+00  0.2617E+02
     13.026  0.0000E+00  0.2667E+02
     13.195  0.0000E+00  0.2689E+02
     13.364  0.0000E+00  0.2733E+02
     13.533  0.0000E+00  0.2733E+02
     13.702  0.0000E+00  0.2756E+02
     13.872  0.0000E+00  0.2756E+02
     14.041  0.0000E+00  0.2756E+02
     14.210  0.0000E+00  0.2761E+02
     14.379  0.0000E+00  0.2794E+02
     14.548  0.0000E+00  0.2794E+02
     14.718  0.0000E+00  0.2794E+02
     14.887  0.0000E+00  0.2794E+02
     15.056  0.0000E+00  0.2794E+02
     15.225  0.0000E+00  0.2794E+02
     15.394  0.1642E+00  0.2797E+02
     15.564  0.0000E+00  0.2800E+02
     15.733  0.0000E+00  0.2800E+02
     15.902  0.0000E+00  0.2800E+02
     16.071  0.0000E+00  0.2800E+02
     16.240  0.0000E+00  0.2800E+02
     16.410  0.0000E+00  0.2800E+02
     16.579  0.0000E+00  0.2800E+02
     16.748  0.0000E+00  0.2800E+02
     16.917  0.0000E+00  0.2800E+02
     17.087  0.0000E+00  0.2800E+02
     17.256  0.0000E+00  0.2800E+02
     17.425  0.0000E+00  0.2800E+02
     17.594  0.0000E+00  0.2800E+02
     17.763  0.0000E+00  0.2800E+02
