 vasp.5.4.4.18Apr17-6-g9f103f2a35 (build Jul 09 2018 16:43:14) complex          
  
 executed on             LinuxIFC date 2018.11.29  02:16:28
 running on   64 total cores
 distrk:  each k-point on   16 cores,    4 groups
 distr:  one band on NCORES_PER_BAND=   4 cores,    4 groups


--------------------------------------------------------------------------------------------------------


 INCAR:
 POTCAR:    PAW Og, JanMewes Oct 18               

 ----------------------------------------------------------------------------- 
|                                                                             |
|           W    W    AA    RRRRR   N    N  II  N    N   GGGG   !!!           |
|           W    W   A  A   R    R  NN   N  II  NN   N  G    G  !!!           |
|           W    W  A    A  R    R  N N  N  II  N N  N  G       !!!           |
|           W WW W  AAAAAA  RRRRR   N  N N  II  N  N N  G  GGG   !            |
|           WW  WW  A    A  R   R   N   NN  II  N   NN  G    G                |
|           W    W  A    A  R    R  N    N  II  N    N   GGGG   !!!           |
|                                                                             |
|      You have enabled k-point parallelism (KPAR>1).                         |
|      This developmental code was originally  written by Paul Kent at ORNL,  |
|      and carefully double checked in Vienna.                                |
|      GW as well as linear response parallelism added by Martijn Marsman     |
|      and Georg Kresse.                                                      |
|      Carefully verify results versus KPAR=1.                                |
|      Report problems to Paul Kent and Vienna.                               |
|                                                                             |
 ----------------------------------------------------------------------------- 

 POTCAR:    PAW Og, JanMewes Oct 18               
   VRHFIN =Og : 10d 2s 6p, PE                                                   
   LEXCH  = PE                                                                  
   EATOM  =  2640.5573 eV,  194.0755 Ry                                         
                                                                                
   TITEL  = PAW Og, JanMewes Oct 18                                             
   LULTRA =        F    use ultrasoft PP ?                                      
   IUNSCR =        1    unscreen: 0-lin 1-nonlin 2-no                           
   RPACOR =    1.700    partial core radius                                     
   POMASS =    0.010; ZVAL   =   18.000    mass and valenz                      
   RCORE  =    2.600    outmost cutoff radius                                   
   RWIGS  =    3.500; RWIGS  =    1.852    wigner-seitz radius (au A)           
   ENMAX  =  339.336; ENMIN  =  254.502 eV                                      
   ICORE  =        3    local potential                                         
   LCOR   =        T    correct aug charges                                     
   LPAW   =        T    paw PP                                                  
   EAUG   =  361.025                                                            
   DEXC   =   -0.000                                                            
   RAUG   =    1.300    factor for augmentation sphere                          
   RDEP   =    2.775    radius for radial grids                                 
   RDEPT  =    2.135    core radius for aug-charge                              
   QCUT   =   -4.994; QGAM   =    9.988    optimization parameters              
                                                                                
   Atomic configuration                                                         
   22 entries                                                                   
     n  l   j            E        occ.                                          
     1  0  0.50   -225781.4217   2.0000                                         
     2  0  0.50    -47342.3774   2.0000                                         
     2  1  1.50    -33463.4058   6.0000                                         
     3  0  0.50    -12845.8060   2.0000                                         
     3  1  1.50     -9184.5562   6.0000                                         
     3  2  2.50     -7322.6146  10.0000                                         
     4  0  0.50     -3781.9433   2.0000                                         
     4  1  1.50     -2605.9204   6.0000                                         
     4  2  2.50     -1899.4626  10.0000                                         
     4  3  3.50     -1273.6890  14.0000                                         
     5  0  0.50     -1046.0643   2.0000                                         
     5  1  1.50      -650.9265   6.0000                                         
     5  2  2.50      -388.1490  10.0000                                         
     5  3  3.50      -152.1121  14.0000                                         
     6  0  0.50      -224.6639   2.0000                                         
     6  1  0.50      -184.3267   2.0000                                         
     6  1  1.50       -97.8537   4.0000                                         
     6  2  2.50       -35.6667  10.0000                                         
     7  0  0.50       -28.5889   2.0000                                         
     8  0  0.50        -1.3606   0.0000                                         
     7  1  1.50        -7.0827   6.0000                                         
     6  3  3.50        -0.0136   0.0000                                         
   Description                                                                  
     l       E           TYP  RCUT    TYP  RCUT                                 
     2    -35.6666962     23  2.100                                             
     2     34.0145650     23  2.300                                             
     0    -28.5889381     23  1.600                                             
     0     40.8174780     23  2.200                                             
     1     -7.0826811     23  2.200                                             
     1    148.3035034     23  1.900                                             
     3      6.8029130      7  2.600                                             
  local pseudopotential read in
  partial core-charges read in
  partial kinetic energy density read in
  kinetic energy density of atom read in
  atomic valenz-charges read in
  non local Contribution for L=           2  read in
    real space projection operators read in
  non local Contribution for L=           2  read in
    real space projection operators read in
  non local Contribution for L=           0  read in
    real space projection operators read in
  non local Contribution for L=           0  read in
    real space projection operators read in
  non local Contribution for L=           1  read in
    real space projection operators read in
  non local Contribution for L=           1  read in
    real space projection operators read in
    PAW grid and wavefunctions read in
 
   number of l-projection  operators is LMAX  =           6
   number of lm-projection operators is LMMAX =          18
 
  PAW Og, JanMewes Oct 18               :
 energy of atom  1       EATOM=-2640.5573
 kinetic energy error for atom=    0.6524 (will be added to EATOM!!)
 
 
 POSCAR: Og_FCC                                  
  positions in direct lattice
  velocities in cartesian coordinates

 METAGGA = SCAN     LMAXTAU =  0    LMIXTAU =  F

 exchange correlation table for  LEXCH =        8
   RHO(1)=    0.500       N(1)  =     2000
   RHO(2)=  100.500       N(2)  =     4000
 


--------------------------------------------------------------------------------------------------------


 ion  position               nearest neighbor table
   1  0.000  0.000  0.000-
 

IMPORTANT INFORMATION: All symmetrisations will be switched off!
NOSYMM: (Re-)initialisation of all symmetry stuff for point group C_1.

 
 
 KPOINTS: k-points                                

Automatic generation of k-mesh.
Space group operators:
 irot       det(A)        alpha          n_x          n_y          n_z        tau_x        tau_y        tau_z
    1     1.000000     0.000000     1.000000     0.000000     0.000000     0.000000     0.000000     0.000000
 
 Subroutine IBZKPT returns following result:
 ===========================================
 
 Found    216 irreducible k-points:
 
 Following reciprocal coordinates:
            Coordinates               Weight
  0.000000  0.000000  0.000000      1.000000
  0.166667  0.000000  0.000000      1.000000
  0.333333  0.000000  0.000000      1.000000
  0.500000  0.000000  0.000000      1.000000
 -0.333333 -0.000000  0.000000      1.000000
 -0.166667 -0.000000 -0.000000      1.000000
 -0.000000  0.166667 -0.000000      1.000000
  0.166667  0.166667  0.000000      1.000000
  0.333333  0.166667 -0.000000      1.000000
  0.500000  0.166667  0.000000      1.000000
 -0.333333  0.166667 -0.000000      1.000000
 -0.166667  0.166667 -0.000000      1.000000
  0.000000  0.333333 -0.000000      1.000000
  0.166667  0.333333  0.000000      1.000000
  0.333333  0.333333  0.000000      1.000000
  0.500000  0.333333  0.000000      1.000000
 -0.333333  0.333333 -0.000000      1.000000
 -0.166667  0.333333 -0.000000      1.000000
  0.000000  0.500000 -0.000000      1.000000
  0.166667  0.500000  0.000000      1.000000
  0.333333  0.500000  0.000000      1.000000
  0.500000  0.500000  0.000000      1.000000
 -0.333333  0.500000 -0.000000      1.000000
 -0.166667  0.500000 -0.000000      1.000000
 -0.000000 -0.333333  0.000000      1.000000
  0.166667 -0.333333  0.000000      1.000000
  0.333333 -0.333333  0.000000      1.000000
  0.500000 -0.333333  0.000000      1.000000
 -0.333333 -0.333333 -0.000000      1.000000
 -0.166667 -0.333333  0.000000      1.000000
  0.000000 -0.166667  0.000000      1.000000
  0.166667 -0.166667  0.000000      1.000000
  0.333333 -0.166667  0.000000      1.000000
  0.500000 -0.166667  0.000000      1.000000
 -0.333333 -0.166667  0.000000      1.000000
 -0.166667 -0.166667  0.000000      1.000000
  0.000000  0.000000  0.166667      1.000000
  0.166667  0.000000  0.166667      1.000000
  0.333333 -0.000000  0.166667      1.000000
  0.500000 -0.000000  0.166667      1.000000
 -0.333333 -0.000000  0.166667      1.000000
 -0.166667  0.000000  0.166667      1.000000
 -0.000000  0.166667  0.166667      1.000000
  0.166667  0.166667  0.166667      1.000000
  0.333333  0.166667  0.166667      1.000000
  0.500000  0.166667  0.166667      1.000000
 -0.333333  0.166667  0.166667      1.000000
 -0.166667  0.166667  0.166667      1.000000
 -0.000000  0.333333  0.166667      1.000000
  0.166667  0.333333  0.166667      1.000000
  0.333333  0.333333  0.166667      1.000000
  0.500000  0.333333  0.166667      1.000000
 -0.333333  0.333333  0.166667      1.000000
 -0.166667  0.333333  0.166667      1.000000
 -0.000000  0.500000  0.166667      1.000000
  0.166667  0.500000  0.166667      1.000000
  0.333333  0.500000  0.166667      1.000000
  0.500000  0.500000  0.166667      1.000000
 -0.333333  0.500000  0.166667      1.000000
 -0.166667  0.500000  0.166667      1.000000
 -0.000000 -0.333333  0.166667      1.000000
  0.166667 -0.333333  0.166667      1.000000
  0.333333 -0.333333  0.166667      1.000000
  0.500000 -0.333333  0.166667      1.000000
 -0.333333 -0.333333  0.166667      1.000000
 -0.166667 -0.333333  0.166667      1.000000
  0.000000 -0.166667  0.166667      1.000000
  0.166667 -0.166667  0.166667      1.000000
  0.333333 -0.166667  0.166667      1.000000
  0.500000 -0.166667  0.166667      1.000000
 -0.333333 -0.166667  0.166667      1.000000
 -0.166667 -0.166667  0.166667      1.000000
  0.000000  0.000000  0.333333      1.000000
  0.166667  0.000000  0.333333      1.000000
  0.333333  0.000000  0.333333      1.000000
  0.500000 -0.000000  0.333333      1.000000
 -0.333333  0.000000  0.333333      1.000000
 -0.166667  0.000000  0.333333      1.000000
 -0.000000  0.166667  0.333333      1.000000
  0.166667  0.166667  0.333333      1.000000
  0.333333  0.166667  0.333333      1.000000
  0.500000  0.166667  0.333333      1.000000
 -0.333333  0.166667  0.333333      1.000000
 -0.166667  0.166667  0.333333      1.000000
 -0.000000  0.333333  0.333333      1.000000
  0.166667  0.333333  0.333333      1.000000
  0.333333  0.333333  0.333333      1.000000
  0.500000  0.333333  0.333333      1.000000
 -0.333333  0.333333  0.333333      1.000000
 -0.166667  0.333333  0.333333      1.000000
  0.000000  0.500000  0.333333      1.000000
  0.166667  0.500000  0.333333      1.000000
  0.333333  0.500000  0.333333      1.000000
  0.500000  0.500000  0.333333      1.000000
 -0.333333  0.500000  0.333333      1.000000
 -0.166667  0.500000  0.333333      1.000000
  0.000000 -0.333333  0.333333      1.000000
  0.166667 -0.333333  0.333333      1.000000
  0.333333 -0.333333  0.333333      1.000000
  0.500000 -0.333333  0.333333      1.000000
 -0.333333 -0.333333  0.333333      1.000000
 -0.166667 -0.333333  0.333333      1.000000
  0.000000 -0.166667  0.333333      1.000000
  0.166667 -0.166667  0.333333      1.000000
  0.333333 -0.166667  0.333333      1.000000
  0.500000 -0.166667  0.333333      1.000000
 -0.333333 -0.166667  0.333333      1.000000
 -0.166667 -0.166667  0.333333      1.000000
  0.000000  0.000000  0.500000      1.000000
  0.166667  0.000000  0.500000      1.000000
  0.333333  0.000000  0.500000      1.000000
  0.500000 -0.000000  0.500000      1.000000
 -0.333333  0.000000  0.500000      1.000000
 -0.166667  0.000000  0.500000      1.000000
 -0.000000  0.166667  0.500000      1.000000
  0.166667  0.166667  0.500000      1.000000
  0.333333  0.166667  0.500000      1.000000
  0.500000  0.166667  0.500000      1.000000
 -0.333333  0.166667  0.500000      1.000000
 -0.166667  0.166667  0.500000      1.000000
  0.000000  0.333333  0.500000      1.000000
  0.166667  0.333333  0.500000      1.000000
  0.333333  0.333333  0.500000      1.000000
  0.500000  0.333333  0.500000      1.000000
 -0.333333  0.333333  0.500000      1.000000
 -0.166667  0.333333  0.500000      1.000000
 -0.000000  0.500000  0.500000      1.000000
  0.166667  0.500000  0.500000      1.000000
  0.333333  0.500000  0.500000      1.000000
  0.500000  0.500000  0.500000      1.000000
 -0.333333  0.500000  0.500000      1.000000
 -0.166667  0.500000  0.500000      1.000000
  0.000000 -0.333333  0.500000      1.000000
  0.166667 -0.333333  0.500000      1.000000
  0.333333 -0.333333  0.500000      1.000000
  0.500000 -0.333333  0.500000      1.000000
 -0.333333 -0.333333  0.500000      1.000000
 -0.166667 -0.333333  0.500000      1.000000
  0.000000 -0.166667  0.500000      1.000000
  0.166667 -0.166667  0.500000      1.000000
  0.333333 -0.166667  0.500000      1.000000
  0.500000 -0.166667  0.500000      1.000000
 -0.333333 -0.166667  0.500000      1.000000
 -0.166667 -0.166667  0.500000      1.000000
  0.000000  0.000000 -0.333333      1.000000
  0.166667 -0.000000 -0.333333      1.000000
  0.333333 -0.000000 -0.333333      1.000000
  0.500000  0.000000 -0.333333      1.000000
 -0.333333 -0.000000 -0.333333      1.000000
 -0.166667 -0.000000 -0.333333      1.000000
 -0.000000  0.166667 -0.333333      1.000000
  0.166667  0.166667 -0.333333      1.000000
  0.333333  0.166667 -0.333333      1.000000
  0.500000  0.166667 -0.333333      1.000000
 -0.333333  0.166667 -0.333333      1.000000
 -0.166667  0.166667 -0.333333      1.000000
  0.000000  0.333333 -0.333333      1.000000
  0.166667  0.333333 -0.333333      1.000000
  0.333333  0.333333 -0.333333      1.000000
  0.500000  0.333333 -0.333333      1.000000
 -0.333333  0.333333 -0.333333      1.000000
 -0.166667  0.333333 -0.333333      1.000000
 -0.000000  0.500000 -0.333333      1.000000
  0.166667  0.500000 -0.333333      1.000000
  0.333333  0.500000 -0.333333      1.000000
  0.500000  0.500000 -0.333333      1.000000
 -0.333333  0.500000 -0.333333      1.000000
 -0.166667  0.500000 -0.333333      1.000000
  0.000000 -0.333333 -0.333333      1.000000
  0.166667 -0.333333 -0.333333      1.000000
  0.333333 -0.333333 -0.333333      1.000000
  0.500000 -0.333333 -0.333333      1.000000
 -0.333333 -0.333333 -0.333333      1.000000
 -0.166667 -0.333333 -0.333333      1.000000
  0.000000 -0.166667 -0.333333      1.000000
  0.166667 -0.166667 -0.333333      1.000000
  0.333333 -0.166667 -0.333333      1.000000
  0.500000 -0.166667 -0.333333      1.000000
 -0.333333 -0.166667 -0.333333      1.000000
 -0.166667 -0.166667 -0.333333      1.000000
 -0.000000 -0.000000 -0.166667      1.000000
  0.166667 -0.000000 -0.166667      1.000000
  0.333333  0.000000 -0.166667      1.000000
  0.500000  0.000000 -0.166667      1.000000
 -0.333333  0.000000 -0.166667      1.000000
 -0.166667 -0.000000 -0.166667      1.000000
 -0.000000  0.166667 -0.166667      1.000000
  0.166667  0.166667 -0.166667      1.000000
  0.333333  0.166667 -0.166667      1.000000
  0.500000  0.166667 -0.166667      1.000000
 -0.333333  0.166667 -0.166667      1.000000
 -0.166667  0.166667 -0.166667      1.000000
  0.000000  0.333333 -0.166667      1.000000
  0.166667  0.333333 -0.166667      1.000000
  0.333333  0.333333 -0.166667      1.000000
  0.500000  0.333333 -0.166667      1.000000
 -0.333333  0.333333 -0.166667      1.000000
 -0.166667  0.333333 -0.166667      1.000000
 -0.000000  0.500000 -0.166667      1.000000
  0.166667  0.500000 -0.166667      1.000000
  0.333333  0.500000 -0.166667      1.000000
  0.500000  0.500000 -0.166667      1.000000
 -0.333333  0.500000 -0.166667      1.000000
 -0.166667  0.500000 -0.166667      1.000000
  0.000000 -0.333333 -0.166667      1.000000
  0.166667 -0.333333 -0.166667      1.000000
  0.333333 -0.333333 -0.166667      1.000000
  0.500000 -0.333333 -0.166667      1.000000
 -0.333333 -0.333333 -0.166667      1.000000
 -0.166667 -0.333333 -0.166667      1.000000
  0.000000 -0.166667 -0.166667      1.000000
  0.166667 -0.166667 -0.166667      1.000000
  0.333333 -0.166667 -0.166667      1.000000
  0.500000 -0.166667 -0.166667      1.000000
 -0.333333 -0.166667 -0.166667      1.000000
 -0.166667 -0.166667 -0.166667      1.000000
 
 Following cartesian coordinates:
            Coordinates               Weight
  0.000000  0.000000  0.000000      1.000000
  0.038382 -0.022160 -0.015669      1.000000
  0.076763 -0.044319 -0.031339      1.000000
  0.115145 -0.066479 -0.047008      1.000000
 -0.076763  0.044319  0.031339      1.000000
 -0.038382  0.022160  0.015669      1.000000
  0.000000  0.044319 -0.015669      1.000000
  0.038382  0.022160 -0.031339      1.000000
  0.076763  0.000000 -0.047008      1.000000
  0.115145 -0.022160 -0.062677      1.000000
 -0.076763  0.088639  0.015669      1.000000
 -0.038382  0.066479 -0.000000      1.000000
  0.000000  0.088639 -0.031339      1.000000
  0.038382  0.066479 -0.047008      1.000000
  0.076763  0.044319 -0.062677      1.000000
  0.115145  0.022160 -0.078346      1.000000
 -0.076763  0.132958  0.000000      1.000000
 -0.038382  0.110798 -0.015669      1.000000
  0.000000  0.132958 -0.047008      1.000000
  0.038382  0.110798 -0.062677      1.000000
  0.076763  0.088639 -0.078346      1.000000
  0.115145  0.066479 -0.094016      1.000000
 -0.076763  0.177278 -0.015669      1.000000
 -0.038382  0.155118 -0.031339      1.000000
 -0.000000 -0.088639  0.031339      1.000000
  0.038382 -0.110798  0.015669      1.000000
  0.076763 -0.132958 -0.000000      1.000000
  0.115145 -0.155118 -0.015669      1.000000
 -0.076763 -0.044319  0.062677      1.000000
 -0.038382 -0.066479  0.047008      1.000000
 -0.000000 -0.044319  0.015669      1.000000
  0.038382 -0.066479 -0.000000      1.000000
  0.076763 -0.088639 -0.015669      1.000000
  0.115145 -0.110798 -0.031339      1.000000
 -0.076763  0.000000  0.047008      1.000000
 -0.038382 -0.022160  0.031339      1.000000
 -0.000000  0.000000  0.047008      1.000000
  0.038382 -0.022160  0.031339      1.000000
  0.076763 -0.044319  0.015669      1.000000
  0.115145 -0.066479  0.000000      1.000000
 -0.076763  0.044319  0.078346      1.000000
 -0.038382  0.022160  0.062677      1.000000
 -0.000000  0.044319  0.031339      1.000000
  0.038382  0.022160  0.015669      1.000000
  0.076763  0.000000  0.000000      1.000000
  0.115145 -0.022160 -0.015669      1.000000
 -0.076763  0.088639  0.062677      1.000000
 -0.038382  0.066479  0.047008      1.000000
 -0.000000  0.088639  0.015669      1.000000
  0.038382  0.066479  0.000000      1.000000
  0.076763  0.044319 -0.015669      1.000000
  0.115145  0.022160 -0.031339      1.000000
 -0.076763  0.132958  0.047008      1.000000
 -0.038382  0.110798  0.031339      1.000000
 -0.000000  0.132958  0.000000      1.000000
  0.038382  0.110798 -0.015669      1.000000
  0.076763  0.088639 -0.031339      1.000000
  0.115145  0.066479 -0.047008      1.000000
 -0.076763  0.177278  0.031339      1.000000
 -0.038382  0.155118  0.015669      1.000000
 -0.000000 -0.088639  0.078346      1.000000
  0.038382 -0.110798  0.062677      1.000000
  0.076763 -0.132958  0.047008      1.000000
  0.115145 -0.155118  0.031339      1.000000
 -0.076763 -0.044319  0.109685      1.000000
 -0.038382 -0.066479  0.094016      1.000000
 -0.000000 -0.044319  0.062677      1.000000
  0.038382 -0.066479  0.047008      1.000000
  0.076763 -0.088639  0.031339      1.000000
  0.115145 -0.110798  0.015669      1.000000
 -0.076763  0.000000  0.094016      1.000000
 -0.038382 -0.022160  0.078346      1.000000
 -0.000000  0.000000  0.094016      1.000000
  0.038382 -0.022160  0.078346      1.000000
  0.076763 -0.044319  0.062677      1.000000
  0.115145 -0.066479  0.047008      1.000000
 -0.076763  0.044319  0.125354      1.000000
 -0.038382  0.022160  0.109685      1.000000
 -0.000000  0.044319  0.078346      1.000000
  0.038382  0.022160  0.062677      1.000000
  0.076763  0.000000  0.047008      1.000000
  0.115145 -0.022160  0.031339      1.000000
 -0.076763  0.088639  0.109685      1.000000
 -0.038382  0.066479  0.094016      1.000000
 -0.000000  0.088639  0.062677      1.000000
  0.038382  0.066479  0.047008      1.000000
  0.076763  0.044319  0.031339      1.000000
  0.115145  0.022160  0.015669      1.000000
 -0.076763  0.132958  0.094016      1.000000
 -0.038382  0.110798  0.078346      1.000000
 -0.000000  0.132958  0.047008      1.000000
  0.038382  0.110798  0.031339      1.000000
  0.076763  0.088639  0.015669      1.000000
  0.115145  0.066479 -0.000000      1.000000
 -0.076763  0.177278  0.078346      1.000000
 -0.038382  0.155118  0.062677      1.000000
 -0.000000 -0.088639  0.125354      1.000000
  0.038382 -0.110798  0.109685      1.000000
  0.076763 -0.132958  0.094016      1.000000
  0.115145 -0.155118  0.078346      1.000000
 -0.076763 -0.044319  0.156693      1.000000
 -0.038382 -0.066479  0.141023      1.000000
 -0.000000 -0.044319  0.109685      1.000000
  0.038382 -0.066479  0.094016      1.000000
  0.076763 -0.088639  0.078346      1.000000
  0.115145 -0.110798  0.062677      1.000000
 -0.076763  0.000000  0.141023      1.000000
 -0.038382 -0.022160  0.125354      1.000000
 -0.000000  0.000000  0.141023      1.000000
  0.038382 -0.022160  0.125354      1.000000
  0.076763 -0.044319  0.109685      1.000000
  0.115145 -0.066479  0.094016      1.000000
 -0.076763  0.044319  0.172362      1.000000
 -0.038382  0.022160  0.156693      1.000000
 -0.000000  0.044319  0.125354      1.000000
  0.038382  0.022160  0.109685      1.000000
  0.076763  0.000000  0.094016      1.000000
  0.115145 -0.022160  0.078346      1.000000
 -0.076763  0.088639  0.156693      1.000000
 -0.038382  0.066479  0.141023      1.000000
 -0.000000  0.088639  0.109685      1.000000
  0.038382  0.066479  0.094016      1.000000
  0.076763  0.044319  0.078346      1.000000
  0.115145  0.022160  0.062677      1.000000
 -0.076763  0.132958  0.141023      1.000000
 -0.038382  0.110798  0.125354      1.000000
 -0.000000  0.132958  0.094016      1.000000
  0.038382  0.110798  0.078346      1.000000
  0.076763  0.088639  0.062677      1.000000
  0.115145  0.066479  0.047008      1.000000
 -0.076763  0.177278  0.125354      1.000000
 -0.038382  0.155118  0.109685      1.000000
 -0.000000 -0.088639  0.172362      1.000000
  0.038382 -0.110798  0.156693      1.000000
  0.076763 -0.132958  0.141023      1.000000
  0.115145 -0.155118  0.125354      1.000000
 -0.076763 -0.044319  0.203700      1.000000
 -0.038382 -0.066479  0.188031      1.000000
 -0.000000 -0.044319  0.156693      1.000000
  0.038382 -0.066479  0.141023      1.000000
  0.076763 -0.088639  0.125354      1.000000
  0.115145 -0.110798  0.109685      1.000000
 -0.076763  0.000000  0.188031      1.000000
 -0.038382 -0.022160  0.172362      1.000000
  0.000000 -0.000000 -0.094016      1.000000
  0.038382 -0.022160 -0.109685      1.000000
  0.076763 -0.044319 -0.125354      1.000000
  0.115145 -0.066479 -0.141023      1.000000
 -0.076763  0.044319 -0.062677      1.000000
 -0.038382  0.022160 -0.078346      1.000000
  0.000000  0.044319 -0.109685      1.000000
  0.038382  0.022160 -0.125354      1.000000
  0.076763  0.000000 -0.141023      1.000000
  0.115145 -0.022160 -0.156693      1.000000
 -0.076763  0.088639 -0.078346      1.000000
 -0.038382  0.066479 -0.094016      1.000000
  0.000000  0.088639 -0.125354      1.000000
  0.038382  0.066479 -0.141023      1.000000
  0.076763  0.044319 -0.156693      1.000000
  0.115145  0.022160 -0.172362      1.000000
 -0.076763  0.132958 -0.094016      1.000000
 -0.038382  0.110798 -0.109685      1.000000
  0.000000  0.132958 -0.141023      1.000000
  0.038382  0.110798 -0.156693      1.000000
  0.076763  0.088639 -0.172362      1.000000
  0.115145  0.066479 -0.188031      1.000000
 -0.076763  0.177278 -0.109685      1.000000
 -0.038382  0.155118 -0.125354      1.000000
  0.000000 -0.088639 -0.062677      1.000000
  0.038382 -0.110798 -0.078346      1.000000
  0.076763 -0.132958 -0.094016      1.000000
  0.115145 -0.155118 -0.109685      1.000000
 -0.076763 -0.044319 -0.031339      1.000000
 -0.038382 -0.066479 -0.047008      1.000000
  0.000000 -0.044319 -0.078346      1.000000
  0.038382 -0.066479 -0.094016      1.000000
  0.076763 -0.088639 -0.109685      1.000000
  0.115145 -0.110798 -0.125354      1.000000
 -0.076763  0.000000 -0.047008      1.000000
 -0.038382 -0.022160 -0.062677      1.000000
  0.000000 -0.000000 -0.047008      1.000000
  0.038382 -0.022160 -0.062677      1.000000
  0.076763 -0.044319 -0.078346      1.000000
  0.115145 -0.066479 -0.094016      1.000000
 -0.076763  0.044319 -0.015669      1.000000
 -0.038382  0.022160 -0.031339      1.000000
  0.000000  0.044319 -0.062677      1.000000
  0.038382  0.022160 -0.078346      1.000000
  0.076763  0.000000 -0.094016      1.000000
  0.115145 -0.022160 -0.109685      1.000000
 -0.076763  0.088639 -0.031339      1.000000
 -0.038382  0.066479 -0.047008      1.000000
  0.000000  0.088639 -0.078346      1.000000
  0.038382  0.066479 -0.094016      1.000000
  0.076763  0.044319 -0.109685      1.000000
  0.115145  0.022160 -0.125354      1.000000
 -0.076763  0.132958 -0.047008      1.000000
 -0.038382  0.110798 -0.062677      1.000000
  0.000000  0.132958 -0.094016      1.000000
  0.038382  0.110798 -0.109685      1.000000
  0.076763  0.088639 -0.125354      1.000000
  0.115145  0.066479 -0.141023      1.000000
 -0.076763  0.177278 -0.062677      1.000000
 -0.038382  0.155118 -0.078346      1.000000
  0.000000 -0.088639 -0.015669      1.000000
  0.038382 -0.110798 -0.031339      1.000000
  0.076763 -0.132958 -0.047008      1.000000
  0.115145 -0.155118 -0.062677      1.000000
 -0.076763 -0.044319  0.015669      1.000000
 -0.038382 -0.066479  0.000000      1.000000
  0.000000 -0.044319 -0.031339      1.000000
  0.038382 -0.066479 -0.047008      1.000000
  0.076763 -0.088639 -0.062677      1.000000
  0.115145 -0.110798 -0.078346      1.000000
 -0.076763  0.000000  0.000000      1.000000
 -0.038382 -0.022160 -0.015669      1.000000
 


--------------------------------------------------------------------------------------------------------




 Dimension of arrays:
   k-points           NKPTS =    216   k-points in BZ     NKDIM =    216   number of bands    NBANDS=     28
   number of dos      NEDOS =    301   number of ions     NIONS =      1
   non local maximal  LDIM  =      6   non local SUM 2l+1 LMDIM =     18
   total plane-waves  NPLWV =  21952
   max r-space proj   IRMAX =      1   max aug-charges    IRDMAX= 182324
   dimension x,y,z NGX =    28 NGY =   28 NGZ =   28
   dimension x,y,z NGXF=    56 NGYF=   56 NGZF=   56
   support grid    NGXF=   112 NGYF=  112 NGZF=  112
   ions per type =               1
   NGX,Y,Z   is equivalent  to a cutoff of  10.72, 10.72, 10.72 a.u.
   NGXF,Y,Z  is equivalent  to a cutoff of  21.44, 21.44, 21.44 a.u.

 SYSTEM =  Og_FCC                                  
 POSCAR =  Og_FCC                                  

 Startparameter for this run:
   NWRITE =      2    write-flag & timer
   PREC   = accura    normal or accurate (medium, high low for compatibility)
   ISTART =      1    job   : 0-new  1-cont  2-samecut
   ICHARG =      0    charge: 1-file 2-atom 10-const
   ISPIN  =      1    spin polarized calculation?
   LNONCOLLINEAR =      T non collinear calculations
   LSORBIT =      T    spin-orbit coupling
   INIWAV =      1    electr: 0-lowe 1-rand  2-diag
   LASPH  =      F    aspherical Exc in radial PAW
   METAGGA=      F    non-selfconsistent MetaGGA calc.

 Electronic Relaxation 1
   ENCUT  =  300.0 eV  22.05 Ry    4.70 a.u.   6.13  6.13  6.13*2*pi/ulx,y,z
   ENINI  =  300.0     initial cutoff
   ENAUG  =  361.0 eV  augmentation charge cutoff
   NELM   =     50;   NELMIN=  2; NELMDL= -5     # of ELM steps 
   EDIFF  = 0.1E-07   stopping-criterion for ELM
   LREAL  =      F    real-space projection
   NLSPLINE    = F    spline interpolate recip. space projectors
   LCOMPAT=      F    compatible to vasp.4.4
   GGA_COMPAT  = F    GGA compatible to vasp.4.4-vasp.4.6
   LMAXPAW     = -100 max onsite density
   LMAXMIX     =    2 max onsite mixed and CHGCAR
   VOSKOWN=      0    Vosko Wilk Nusair interpolation
   ROPT   =    0.00000
 Ionic relaxation
   EDIFFG = 0.1E-04   stopping-criterion for IOM
   NSW    =      1    number of steps for IOM
   NBLOCK =      1;   KBLOCK =      1    inner block; outer block 
   IBRION =     -1    ionic relax: 0-MD 1-quasi-New 2-CG
   NFREE  =      5    steps in history (QN), initial steepest desc. (CG)
   ISIF   =      3    stress and relaxation
   IWAVPR =     10    prediction:  0-non 1-charg 2-wave 3-comb
   ISYM   =      0    0-nonsym 1-usesym 2-fastsym
   LCORR  =      T    Harris-Foulkes like correction to forces

   POTIM  = 0.1000    time-step for ionic-motion
   TEIN   =    0.0    initial temperature
   TEBEG  =    0.0;   TEEND  =   0.0 temperature during run
   SMASS  =  -3.00    Nose mass-parameter (am)
   estimated Nose-frequenzy (Omega)   =  0.10E-29 period in steps =****** mass=  -0.431E-27a.u.
   SCALEE = 1.0000    scale energy and forces
   NPACO  =    256;   APACO  = 16.0  distance and # of slots for P.C.
   PSTRESS=    0.0 pullay stress

  Mass of Ions in am
   POMASS =   0.01
  Ionic Valenz
   ZVAL   =  18.00
  Atomic Wigner-Seitz radii
   RWIGS  =  -1.00
  virtual crystal weights 
   VCA    =   1.00
   NELECT =      18.0000    total number of electrons
   NUPDOWN=      -1.0000    fix difference up-down

 DOS related values:
   EMIN   =  10.00;   EMAX   =-10.00  energy-range for DOS
   EFERMI =   0.00
   ISMEAR =     0;   SIGMA  =   0.00  broadening in eV -4-tet -1-fermi 0-gaus

 Electronic relaxation 2 (details)
   IALGO  =     38    algorithm
   LDIAG  =      T    sub-space diagonalisation (order eigenvalues)
   LSUBROT=      F    optimize rotation matrix (better conditioning)
   TURBO    =      0    0=normal 1=particle mesh
   IRESTART =      0    0=no restart 2=restart with 2 vectors
   NREBOOT  =      0    no. of reboots
   NMIN     =      0    reboot dimension
   EREF     =   0.00    reference energy to select bands
   IMIX   =      4    mixing-type and parameters
     AMIX     =   0.40;   BMIX     =  1.00
     AMIX_MAG =   1.60;   BMIX_MAG =  1.00
     AMIN     =   0.10
     WC   =   100.;   INIMIX=   1;  MIXPRE=   1;  MAXMIX=  50

 Intra band minimization:
   WEIMIN = 0.0000     energy-eigenvalue tresh-hold
   EBREAK =  0.89E-10  absolut break condition
   DEPER  =   0.30     relativ break condition  

   TIME   =   0.40     timestep for ELM

  volume/ion in A,a.u.               =      57.90       390.71
  Fermi-wavevector in a.u.,A,eV,Ry     =   1.109038  2.095777 16.734680  1.229964
  Thomas-Fermi vector in A             =   2.245572
 
 Write flags
   LWAVE        =      T    write WAVECAR
   LDOWNSAMPLE  =      F    k-point downsampling of WAVECAR
   LCHARG       =      F    write CHGCAR
   LVTOT        =      F    write LOCPOT, total local potential
   LVHAR        =      F    write LOCPOT, Hartree potential only
   LELF         =      F    write electronic localiz. function (ELF)
   LORBIT       =      0    0 simple, 1 ext, 2 COOP (PROOUT), +10 PAW based schemes


 Dipole corrections
   LMONO  =      F    monopole corrections only (constant potential shift)
   LDIPOL =      F    correct potential (dipole corrections)
   IDIPOL =      0    1-x, 2-y, 3-z, 4-all directions 
   EPSILON=  1.0000000 bulk dielectric constant

 Exchange correlation treatment:
   GGA     =    --    GGA type
   LEXCH   =     8    internal setting for exchange type
   VOSKOWN=      0    Vosko Wilk Nusair interpolation
   LHFCALC =     F    Hartree Fock is set to
   LHFONE  =     F    Hartree Fock one center treatment
   AEXX    =    0.0000 exact exchange contribution

 Linear response parameters
   LEPSILON=     F    determine dielectric tensor
   LRPA    =     F    only Hartree local field effects (RPA)
   LNABLA  =     F    use nabla operator in PAW spheres
   LVEL    =     F    velocity operator in full k-point grid
   LINTERFAST=   F  fast interpolation
   KINTER  =     0    interpolate to denser k-point grid
   CSHIFT  =0.1000    complex shift for real part using Kramers Kronig
   OMEGAMAX=  -1.0    maximum frequency
   DEG_THRESHOLD= 0.2000000E-02 threshold for treating states as degnerate
   RTIME   =   -0.100 relaxation time in fs
  (WPLASMAI=    0.000 imaginary part of plasma frequency in eV, 0.658/RTIME)
   DFIELD  = 0.0000000 0.0000000 0.0000000 field for delta impulse in time
 
 Orbital magnetization related:
   ORBITALMAG=     F  switch on orbital magnetization
   LCHIMAG   =     F  perturbation theory with respect to B field
   DQ        =  0.001000  dq finite difference perturbation B field
   LLRAUG    =     F  two centre corrections for induced B field



--------------------------------------------------------------------------------------------------------


 Static calculation
 charge density and potential will be updated during run
 non collinear spin polarized calculation
 Variant of blocked Davidson
 Davidson routine will perform the subspace rotation
 perform sub-space diagonalisation
    after iterative eigenvector-optimisation
 modified Broyden-mixing scheme, WC =      100.0
 initial mixing is a Kerker type mixing with AMIX =  0.4000 and BMIX =      1.0000
 Hartree-type preconditioning will be used
 using additional bands           19
 reciprocal scheme for non local part
 use partial core corrections
 calculate Harris-corrections to forces 
   (improved forces if not selfconsistent)
 use gradient corrections 
 use of overlap-Matrix (Vanderbilt PP)
 Gauss-broadening in eV      SIGMA  =   0.00


--------------------------------------------------------------------------------------------------------


  energy-cutoff  :      300.00
  volume of cell :       57.90
      direct lattice vectors                 reciprocal lattice vectors
     4.342345876  0.000000000  0.000000000     0.230290269 -0.132958149 -0.094015609
     2.171172938  3.760581840 -0.000000000     0.000000000  0.265916298 -0.094015609
     2.171172938  1.253527280  3.545510561    -0.000000000  0.000000000  0.282046826

  length of vectors
     4.342345876  4.342345876  4.342345876     0.282046826  0.282046826  0.282046826


 
 old parameters found on file WAVECAR:
  energy-cutoff  :      300.00
  volume of cell :       57.90
      direct lattice vectors                 reciprocal lattice vectors
     4.342345876  0.000000000  0.000000000     0.230290269 -0.132958149 -0.094015609
     2.171172938  3.760581840 -0.000000000     0.000000000  0.265916298 -0.094015609
     2.171172938  1.253527280  3.545510561    -0.000000000  0.000000000  0.282046826

  length of vectors

 
 k-points in units of 2pi/SCALE and weight: k-points                                
   0.00000000  0.00000000  0.00000000       0.005
   0.03838171 -0.02215969 -0.01566927       0.005
   0.07676342 -0.04431938 -0.03133854       0.005
   0.11514513 -0.06647907 -0.04700780       0.005
  -0.07676342  0.04431938  0.03133854       0.005
  -0.03838171  0.02215969  0.01566927       0.005
   0.00000000  0.04431938 -0.01566927       0.005
   0.03838171  0.02215969 -0.03133854       0.005
   0.07676342  0.00000000 -0.04700780       0.005
   0.11514513 -0.02215969 -0.06267707       0.005
  -0.07676342  0.08863877  0.01566927       0.005
  -0.03838171  0.06647907 -0.00000000       0.005
   0.00000000  0.08863877 -0.03133854       0.005
   0.03838171  0.06647907 -0.04700780       0.005
   0.07676342  0.04431938 -0.06267707       0.005
   0.11514513  0.02215969 -0.07834634       0.005
  -0.07676342  0.13295815  0.00000000       0.005
  -0.03838171  0.11079846 -0.01566927       0.005
   0.00000000  0.13295815 -0.04700780       0.005
   0.03838171  0.11079846 -0.06267707       0.005
   0.07676342  0.08863877 -0.07834634       0.005
   0.11514513  0.06647907 -0.09401561       0.005
  -0.07676342  0.17727753 -0.01566927       0.005
  -0.03838171  0.15511784 -0.03133854       0.005
  -0.00000000 -0.08863877  0.03133854       0.005
   0.03838171 -0.11079846  0.01566927       0.005
   0.07676342 -0.13295815 -0.00000000       0.005
   0.11514513 -0.15511784 -0.01566927       0.005
  -0.07676342 -0.04431938  0.06267707       0.005
  -0.03838171 -0.06647907  0.04700780       0.005
  -0.00000000 -0.04431938  0.01566927       0.005
   0.03838171 -0.06647907 -0.00000000       0.005
   0.07676342 -0.08863877 -0.01566927       0.005
   0.11514513 -0.11079846 -0.03133854       0.005
  -0.07676342  0.00000000  0.04700780       0.005
  -0.03838171 -0.02215969  0.03133854       0.005
  -0.00000000  0.00000000  0.04700780       0.005
   0.03838171 -0.02215969  0.03133854       0.005
   0.07676342 -0.04431938  0.01566927       0.005
   0.11514513 -0.06647907  0.00000000       0.005
  -0.07676342  0.04431938  0.07834634       0.005
  -0.03838171  0.02215969  0.06267707       0.005
  -0.00000000  0.04431938  0.03133854       0.005
   0.03838171  0.02215969  0.01566927       0.005
   0.07676342  0.00000000  0.00000000       0.005
   0.11514513 -0.02215969 -0.01566927       0.005
  -0.07676342  0.08863877  0.06267707       0.005
  -0.03838171  0.06647907  0.04700780       0.005
  -0.00000000  0.08863877  0.01566927       0.005
   0.03838171  0.06647907  0.00000000       0.005
   0.07676342  0.04431938 -0.01566927       0.005
   0.11514513  0.02215969 -0.03133854       0.005
  -0.07676342  0.13295815  0.04700780       0.005
  -0.03838171  0.11079846  0.03133854       0.005
  -0.00000000  0.13295815  0.00000000       0.005
   0.03838171  0.11079846 -0.01566927       0.005
   0.07676342  0.08863877 -0.03133854       0.005
   0.11514513  0.06647907 -0.04700780       0.005
  -0.07676342  0.17727753  0.03133854       0.005
  -0.03838171  0.15511784  0.01566927       0.005
  -0.00000000 -0.08863877  0.07834634       0.005
   0.03838171 -0.11079846  0.06267707       0.005
   0.07676342 -0.13295815  0.04700780       0.005
   0.11514513 -0.15511784  0.03133854       0.005
  -0.07676342 -0.04431938  0.10968488       0.005
  -0.03838171 -0.06647907  0.09401561       0.005
  -0.00000000 -0.04431938  0.06267707       0.005
   0.03838171 -0.06647907  0.04700780       0.005
   0.07676342 -0.08863877  0.03133854       0.005
   0.11514513 -0.11079846  0.01566927       0.005
  -0.07676342  0.00000000  0.09401561       0.005
  -0.03838171 -0.02215969  0.07834634       0.005
  -0.00000000  0.00000000  0.09401561       0.005
   0.03838171 -0.02215969  0.07834634       0.005
   0.07676342 -0.04431938  0.06267707       0.005
   0.11514513 -0.06647907  0.04700780       0.005
  -0.07676342  0.04431938  0.12535414       0.005
  -0.03838171  0.02215969  0.10968488       0.005
  -0.00000000  0.04431938  0.07834634       0.005
   0.03838171  0.02215969  0.06267707       0.005
   0.07676342  0.00000000  0.04700780       0.005
   0.11514513 -0.02215969  0.03133854       0.005
  -0.07676342  0.08863877  0.10968488       0.005
  -0.03838171  0.06647907  0.09401561       0.005
  -0.00000000  0.08863877  0.06267707       0.005
   0.03838171  0.06647907  0.04700780       0.005
   0.07676342  0.04431938  0.03133854       0.005
   0.11514513  0.02215969  0.01566927       0.005
  -0.07676342  0.13295815  0.09401561       0.005
  -0.03838171  0.11079846  0.07834634       0.005
  -0.00000000  0.13295815  0.04700780       0.005
   0.03838171  0.11079846  0.03133854       0.005
   0.07676342  0.08863877  0.01566927       0.005
   0.11514513  0.06647907 -0.00000000       0.005
  -0.07676342  0.17727753  0.07834634       0.005
  -0.03838171  0.15511784  0.06267707       0.005
  -0.00000000 -0.08863877  0.12535414       0.005
   0.03838171 -0.11079846  0.10968488       0.005
   0.07676342 -0.13295815  0.09401561       0.005
   0.11514513 -0.15511784  0.07834634       0.005
  -0.07676342 -0.04431938  0.15669268       0.005
  -0.03838171 -0.06647907  0.14102341       0.005
  -0.00000000 -0.04431938  0.10968488       0.005
   0.03838171 -0.06647907  0.09401561       0.005
   0.07676342 -0.08863877  0.07834634       0.005
   0.11514513 -0.11079846  0.06267707       0.005
  -0.07676342  0.00000000  0.14102341       0.005
  -0.03838171 -0.02215969  0.12535414       0.005
  -0.00000000  0.00000000  0.14102341       0.005
   0.03838171 -0.02215969  0.12535414       0.005
   0.07676342 -0.04431938  0.10968488       0.005
   0.11514513 -0.06647907  0.09401561       0.005
  -0.07676342  0.04431938  0.17236195       0.005
  -0.03838171  0.02215969  0.15669268       0.005
  -0.00000000  0.04431938  0.12535414       0.005
   0.03838171  0.02215969  0.10968488       0.005
   0.07676342  0.00000000  0.09401561       0.005
   0.11514513 -0.02215969  0.07834634       0.005
  -0.07676342  0.08863877  0.15669268       0.005
  -0.03838171  0.06647907  0.14102341       0.005
  -0.00000000  0.08863877  0.10968488       0.005
   0.03838171  0.06647907  0.09401561       0.005
   0.07676342  0.04431938  0.07834634       0.005
   0.11514513  0.02215969  0.06267707       0.005
  -0.07676342  0.13295815  0.14102341       0.005
  -0.03838171  0.11079846  0.12535414       0.005
  -0.00000000  0.13295815  0.09401561       0.005
   0.03838171  0.11079846  0.07834634       0.005
   0.07676342  0.08863877  0.06267707       0.005
   0.11514513  0.06647907  0.04700780       0.005
  -0.07676342  0.17727753  0.12535414       0.005
  -0.03838171  0.15511784  0.10968488       0.005
  -0.00000000 -0.08863877  0.17236195       0.005
   0.03838171 -0.11079846  0.15669268       0.005
   0.07676342 -0.13295815  0.14102341       0.005
   0.11514513 -0.15511784  0.12535414       0.005
  -0.07676342 -0.04431938  0.20370049       0.005
  -0.03838171 -0.06647907  0.18803122       0.005
  -0.00000000 -0.04431938  0.15669268       0.005
   0.03838171 -0.06647907  0.14102341       0.005
   0.07676342 -0.08863877  0.12535414       0.005
   0.11514513 -0.11079846  0.10968488       0.005
  -0.07676342  0.00000000  0.18803122       0.005
  -0.03838171 -0.02215969  0.17236195       0.005
   0.00000000 -0.00000000 -0.09401561       0.005
   0.03838171 -0.02215969 -0.10968488       0.005
   0.07676342 -0.04431938 -0.12535414       0.005
   0.11514513 -0.06647907 -0.14102341       0.005
  -0.07676342  0.04431938 -0.06267707       0.005
  -0.03838171  0.02215969 -0.07834634       0.005
   0.00000000  0.04431938 -0.10968488       0.005
   0.03838171  0.02215969 -0.12535414       0.005
   0.07676342  0.00000000 -0.14102341       0.005
   0.11514513 -0.02215969 -0.15669268       0.005
  -0.07676342  0.08863877 -0.07834634       0.005
  -0.03838171  0.06647907 -0.09401561       0.005
   0.00000000  0.08863877 -0.12535414       0.005
   0.03838171  0.06647907 -0.14102341       0.005
   0.07676342  0.04431938 -0.15669268       0.005
   0.11514513  0.02215969 -0.17236195       0.005
  -0.07676342  0.13295815 -0.09401561       0.005
  -0.03838171  0.11079846 -0.10968488       0.005
   0.00000000  0.13295815 -0.14102341       0.005
   0.03838171  0.11079846 -0.15669268       0.005
   0.07676342  0.08863877 -0.17236195       0.005
   0.11514513  0.06647907 -0.18803122       0.005
  -0.07676342  0.17727753 -0.10968488       0.005
  -0.03838171  0.15511784 -0.12535414       0.005
   0.00000000 -0.08863877 -0.06267707       0.005
   0.03838171 -0.11079846 -0.07834634       0.005
   0.07676342 -0.13295815 -0.09401561       0.005
   0.11514513 -0.15511784 -0.10968488       0.005
  -0.07676342 -0.04431938 -0.03133854       0.005
  -0.03838171 -0.06647907 -0.04700780       0.005
   0.00000000 -0.04431938 -0.07834634       0.005
   0.03838171 -0.06647907 -0.09401561       0.005
   0.07676342 -0.08863877 -0.10968488       0.005
   0.11514513 -0.11079846 -0.12535414       0.005
  -0.07676342  0.00000000 -0.04700780       0.005
  -0.03838171 -0.02215969 -0.06267707       0.005
   0.00000000 -0.00000000 -0.04700780       0.005
   0.03838171 -0.02215969 -0.06267707       0.005
   0.07676342 -0.04431938 -0.07834634       0.005
   0.11514513 -0.06647907 -0.09401561       0.005
  -0.07676342  0.04431938 -0.01566927       0.005
  -0.03838171  0.02215969 -0.03133854       0.005
   0.00000000  0.04431938 -0.06267707       0.005
   0.03838171  0.02215969 -0.07834634       0.005
   0.07676342  0.00000000 -0.09401561       0.005
   0.11514513 -0.02215969 -0.10968488       0.005
  -0.07676342  0.08863877 -0.03133854       0.005
  -0.03838171  0.06647907 -0.04700780       0.005
   0.00000000  0.08863877 -0.07834634       0.005
   0.03838171  0.06647907 -0.09401561       0.005
   0.07676342  0.04431938 -0.10968488       0.005
   0.11514513  0.02215969 -0.12535414       0.005
  -0.07676342  0.13295815 -0.04700780       0.005
  -0.03838171  0.11079846 -0.06267707       0.005
   0.00000000  0.13295815 -0.09401561       0.005
   0.03838171  0.11079846 -0.10968488       0.005
   0.07676342  0.08863877 -0.12535414       0.005
   0.11514513  0.06647907 -0.14102341       0.005
  -0.07676342  0.17727753 -0.06267707       0.005
  -0.03838171  0.15511784 -0.07834634       0.005
   0.00000000 -0.08863877 -0.01566927       0.005
   0.03838171 -0.11079846 -0.03133854       0.005
   0.07676342 -0.13295815 -0.04700780       0.005
   0.11514513 -0.15511784 -0.06267707       0.005
  -0.07676342 -0.04431938  0.01566927       0.005
  -0.03838171 -0.06647907  0.00000000       0.005
   0.00000000 -0.04431938 -0.03133854       0.005
   0.03838171 -0.06647907 -0.04700780       0.005
   0.07676342 -0.08863877 -0.06267707       0.005
   0.11514513 -0.11079846 -0.07834634       0.005
  -0.07676342  0.00000000  0.00000000       0.005
  -0.03838171 -0.02215969 -0.01566927       0.005
 
 k-points in reciprocal lattice and weights: k-points                                
   0.00000000  0.00000000  0.00000000       0.005
   0.16666667  0.00000000  0.00000000       0.005
   0.33333333  0.00000000  0.00000000       0.005
   0.50000000  0.00000000  0.00000000       0.005
  -0.33333333 -0.00000000  0.00000000       0.005
  -0.16666667 -0.00000000 -0.00000000       0.005
  -0.00000000  0.16666667 -0.00000000       0.005
   0.16666667  0.16666667  0.00000000       0.005
   0.33333333  0.16666667 -0.00000000       0.005
   0.50000000  0.16666667  0.00000000       0.005
  -0.33333333  0.16666667 -0.00000000       0.005
  -0.16666667  0.16666667 -0.00000000       0.005
   0.00000000  0.33333333 -0.00000000       0.005
   0.16666667  0.33333333  0.00000000       0.005
   0.33333333  0.33333333  0.00000000       0.005
   0.50000000  0.33333333  0.00000000       0.005
  -0.33333333  0.33333333 -0.00000000       0.005
  -0.16666667  0.33333333 -0.00000000       0.005
   0.00000000  0.50000000 -0.00000000       0.005
   0.16666667  0.50000000  0.00000000       0.005
   0.33333333  0.50000000  0.00000000       0.005
   0.50000000  0.50000000  0.00000000       0.005
  -0.33333333  0.50000000 -0.00000000       0.005
  -0.16666667  0.50000000 -0.00000000       0.005
  -0.00000000 -0.33333333  0.00000000       0.005
   0.16666667 -0.33333333  0.00000000       0.005
   0.33333333 -0.33333333  0.00000000       0.005
   0.50000000 -0.33333333  0.00000000       0.005
  -0.33333333 -0.33333333 -0.00000000       0.005
  -0.16666667 -0.33333333  0.00000000       0.005
   0.00000000 -0.16666667  0.00000000       0.005
   0.16666667 -0.16666667  0.00000000       0.005
   0.33333333 -0.16666667  0.00000000       0.005
   0.50000000 -0.16666667  0.00000000       0.005
  -0.33333333 -0.16666667  0.00000000       0.005
  -0.16666667 -0.16666667  0.00000000       0.005
   0.00000000  0.00000000  0.16666667       0.005
   0.16666667  0.00000000  0.16666667       0.005
   0.33333333 -0.00000000  0.16666667       0.005
   0.50000000 -0.00000000  0.16666667       0.005
  -0.33333333 -0.00000000  0.16666667       0.005
  -0.16666667  0.00000000  0.16666667       0.005
  -0.00000000  0.16666667  0.16666667       0.005
   0.16666667  0.16666667  0.16666667       0.005
   0.33333333  0.16666667  0.16666667       0.005
   0.50000000  0.16666667  0.16666667       0.005
  -0.33333333  0.16666667  0.16666667       0.005
  -0.16666667  0.16666667  0.16666667       0.005
  -0.00000000  0.33333333  0.16666667       0.005
   0.16666667  0.33333333  0.16666667       0.005
   0.33333333  0.33333333  0.16666667       0.005
   0.50000000  0.33333333  0.16666667       0.005
  -0.33333333  0.33333333  0.16666667       0.005
  -0.16666667  0.33333333  0.16666667       0.005
  -0.00000000  0.50000000  0.16666667       0.005
   0.16666667  0.50000000  0.16666667       0.005
   0.33333333  0.50000000  0.16666667       0.005
   0.50000000  0.50000000  0.16666667       0.005
  -0.33333333  0.50000000  0.16666667       0.005
  -0.16666667  0.50000000  0.16666667       0.005
  -0.00000000 -0.33333333  0.16666667       0.005
   0.16666667 -0.33333333  0.16666667       0.005
   0.33333333 -0.33333333  0.16666667       0.005
   0.50000000 -0.33333333  0.16666667       0.005
  -0.33333333 -0.33333333  0.16666667       0.005
  -0.16666667 -0.33333333  0.16666667       0.005
   0.00000000 -0.16666667  0.16666667       0.005
   0.16666667 -0.16666667  0.16666667       0.005
   0.33333333 -0.16666667  0.16666667       0.005
   0.50000000 -0.16666667  0.16666667       0.005
  -0.33333333 -0.16666667  0.16666667       0.005
  -0.16666667 -0.16666667  0.16666667       0.005
   0.00000000  0.00000000  0.33333333       0.005
   0.16666667  0.00000000  0.33333333       0.005
   0.33333333  0.00000000  0.33333333       0.005
   0.50000000 -0.00000000  0.33333333       0.005
  -0.33333333  0.00000000  0.33333333       0.005
  -0.16666667  0.00000000  0.33333333       0.005
  -0.00000000  0.16666667  0.33333333       0.005
   0.16666667  0.16666667  0.33333333       0.005
   0.33333333  0.16666667  0.33333333       0.005
   0.50000000  0.16666667  0.33333333       0.005
  -0.33333333  0.16666667  0.33333333       0.005
  -0.16666667  0.16666667  0.33333333       0.005
  -0.00000000  0.33333333  0.33333333       0.005
   0.16666667  0.33333333  0.33333333       0.005
   0.33333333  0.33333333  0.33333333       0.005
   0.50000000  0.33333333  0.33333333       0.005
  -0.33333333  0.33333333  0.33333333       0.005
  -0.16666667  0.33333333  0.33333333       0.005
   0.00000000  0.50000000  0.33333333       0.005
   0.16666667  0.50000000  0.33333333       0.005
   0.33333333  0.50000000  0.33333333       0.005
   0.50000000  0.50000000  0.33333333       0.005
  -0.33333333  0.50000000  0.33333333       0.005
  -0.16666667  0.50000000  0.33333333       0.005
   0.00000000 -0.33333333  0.33333333       0.005
   0.16666667 -0.33333333  0.33333333       0.005
   0.33333333 -0.33333333  0.33333333       0.005
   0.50000000 -0.33333333  0.33333333       0.005
  -0.33333333 -0.33333333  0.33333333       0.005
  -0.16666667 -0.33333333  0.33333333       0.005
   0.00000000 -0.16666667  0.33333333       0.005
   0.16666667 -0.16666667  0.33333333       0.005
   0.33333333 -0.16666667  0.33333333       0.005
   0.50000000 -0.16666667  0.33333333       0.005
  -0.33333333 -0.16666667  0.33333333       0.005
  -0.16666667 -0.16666667  0.33333333       0.005
   0.00000000  0.00000000  0.50000000       0.005
   0.16666667  0.00000000  0.50000000       0.005
   0.33333333  0.00000000  0.50000000       0.005
   0.50000000 -0.00000000  0.50000000       0.005
  -0.33333333  0.00000000  0.50000000       0.005
  -0.16666667  0.00000000  0.50000000       0.005
  -0.00000000  0.16666667  0.50000000       0.005
   0.16666667  0.16666667  0.50000000       0.005
   0.33333333  0.16666667  0.50000000       0.005
   0.50000000  0.16666667  0.50000000       0.005
  -0.33333333  0.16666667  0.50000000       0.005
  -0.16666667  0.16666667  0.50000000       0.005
   0.00000000  0.33333333  0.50000000       0.005
   0.16666667  0.33333333  0.50000000       0.005
   0.33333333  0.33333333  0.50000000       0.005
   0.50000000  0.33333333  0.50000000       0.005
  -0.33333333  0.33333333  0.50000000       0.005
  -0.16666667  0.33333333  0.50000000       0.005
  -0.00000000  0.50000000  0.50000000       0.005
   0.16666667  0.50000000  0.50000000       0.005
   0.33333333  0.50000000  0.50000000       0.005
   0.50000000  0.50000000  0.50000000       0.005
  -0.33333333  0.50000000  0.50000000       0.005
  -0.16666667  0.50000000  0.50000000       0.005
   0.00000000 -0.33333333  0.50000000       0.005
   0.16666667 -0.33333333  0.50000000       0.005
   0.33333333 -0.33333333  0.50000000       0.005
   0.50000000 -0.33333333  0.50000000       0.005
  -0.33333333 -0.33333333  0.50000000       0.005
  -0.16666667 -0.33333333  0.50000000       0.005
   0.00000000 -0.16666667  0.50000000       0.005
   0.16666667 -0.16666667  0.50000000       0.005
   0.33333333 -0.16666667  0.50000000       0.005
   0.50000000 -0.16666667  0.50000000       0.005
  -0.33333333 -0.16666667  0.50000000       0.005
  -0.16666667 -0.16666667  0.50000000       0.005
   0.00000000  0.00000000 -0.33333333       0.005
   0.16666667 -0.00000000 -0.33333333       0.005
   0.33333333 -0.00000000 -0.33333333       0.005
   0.50000000  0.00000000 -0.33333333       0.005
  -0.33333333 -0.00000000 -0.33333333       0.005
  -0.16666667 -0.00000000 -0.33333333       0.005
  -0.00000000  0.16666667 -0.33333333       0.005
   0.16666667  0.16666667 -0.33333333       0.005
   0.33333333  0.16666667 -0.33333333       0.005
   0.50000000  0.16666667 -0.33333333       0.005
  -0.33333333  0.16666667 -0.33333333       0.005
  -0.16666667  0.16666667 -0.33333333       0.005
   0.00000000  0.33333333 -0.33333333       0.005
   0.16666667  0.33333333 -0.33333333       0.005
   0.33333333  0.33333333 -0.33333333       0.005
   0.50000000  0.33333333 -0.33333333       0.005
  -0.33333333  0.33333333 -0.33333333       0.005
  -0.16666667  0.33333333 -0.33333333       0.005
  -0.00000000  0.50000000 -0.33333333       0.005
   0.16666667  0.50000000 -0.33333333       0.005
   0.33333333  0.50000000 -0.33333333       0.005
   0.50000000  0.50000000 -0.33333333       0.005
  -0.33333333  0.50000000 -0.33333333       0.005
  -0.16666667  0.50000000 -0.33333333       0.005
   0.00000000 -0.33333333 -0.33333333       0.005
   0.16666667 -0.33333333 -0.33333333       0.005
   0.33333333 -0.33333333 -0.33333333       0.005
   0.50000000 -0.33333333 -0.33333333       0.005
  -0.33333333 -0.33333333 -0.33333333       0.005
  -0.16666667 -0.33333333 -0.33333333       0.005
   0.00000000 -0.16666667 -0.33333333       0.005
   0.16666667 -0.16666667 -0.33333333       0.005
   0.33333333 -0.16666667 -0.33333333       0.005
   0.50000000 -0.16666667 -0.33333333       0.005
  -0.33333333 -0.16666667 -0.33333333       0.005
  -0.16666667 -0.16666667 -0.33333333       0.005
  -0.00000000 -0.00000000 -0.16666667       0.005
   0.16666667 -0.00000000 -0.16666667       0.005
   0.33333333  0.00000000 -0.16666667       0.005
   0.50000000  0.00000000 -0.16666667       0.005
  -0.33333333  0.00000000 -0.16666667       0.005
  -0.16666667 -0.00000000 -0.16666667       0.005
  -0.00000000  0.16666667 -0.16666667       0.005
   0.16666667  0.16666667 -0.16666667       0.005
   0.33333333  0.16666667 -0.16666667       0.005
   0.50000000  0.16666667 -0.16666667       0.005
  -0.33333333  0.16666667 -0.16666667       0.005
  -0.16666667  0.16666667 -0.16666667       0.005
   0.00000000  0.33333333 -0.16666667       0.005
   0.16666667  0.33333333 -0.16666667       0.005
   0.33333333  0.33333333 -0.16666667       0.005
   0.50000000  0.33333333 -0.16666667       0.005
  -0.33333333  0.33333333 -0.16666667       0.005
  -0.16666667  0.33333333 -0.16666667       0.005
  -0.00000000  0.50000000 -0.16666667       0.005
   0.16666667  0.50000000 -0.16666667       0.005
   0.33333333  0.50000000 -0.16666667       0.005
   0.50000000  0.50000000 -0.16666667       0.005
  -0.33333333  0.50000000 -0.16666667       0.005
  -0.16666667  0.50000000 -0.16666667       0.005
   0.00000000 -0.33333333 -0.16666667       0.005
   0.16666667 -0.33333333 -0.16666667       0.005
   0.33333333 -0.33333333 -0.16666667       0.005
   0.50000000 -0.33333333 -0.16666667       0.005
  -0.33333333 -0.33333333 -0.16666667       0.005
  -0.16666667 -0.33333333 -0.16666667       0.005
   0.00000000 -0.16666667 -0.16666667       0.005
   0.16666667 -0.16666667 -0.16666667       0.005
   0.33333333 -0.16666667 -0.16666667       0.005
   0.50000000 -0.16666667 -0.16666667       0.005
  -0.33333333 -0.16666667 -0.16666667       0.005
  -0.16666667 -0.16666667 -0.16666667       0.005
 
 position of ions in fractional coordinates (direct lattice) 
   0.00000000  0.00000000  0.00000000
 
 position of ions in cartesian coordinates  (Angst):
   0.00000000  0.00000000  0.00000000
 
 Euler angles ALPHA=     0.0000000  BETA=     0.0000000

 transformation matrix from SAXIS to cartesian coordinates
 ---------------------------------------------------------
     1.0000000 m_x     0.0000000 m_y     0.0000000 m_z
     0.0000000 m_x     1.0000000 m_y     0.0000000 m_z
     0.0000000 m_x     0.0000000 m_y     1.0000000 m_z

 transformation matrix from cartesian coordinates to SAXIS
 ---------------------------------------------------------
     1.0000000 m_x     0.0000000 m_y     0.0000000 m_z
     0.0000000 m_x     1.0000000 m_y     0.0000000 m_z
     0.0000000 m_x     0.0000000 m_y     1.0000000 m_z




--------------------------------------------------------------------------------------------------------


 k-point  1 :   0.0000 0.0000 0.0000  plane waves:    1402
 k-point  2 :   0.1667 0.0000 0.0000  plane waves:    1346
 k-point  3 :   0.3333 0.0000 0.0000  plane waves:    1370
 k-point  4 :   0.5000 0.0000 0.0000  plane waves:    1400
 k-point  5 :  -0.3333-0.0000 0.0000  plane waves:    1370
 k-point  6 :  -0.1667-0.0000-0.0000  plane waves:    1346
 k-point  7 :  -0.0000 0.1667-0.0000  plane waves:    1346
 k-point  8 :   0.1667 0.1667 0.0000  plane waves:    1362
 k-point  9 :   0.3333 0.1667-0.0000  plane waves:    1360
 k-point 10 :   0.5000 0.1667 0.0000  plane waves:    1356
 k-point 11 :  -0.3333 0.1667-0.0000  plane waves:    1368
 k-point 12 :  -0.1667 0.1667-0.0000  plane waves:    1348
 k-point 13 :   0.0000 0.3333-0.0000  plane waves:    1370
 k-point 14 :   0.1667 0.3333 0.0000  plane waves:    1360
 k-point 15 :   0.3333 0.3333 0.0000  plane waves:    1386
 k-point 16 :   0.5000 0.3333 0.0000  plane waves:    1372
 k-point 17 :  -0.3333 0.3333-0.0000  plane waves:    1360
 k-point 18 :  -0.1667 0.3333-0.0000  plane waves:    1368
 k-point 19 :   0.0000 0.5000-0.0000  plane waves:    1400
 k-point 20 :   0.1667 0.5000 0.0000  plane waves:    1356
 k-point 21 :   0.3333 0.5000 0.0000  plane waves:    1372
 k-point 22 :   0.5000 0.5000 0.0000  plane waves:    1384
 k-point 23 :  -0.3333 0.5000-0.0000  plane waves:    1372
 k-point 24 :  -0.1667 0.5000-0.0000  plane waves:    1356
 k-point 25 :  -0.0000-0.3333 0.0000  plane waves:    1370
 k-point 26 :   0.1667-0.3333 0.0000  plane waves:    1368
 k-point 27 :   0.3333-0.3333 0.0000  plane waves:    1360
 k-point 28 :   0.5000-0.3333 0.0000  plane waves:    1372
 k-point 29 :  -0.3333-0.3333-0.0000  plane waves:    1386
 k-point 30 :  -0.1667-0.3333 0.0000  plane waves:    1360
 k-point 31 :   0.0000-0.1667 0.0000  plane waves:    1346
 k-point 32 :   0.1667-0.1667 0.0000  plane waves:    1348
 k-point 33 :   0.3333-0.1667 0.0000  plane waves:    1368
 k-point 34 :   0.5000-0.1667 0.0000  plane waves:    1356
 k-point 35 :  -0.3333-0.1667 0.0000  plane waves:    1360
 k-point 36 :  -0.1667-0.1667 0.0000  plane waves:    1362
 k-point 37 :   0.0000 0.0000 0.1667  plane waves:    1346
 k-point 38 :   0.1667 0.0000 0.1667  plane waves:    1362
 k-point 39 :   0.3333-0.0000 0.1667  plane waves:    1360
 k-point 40 :   0.5000-0.0000 0.1667  plane waves:    1356
 k-point 41 :  -0.3333-0.0000 0.1667  plane waves:    1368
 k-point 42 :  -0.1667 0.0000 0.1667  plane waves:    1348
 k-point 43 :  -0.0000 0.1667 0.1667  plane waves:    1362
 k-point 44 :   0.1667 0.1667 0.1667  plane waves:    1346
 k-point 45 :   0.3333 0.1667 0.1667  plane waves:    1348
 k-point 46 :   0.5000 0.1667 0.1667  plane waves:    1368
 k-point 47 :  -0.3333 0.1667 0.1667  plane waves:    1356
 k-point 48 :  -0.1667 0.1667 0.1667  plane waves:    1360
 k-point 49 :  -0.0000 0.3333 0.1667  plane waves:    1360
 k-point 50 :   0.1667 0.3333 0.1667  plane waves:    1348
 k-point 51 :   0.3333 0.3333 0.1667  plane waves:    1360
 k-point 52 :   0.5000 0.3333 0.1667  plane waves:    1352
 k-point 53 :  -0.3333 0.3333 0.1667  plane waves:    1384
 k-point 54 :  -0.1667 0.3333 0.1667  plane waves:    1352
 k-point 55 :  -0.0000 0.5000 0.1667  plane waves:    1356
 k-point 56 :   0.1667 0.5000 0.1667  plane waves:    1368
 k-point 57 :   0.3333 0.5000 0.1667  plane waves:    1352
 k-point 58 :   0.5000 0.5000 0.1667  plane waves:    1372
 k-point 59 :  -0.3333 0.5000 0.1667  plane waves:    1380
 k-point 60 :  -0.1667 0.5000 0.1667  plane waves:    1384
 k-point 61 :  -0.0000-0.3333 0.1667  plane waves:    1368
 k-point 62 :   0.1667-0.3333 0.1667  plane waves:    1356
 k-point 63 :   0.3333-0.3333 0.1667  plane waves:    1384
 k-point 64 :   0.5000-0.3333 0.1667  plane waves:    1380
 k-point 65 :  -0.3333-0.3333 0.1667  plane waves:    1372
 k-point 66 :  -0.1667-0.3333 0.1667  plane waves:    1352
 k-point 67 :   0.0000-0.1667 0.1667  plane waves:    1348
 k-point 68 :   0.1667-0.1667 0.1667  plane waves:    1360
 k-point 69 :   0.3333-0.1667 0.1667  plane waves:    1352
 k-point 70 :   0.5000-0.1667 0.1667  plane waves:    1384
 k-point 71 :  -0.3333-0.1667 0.1667  plane waves:    1352
 k-point 72 :  -0.1667-0.1667 0.1667  plane waves:    1360
 k-point 73 :   0.0000 0.0000 0.3333  plane waves:    1370
 k-point 74 :   0.1667 0.0000 0.3333  plane waves:    1360
 k-point 75 :   0.3333 0.0000 0.3333  plane waves:    1386
 k-point 76 :   0.5000-0.0000 0.3333  plane waves:    1372
 k-point 77 :  -0.3333 0.0000 0.3333  plane waves:    1360
 k-point 78 :  -0.1667 0.0000 0.3333  plane waves:    1368
 k-point 79 :  -0.0000 0.1667 0.3333  plane waves:    1360
 k-point 80 :   0.1667 0.1667 0.3333  plane waves:    1348
 k-point 81 :   0.3333 0.1667 0.3333  plane waves:    1360
 k-point 82 :   0.5000 0.1667 0.3333  plane waves:    1352
 k-point 83 :  -0.3333 0.1667 0.3333  plane waves:    1384
 k-point 84 :  -0.1667 0.1667 0.3333  plane waves:    1352
 k-point 85 :  -0.0000 0.3333 0.3333  plane waves:    1386
 k-point 86 :   0.1667 0.3333 0.3333  plane waves:    1360
 k-point 87 :   0.3333 0.3333 0.3333  plane waves:    1370
 k-point 88 :   0.5000 0.3333 0.3333  plane waves:    1368
 k-point 89 :  -0.3333 0.3333 0.3333  plane waves:    1360
 k-point 90 :  -0.1667 0.3333 0.3333  plane waves:    1372
 k-point 91 :   0.0000 0.5000 0.3333  plane waves:    1372
 k-point 92 :   0.1667 0.5000 0.3333  plane waves:    1352
 k-point 93 :   0.3333 0.5000 0.3333  plane waves:    1368
 k-point 94 :   0.5000 0.5000 0.3333  plane waves:    1356
 k-point 95 :  -0.3333 0.5000 0.3333  plane waves:    1384
 k-point 96 :  -0.1667 0.5000 0.3333  plane waves:    1380
 k-point 97 :   0.0000-0.3333 0.3333  plane waves:    1360
 k-point 98 :   0.1667-0.3333 0.3333  plane waves:    1384
 k-point 99 :   0.3333-0.3333 0.3333  plane waves:    1360
 k-point ** :   0.5000-0.3333 0.3333  plane waves:    1384
 k-point ** :  -0.3333-0.3333 0.3333  plane waves:    1360
 k-point ** :  -0.1667-0.3333 0.3333  plane waves:    1384
 k-point ** :   0.0000-0.1667 0.3333  plane waves:    1368
 k-point ** :   0.1667-0.1667 0.3333  plane waves:    1352
 k-point ** :   0.3333-0.1667 0.3333  plane waves:    1372
 k-point ** :   0.5000-0.1667 0.3333  plane waves:    1380
 k-point ** :  -0.3333-0.1667 0.3333  plane waves:    1384
 k-point ** :  -0.1667-0.1667 0.3333  plane waves:    1356
 k-point ** :   0.0000 0.0000 0.5000  plane waves:    1400
 k-point ** :   0.1667 0.0000 0.5000  plane waves:    1356
 k-point ** :   0.3333 0.0000 0.5000  plane waves:    1372
 k-point ** :   0.5000-0.0000 0.5000  plane waves:    1384
 k-point ** :  -0.3333 0.0000 0.5000  plane waves:    1372
 k-point ** :  -0.1667 0.0000 0.5000  plane waves:    1356
 k-point ** :  -0.0000 0.1667 0.5000  plane waves:    1356
 k-point ** :   0.1667 0.1667 0.5000  plane waves:    1368
 k-point ** :   0.3333 0.1667 0.5000  plane waves:    1352
 k-point ** :   0.5000 0.1667 0.5000  plane waves:    1372
 k-point ** :  -0.3333 0.1667 0.5000  plane waves:    1380
 k-point ** :  -0.1667 0.1667 0.5000  plane waves:    1384
 k-point ** :   0.0000 0.3333 0.5000  plane waves:    1372
 k-point ** :   0.1667 0.3333 0.5000  plane waves:    1352
 k-point ** :   0.3333 0.3333 0.5000  plane waves:    1368
 k-point ** :   0.5000 0.3333 0.5000  plane waves:    1356
 k-point ** :  -0.3333 0.3333 0.5000  plane waves:    1384
 k-point ** :  -0.1667 0.3333 0.5000  plane waves:    1380
 k-point ** :  -0.0000 0.5000 0.5000  plane waves:    1384
 k-point ** :   0.1667 0.5000 0.5000  plane waves:    1372
 k-point ** :   0.3333 0.5000 0.5000  plane waves:    1356
 k-point ** :   0.5000 0.5000 0.5000  plane waves:    1400
 k-point ** :  -0.3333 0.5000 0.5000  plane waves:    1356
 k-point ** :  -0.1667 0.5000 0.5000  plane waves:    1372
 k-point ** :   0.0000-0.3333 0.5000  plane waves:    1372
 k-point ** :   0.1667-0.3333 0.5000  plane waves:    1380
 k-point ** :   0.3333-0.3333 0.5000  plane waves:    1384
 k-point ** :   0.5000-0.3333 0.5000  plane waves:    1356
 k-point ** :  -0.3333-0.3333 0.5000  plane waves:    1368
 k-point ** :  -0.1667-0.3333 0.5000  plane waves:    1352
 k-point ** :   0.0000-0.1667 0.5000  plane waves:    1356
 k-point ** :   0.1667-0.1667 0.5000  plane waves:    1384
 k-point ** :   0.3333-0.1667 0.5000  plane waves:    1380
 k-point ** :   0.5000-0.1667 0.5000  plane waves:    1372
 k-point ** :  -0.3333-0.1667 0.5000  plane waves:    1352
 k-point ** :  -0.1667-0.1667 0.5000  plane waves:    1368
 k-point ** :   0.0000 0.0000-0.3333  plane waves:    1370
 k-point ** :   0.1667-0.0000-0.3333  plane waves:    1368
 k-point ** :   0.3333-0.0000-0.3333  plane waves:    1360
 k-point ** :   0.5000 0.0000-0.3333  plane waves:    1372
 k-point ** :  -0.3333-0.0000-0.3333  plane waves:    1386
 k-point ** :  -0.1667-0.0000-0.3333  plane waves:    1360
 k-point ** :  -0.0000 0.1667-0.3333  plane waves:    1368
 k-point ** :   0.1667 0.1667-0.3333  plane waves:    1356
 k-point ** :   0.3333 0.1667-0.3333  plane waves:    1384
 k-point ** :   0.5000 0.1667-0.3333  plane waves:    1380
 k-point ** :  -0.3333 0.1667-0.3333  plane waves:    1372
 k-point ** :  -0.1667 0.1667-0.3333  plane waves:    1352
 k-point ** :   0.0000 0.3333-0.3333  plane waves:    1360
 k-point ** :   0.1667 0.3333-0.3333  plane waves:    1384
 k-point ** :   0.3333 0.3333-0.3333  plane waves:    1360
 k-point ** :   0.5000 0.3333-0.3333  plane waves:    1384
 k-point ** :  -0.3333 0.3333-0.3333  plane waves:    1360
 k-point ** :  -0.1667 0.3333-0.3333  plane waves:    1384
 k-point ** :  -0.0000 0.5000-0.3333  plane waves:    1372
 k-point ** :   0.1667 0.5000-0.3333  plane waves:    1380
 k-point ** :   0.3333 0.5000-0.3333  plane waves:    1384
 k-point ** :   0.5000 0.5000-0.3333  plane waves:    1356
 k-point ** :  -0.3333 0.5000-0.3333  plane waves:    1368
 k-point ** :  -0.1667 0.5000-0.3333  plane waves:    1352
 k-point ** :   0.0000-0.3333-0.3333  plane waves:    1386
 k-point ** :   0.1667-0.3333-0.3333  plane waves:    1372
 k-point ** :   0.3333-0.3333-0.3333  plane waves:    1360
 k-point ** :   0.5000-0.3333-0.3333  plane waves:    1368
 k-point ** :  -0.3333-0.3333-0.3333  plane waves:    1370
 k-point ** :  -0.1667-0.3333-0.3333  plane waves:    1360
 k-point ** :   0.0000-0.1667-0.3333  plane waves:    1360
 k-point ** :   0.1667-0.1667-0.3333  plane waves:    1352
 k-point ** :   0.3333-0.1667-0.3333  plane waves:    1384
 k-point ** :   0.5000-0.1667-0.3333  plane waves:    1352
 k-point ** :  -0.3333-0.1667-0.3333  plane waves:    1360
 k-point ** :  -0.1667-0.1667-0.3333  plane waves:    1348
 k-point ** :  -0.0000-0.0000-0.1667  plane waves:    1346
 k-point ** :   0.1667-0.0000-0.1667  plane waves:    1348
 k-point ** :   0.3333 0.0000-0.1667  plane waves:    1368
 k-point ** :   0.5000 0.0000-0.1667  plane waves:    1356
 k-point ** :  -0.3333 0.0000-0.1667  plane waves:    1360
 k-point ** :  -0.1667-0.0000-0.1667  plane waves:    1362
 k-point ** :  -0.0000 0.1667-0.1667  plane waves:    1348
 k-point ** :   0.1667 0.1667-0.1667  plane waves:    1360
 k-point ** :   0.3333 0.1667-0.1667  plane waves:    1352
 k-point ** :   0.5000 0.1667-0.1667  plane waves:    1384
 k-point ** :  -0.3333 0.1667-0.1667  plane waves:    1352
 k-point ** :  -0.1667 0.1667-0.1667  plane waves:    1360
 k-point ** :   0.0000 0.3333-0.1667  plane waves:    1368
 k-point ** :   0.1667 0.3333-0.1667  plane waves:    1352
 k-point ** :   0.3333 0.3333-0.1667  plane waves:    1372
 k-point ** :   0.5000 0.3333-0.1667  plane waves:    1380
 k-point ** :  -0.3333 0.3333-0.1667  plane waves:    1384
 k-point ** :  -0.1667 0.3333-0.1667  plane waves:    1356
 k-point ** :  -0.0000 0.5000-0.1667  plane waves:    1356
 k-point ** :   0.1667 0.5000-0.1667  plane waves:    1384
 k-point ** :   0.3333 0.5000-0.1667  plane waves:    1380
 k-point ** :   0.5000 0.5000-0.1667  plane waves:    1372
 k-point ** :  -0.3333 0.5000-0.1667  plane waves:    1352
 k-point ** :  -0.1667 0.5000-0.1667  plane waves:    1368
 k-point ** :   0.0000-0.3333-0.1667  plane waves:    1360
 k-point ** :   0.1667-0.3333-0.1667  plane waves:    1352
 k-point ** :   0.3333-0.3333-0.1667  plane waves:    1384
 k-point ** :   0.5000-0.3333-0.1667  plane waves:    1352
 k-point ** :  -0.3333-0.3333-0.1667  plane waves:    1360
 k-point ** :  -0.1667-0.3333-0.1667  plane waves:    1348
 k-point ** :   0.0000-0.1667-0.1667  plane waves:    1362
 k-point ** :   0.1667-0.1667-0.1667  plane waves:    1360
 k-point ** :   0.3333-0.1667-0.1667  plane waves:    1356
 k-point ** :   0.5000-0.1667-0.1667  plane waves:    1368
 k-point ** :  -0.3333-0.1667-0.1667  plane waves:    1348
 k-point ** :  -0.1667-0.1667-0.1667  plane waves:    1346

 maximum and minimum number of plane-waves per node :       374      314

 maximum number of plane-waves:      1402
 maximum index in each direction: 
   IXMAX=    6   IYMAX=    6   IZMAX=    6
   IXMIN=   -6   IYMIN=   -6   IZMIN=   -6


 parallel 3D FFT for wavefunctions:
    minimum data exchange during FFTs selected (reduces bandwidth)
 parallel 3D FFT for charge:
    minimum data exchange during FFTs selected (reduces bandwidth)


 total amount of memory used by VASP MPI-rank0    53720. kBytes
=======================================================================

   base      :      30000. kBytes
   nonl-proj :       5726. kBytes
   fftplans  :       3396. kBytes
   grid      :       4666. kBytes
   one-center:         62. kBytes
   wavefun   :       9870. kBytes
 
     INWAV:  cpu time    1.2782: real time    1.3451
 Broyden mixing: mesh for mixing (old mesh)
   NGX = 13   NGY = 13   NGZ = 13
  (NGX  = 56   NGY  = 56   NGZ  = 56)
  gives a total of   2197 points

 charge density for first step will be calculated from the start-wavefunctions


--------------------------------------------------------------------------------------------------------


 Maximum index for augmentation-charges        11251 (set IRDMAX)


--------------------------------------------------------------------------------------------------------


 initial charge from wavefunction
 First call to EWALD:  gamma=   0.458
 Maximum number of real-space cells 3x 3x 3
 Maximum number of reciprocal cells 3x 3x 3

    FEWALD:  cpu time    0.0036: real time    0.0036


--------------------------------------- Iteration      1(   1)  ---------------------------------------


    POTLOK:  cpu time    0.0760: real time    0.0779
    SETDIJ:  cpu time    0.1272: real time    0.1271
     EDDAV:  cpu time    4.5534: real time    4.5532
       DOS:  cpu time    0.0011: real time    0.0011
    --------------------------------------------
      LOOP:  cpu time    4.7577: real time    4.7594

 eigenvalue-minimisations  : 12956
 total energy-change (2. order) :-0.1497582E+03  (-0.3498811E+00)
 number of electron      18.0000000 magnetization       0.0017041     -0.0006818     -0.0004922
 augmentation part        2.7617010 magnetization      -0.0001156      0.0000466      0.0000336

 Free energy of the ion-electron system (eV)
  ---------------------------------------------------
  alpha Z        PSCENC =        65.89697999
  Ewald energy   TEWEN  =     -1741.63824267
  -Hartree energ DENC   =      -672.03596811
  -exchange      EXHF   =         0.00000000
  -V(xc)+E(xc)   XCENC  =       -50.72537200
  PAW double counting   =      2319.94751629    -2396.92120889
  entropy T*S    EENTRO =         0.00000000
  eigenvalues    EBANDS =      -314.18684166
  atomic energy  EATOM  =      2639.90492407
  Solvation  Ediel_sol  =         0.00000000
  ---------------------------------------------------
  free energy    TOTEN  =      -149.75821297 eV

  energy without entropy =     -149.75821297  energy(sigma->0) =     -149.75821297


--------------------------------------------------------------------------------------------------------




--------------------------------------- Iteration      1(   2)  ---------------------------------------


     EDDAV:  cpu time    5.0279: real time    5.0274
       DOS:  cpu time    0.0012: real time    0.0012
    --------------------------------------------
      LOOP:  cpu time    5.0291: real time    5.0286

 eigenvalue-minimisations  : 15852
 total energy-change (2. order) :-0.4999171E-02  (-0.4999037E-02)
 number of electron      18.0000000 magnetization       0.0017041     -0.0006818     -0.0004922
 augmentation part        2.7617010 magnetization      -0.0001156      0.0000466      0.0000336

 Free energy of the ion-electron system (eV)
  ---------------------------------------------------
  alpha Z        PSCENC =        65.89697999
  Ewald energy   TEWEN  =     -1741.63824267
  -Hartree energ DENC   =      -672.03596811
  -exchange      EXHF   =         0.00000000
  -V(xc)+E(xc)   XCENC  =       -50.72537200
  PAW double counting   =      2319.94751629    -2396.92120889
  entropy T*S    EENTRO =         0.00000000
  eigenvalues    EBANDS =      -314.19184083
  atomic energy  EATOM  =      2639.90492407
  Solvation  Ediel_sol  =         0.00000000
  ---------------------------------------------------
  free energy    TOTEN  =      -149.76321214 eV

  energy without entropy =     -149.76321214  energy(sigma->0) =     -149.76321214


--------------------------------------------------------------------------------------------------------




--------------------------------------- Iteration      1(   3)  ---------------------------------------


     EDDAV:  cpu time    5.5146: real time    5.5141
       DOS:  cpu time    0.0010: real time    0.0010
    --------------------------------------------
      LOOP:  cpu time    5.5156: real time    5.5151

 eigenvalue-minimisations  : 18392
 total energy-change (2. order) :-0.1085945E-03  (-0.1085945E-03)
 number of electron      18.0000000 magnetization       0.0017041     -0.0006818     -0.0004922
 augmentation part        2.7617010 magnetization      -0.0001156      0.0000466      0.0000336

 Free energy of the ion-electron system (eV)
  ---------------------------------------------------
  alpha Z        PSCENC =        65.89697999
  Ewald energy   TEWEN  =     -1741.63824267
  -Hartree energ DENC   =      -672.03596811
  -exchange      EXHF   =         0.00000000
  -V(xc)+E(xc)   XCENC  =       -50.72537200
  PAW double counting   =      2319.94751629    -2396.92120889
  entropy T*S    EENTRO =         0.00000000
  eigenvalues    EBANDS =      -314.19194942
  atomic energy  EATOM  =      2639.90492407
  Solvation  Ediel_sol  =         0.00000000
  ---------------------------------------------------
  free energy    TOTEN  =      -149.76332073 eV

  energy without entropy =     -149.76332073  energy(sigma->0) =     -149.76332073


--------------------------------------------------------------------------------------------------------




--------------------------------------- Iteration      1(   4)  ---------------------------------------


     EDDAV:  cpu time    5.2951: real time    5.2946
       DOS:  cpu time    0.0010: real time    0.0010
    --------------------------------------------
      LOOP:  cpu time    5.2962: real time    5.2957

 eigenvalue-minimisations  : 17048
 total energy-change (2. order) :-0.3196023E-05  (-0.3196026E-05)
 number of electron      18.0000000 magnetization       0.0017041     -0.0006818     -0.0004922
 augmentation part        2.7617010 magnetization      -0.0001156      0.0000466      0.0000336

 Free energy of the ion-electron system (eV)
  ---------------------------------------------------
  alpha Z        PSCENC =        65.89697999
  Ewald energy   TEWEN  =     -1741.63824267
  -Hartree energ DENC   =      -672.03596811
  -exchange      EXHF   =         0.00000000
  -V(xc)+E(xc)   XCENC  =       -50.72537200
  PAW double counting   =      2319.94751629    -2396.92120889
  entropy T*S    EENTRO =         0.00000000
  eigenvalues    EBANDS =      -314.19195262
  atomic energy  EATOM  =      2639.90492407
  Solvation  Ediel_sol  =         0.00000000
  ---------------------------------------------------
  free energy    TOTEN  =      -149.76332393 eV

  energy without entropy =     -149.76332393  energy(sigma->0) =     -149.76332393


--------------------------------------------------------------------------------------------------------




[...]
    0.000000 1037.246296 1037.248330 1037.248728   -0.001814   -0.000733   -0.001314
    0.554309    3.296267    3.296273    3.296274   -0.000006   -0.000003   -0.000007
    1.108618    1.096931    1.096933    1.096933   -0.000002   -0.000001   -0.000003
    1.662927    1.443716    1.443720    1.443720   -0.000003   -0.000002   -0.000003
    2.217236    2.696737    2.696744    2.696745   -0.000007   -0.000002   -0.000006
    2.771545    1.882059    1.882064    1.882064   -0.000005   -0.000002   -0.000004
    3.325855    3.908429    3.908416    3.908421    0.000011    0.000004    0.000007
    3.880164    2.054782    2.054786    2.054787   -0.000004   -0.000002   -0.000003
    4.434473    3.594208    3.594217    3.594218   -0.000008   -0.000003   -0.000006
    4.988782    5.342826    5.342841    5.342841   -0.000012   -0.000004   -0.000009
    5.543091    2.824703    2.824766    2.824764   -0.000050   -0.000018   -0.000035
    6.097400    3.748304    3.748305    3.748306   -0.000001   -0.000003   -0.000001
    6.651709    7.293300    7.293309    7.293308   -0.000008    0.000029   -0.000011
    7.206018    3.873593    3.873598    3.873598   -0.000004   -0.000004   -0.000003
    7.760327    2.371416    2.371411    2.371411    0.000005    0.000002    0.000003
    8.314636    2.369658    2.369662    2.369664   -0.000004   -0.000002   -0.000004
    8.868945    3.259443    3.259439    3.259443    0.000001   -0.000002   -0.000001
    9.423255    0.631153    0.631150    0.631150    0.000002    0.000000    0.000001
    9.977564    0.924844    0.924841    0.924840    0.000003    0.000001    0.000001
   10.531873    0.950921    0.950985    0.950995   -0.000056   -0.000025   -0.000040
   11.086182    0.726391    0.726390    0.726390    0.000000    0.000000   -0.000000
   11.640491    0.397814    0.397813    0.397812    0.000001    0.000000   -0.000001
   12.194800    0.427863    0.427848    0.427846    0.000013    0.000003    0.000008
   12.749109    0.356975    0.356973    0.356973    0.000002   -0.000000   -0.000001
   13.303418    0.247682    0.247679    0.247682   -0.000004   -0.000004   -0.000009
   13.857727    0.493335    0.493336    0.493337    0.000003   -0.000004    0.000005
   14.412036    0.386207    0.386207    0.386207    0.000004   -0.000003    0.000003
   14.966345    0.234236    0.234255    0.234246    0.000009    0.000004    0.000003
   15.520654    0.295525    0.295527    0.295526   -0.000004    0.000006    0.000001
   16.074964    1.030200    1.030200    1.030200   -0.000001    0.000003    0.000001
   16.629273    0.707000    0.706998    0.706998    0.000001    0.000003    0.000002
   17.183582    0.331267    0.331267    0.331266    0.000000    0.000001    0.000001
   17.737891    0.683139    0.683138    0.683138   -0.000000    0.000002    0.000001
   18.292200    0.373581    0.373581    0.373581   -0.000001    0.000001    0.000001
   18.846509    0.449273    0.449271    0.449271    0.000001    0.000003    0.000001
   19.400818    0.095759    0.095759    0.095759   -0.000000    0.000000    0.000001
   19.955127    0.207064    0.207063    0.207063    0.000000    0.000001    0.000001
   20.509436    0.076617    0.076618    0.076618   -0.000001    0.000001    0.000001
   21.063745    0.040491    0.040492    0.040492   -0.000001    0.000001    0.000001
   21.618054    0.016768    0.016769    0.016768   -0.000001    0.000002    0.000002
   22.172364    0.005569    0.005571    0.005570   -0.000002    0.000005    0.000004
   22.726673    0.003753    0.003771    0.003762    0.000002    0.000005   -0.000007
   23.280982    0.002996    0.002996    0.002996    0.000001   -0.000002   -0.000002
   23.835291    0.002671    0.002672    0.002672    0.000000   -0.000001   -0.000001
   24.389600    0.002672    0.002672    0.002672    0.000000   -0.000001   -0.000001
   24.943909    0.003256    0.003256    0.003256    0.000000   -0.000000   -0.000001
   25.498218    0.008727    0.008727    0.008727    0.000000   -0.000000   -0.000000
   26.052527    0.015947    0.015947    0.015947    0.000000   -0.000000   -0.000000
   26.606836    0.019861    0.019861    0.019861    0.000000   -0.000000   -0.000000
   27.161145    0.100991    0.100991    0.100991   -0.000000   -0.000000   -0.000000
   27.715454    0.023913    0.023913    0.023913    0.000000   -0.000000   -0.000000
   28.269764    0.009909    0.009909    0.009909    0.000000   -0.000000   -0.000000
   28.824073    0.024579    0.024579    0.024579    0.000000   -0.000000   -0.000000
   29.378382    0.069877    0.069878    0.069878    0.000000   -0.000000   -0.000000
   29.932691    0.053841    0.053841    0.053841    0.000000   -0.000000   -0.000000
   30.487000    0.043123    0.043123    0.043123    0.000000   -0.000000   -0.000000
   31.041309    0.096349    0.096349    0.096349    0.000000    0.000000   -0.000000
   31.595618    0.075632    0.075633    0.075633   -0.000001   -0.000000   -0.000001
   32.149927    0.055149    0.055149    0.055149    0.000001    0.000000    0.000000
   32.704236    0.054048    0.054048    0.054048    0.000000    0.000000   -0.000000
   33.258545    0.114817    0.114819    0.114819   -0.000001   -0.000001   -0.000001
   33.812854    0.075812    0.075812    0.075812    0.000001    0.000000   -0.000000
   34.367164    0.110092    0.110092    0.110092    0.000001    0.000000   -0.000001
   34.921473    0.078822    0.078821    0.078821    0.000002    0.000001   -0.000000
   35.475782    0.136070    0.136067    0.136072    0.000005    0.000002   -0.000001
   36.030091    0.063555    0.063554    0.063554   -0.000003   -0.000003    0.000001
   36.584400    0.040390    0.040390    0.040390   -0.000001   -0.000002    0.000001
   37.138709    0.146111    0.146111    0.146111   -0.000001   -0.000001    0.000000
   37.693018    0.042749    0.042749    0.042749   -0.000001   -0.000001    0.000000
   38.247327    0.119234    0.119234    0.119234   -0.000001   -0.000001    0.000000
   38.801636    0.009537    0.009537    0.009537   -0.000001   -0.000002    0.000000
   39.355945    0.022638    0.022644    0.022645   -0.000000   -0.000011   -0.000001
   39.910254    0.018573    0.018573    0.018573    0.000001    0.000001    0.000000
   40.464564    0.009909    0.009909    0.009909    0.000000    0.000001    0.000000
   41.018873    0.012050    0.012050    0.012050    0.000000    0.000000    0.000000
   41.573182    0.019170    0.019170    0.019170   -0.000000    0.000000    0.000000
   42.127491    0.032727    0.032727    0.032727   -0.000000    0.000000    0.000000
   42.681800    0.019841    0.019841    0.019841   -0.000000    0.000000    0.000000
   43.236109    0.015441    0.015441    0.015441   -0.000000   -0.000000    0.000000
   43.790418    0.059264    0.059264    0.059264   -0.000000   -0.000000    0.000000
   44.344727    0.016698    0.016698    0.016698   -0.000000   -0.000000    0.000000
   44.899036    0.050075    0.050075    0.050075   -0.000000   -0.000000    0.000000
   45.453345    0.002754    0.002753    0.002754   -0.000001   -0.000000    0.000001
   46.007654    0.009541    0.009540    0.009543   -0.000001   -0.000006    0.000001
   46.561963    0.001106    0.001105    0.001106    0.000001   -0.000000   -0.000001
   47.116273    0.000503    0.000503    0.000503    0.000001    0.000000   -0.000000
   47.670582    0.000339    0.000339    0.000339    0.000000    0.000000   -0.000000
   48.224891    0.000256    0.000256    0.000256    0.000000    0.000000   -0.000000
   48.779200    0.000204    0.000204    0.000204    0.000000    0.000000   -0.000000
   49.333509    0.000169    0.000169    0.000169    0.000000    0.000000   -0.000000
   49.887818    0.000142    0.000142    0.000142    0.000000    0.000000   -0.000000
   50.442127    0.000122    0.000122    0.000122    0.000000    0.000000   -0.000000
   50.996436    0.000106    0.000106    0.000106    0.000000    0.000000   -0.000000
   51.550745    0.000094    0.000094    0.000094    0.000000    0.000000   -0.000000
   52.105054    0.000083    0.000083    0.000083    0.000000    0.000000   -0.000000
   52.659363    0.000074    0.000074    0.000074    0.000000    0.000000   -0.000000
   53.213673    0.000067    0.000067    0.000067    0.000000    0.000000   -0.000000
   53.767982    0.000060    0.000060    0.000060    0.000000    0.000000   -0.000000
   54.322291    0.000055    0.000055    0.000055    0.000000    0.000000   -0.000000
   54.876600    0.000050    0.000050    0.000050    0.000000    0.000000   -0.000000

  frequency dependent      REAL DIELECTRIC FUNCTION (independent particle, no local field effects) current-current (2nd set in vasprun.xml)
     E(ev)        X           Y           Z          XY          YZ          ZX
  --------------------------------------------------------------------------------------------------------------
    0.000000  -35.246063  -35.246136  -35.246151    0.000077    0.000008    0.000058
    0.554309  -30.508841  -30.508904  -30.508917    0.000055    0.000025    0.000039
    1.108618   -2.260865   -2.260872   -2.260875    0.000007    0.000003    0.000005
    1.662927    3.903991    3.903997    3.903997   -0.000005   -0.000002   -0.000004
    2.217236   -0.097335   -0.097343   -0.097343    0.000007    0.000004    0.000005
    2.771545    5.872077    5.872086    5.872086   -0.000007   -0.000003   -0.000005
    3.325855    1.425695    1.425685    1.425686    0.000008    0.000005    0.000006
    3.880164    2.834609    2.834611    2.834610   -0.000001    0.000000   -0.000000
    4.434473    2.980368    2.980369    2.980368   -0.000000    0.000000   -0.000000
    4.988782   -0.606770   -0.606774   -0.606775    0.000004    0.000001    0.000002
    5.543091    2.583137    2.583153    2.583152   -0.000015   -0.000009   -0.000013
    6.097400    0.784313    0.784318    0.784317   -0.000003    0.000001   -0.000002
    6.651709    2.324336    2.324317    2.324324    0.000008    0.000017    0.000004
    7.206018   -2.064449   -2.064456   -2.064458    0.000005    0.000006    0.000003
    7.760327   -0.959154   -0.959159   -0.959161    0.000004    0.000002    0.000003
    8.314636   -0.682584   -0.682597   -0.682599    0.000010    0.000004    0.000007
    8.868945   -0.454316   -0.454322   -0.454319    0.000003    0.000003    0.000002
    9.423255   -1.946001   -1.945996   -1.945997   -0.000002   -0.000000   -0.000001
    9.977564   -0.449415   -0.449419   -0.449421    0.000004    0.000002    0.000003
   10.531873   -0.742510   -0.742493   -0.742491   -0.000015   -0.000002   -0.000010
   11.086182   -0.800694   -0.800695   -0.800696    0.000002    0.000001    0.000001
   11.640491   -0.549297   -0.549297   -0.549298    0.000001    0.000001    0.000001
   12.194800   -0.067349   -0.067323   -0.067320   -0.000021   -0.000010   -0.000015
   12.749109   -0.010507   -0.010502   -0.010500   -0.000004   -0.000004   -0.000002
   13.303418    0.214063    0.214063    0.214067   -0.000002   -0.000006    0.000000
   13.857727    0.452172    0.452187    0.452182   -0.000003    0.000006   -0.000000
   14.412036    0.142359    0.142369    0.142364   -0.000001    0.000006    0.000000
   14.966345    0.395874    0.395895    0.395885   -0.000010    0.000025    0.000002
   15.520654    0.740258    0.740251    0.740254   -0.000001   -0.000004   -0.000000
   16.074964    0.544290    0.544287    0.544288    0.000000   -0.000001    0.000000
   16.629273    0.300342    0.300341    0.300341    0.000000   -0.000001    0.000000
   17.183582    0.544228    0.544228    0.544228   -0.000000    0.000000   -0.000001
   17.737891    0.278921    0.278921    0.278921   -0.000000   -0.000000   -0.000000
   18.292200    0.549839    0.549840    0.549840   -0.000001   -0.000000   -0.000000
   18.846509    0.169963    0.169965    0.169964   -0.000001   -0.000000   -0.000001
   19.400818    0.255311    0.255311    0.255312    0.000001    0.000000    0.000001
   19.955127    0.535956    0.535957    0.535956    0.000000    0.000001    0.000000
   20.509436    0.383466    0.383468    0.383468    0.000000   -0.000000    0.000000
   21.063745    0.463304    0.463306    0.463305   -0.000000    0.000001   -0.000000
   21.618054    0.491318    0.491322    0.491320   -0.000000    0.000002    0.000000
   22.172364    0.561836    0.561845    0.561841   -0.000000    0.000005   -0.000000
   22.726673    0.607132    0.607112    0.607122    0.000004   -0.000022   -0.000009
   23.280982    0.643558    0.643552    0.643555    0.000000   -0.000005   -0.000001
   23.835291    0.675115    0.675112    0.675114    0.000000   -0.000003   -0.000000
   24.389600    0.704008    0.704005    0.704007    0.000000   -0.000002   -0.000000
   24.943909    0.732588    0.732586    0.732587    0.000000   -0.000002   -0.000000
   25.498218    0.768924    0.768923    0.768923    0.000000   -0.000001   -0.000000
   26.052527    0.777405    0.777404    0.777405    0.000000   -0.000001   -0.000000
   26.606836    0.796205    0.796204    0.796205    0.000000   -0.000001   -0.000000
   27.161145    0.786477    0.786476    0.786476    0.000000   -0.000001   -0.000000
   27.715454    0.778770    0.778768    0.778769    0.000000   -0.000001   -0.000000
   28.269764    0.808224    0.808223    0.808224    0.000000   -0.000001   -0.000000
   28.824073    0.856449    0.856448    0.856449    0.000000   -0.000001   -0.000000
   29.378382    0.841812    0.841811    0.841812    0.000000   -0.000001   -0.000000
   29.932691    0.845755    0.845754    0.845755    0.000000   -0.000001   -0.000000
   30.487000    0.902373    0.902372    0.902373    0.000000   -0.000001   -0.000000
   31.041309    0.810380    0.810379    0.810380    0.000000   -0.000001   -0.000000
   31.595618    0.856880    0.856879    0.856880    0.000000   -0.000001   -0.000000
   32.149927    0.832704    0.832704    0.832704   -0.000000   -0.000001   -0.000000
   32.704236    0.900779    0.900778    0.900779    0.000000   -0.000001   -0.000000
   33.258545    0.830344    0.830342    0.830343    0.000001   -0.000001    0.000001
   33.812854    0.826984    0.826983    0.826984   -0.000000   -0.000001   -0.000000
   34.367164    0.910283    0.910282    0.910283   -0.000000   -0.000001   -0.000000
   34.921473    0.808788    0.808787    0.808789   -0.000001   -0.000002   -0.000000
   35.475782    0.881667    0.881662    0.881669   -0.000005   -0.000007    0.000001
   36.030091    0.819077    0.819080    0.819077   -0.000000    0.000001   -0.000000
   36.584400    0.848124    0.848125    0.848124    0.000001    0.000000    0.000001
   37.138709    0.819068    0.819069    0.819068    0.000000   -0.000000    0.000000
   37.693018    0.789376    0.789376    0.789376    0.000000   -0.000000   -0.000000
   38.247327    0.815369    0.815370    0.815370    0.000000   -0.000001   -0.000000
   38.801636    0.819899    0.819900    0.819900    0.000001   -0.000001   -0.000000
   39.355945    0.859239    0.859241    0.859243    0.000004   -0.000001   -0.000001
   39.910254    0.841759    0.841758    0.841758   -0.000000    0.000002    0.000000
   40.464564    0.857462    0.857461    0.857461   -0.000000    0.000001    0.000000
   41.018873    0.878655    0.878655    0.878655   -0.000000    0.000000    0.000000
   41.573182    0.872449    0.872449    0.872449    0.000000    0.000000    0.000000
   42.127491    0.892822    0.892822    0.892822   -0.000000    0.000000   -0.000000
   42.681800    0.877827    0.877826    0.877827    0.000000   -0.000000    0.000000
   43.236109    0.888492    0.888492    0.888492   -0.000000    0.000000   -0.000000
   43.790418    0.872088    0.872088    0.872088    0.000000   -0.000000   -0.000000
   44.344727    0.859659    0.859659    0.859659    0.000000   -0.000000   -0.000000
   44.899036    0.869364    0.869364    0.869364    0.000000   -0.000001   -0.000000
   45.453345    0.874819    0.874819    0.874819    0.000000   -0.000001   -0.000000
   46.007654    0.889617    0.889614    0.889617    0.000004   -0.000004   -0.000003
   46.561963    0.887573    0.887575    0.887573   -0.000000    0.000002    0.000000
   47.116273    0.894049    0.894049    0.894048   -0.000000    0.000001    0.000000
   47.670582    0.898733    0.898733    0.898732   -0.000000    0.000001    0.000000
   48.224891    0.902653    0.902654    0.902653   -0.000000    0.000001    0.000000
   48.779200    0.906103    0.906103    0.906103   -0.000000    0.000000    0.000000
   49.333509    0.909217    0.909217    0.909217   -0.000000    0.000000    0.000000
   49.887818    0.912072    0.912072    0.912071   -0.000000    0.000000    0.000000
   50.442127    0.914717    0.914717    0.914716   -0.000000    0.000000    0.000000
   50.996436    0.917186    0.917186    0.917186   -0.000000    0.000000    0.000000
   51.550745    0.919505    0.919505    0.919504   -0.000000    0.000000    0.000000
   52.105054    0.921692    0.921692    0.921691   -0.000000    0.000000    0.000000
   52.659363    0.923762    0.923762    0.923762   -0.000000    0.000000    0.000000
   53.213673    0.925727    0.925727    0.925727   -0.000000    0.000000    0.000000
   53.767982    0.927598    0.927598    0.927598   -0.000000    0.000000    0.000000
   54.322291    0.929383    0.929383    0.929383   -0.000000    0.000000    0.000000
   54.876600    0.931089    0.931089    0.931089   -0.000000    0.000000    0.000000
 
 The outermost node in the dielectric function lies at epsilon=  12.9


--------------------------------------------------------------------------------------------------------


    OPTICS:  cpu time    0.4404: real time    0.4458
    4ORBIT:  cpu time    0.0000: real time    0.0000

 Spin-Orbit-Coupling matrix elements

 Ion:    1  E_soc:    -32.5512340
 l=   1
     0.0000000    -5.0054259    -5.0054256
    -5.0054259     0.0000000    -5.0054256
    -5.0054256    -5.0054256     0.0000000
 l=   2
     0.0000000    -0.0839610     0.0000000    -0.0839610    -0.3358105
    -0.0839610     0.0000000    -0.2518579    -0.0839694    -0.0839610
     0.0000000    -0.2518579     0.0000000    -0.2518579     0.0000000
    -0.0839610    -0.0839694    -0.2518579     0.0000000    -0.0839610
    -0.3358105    -0.0839610     0.0000000    -0.0839610     0.0000000
 l=   3
     0.0000000     0.0000000     0.0000000     0.0000000     0.0000000     0.0000000     0.0000000
     0.0000000     0.0000000     0.0000000     0.0000000     0.0000000     0.0000000     0.0000000
     0.0000000     0.0000000     0.0000000     0.0000000     0.0000000     0.0000000     0.0000000
     0.0000000     0.0000000     0.0000000     0.0000000     0.0000000     0.0000000     0.0000000
     0.0000000     0.0000000     0.0000000     0.0000000     0.0000000     0.0000000     0.0000000
     0.0000000     0.0000000     0.0000000     0.0000000     0.0000000     0.0000000     0.0000000
     0.0000000     0.0000000     0.0000000     0.0000000     0.0000000     0.0000000     0.0000000

 total amount of memory used by VASP MPI-rank0    53720. kBytes
=======================================================================

   base      :      30000. kBytes
   nonl-proj :       5726. kBytes
   fftplans  :       3396. kBytes
   grid      :       4666. kBytes
   one-center:         62. kBytes
   wavefun   :       9870. kBytes
 
  
  
 General timing and accounting informations for this job:
 ========================================================
  
                  Total CPU time used (sec):      121.082
                            User time (sec):      119.638
                          System time (sec):        1.444
                         Elapsed time (sec):      122.011
  
                   Maximum memory used (kb):      158220.
                   Average memory used (kb):           0.
  
                          Minor page faults:       144126
                          Major page faults:            0
                 Voluntary context switches:         1157
