   1   1   0   0
  0.6083477E+02  0.4414576E-09  0.4414576E-09  0.4414576E-09  0.1000000E-15
  1.000000000000000E-004
  CAR 
 Og_FCC                                  
     15.19752100    -46.57420246  301     -0.81165066      1.00000000
    -46.574  0.0000E+00  0.0000E+00
    -46.368  0.0000E+00  0.0000E+00
    -46.162  0.0000E+00  0.0000E+00
    -45.956  0.0000E+00  0.0000E+00
    -45.751  0.0000E+00  0.0000E+00
    -45.545  0.0000E+00  0.0000E+00
    -45.339  0.0000E+00  0.0000E+00
    -45.133  0.0000E+00  0.0000E+00
    -44.927  0.0000E+00  0.0000E+00
    -44.721  0.0000E+00  0.0000E+00
    -44.515  0.0000E+00  0.0000E+00
    -44.309  0.0000E+00  0.0000E+00
    -44.103  0.0000E+00  0.0000E+00
    -43.897  0.0000E+00  0.0000E+00
    -43.692  0.0000E+00  0.4000E+01
    -43.486  0.0000E+00  0.4000E+01
    -43.280  0.0000E+00  0.4000E+01
    -43.074  0.0000E+00  0.4000E+01
    -42.868  0.0000E+00  0.4000E+01
    -42.662  0.0000E+00  0.4000E+01
    -42.456  0.0000E+00  0.4000E+01
    -42.250  0.0000E+00  0.4000E+01
    -42.044  0.0000E+00  0.4000E+01
    -41.838  0.0000E+00  0.4000E+01
    -41.632  0.0000E+00  0.4000E+01
    -41.427  0.0000E+00  0.4000E+01
    -41.221  0.0000E+00  0.4000E+01
    -41.015  0.0000E+00  0.4000E+01
    -40.809  0.0000E+00  0.4000E+01
    -40.603  0.0000E+00  0.4000E+01
    -40.397  0.0000E+00  0.4000E+01
    -40.191  0.0000E+00  0.4000E+01
    -39.985  0.0000E+00  0.4000E+01
    -39.779  0.0000E+00  0.4000E+01
    -39.573  0.0000E+00  0.4000E+01
    -39.368  0.6733E-09  0.4000E+01
    -39.162  0.0000E+00  0.1000E+02
    -38.956  0.0000E+00  0.1000E+02
    -38.750  0.0000E+00  0.1000E+02
    -38.544  0.0000E+00  0.1000E+02
    -38.338  0.0000E+00  0.1000E+02
    -38.132  0.0000E+00  0.1000E+02
    -37.926  0.0000E+00  0.1000E+02
    -37.720  0.0000E+00  0.1000E+02
    -37.514  0.0000E+00  0.1000E+02
    -37.308  0.0000E+00  0.1000E+02
    -37.103  0.0000E+00  0.1000E+02
    -36.897  0.0000E+00  0.1000E+02
    -36.691  0.0000E+00  0.1000E+02
    -36.485  0.0000E+00  0.1000E+02
    -36.279  0.0000E+00  0.1000E+02
    -36.073  0.0000E+00  0.1000E+02
    -35.867  0.0000E+00  0.1000E+02
    -35.661  0.0000E+00  0.1000E+02
    -35.455  0.0000E+00  0.1000E+02
    -35.249  0.0000E+00  0.1000E+02
    -35.043  0.0000E+00  0.1000E+02
    -34.838  0.0000E+00  0.1000E+02
    -34.632  0.0000E+00  0.1000E+02
    -34.426  0.0000E+00  0.1000E+02
    -34.220  0.0000E+00  0.1000E+02
    -34.014  0.0000E+00  0.1000E+02
    -33.808  0.0000E+00  0.1000E+02
    -33.602  0.0000E+00  0.1000E+02
    -33.396  0.0000E+00  0.1000E+02
    -33.190  0.0000E+00  0.1000E+02
    -32.984  0.0000E+00  0.1000E+02
    -32.779  0.0000E+00  0.1000E+02
    -32.573  0.0000E+00  0.1000E+02
    -32.367  0.0000E+00  0.1000E+02
    -32.161  0.0000E+00  0.1000E+02
    -31.955  0.0000E+00  0.1000E+02
    -31.749  0.0000E+00  0.1000E+02
    -31.543  0.0000E+00  0.1000E+02
    -31.337  0.0000E+00  0.1000E+02
    -31.131  0.0000E+00  0.1000E+02
    -30.925  0.0000E+00  0.1000E+02
    -30.719  0.0000E+00  0.1000E+02
    -30.514  0.0000E+00  0.1000E+02
    -30.308  0.0000E+00  0.1000E+02
    -30.102  0.0000E+00  0.1000E+02
    -29.896  0.0000E+00  0.1000E+02
    -29.690  0.0000E+00  0.1000E+02
    -29.484  0.0000E+00  0.1000E+02
    -29.278  0.0000E+00  0.1000E+02
    -29.072  0.0000E+00  0.1000E+02
    -28.866  0.0000E+00  0.1000E+02
    -28.660  0.0000E+00  0.1000E+02
    -28.454  0.0000E+00  0.1000E+02
    -28.249  0.0000E+00  0.1000E+02
    -28.043  0.0000E+00  0.1000E+02
    -27.837  0.0000E+00  0.1000E+02
    -27.631  0.0000E+00  0.1000E+02
    -27.425  0.0000E+00  0.1000E+02
    -27.219  0.0000E+00  0.1000E+02
    -27.013  0.0000E+00  0.1000E+02
    -26.807  0.0000E+00  0.1000E+02
    -26.601  0.0000E+00  0.1000E+02
    -26.395  0.0000E+00  0.1000E+02
    -26.190  0.0000E+00  0.1000E+02
    -25.984  0.0000E+00  0.1000E+02
    -25.778  0.0000E+00  0.1000E+02
    -25.572  0.0000E+00  0.1000E+02
    -25.366  0.0000E+00  0.1000E+02
    -25.160  0.0000E+00  0.1000E+02
    -24.954  0.0000E+00  0.1000E+02
    -24.748  0.0000E+00  0.1000E+02
    -24.542  0.0000E+00  0.1000E+02
    -24.336  0.0000E+00  0.1000E+02
    -24.130  0.0000E+00  0.1000E+02
    -23.925  0.0000E+00  0.1000E+02
    -23.719  0.0000E+00  0.1000E+02
    -23.513  0.0000E+00  0.1000E+02
    -23.307  0.0000E+00  0.1000E+02
    -23.101  0.0000E+00  0.1000E+02
    -22.895  0.0000E+00  0.1000E+02
    -22.689  0.0000E+00  0.1000E+02
    -22.483  0.0000E+00  0.1000E+02
    -22.277  0.0000E+00  0.1000E+02
    -22.071  0.0000E+00  0.1000E+02
    -21.866  0.0000E+00  0.1000E+02
    -21.660  0.0000E+00  0.1000E+02
    -21.454  0.0000E+00  0.1000E+02
    -21.248  0.0000E+00  0.1000E+02
    -21.042  0.0000E+00  0.1000E+02
    -20.836  0.0000E+00  0.1000E+02
    -20.630  0.0000E+00  0.1000E+02
    -20.424  0.0000E+00  0.1000E+02
    -20.218  0.0000E+00  0.1000E+02
    -20.012  0.0000E+00  0.1000E+02
    -19.806  0.0000E+00  0.1000E+02
    -19.601  0.0000E+00  0.1000E+02
    -19.395  0.0000E+00  0.1000E+02
    -19.189  0.0000E+00  0.1000E+02
    -18.983  0.0000E+00  0.1000E+02
    -18.777  0.0000E+00  0.1000E+02
    -18.571  0.0000E+00  0.1000E+02
    -18.365  0.0000E+00  0.1000E+02
    -18.159  0.0000E+00  0.1000E+02
    -17.953  0.0000E+00  0.1000E+02
    -17.747  0.0000E+00  0.1000E+02
    -17.541  0.0000E+00  0.1000E+02
    -17.336  0.0000E+00  0.1000E+02
    -17.130  0.0000E+00  0.1000E+02
    -16.924  0.0000E+00  0.1055E+02
    -16.718  0.0000E+00  0.1200E+02
    -16.512  0.0000E+00  0.1200E+02
    -16.306  0.0000E+00  0.1200E+02
    -16.100  0.0000E+00  0.1200E+02
    -15.894  0.0000E+00  0.1200E+02
    -15.688  0.0000E+00  0.1200E+02
    -15.482  0.0000E+00  0.1200E+02
    -15.277  0.0000E+00  0.1200E+02
    -15.071  0.0000E+00  0.1200E+02
    -14.865  0.0000E+00  0.1200E+02
    -14.659  0.0000E+00  0.1200E+02
    -14.453  0.0000E+00  0.1200E+02
    -14.247  0.0000E+00  0.1200E+02
    -14.041  0.0000E+00  0.1200E+02
    -13.835  0.0000E+00  0.1200E+02
    -13.629  0.0000E+00  0.1200E+02
    -13.423  0.0000E+00  0.1200E+02
    -13.217  0.0000E+00  0.1200E+02
    -13.012  0.0000E+00  0.1200E+02
    -12.806  0.0000E+00  0.1200E+02
    -12.600  0.0000E+00  0.1200E+02
    -12.394  0.0000E+00  0.1200E+02
    -12.188  0.0000E+00  0.1200E+02
    -11.982  0.0000E+00  0.1200E+02
    -11.776  0.0000E+00  0.1200E+02
    -11.570  0.0000E+00  0.1200E+02
    -11.364  0.0000E+00  0.1200E+02
    -11.158  0.0000E+00  0.1200E+02
    -10.953  0.0000E+00  0.1200E+02
    -10.747  0.0000E+00  0.1200E+02
    -10.541  0.0000E+00  0.1200E+02
    -10.335  0.0000E+00  0.1200E+02
    -10.129  0.0000E+00  0.1200E+02
     -9.923  0.0000E+00  0.1200E+02
     -9.717  0.0000E+00  0.1200E+02
     -9.511  0.0000E+00  0.1200E+02
     -9.305  0.0000E+00  0.1200E+02
     -9.099  0.0000E+00  0.1200E+02
     -8.893  0.0000E+00  0.1200E+02
     -8.688  0.0000E+00  0.1200E+02
     -8.482  0.0000E+00  0.1200E+02
     -8.276  0.0000E+00  0.1200E+02
     -8.070  0.0000E+00  0.1200E+02
     -7.864  0.0000E+00  0.1200E+02
     -7.658  0.0000E+00  0.1200E+02
     -7.452  0.0000E+00  0.1200E+02
     -7.246  0.0000E+00  0.1200E+02
     -7.040  0.0000E+00  0.1200E+02
     -6.834  0.0000E+00  0.1200E+02
     -6.628  0.0000E+00  0.1200E+02
     -6.423  0.0000E+00  0.1200E+02
     -6.217  0.0000E+00  0.1200E+02
     -6.011  0.0000E+00  0.1200E+02
     -5.805  0.0000E+00  0.1200E+02
     -5.599  0.0000E+00  0.1200E+02
     -5.393  0.0000E+00  0.1214E+02
     -5.187  0.0000E+00  0.1345E+02
     -4.981  0.0000E+00  0.1386E+02
     -4.775  0.0000E+00  0.1399E+02
     -4.569  0.0000E+00  0.1400E+02
     -4.364  0.0000E+00  0.1400E+02
     -4.158  0.0000E+00  0.1400E+02
     -3.952  0.0000E+00  0.1400E+02
     -3.746  0.0000E+00  0.1400E+02
     -3.540  0.0000E+00  0.1400E+02
     -3.334  0.0000E+00  0.1400E+02
     -3.128  0.0000E+00  0.1400E+02
     -2.922  0.0000E+00  0.1400E+02
     -2.716  0.0000E+00  0.1400E+02
     -2.510  0.0000E+00  0.1469E+02
     -2.304  0.2698E+00  0.1545E+02
     -2.099  0.0000E+00  0.1575E+02
     -1.893  0.0000E+00  0.1597E+02
     -1.687  0.0000E+00  0.1656E+02
     -1.481  0.3526E+00  0.1718E+02
     -1.275  0.0000E+00  0.1763E+02
     -1.069  0.0000E+00  0.1791E+02
     -0.863  0.0000E+00  0.1800E+02
     -0.657  0.0000E+00  0.1800E+02
     -0.451  0.0000E+00  0.1800E+02
     -0.245  0.0000E+00  0.1800E+02
     -0.040  0.0000E+00  0.1800E+02
      0.166  0.0000E+00  0.1800E+02
      0.372  0.0000E+00  0.1800E+02
      0.578  0.0000E+00  0.1800E+02
      0.784  0.0000E+00  0.1800E+02
      0.990  0.0000E+00  0.1800E+02
      1.196  0.0000E+00  0.1800E+02
      1.402  0.0000E+00  0.1800E+02
      1.608  0.0000E+00  0.1800E+02
      1.814  0.0000E+00  0.1800E+02
      2.020  0.0000E+00  0.1800E+02
      2.225  0.0000E+00  0.1800E+02
      2.431  0.0000E+00  0.1800E+02
      2.637  0.0000E+00  0.1800E+02
      2.843  0.0000E+00  0.1801E+02
      3.049  0.0000E+00  0.1801E+02
      3.255  0.0000E+00  0.1801E+02
      3.461  0.0000E+00  0.1801E+02
      3.667  0.0000E+00  0.1801E+02
      3.873  0.0000E+00  0.1808E+02
      4.079  0.0000E+00  0.1814E+02
      4.285  0.0000E+00  0.1814E+02
      4.490  0.0000E+00  0.1817E+02
      4.696  0.0000E+00  0.1828E+02
      4.902  0.0000E+00  0.1844E+02
      5.108  0.0000E+00  0.1889E+02
      5.314  0.0000E+00  0.1922E+02
      5.520  0.0000E+00  0.1958E+02
      5.726  0.1059E+01  0.1980E+02
      5.932  0.0000E+00  0.1986E+02
      6.138  0.0000E+00  0.2031E+02
      6.344  0.7356E-07  0.2031E+02
      6.549  0.0000E+00  0.2064E+02
      6.755  0.0000E+00  0.2131E+02
      6.961  0.0000E+00  0.2192E+02
      7.167  0.0000E+00  0.2203E+02
      7.373  0.6115E+00  0.2215E+02
      7.579  0.0000E+00  0.2232E+02
      7.785  0.0000E+00  0.2255E+02
      7.991  0.0000E+00  0.2310E+02
      8.197  0.0000E+00  0.2358E+02
      8.403  0.0000E+00  0.2394E+02
      8.609  0.0000E+00  0.2461E+02
      8.814  0.0000E+00  0.2478E+02
      9.020  0.0000E+00  0.2550E+02
      9.226  0.0000E+00  0.2550E+02
      9.432  0.0000E+00  0.2561E+02
      9.638  0.0000E+00  0.2583E+02
      9.844  0.2248E-01  0.2587E+02
     10.050  0.0000E+00  0.2635E+02
     10.256  0.0000E+00  0.2667E+02
     10.462  0.0000E+00  0.2711E+02
     10.668  0.0000E+00  0.2739E+02
     10.874  0.1124E+00  0.2761E+02
     11.079  0.0000E+00  0.2761E+02
     11.285  0.0000E+00  0.2783E+02
     11.491  0.0000E+00  0.2783E+02
     11.697  0.0000E+00  0.2783E+02
     11.903  0.0000E+00  0.2786E+02
     12.109  0.0000E+00  0.2797E+02
     12.315  0.0000E+00  0.2800E+02
     12.521  0.0000E+00  0.2800E+02
     12.727  0.0000E+00  0.2800E+02
     12.933  0.0000E+00  0.2800E+02
     13.138  0.0000E+00  0.2800E+02
     13.344  0.0000E+00  0.2800E+02
     13.550  0.0000E+00  0.2800E+02
     13.756  0.0000E+00  0.2800E+02
     13.962  0.0000E+00  0.2800E+02
     14.168  0.0000E+00  0.2800E+02
     14.374  0.0000E+00  0.2800E+02
     14.580  0.0000E+00  0.2800E+02
     14.786  0.0000E+00  0.2800E+02
     14.992  0.0000E+00  0.2800E+02
     15.198  0.0000E+00  0.2800E+02
