   1   1   0   0
  0.1628488E+02  0.2845115E-09  0.2845115E-09  0.2845115E-09  0.1000000E-15
  1.000000000000000E-004
  CAR 
 Og_FCC                                  
    158.96129982    -24.13153319  301    -14.21400473      1.00000000
    -24.132  0.0000E+00  0.0000E+00
    -23.521  0.0000E+00  0.0000E+00
    -22.911  0.0000E+00  0.0000E+00
    -22.301  0.0000E+00  0.0000E+00
    -21.690  0.0000E+00  0.0000E+00
    -21.080  0.0000E+00  0.0000E+00
    -20.470  0.0000E+00  0.0000E+00
    -19.859  0.0000E+00  0.0000E+00
    -19.249  0.0000E+00  0.0000E+00
    -18.639  0.0000E+00  0.0000E+00
    -18.028  0.0000E+00  0.0000E+00
    -17.418  0.0000E+00  0.0000E+00
    -16.808  0.0000E+00  0.0000E+00
    -16.198  0.0000E+00  0.0000E+00
    -15.587  0.1214E+00  0.8332E-01
    -14.977  0.0000E+00  0.5463E+00
    -14.367  0.0000E+00  0.2000E+01
    -13.756  0.0000E+00  0.2000E+01
    -13.146  0.0000E+00  0.2000E+01
    -12.536  0.0000E+00  0.2000E+01
    -11.925  0.0000E+00  0.2000E+01
    -11.315  0.0000E+00  0.2000E+01
    -10.705  0.0000E+00  0.2000E+01
    -10.094  0.0000E+00  0.2000E+01
     -9.484  0.0000E+00  0.2000E+01
     -8.874  0.0000E+00  0.2000E+01
     -8.263  0.0000E+00  0.2000E+01
     -7.653  0.0000E+00  0.2000E+01
     -7.043  0.0000E+00  0.2000E+01
     -6.433  0.0000E+00  0.2000E+01
     -5.822  0.0000E+00  0.2000E+01
     -5.212  0.0000E+00  0.2000E+01
     -4.602  0.0000E+00  0.2000E+01
     -3.991  0.0000E+00  0.2000E+01
     -3.381  0.0000E+00  0.2000E+01
     -2.771  0.0000E+00  0.2000E+01
     -2.160  0.0000E+00  0.2000E+01
     -1.550  0.0000E+00  0.2000E+01
     -0.940  0.0000E+00  0.2000E+01
     -0.329  0.0000E+00  0.2000E+01
      0.281  0.0000E+00  0.2000E+01
      0.891  0.0000E+00  0.2000E+01
      1.501  0.0000E+00  0.2000E+01
      2.112  0.0000E+00  0.2000E+01
      2.722  0.0000E+00  0.2000E+01
      3.332  0.0000E+00  0.2111E+01
      3.943  0.0000E+00  0.3028E+01
      4.553  0.0000E+00  0.3306E+01
      5.163  0.0000E+00  0.3778E+01
      5.774  0.0000E+00  0.3889E+01
      6.384  0.0000E+00  0.4000E+01
      6.994  0.0000E+00  0.4000E+01
      7.605  0.0000E+00  0.4111E+01
      8.215  0.0000E+00  0.4333E+01
      8.825  0.0000E+00  0.4444E+01
      9.435  0.0000E+00  0.5000E+01
     10.046  0.0000E+00  0.5222E+01
     10.656  0.0000E+00  0.5509E+01
     11.266  0.0000E+00  0.5509E+01
     11.877  0.0000E+00  0.5806E+01
     12.487  0.0000E+00  0.5806E+01
     13.097  0.0000E+00  0.6583E+01
     13.708  0.0000E+00  0.6750E+01
     14.318  0.0000E+00  0.7139E+01
     14.928  0.0000E+00  0.7139E+01
     15.539  0.0000E+00  0.7278E+01
     16.149  0.0000E+00  0.8241E+01
     16.759  0.1821E+00  0.8519E+01
     17.370  0.0000E+00  0.8630E+01
     17.980  0.0000E+00  0.9519E+01
     18.590  0.0000E+00  0.9593E+01
     19.200  0.0000E+00  0.9741E+01
     19.811  0.3641E+00  0.1017E+02
     20.421  0.0000E+00  0.1028E+02
     21.031  0.0000E+00  0.1031E+02
     21.642  0.0000E+00  0.1092E+02
     22.252  0.0000E+00  0.1144E+02
     22.862  0.1939E-01  0.1172E+02
     23.473  0.0000E+00  0.1245E+02
     24.083  0.0000E+00  0.1267E+02
     24.693  0.0000E+00  0.1274E+02
     25.304  0.0000E+00  0.1331E+02
     25.914  0.0000E+00  0.1351E+02
     26.524  0.0000E+00  0.1406E+02
     27.134  0.0000E+00  0.1429E+02
     27.745  0.0000E+00  0.1436E+02
     28.355  0.0000E+00  0.1487E+02
     28.965  0.0000E+00  0.1561E+02
     29.576  0.0000E+00  0.1572E+02
     30.186  0.0000E+00  0.1628E+02
     30.796  0.0000E+00  0.1661E+02
     31.407  0.0000E+00  0.1739E+02
     32.017  0.0000E+00  0.1756E+02
     32.627  0.0000E+00  0.1843E+02
     33.238  0.0000E+00  0.1843E+02
     33.848  0.0000E+00  0.1854E+02
     34.458  0.0000E+00  0.1898E+02
     35.068  0.0000E+00  0.1965E+02
     35.679  0.0000E+00  0.2009E+02
     36.289  0.0000E+00  0.2065E+02
     36.899  0.0000E+00  0.2070E+02
     37.510  0.0000E+00  0.2096E+02
     38.120  0.0000E+00  0.2119E+02
     38.730  0.0000E+00  0.2196E+02
     39.341  0.2030E-03  0.2307E+02
     39.951  0.4551E-01  0.2325E+02
     40.561  0.0000E+00  0.2403E+02
     41.172  0.0000E+00  0.2441E+02
     41.782  0.0000E+00  0.2496E+02
     42.392  0.0000E+00  0.2502E+02
     43.003  0.0000E+00  0.2560E+02
     43.613  0.0000E+00  0.2588E+02
     44.223  0.0000E+00  0.2651E+02
     44.833  0.0000E+00  0.2651E+02
     45.444  0.0000E+00  0.2701E+02
     46.054  0.0000E+00  0.2712E+02
     46.664  0.0000E+00  0.2768E+02
     47.275  0.0000E+00  0.2868E+02
     47.885  0.0000E+00  0.2949E+02
     48.495  0.4056E-07  0.3007E+02
     49.106  0.0000E+00  0.3010E+02
     49.716  0.0000E+00  0.3105E+02
     50.326  0.0000E+00  0.3116E+02
     50.937  0.0000E+00  0.3182E+02
     51.547  0.0000E+00  0.3258E+02
     52.157  0.0000E+00  0.3321E+02
     52.767  0.5366E-02  0.3349E+02
     53.378  0.0000E+00  0.3416E+02
     53.988  0.0000E+00  0.3416E+02
     54.598  0.0000E+00  0.3464E+02
     55.209  0.0000E+00  0.3508E+02
     55.819  0.0000E+00  0.3553E+02
     56.429  0.0000E+00  0.3597E+02
     57.040  0.0000E+00  0.3609E+02
     57.650  0.0000E+00  0.3731E+02
     58.260  0.0000E+00  0.3817E+02
     58.871  0.0000E+00  0.3856E+02
     59.481  0.0000E+00  0.3917E+02
     60.091  0.0000E+00  0.3991E+02
     60.701  0.0000E+00  0.3991E+02
     61.312  0.0000E+00  0.4107E+02
     61.922  0.0000E+00  0.4185E+02
     62.532  0.0000E+00  0.4237E+02
     63.143  0.0000E+00  0.4304E+02
     63.753  0.0000E+00  0.4326E+02
     64.363  0.0000E+00  0.4356E+02
     64.974  0.0000E+00  0.4411E+02
     65.584  0.0000E+00  0.4444E+02
     66.194  0.3641E+00  0.4478E+02
     66.805  0.0000E+00  0.4525E+02
     67.415  0.0000E+00  0.4592E+02
     68.025  0.0000E+00  0.4625E+02
     68.636  0.0000E+00  0.4732E+02
     69.246  0.0000E+00  0.4810E+02
     69.856  0.1022E-03  0.4845E+02
     70.466  0.0000E+00  0.4913E+02
     71.077  0.0000E+00  0.4957E+02
     71.687  0.0000E+00  0.4980E+02
     72.297  0.0000E+00  0.5131E+02
     72.908  0.0000E+00  0.5243E+02
     73.518  0.0000E+00  0.5293E+02
     74.128  0.0000E+00  0.5367E+02
     74.739  0.0000E+00  0.5411E+02
     75.349  0.0000E+00  0.5489E+02
     75.959  0.0000E+00  0.5511E+02
     76.570  0.0000E+00  0.5511E+02
     77.180  0.0000E+00  0.5556E+02
     77.790  0.0000E+00  0.5577E+02
     78.400  0.0000E+00  0.5646E+02
     79.011  0.0000E+00  0.5732E+02
     79.621  0.0000E+00  0.5773E+02
     80.231  0.0000E+00  0.5847E+02
     80.842  0.0000E+00  0.5903E+02
     81.452  0.0000E+00  0.6029E+02
     82.062  0.0000E+00  0.6077E+02
     82.673  0.0000E+00  0.6132E+02
     83.283  0.0000E+00  0.6197E+02
     83.893  0.0000E+00  0.6275E+02
     84.504  0.6035E-05  0.6364E+02
     85.114  0.0000E+00  0.6453E+02
     85.724  0.0000E+00  0.6492E+02
     86.334  0.0000E+00  0.6548E+02
     86.945  0.0000E+00  0.6642E+02
     87.555  0.0000E+00  0.6694E+02
     88.165  0.0000E+00  0.6798E+02
     88.776  0.0000E+00  0.6843E+02
     89.386  0.0000E+00  0.6884E+02
     89.996  0.0000E+00  0.6928E+02
     90.607  0.0000E+00  0.6989E+02
     91.217  0.0000E+00  0.7039E+02
     91.827  0.0000E+00  0.7074E+02
     92.438  0.0000E+00  0.7171E+02
     93.048  0.0000E+00  0.7197E+02
     93.658  0.0000E+00  0.7258E+02
     94.268  0.0000E+00  0.7331E+02
     94.879  0.0000E+00  0.7386E+02
     95.489  0.0000E+00  0.7471E+02
     96.099  0.0000E+00  0.7534E+02
     96.710  0.0000E+00  0.7618E+02
     97.320  0.4551E-01  0.7734E+02
     97.930  0.3641E+00  0.7860E+02
     98.541  0.0000E+00  0.7891E+02
     99.151  0.1214E+00  0.7982E+02
     99.761  0.0000E+00  0.8038E+02
    100.372  0.0000E+00  0.8116E+02
    100.982  0.0000E+00  0.8177E+02
    101.592  0.0000E+00  0.8277E+02
    102.203  0.0000E+00  0.8277E+02
    102.813  0.0000E+00  0.8377E+02
    103.423  0.0000E+00  0.8432E+02
    104.033  0.0000E+00  0.8510E+02
    104.644  0.0000E+00  0.8560E+02
    105.254  0.0000E+00  0.8612E+02
    105.864  0.1821E+00  0.8675E+02
    106.475  0.0000E+00  0.8745E+02
    107.085  0.6066E-01  0.8812E+02
    107.695  0.0000E+00  0.8871E+02
    108.306  0.0000E+00  0.8930E+02
    108.916  0.0000E+00  0.9052E+02
    109.526  0.0000E+00  0.9074E+02
    110.137  0.0000E+00  0.9128E+02
    110.747  0.0000E+00  0.9172E+02
    111.357  0.0000E+00  0.9294E+02
    111.967  0.0000E+00  0.9397E+02
    112.578  0.0000E+00  0.9444E+02
    113.188  0.0000E+00  0.9518E+02
    113.798  0.0000E+00  0.9638E+02
    114.409  0.0000E+00  0.9756E+02
    115.019  0.1821E+00  0.9869E+02
    115.629  0.0000E+00  0.9947E+02
    116.240  0.0000E+00  0.1005E+03
    116.850  0.0000E+00  0.1014E+03
    117.460  0.0000E+00  0.1016E+03
    118.071  0.0000E+00  0.1020E+03
    118.681  0.0000E+00  0.1025E+03
    119.291  0.0000E+00  0.1025E+03
    119.901  0.0000E+00  0.1027E+03
    120.512  0.0000E+00  0.1035E+03
    121.122  0.0000E+00  0.1048E+03
    121.732  0.0000E+00  0.1056E+03
    122.343  0.0000E+00  0.1069E+03
    122.953  0.0000E+00  0.1077E+03
    123.563  0.0000E+00  0.1080E+03
    124.174  0.0000E+00  0.1084E+03
    124.784  0.0000E+00  0.1099E+03
    125.394  0.0000E+00  0.1106E+03
    126.005  0.4520E-01  0.1113E+03
    126.615  0.0000E+00  0.1118E+03
    127.225  0.0000E+00  0.1125E+03
    127.836  0.3641E+00  0.1137E+03
    128.446  0.0000E+00  0.1140E+03
    129.056  0.0000E+00  0.1150E+03
    129.666  0.0000E+00  0.1158E+03
    130.277  0.0000E+00  0.1167E+03
    130.887  0.0000E+00  0.1177E+03
    131.497  0.0000E+00  0.1185E+03
    132.108  0.0000E+00  0.1197E+03
    132.718  0.0000E+00  0.1206E+03
    133.328  0.0000E+00  0.1211E+03
    133.939  0.0000E+00  0.1221E+03
    134.549  0.0000E+00  0.1230E+03
    135.159  0.0000E+00  0.1235E+03
    135.770  0.0000E+00  0.1238E+03
    136.380  0.0000E+00  0.1241E+03
    136.990  0.0000E+00  0.1250E+03
    137.600  0.0000E+00  0.1258E+03
    138.211  0.0000E+00  0.1263E+03
    138.821  0.0000E+00  0.1268E+03
    139.431  0.0000E+00  0.1270E+03
    140.042  0.0000E+00  0.1274E+03
    140.652  0.0000E+00  0.1274E+03
    141.262  0.0000E+00  0.1275E+03
    141.873  0.0000E+00  0.1275E+03
    142.483  0.0000E+00  0.1275E+03
    143.093  0.0000E+00  0.1276E+03
    143.704  0.0000E+00  0.1277E+03
    144.314  0.0000E+00  0.1278E+03
    144.924  0.0000E+00  0.1278E+03
    145.534  0.0000E+00  0.1278E+03
    146.145  0.0000E+00  0.1279E+03
    146.755  0.0000E+00  0.1279E+03
    147.365  0.0000E+00  0.1279E+03
    147.976  0.0000E+00  0.1279E+03
    148.586  0.0000E+00  0.1279E+03
    149.196  0.0000E+00  0.1279E+03
    149.807  0.0000E+00  0.1279E+03
    150.417  0.0000E+00  0.1279E+03
    151.027  0.0000E+00  0.1280E+03
    151.638  0.0000E+00  0.1280E+03
    152.248  0.0000E+00  0.1280E+03
    152.858  0.0000E+00  0.1280E+03
    153.469  0.0000E+00  0.1280E+03
    154.079  0.0000E+00  0.1280E+03
    154.689  0.0000E+00  0.1280E+03
    155.299  0.0000E+00  0.1280E+03
    155.910  0.0000E+00  0.1280E+03
    156.520  0.0000E+00  0.1280E+03
    157.130  0.0000E+00  0.1280E+03
    157.741  0.0000E+00  0.1280E+03
    158.351  0.0000E+00  0.1280E+03
    158.961  0.0000E+00  0.1280E+03
