    1    1    1    1
  0.1860393E+02  0.2974221E-09  0.2974221E-09  0.2974221E-09  0.1000000E-15
  1.000000000000000E-004
  CAR 
 Og_FCC                                  
      8    216    128
