    1    1    1    1
  0.1628488E+02  0.2845115E-09  0.2845115E-09  0.2845115E-09  0.1000000E-15
  1.000000000000000E-004
  CAR 
 Og_FCC                                  
      2    216    128
 
  0.0000000E+00  0.0000000E+00  0.0000000E+00  0.4629630E-02
    1      -15.809132   1.000000
    2      -15.809131   1.000000
    3        3.750125   0.000000
    4        3.750130   0.000000
    5       20.703519   0.000000
    6       20.703519   0.000000
    7       20.704140   0.000000
    8       20.704140   0.000000
    9       20.704142   0.000000
   10       20.704142   0.000000
   11       24.011087   0.000000
   12       24.011087   0.000000
   13       24.011089   0.000000
   14       24.011089   0.000000
   15       24.011161   0.000000
   16       24.011161   0.000000
   17       25.252539   0.000000
   18       25.252540   0.000000
   19       31.784661   0.000000
   20       31.784702   0.000000
   21       32.503569   0.000000
   22       32.503569   0.000000
   23       32.503759   0.000000
   24       32.503760   0.000000
   25       32.503761   0.000000
   26       32.503762   0.000000
   27       32.562829   0.000000
   28       32.562829   0.000000
   29       32.562830   0.000000
   30       32.562830   0.000000
   31       56.852596   0.000000
   32       56.852603   0.000000
   33       66.656900   0.000000
   34       66.656901   0.000000
   35       66.658150   0.000000
   36       66.658151   0.000000
   37       66.658154   0.000000
   38       66.658155   0.000000
   39       69.354130   0.000000
   40       69.354130   0.000000
   41       69.354135   0.000000
   42       69.354135   0.000000
   43       69.355254   0.000000
   44       69.355254   0.000000
   45       69.751995   0.000000
   46       69.751995   0.000000
   47       69.751996   0.000000
   48       69.751996   0.000000
   49       69.752003   0.000000
   50       69.752004   0.000000
   51       69.789262   0.000000
   52       69.789262   0.000000
   53       69.789262   0.000000
   54       69.789263   0.000000
   55       86.221901   0.000000
   56       86.221956   0.000000
   57       92.281990   0.000000
   58       92.281993   0.000000
   59       92.283627   0.000000
   60       92.283630   0.000000
   61       92.283639   0.000000
   62       92.283646   0.000000
   63       95.645900   0.000000
   64       95.645900   0.000000
   65       95.645904   0.000000
   66       95.645904   0.000000
   67       97.280478   0.000000
   68       97.280479   0.000000
   69       97.280480   0.000000
   70       97.280481   0.000000
   71       97.283362   0.000000
   72       97.283362   0.000000
   73       97.312173   0.000000
   74       97.312173   0.000000
   75       97.312187   0.000000
   76       97.312188   0.000000
   77       97.312193   0.000000
   78       97.312193   0.000000
   79       97.666396   0.000000
   80       97.666396   0.000000
   81       97.666396   0.000000
   82       97.666396   0.000000
   83       97.666397   0.000000
   84       97.666398   0.000000
   85       97.810670   0.000000
   86       97.810670   0.000000
   87       97.810670   0.000000
   88       97.810670   0.000000
   89       97.810678   0.000000
   90       97.810679   0.000000
   91       98.507580   0.000000
   92       98.507582   0.000000
   93       98.989520   0.000000
   94       98.989521   0.000000
   95       98.989537   0.000000
   96       98.989537   0.000000
   97       98.989537   0.000000
   98       98.989538   0.000000
   99       99.043788   0.000000
  100       99.043788   0.000000
  101       99.043788   0.000000
  102       99.043788   0.000000
  103      106.722010   0.000000
  104      106.722052   0.000000
  105      106.749530   0.000000
  106      106.749531   0.000000
  107      106.749684   0.000000
  108      106.749686   0.000000
  109      106.749690   0.000000
  110      106.749695   0.000000
  111      107.200517   0.000000
  112      107.200518   0.000000
  113      107.200522   0.000000
  114      107.200523   0.000000
  115      107.201683   0.000000
  116      107.201683   0.000000
  117      107.371530   0.000000
  118      107.371531   0.000000
  119      141.490117   0.000000
  120      141.490131   0.000000
  121      142.947047   0.000000
  122      142.947048   0.000000
  123      142.947632   0.000000
  124      142.947634   0.000000
  125      142.947643   0.000000
  126      142.947647   0.000000
  127      144.637806   0.000000
  128      144.637806   0.000000
 
  0.1666667E+00 -0.1387779E-16  0.1387779E-16  0.4629630E-02
    1      -15.589736   1.000000
    2      -15.589736   1.000000
    3        3.575364   0.000000
    4        3.575369   0.000000
    5       16.133072   0.000000
    6       16.133072   0.000000
    7       19.550920   0.000000
    8       19.550920   0.000000
    9       19.551234   0.000000
   10       19.551234   0.000000
   11       24.281467   0.000000
   12       24.281469   0.000000
   13       25.759118   0.000000
   14       25.759118   0.000000
   15       25.759173   0.000000
   16       25.759173   0.000000
   17       27.554484   0.000000
   18       27.554506   0.000000
   19       28.206776   0.000000
   20       28.206776   0.000000
   21       28.206821   0.000000
   22       28.206821   0.000000
   23       32.364782   0.000000
   24       32.364784   0.000000
   25       38.917825   0.000000
   26       38.917844   0.000000
   27       39.342829   0.000000
   28       39.342829   0.000000
   29       39.342924   0.000000
   30       39.342924   0.000000
   31       51.850723   0.000000
   32       51.850727   0.000000
   33       57.593942   0.000000
   34       57.593943   0.000000
   35       57.594201   0.000000
   36       57.594201   0.000000
   37       63.884639   0.000000
   38       63.884640   0.000000
   39       68.135591   0.000000
   40       68.135592   0.000000
   41       68.136249   0.000000
   42       68.136249   0.000000
   43       70.332832   0.000000
   44       70.332832   0.000000
   45       70.333991   0.000000
   46       70.333991   0.000000
   47       70.515308   0.000000
   48       70.515308   0.000000
   49       77.689684   0.000000
   50       77.689704   0.000000
   51       79.483630   0.000000
   52       79.483640   0.000000
   53       82.050578   0.000000
   54       82.050578   0.000000
   55       82.050685   0.000000
   56       82.050685   0.000000
   57       82.687767   0.000000
   58       82.687767   0.000000
   59       82.688480   0.000000
   60       82.688480   0.000000
   61       86.802263   0.000000
   62       86.802277   0.000000
   63       87.644807   0.000000
   64       87.644808   0.000000
   65       87.645439   0.000000
   66       87.645439   0.000000
   67       89.157132   0.000000
   68       89.157132   0.000000
   69       89.158206   0.000000
   70       89.158206   0.000000
   71       89.242502   0.000000
   72       89.242503   0.000000
   73       89.446691   0.000000
   74       89.446700   0.000000
   75       94.580009   0.000000
   76       94.580017   0.000000
   77       94.868639   0.000000
   78       94.868640   0.000000
   79       94.869027   0.000000
   80       94.869027   0.000000
   81       97.997567   0.000000
   82       97.997571   0.000000
   83       99.142859   0.000000
   84       99.142859   0.000000
   85       99.144175   0.000000
   86       99.144175   0.000000
   87      102.308359   0.000000
   88      102.308382   0.000000
   89      102.506266   0.000000
   90      102.506267   0.000000
   91      102.506612   0.000000
   92      102.506613   0.000000
   93      104.760749   0.000000
   94      104.760751   0.000000
   95      106.526656   0.000000
   96      106.526656   0.000000
   97      106.527647   0.000000
   98      106.527647   0.000000
   99      107.704503   0.000000
  100      107.704504   0.000000
  101      107.705405   0.000000
  102      107.705405   0.000000
  103      107.793121   0.000000
  104      107.793122   0.000000
  105      112.675287   0.000000
  106      112.675288   0.000000
  107      114.030573   0.000000
  108      114.030573   0.000000
  109      114.031078   0.000000
  110      114.031078   0.000000
  111      114.068641   0.000000
  112      114.068641   0.000000
  113      114.068932   0.000000
  114      114.068933   0.000000
  115      114.146886   0.000000
  116      114.146905   0.000000
  117      126.197557   0.000000
  118      126.197563   0.000000
  119      130.629424   0.000000
  120      130.629434   0.000000
  121      132.082464   0.000000
  122      132.082465   0.000000
  123      132.082602   0.000000
  124      132.082602   0.000000
  125      145.952724   0.000000
  126      145.952729   0.000000
  127      150.638898   0.000000
  128      150.638898   0.000000
 
  0.3333333E+00 -0.5551115E-16  0.4163336E-16  0.4629630E-02
    1      -15.118966   1.000000
    2      -15.118966   1.000000
    3        3.255187   0.000000
    4        3.255192   0.000000
    5       11.719179   0.000000
    6       11.719180   0.000000
    7       18.666131   0.000000
    8       18.666131   0.000000
    9       18.666446   0.000000
   10       18.666446   0.000000
   11       23.347081   0.000000
   12       23.347081   0.000000
   13       23.347091   0.000000
   14       23.347091   0.000000
   15       23.869940   0.000000
   16       23.869958   0.000000
   17       28.702642   0.000000
   18       28.702646   0.000000
   19       32.311746   0.000000
   20       32.311746   0.000000
   21       32.311863   0.000000
   22       32.311863   0.000000
   23       40.951342   0.000000
   24       40.951351   0.000000
   25       44.136048   0.000000
   26       44.136052   0.000000
   27       47.437675   0.000000
   28       47.437675   0.000000
   29       47.437798   0.000000
   30       47.437799   0.000000
   31       47.935549   0.000000
   32       47.935549   0.000000
   33       47.935750   0.000000
   34       47.935750   0.000000
   35       48.374821   0.000000
   36       48.374833   0.000000
   37       62.027249   0.000000
   38       62.027254   0.000000
   39       68.733446   0.000000
   40       68.733446   0.000000
   41       68.733985   0.000000
   42       68.733985   0.000000
   43       69.154627   0.000000
   44       69.154638   0.000000
   45       70.787231   0.000000
   46       70.787231   0.000000
   47       70.787673   0.000000
   48       70.787673   0.000000
   49       72.584596   0.000000
   50       72.584596   0.000000
   51       72.585885   0.000000
   52       72.585885   0.000000
   53       72.781127   0.000000
   54       72.781127   0.000000
   55       73.681335   0.000000
   56       73.681345   0.000000
   57       79.891011   0.000000
   58       79.891032   0.000000
   59       81.011443   0.000000
   60       81.011444   0.000000
   61       81.011988   0.000000
   62       81.011988   0.000000
   63       82.251896   0.000000
   64       82.251897   0.000000
   65       82.252725   0.000000
   66       82.252725   0.000000
   67       82.336914   0.000000
   68       82.336914   0.000000
   69       91.419833   0.000000
   70       91.419834   0.000000
   71       93.851711   0.000000
   72       93.851711   0.000000
   73       93.852047   0.000000
   74       93.852047   0.000000
   75       95.030695   0.000000
   76       95.030705   0.000000
   77       96.774175   0.000000
   78       96.774176   0.000000
   79       96.774721   0.000000
   80       96.774722   0.000000
   81       97.133940   0.000000
   82       97.133946   0.000000
   83       97.478222   0.000000
   84       97.478222   0.000000
   85       97.478315   0.000000
   86       97.478315   0.000000
   87      105.733855   0.000000
   88      105.733874   0.000000
   89      106.383197   0.000000
   90      106.383198   0.000000
   91      106.383317   0.000000
   92      106.383317   0.000000
   93      114.881628   0.000000
   94      114.881633   0.000000
   95      117.592069   0.000000
   96      117.592069   0.000000
   97      117.592999   0.000000
   98      117.592999   0.000000
   99      119.318082   0.000000
  100      119.318082   0.000000
  101      119.319049   0.000000
  102      119.319050   0.000000
  103      119.399712   0.000000
  104      119.399712   0.000000
  105      120.394431   0.000000
  106      120.394443   0.000000
  107      122.064198   0.000000
  108      122.064198   0.000000
  109      122.064396   0.000000
  110      122.064396   0.000000
  111      122.922908   0.000000
  112      122.922908   0.000000
  113      122.923139   0.000000
  114      122.923140   0.000000
  115      123.132211   0.000000
  116      123.132226   0.000000
  117      128.159217   0.000000
  118      128.159226   0.000000
  119      130.178212   0.000000
  120      130.178218   0.000000
  121      131.269784   0.000000
  122      131.269784   0.000000
  123      131.269949   0.000000
  124      131.269949   0.000000
  125      131.928795   0.000000
  126      131.928795   0.000000
  127      131.929615   0.000000
  128      131.929615   0.000000
 
  0.5000000E+00 -0.5551115E-16  0.0000000E+00  0.4629630E-02
    1      -14.850230   1.000000
    2      -14.850229   1.000000
    3        3.107392   0.000000
    4        3.107397   0.000000
    5       10.119246   0.000000
    6       10.119247   0.000000
    7       18.530613   0.000000
    8       18.530613   0.000000
    9       18.530965   0.000000
   10       18.530965   0.000000
   11       22.033620   0.000000
   12       22.033620   0.000000
   13       22.033679   0.000000
   14       22.033679   0.000000
   15       23.013543   0.000000
   16       23.013563   0.000000
   17       32.476972   0.000000
   18       32.476972   0.000000
   19       37.387866   0.000000
   20       37.387877   0.000000
   21       38.967962   0.000000
   22       38.967962   0.000000
   23       38.968180   0.000000
   24       38.968180   0.000000
   25       39.320060   0.000000
   26       39.320060   0.000000
   27       39.320136   0.000000
   28       39.320136   0.000000
   29       51.202908   0.000000
   30       51.202909   0.000000
   31       54.279030   0.000000
   32       54.279038   0.000000
   33       57.424090   0.000000
   34       57.424091   0.000000
   35       57.424325   0.000000
   36       57.424325   0.000000
   37       58.081501   0.000000
   38       58.081501   0.000000
   39       58.081662   0.000000
   40       58.081662   0.000000
   41       59.669677   0.000000
   42       59.669680   0.000000
   43       60.045223   0.000000
   44       60.045246   0.000000
   45       68.124215   0.000000
   46       68.124216   0.000000
   47       72.130249   0.000000
   48       72.130249   0.000000
   49       72.131133   0.000000
   50       72.131133   0.000000
   51       75.356874   0.000000
   52       75.356874   0.000000
   53       75.358978   0.000000
   54       75.358978   0.000000
   55       75.682149   0.000000
   56       75.682149   0.000000
   57       77.356304   0.000000
   58       77.356331   0.000000
   59       77.632856   0.000000
   60       77.632856   0.000000
   61       77.633220   0.000000
   62       77.633221   0.000000
   63       77.889012   0.000000
   64       77.889013   0.000000
   65       77.926150   0.000000
   66       77.926151   0.000000
   67       77.926165   0.000000
   68       77.926165   0.000000
   69       92.992249   0.000000
   70       92.992250   0.000000
   71       94.248433   0.000000
   72       94.248433   0.000000
   73       94.248766   0.000000
   74       94.248766   0.000000
   75       95.105825   0.000000
   76       95.105826   0.000000
   77       95.107571   0.000000
   78       95.107572   0.000000
   79       95.326671   0.000000
   80       95.326685   0.000000
   81      107.082671   0.000000
   82      107.082672   0.000000
   83      109.636763   0.000000
   84      109.636764   0.000000
   85      112.195582   0.000000
   86      112.195582   0.000000
   87      112.196075   0.000000
   88      112.196076   0.000000
   89      113.737624   0.000000
   90      113.737624   0.000000
   91      113.738987   0.000000
   92      113.738988   0.000000
   93      113.738991   0.000000
   94      113.738992   0.000000
   95      113.739384   0.000000
   96      113.739384   0.000000
   97      113.912980   0.000000
   98      113.912987   0.000000
   99      114.002877   0.000000
  100      114.002878   0.000000
  101      114.004473   0.000000
  102      114.004474   0.000000
  103      114.037823   0.000000
  104      114.037851   0.000000
  105      126.519653   0.000000
  106      126.519657   0.000000
  107      128.580118   0.000000
  108      128.580124   0.000000
  109      128.869977   0.000000
  110      128.869977   0.000000
  111      128.870594   0.000000
  112      128.870594   0.000000
  113      131.629735   0.000000
  114      131.629735   0.000000
  115      131.631215   0.000000
  116      131.631215   0.000000
  117      132.164352   0.000000
  118      132.164352   0.000000
  119      132.164377   0.000000
  120      132.164377   0.000000
  121      132.433017   0.000000
  122      132.433018   0.000000
  123      132.688646   0.000000
  124      132.688647   0.000000
  125      132.829522   0.000000
  126      132.829523   0.000000
  127      132.830232   0.000000
  128      132.830233   0.000000
 
 -0.3333333E+00  0.5551115E-16 -0.4163336E-16  0.4629630E-02
    1      -15.118966   1.000000
    2      -15.118966   1.000000
    3        3.255187   0.000000
    4        3.255192   0.000000
    5       11.719179   0.000000
    6       11.719180   0.000000
    7       18.666131   0.000000
    8       18.666131   0.000000
    9       18.666446   0.000000
   10       18.666446   0.000000
   11       23.347081   0.000000
   12       23.347081   0.000000
   13       23.347091   0.000000
   14       23.347091   0.000000
   15       23.869940   0.000000
   16       23.869958   0.000000
   17       28.702642   0.000000
   18       28.702646   0.000000
   19       32.311746   0.000000
   20       32.311746   0.000000
   21       32.311863   0.000000
   22       32.311863   0.000000
   23       40.951342   0.000000
   24       40.951351   0.000000
   25       44.136048   0.000000
   26       44.136052   0.000000
   27       47.437675   0.000000
   28       47.437675   0.000000
   29       47.437798   0.000000
   30       47.437799   0.000000
   31       47.935549   0.000000
   32       47.935549   0.000000
   33       47.935750   0.000000
   34       47.935750   0.000000
   35       48.374821   0.000000
   36       48.374833   0.000000
   37       62.027249   0.000000
   38       62.027254   0.000000
   39       68.733446   0.000000
   40       68.733446   0.000000
   41       68.733985   0.000000
   42       68.733985   0.000000
   43       69.154627   0.000000
   44       69.154638   0.000000
   45       70.787231   0.000000
   46       70.787231   0.000000
   47       70.787673   0.000000
   48       70.787673   0.000000
   49       72.584596   0.000000
   50       72.584596   0.000000
   51       72.585885   0.000000
   52       72.585885   0.000000
   53       72.781127   0.000000
   54       72.781127   0.000000
   55       73.681335   0.000000
   56       73.681345   0.000000
   57       79.891011   0.000000
   58       79.891032   0.000000
   59       81.011443   0.000000
   60       81.011444   0.000000
   61       81.011988   0.000000
   62       81.011988   0.000000
   63       82.251896   0.000000
   64       82.251897   0.000000
   65       82.252725   0.000000
   66       82.252725   0.000000
   67       82.336914   0.000000
   68       82.336914   0.000000
   69       91.419833   0.000000
   70       91.419834   0.000000
   71       93.851711   0.000000
   72       93.851711   0.000000
   73       93.852047   0.000000
   74       93.852047   0.000000
   75       95.030695   0.000000
   76       95.030705   0.000000
   77       96.774175   0.000000
   78       96.774176   0.000000
   79       96.774721   0.000000
   80       96.774722   0.000000
   81       97.133940   0.000000
   82       97.133946   0.000000
   83       97.478222   0.000000
   84       97.478222   0.000000
   85       97.478315   0.000000
   86       97.478315   0.000000
   87      105.733855   0.000000
   88      105.733874   0.000000
   89      106.383197   0.000000
   90      106.383198   0.000000
   91      106.383317   0.000000
   92      106.383317   0.000000
   93      114.881628   0.000000
   94      114.881633   0.000000
   95      117.592069   0.000000
   96      117.592069   0.000000
   97      117.592999   0.000000
   98      117.592999   0.000000
   99      119.318082   0.000000
  100      119.318082   0.000000
  101      119.319049   0.000000
  102      119.319050   0.000000
  103      119.399712   0.000000
  104      119.399712   0.000000
  105      120.394431   0.000000
  106      120.394443   0.000000
  107      122.064198   0.000000
  108      122.064198   0.000000
  109      122.064396   0.000000
  110      122.064396   0.000000
  111      122.922908   0.000000
  112      122.922908   0.000000
  113      122.923139   0.000000
  114      122.923140   0.000000
  115      123.132211   0.000000
  116      123.132226   0.000000
  117      128.159217   0.000000
  118      128.159226   0.000000
  119      130.178212   0.000000
  120      130.178218   0.000000
  121      131.269784   0.000000
  122      131.269784   0.000000
  123      131.269949   0.000000
  124      131.269949   0.000000
  125      131.928795   0.000000
  126      131.928795   0.000000
  127      131.929615   0.000000
  128      131.929615   0.000000
 
 -0.1666667E+00  0.1387779E-16 -0.1387779E-16  0.4629630E-02
    1      -15.589736   1.000000
    2      -15.589736   1.000000
    3        3.575364   0.000000
    4        3.575369   0.000000
    5       16.133072   0.000000
    6       16.133072   0.000000
    7       19.550920   0.000000
    8       19.550920   0.000000
    9       19.551234   0.000000
   10       19.551234   0.000000
   11       24.281467   0.000000
   12       24.281469   0.000000
   13       25.759118   0.000000
   14       25.759118   0.000000
   15       25.759173   0.000000
   16       25.759173   0.000000
   17       27.554484   0.000000
   18       27.554506   0.000000
   19       28.206776   0.000000
   20       28.206776   0.000000
   21       28.206821   0.000000
   22       28.206821   0.000000
   23       32.364782   0.000000
   24       32.364784   0.000000
   25       38.917825   0.000000
   26       38.917844   0.000000
   27       39.342829   0.000000
   28       39.342829   0.000000
   29       39.342924   0.000000
   30       39.342924   0.000000
   31       51.850723   0.000000
   32       51.850727   0.000000
   33       57.593942   0.000000
   34       57.593943   0.000000
   35       57.594201   0.000000
   36       57.594201   0.000000
   37       63.884639   0.000000
   38       63.884640   0.000000
   39       68.135591   0.000000
   40       68.135592   0.000000
   41       68.136249   0.000000
   42       68.136249   0.000000
   43       70.332832   0.000000
   44       70.332832   0.000000
   45       70.333991   0.000000
   46       70.333991   0.000000
   47       70.515308   0.000000
   48       70.515308   0.000000
   49       77.689684   0.000000
   50       77.689704   0.000000
   51       79.483630   0.000000
   52       79.483640   0.000000
   53       82.050578   0.000000
   54       82.050578   0.000000
   55       82.050685   0.000000
   56       82.050685   0.000000
   57       82.687767   0.000000
   58       82.687767   0.000000
   59       82.688480   0.000000
   60       82.688480   0.000000
   61       86.802263   0.000000
   62       86.802277   0.000000
   63       87.644807   0.000000
   64       87.644808   0.000000
   65       87.645439   0.000000
   66       87.645439   0.000000
   67       89.157132   0.000000
   68       89.157132   0.000000
   69       89.158206   0.000000
   70       89.158206   0.000000
   71       89.242502   0.000000
   72       89.242503   0.000000
   73       89.446691   0.000000
   74       89.446700   0.000000
   75       94.580009   0.000000
   76       94.580017   0.000000
   77       94.868639   0.000000
   78       94.868640   0.000000
   79       94.869027   0.000000
   80       94.869027   0.000000
   81       97.997567   0.000000
   82       97.997571   0.000000
   83       99.142859   0.000000
   84       99.142859   0.000000
   85       99.144175   0.000000
   86       99.144175   0.000000
   87      102.308359   0.000000
   88      102.308382   0.000000
   89      102.506266   0.000000
   90      102.506267   0.000000
   91      102.506612   0.000000
   92      102.506613   0.000000
   93      104.760749   0.000000
   94      104.760751   0.000000
   95      106.526656   0.000000
   96      106.526656   0.000000
   97      106.527647   0.000000
   98      106.527647   0.000000
   99      107.704503   0.000000
  100      107.704504   0.000000
  101      107.705405   0.000000
  102      107.705405   0.000000
  103      107.793121   0.000000
  104      107.793122   0.000000
  105      112.675287   0.000000
  106      112.675288   0.000000
  107      114.030573   0.000000
  108      114.030573   0.000000
  109      114.031078   0.000000
  110      114.031078   0.000000
  111      114.068641   0.000000
  112      114.068641   0.000000
  113      114.068932   0.000000
  114      114.068933   0.000000
  115      114.146886   0.000000
  116      114.146905   0.000000
  117      126.197557   0.000000
  118      126.197563   0.000000
  119      130.629424   0.000000
  120      130.629434   0.000000
  121      132.082464   0.000000
  122      132.082465   0.000000
  123      132.082602   0.000000
  124      132.082602   0.000000
  125      145.952724   0.000000
  126      145.952729   0.000000
  127      150.638898   0.000000
  128      150.638898   0.000000
 
  0.0000000E+00  0.1666667E+00 -0.6938894E-17  0.4629630E-02
    1      -15.589736   1.000000
    2      -15.589736   1.000000
    3        3.575364   0.000000
    4        3.575369   0.000000
    5       16.133072   0.000000
    6       16.133072   0.000000
    7       19.550920   0.000000
    8       19.550920   0.000000
    9       19.551234   0.000000
   10       19.551234   0.000000
   11       24.281467   0.000000
   12       24.281469   0.000000
   13       25.759118   0.000000
   14       25.759118   0.000000
   15       25.759173   0.000000
   16       25.759173   0.000000
   17       27.554484   0.000000
   18       27.554506   0.000000
   19       28.206776   0.000000
   20       28.206776   0.000000
   21       28.206821   0.000000
   22       28.206821   0.000000
   23       32.364782   0.000000
   24       32.364784   0.000000
   25       38.917825   0.000000
   26       38.917844   0.000000
   27       39.342829   0.000000
   28       39.342829   0.000000
   29       39.342924   0.000000
   30       39.342924   0.000000
   31       51.850723   0.000000
   32       51.850727   0.000000
   33       57.593942   0.000000
   34       57.593943   0.000000
   35       57.594201   0.000000
   36       57.594201   0.000000
   37       63.884639   0.000000
   38       63.884640   0.000000
   39       68.135591   0.000000
   40       68.135592   0.000000
   41       68.136248   0.000000
   42       68.136249   0.000000
   43       70.332832   0.000000
   44       70.332832   0.000000
   45       70.333991   0.000000
   46       70.333991   0.000000
   47       70.515308   0.000000
   48       70.515308   0.000000
   49       77.689684   0.000000
   50       77.689704   0.000000
   51       79.483630   0.000000
   52       79.483640   0.000000
   53       82.050578   0.000000
   54       82.050578   0.000000
   55       82.050685   0.000000
   56       82.050685   0.000000
   57       82.687767   0.000000
   58       82.687767   0.000000
   59       82.688480   0.000000
   60       82.688480   0.000000
   61       86.802263   0.000000
   62       86.802277   0.000000
   63       87.644807   0.000000
   64       87.644808   0.000000
   65       87.645438   0.000000
   66       87.645440   0.000000
   67       89.157132   0.000000
   68       89.157132   0.000000
   69       89.158206   0.000000
   70       89.158206   0.000000
   71       89.242502   0.000000
   72       89.242503   0.000000
   73       89.446691   0.000000
   74       89.446700   0.000000
   75       94.580009   0.000000
   76       94.580017   0.000000
   77       94.868639   0.000000
   78       94.868640   0.000000
   79       94.869027   0.000000
   80       94.869028   0.000000
   81       97.997567   0.000000
   82       97.997571   0.000000
   83       99.142858   0.000000
   84       99.142859   0.000000
   85       99.144175   0.000000
   86       99.144175   0.000000
   87      102.308359   0.000000
   88      102.308382   0.000000
   89      102.506265   0.000000
   90      102.506267   0.000000
   91      102.506611   0.000000
   92      102.506613   0.000000
   93      104.760749   0.000000
   94      104.760751   0.000000
   95      106.526656   0.000000
   96      106.526656   0.000000
   97      106.527647   0.000000
   98      106.527647   0.000000
   99      107.704503   0.000000
  100      107.704504   0.000000
  101      107.705405   0.000000
  102      107.705405   0.000000
  103      107.793121   0.000000
  104      107.793122   0.000000
  105      112.675287   0.000000
  106      112.675288   0.000000
  107      114.030572   0.000000
  108      114.030574   0.000000
  109      114.031078   0.000000
  110      114.031079   0.000000
  111      114.068641   0.000000
  112      114.068641   0.000000
  113      114.068932   0.000000
  114      114.068933   0.000000
  115      114.146886   0.000000
  116      114.146905   0.000000
  117      126.197557   0.000000
  118      126.197563   0.000000
  119      130.629424   0.000000
  120      130.629434   0.000000
  121      132.082464   0.000000