       N       E                     dE             d eps       ncg     rms          rms(c)
DIA:   1     0.312840525423E+01    0.31284E+01    0.00000E+00     0   0.000E+00
