       N       E                     dE             d eps       ncg     rms          rms(c)
DIA:   1    -0.771715285405E-01   -0.77172E-01    0.00000E+00     0   0.000E+00
DIA:   2    -0.771715285380E-01    0.25580E-11    0.00000E+00     0   0.000E+00
DIA:   3    -0.771715285389E-01   -0.90949E-12    0.00000E+00     0   0.000E+00
DIA:   4    -0.771715285390E-01   -0.14211E-12    0.00000E+00     0   0.000E+00
DIA:   5    -0.771715285357E-01    0.33253E-11    0.00000E+00     0   0.000E+00    0.352E-05
DIA:   6    -0.771715282553E-01    0.28037E-09    0.00000E+00     0   0.000E+00
   1 F= -.84824000E-01 E0= -.84824000E-01  d E =0.000000E+00  mag=    -0.0000    -0.0000    -0.0000
 imaginary and real dielectric function
