   1   1   0   0
  0.5789729E+02  0.4342346E-09  0.4342346E-09  0.4342346E-09  0.1000000E-15
  1.000000000000000E-004
  CAR 
 Og_FCC                                  
     19.85182124    -32.86590984  301      4.31019320      1.00000000
    -32.866  0.0000E+00  0.0000E+00
    -32.690  0.0000E+00  0.0000E+00
    -32.514  0.0000E+00  0.0000E+00
    -32.339  0.0000E+00  0.0000E+00
    -32.163  0.0000E+00  0.0000E+00
    -31.987  0.0000E+00  0.0000E+00
    -31.812  0.0000E+00  0.0000E+00
    -31.636  0.0000E+00  0.0000E+00
    -31.460  0.0000E+00  0.0000E+00
    -31.284  0.0000E+00  0.0000E+00
    -31.109  0.0000E+00  0.0000E+00
    -30.933  0.0000E+00  0.0000E+00
    -30.757  0.0000E+00  0.0000E+00
    -30.581  0.0000E+00  0.0000E+00
    -30.406  0.2061E+01  0.1737E+01
    -30.230  0.0000E+00  0.3250E+01
    -30.054  0.0000E+00  0.3875E+01
    -29.879  0.0000E+00  0.3875E+01
    -29.703  0.0000E+00  0.4000E+01
    -29.527  0.0000E+00  0.4000E+01
    -29.351  0.0000E+00  0.4000E+01
    -29.176  0.0000E+00  0.4000E+01
    -29.000  0.0000E+00  0.4000E+01
    -28.824  0.0000E+00  0.4000E+01
    -28.648  0.0000E+00  0.4000E+01
    -28.473  0.0000E+00  0.4000E+01
    -28.297  0.0000E+00  0.4000E+01
    -28.121  0.0000E+00  0.4000E+01
    -27.946  0.0000E+00  0.4000E+01
    -27.770  0.0000E+00  0.4000E+01
    -27.594  0.0000E+00  0.4000E+01
    -27.418  0.0000E+00  0.4000E+01
    -27.243  0.0000E+00  0.4000E+01
    -27.067  0.0000E+00  0.4000E+01
    -26.891  0.0000E+00  0.4000E+01
    -26.716  0.0000E+00  0.4000E+01
    -26.540  0.0000E+00  0.4000E+01
    -26.364  0.0000E+00  0.4000E+01
    -26.188  0.0000E+00  0.4000E+01
    -26.013  0.0000E+00  0.4000E+01
    -25.837  0.0000E+00  0.4000E+01
    -25.661  0.0000E+00  0.4000E+01
    -25.485  0.0000E+00  0.4000E+01
    -25.310  0.0000E+00  0.4000E+01
    -25.134  0.0000E+00  0.4000E+01
    -24.958  0.0000E+00  0.4000E+01
    -24.783  0.0000E+00  0.4000E+01
    -24.607  0.0000E+00  0.4000E+01
    -24.431  0.0000E+00  0.4000E+01
    -24.255  0.0000E+00  0.4000E+01
    -24.080  0.0000E+00  0.4000E+01
    -23.904  0.0000E+00  0.4000E+01
    -23.728  0.3223E-02  0.6876E+01
    -23.552  0.4156E+00  0.8823E+01
    -23.377  0.0000E+00  0.9500E+01
    -23.201  0.3002E-06  0.9750E+01
    -23.025  0.0000E+00  0.9875E+01
    -22.850  0.0000E+00  0.9875E+01
    -22.674  0.0000E+00  0.1000E+02
    -22.498  0.0000E+00  0.1000E+02
    -22.322  0.0000E+00  0.1000E+02
    -22.147  0.0000E+00  0.1000E+02
    -21.971  0.0000E+00  0.1000E+02
    -21.795  0.0000E+00  0.1000E+02
    -21.619  0.0000E+00  0.1000E+02
    -21.444  0.0000E+00  0.1000E+02
    -21.268  0.0000E+00  0.1000E+02
    -21.092  0.0000E+00  0.1000E+02
    -20.917  0.0000E+00  0.1000E+02
    -20.741  0.0000E+00  0.1000E+02
    -20.565  0.0000E+00  0.1000E+02
    -20.389  0.0000E+00  0.1000E+02
    -20.214  0.0000E+00  0.1000E+02
    -20.038  0.1473E-02  0.1063E+02
    -19.862  0.0000E+00  0.1175E+02
    -19.686  0.0000E+00  0.1188E+02
    -19.511  0.3936E+00  0.1194E+02
    -19.335  0.0000E+00  0.1200E+02
    -19.159  0.0000E+00  0.1200E+02
    -18.984  0.0000E+00  0.1200E+02
    -18.808  0.0000E+00  0.1200E+02
    -18.632  0.0000E+00  0.1200E+02
    -18.456  0.0000E+00  0.1200E+02
    -18.281  0.0000E+00  0.1200E+02
    -18.105  0.0000E+00  0.1200E+02
    -17.929  0.0000E+00  0.1200E+02
    -17.753  0.0000E+00  0.1200E+02
    -17.578  0.0000E+00  0.1200E+02
    -17.402  0.0000E+00  0.1200E+02
    -17.226  0.0000E+00  0.1200E+02
    -17.051  0.0000E+00  0.1200E+02
    -16.875  0.0000E+00  0.1200E+02
    -16.699  0.0000E+00  0.1200E+02
    -16.523  0.0000E+00  0.1200E+02
    -16.348  0.0000E+00  0.1200E+02
    -16.172  0.0000E+00  0.1200E+02
    -15.996  0.0000E+00  0.1200E+02
    -15.821  0.0000E+00  0.1200E+02
    -15.645  0.0000E+00  0.1200E+02
    -15.469  0.0000E+00  0.1200E+02
    -15.293  0.0000E+00  0.1200E+02
    -15.118  0.0000E+00  0.1200E+02
    -14.942  0.0000E+00  0.1200E+02
    -14.766  0.0000E+00  0.1200E+02
    -14.590  0.0000E+00  0.1200E+02
    -14.415  0.0000E+00  0.1200E+02
    -14.239  0.0000E+00  0.1200E+02
    -14.063  0.0000E+00  0.1200E+02
    -13.888  0.0000E+00  0.1200E+02
    -13.712  0.0000E+00  0.1200E+02
    -13.536  0.0000E+00  0.1200E+02
    -13.360  0.0000E+00  0.1200E+02
    -13.185  0.0000E+00  0.1200E+02
    -13.009  0.0000E+00  0.1200E+02
    -12.833  0.0000E+00  0.1200E+02
    -12.657  0.0000E+00  0.1200E+02
    -12.482  0.0000E+00  0.1200E+02
    -12.306  0.0000E+00  0.1200E+02
    -12.130  0.0000E+00  0.1200E+02
    -11.955  0.0000E+00  0.1200E+02
    -11.779  0.0000E+00  0.1200E+02
    -11.603  0.0000E+00  0.1200E+02
    -11.427  0.0000E+00  0.1200E+02
    -11.252  0.0000E+00  0.1200E+02
    -11.076  0.0000E+00  0.1200E+02
    -10.900  0.0000E+00  0.1200E+02
    -10.724  0.0000E+00  0.1200E+02
    -10.549  0.0000E+00  0.1200E+02
    -10.373  0.0000E+00  0.1200E+02
    -10.197  0.0000E+00  0.1200E+02
    -10.022  0.0000E+00  0.1200E+02
     -9.846  0.0000E+00  0.1200E+02
     -9.670  0.0000E+00  0.1200E+02
     -9.494  0.0000E+00  0.1200E+02
     -9.319  0.0000E+00  0.1200E+02
     -9.143  0.0000E+00  0.1200E+02
     -8.967  0.0000E+00  0.1200E+02
     -8.791  0.0000E+00  0.1200E+02
     -8.616  0.0000E+00  0.1200E+02
     -8.440  0.0000E+00  0.1200E+02
     -8.264  0.0000E+00  0.1200E+02
     -8.089  0.0000E+00  0.1200E+02
     -7.913  0.0000E+00  0.1200E+02
     -7.737  0.0000E+00  0.1200E+02
     -7.561  0.0000E+00  0.1200E+02
     -7.386  0.0000E+00  0.1200E+02
     -7.210  0.0000E+00  0.1200E+02
     -7.034  0.0000E+00  0.1225E+02
     -6.858  0.0000E+00  0.1288E+02
     -6.683  0.0000E+00  0.1388E+02
     -6.507  0.0000E+00  0.1400E+02
     -6.331  0.0000E+00  0.1400E+02
     -6.156  0.0000E+00  0.1400E+02
     -5.980  0.0000E+00  0.1400E+02
     -5.804  0.0000E+00  0.1400E+02
     -5.628  0.0000E+00  0.1400E+02
     -5.453  0.0000E+00  0.1400E+02
     -5.277  0.0000E+00  0.1400E+02
     -5.101  0.0000E+00  0.1400E+02
     -4.926  0.0000E+00  0.1400E+02
     -4.750  0.0000E+00  0.1400E+02
     -4.574  0.0000E+00  0.1400E+02
     -4.398  0.0000E+00  0.1400E+02
     -4.223  0.0000E+00  0.1400E+02
     -4.047  0.0000E+00  0.1400E+02
     -3.871  0.0000E+00  0.1400E+02
     -3.695  0.0000E+00  0.1400E+02
     -3.520  0.0000E+00  0.1400E+02
     -3.344  0.0000E+00  0.1400E+02
     -3.168  0.0000E+00  0.1400E+02
     -2.993  0.0000E+00  0.1400E+02
     -2.817  0.0000E+00  0.1400E+02
     -2.641  0.0000E+00  0.1400E+02
     -2.465  0.0000E+00  0.1400E+02
     -2.290  0.0000E+00  0.1400E+02
     -2.114  0.0000E+00  0.1400E+02
     -1.938  0.0000E+00  0.1400E+02
     -1.762  0.0000E+00  0.1400E+02
     -1.587  0.0000E+00  0.1400E+02
     -1.411  0.0000E+00  0.1400E+02
     -1.235  0.0000E+00  0.1400E+02
     -1.060  0.0000E+00  0.1400E+02
     -0.884  0.0000E+00  0.1400E+02
     -0.708  0.0000E+00  0.1400E+02
     -0.532  0.0000E+00  0.1400E+02
     -0.357  0.0000E+00  0.1400E+02
     -0.181  0.0000E+00  0.1400E+02
     -0.005  0.0000E+00  0.1400E+02
      0.171  0.0000E+00  0.1400E+02
      0.346  0.0000E+00  0.1400E+02
      0.522  0.0000E+00  0.1400E+02
      0.698  0.0000E+00  0.1400E+02
      0.873  0.0000E+00  0.1400E+02
      1.049  0.0000E+00  0.1400E+02
      1.225  0.0000E+00  0.1438E+02
      1.401  0.0000E+00  0.1450E+02
      1.576  0.0000E+00  0.1462E+02
      1.752  0.7113E+00  0.1487E+02
      1.928  0.0000E+00  0.1500E+02
      2.104  0.0000E+00  0.1500E+02
      2.279  0.0000E+00  0.1525E+02
      2.455  0.0000E+00  0.1525E+02
      2.631  0.0000E+00  0.1538E+02
      2.806  0.0000E+00  0.1575E+02
      2.982  0.0000E+00  0.1588E+02
      3.158  0.0000E+00  0.1600E+02
      3.334  0.0000E+00  0.1625E+02
      3.509  0.0000E+00  0.1638E+02
      3.685  0.0000E+00  0.1638E+02
      3.861  0.7113E+00  0.1688E+02
      4.037  0.0000E+00  0.1738E+02
      4.212  0.6642E+00  0.1787E+02
      4.388  0.0000E+00  0.1825E+02
      4.564  0.0000E+00  0.1825E+02
      4.739  0.0000E+00  0.1825E+02
      4.915  0.0000E+00  0.1850E+02
      5.091  0.0000E+00  0.1850E+02
      5.267  0.0000E+00  0.1850E+02
      5.442  0.0000E+00  0.1850E+02
      5.618  0.0000E+00  0.1850E+02
      5.794  0.0000E+00  0.1850E+02
      5.969  0.0000E+00  0.1862E+02
      6.145  0.0000E+00  0.1875E+02
      6.321  0.0000E+00  0.1888E+02
      6.497  0.0000E+00  0.1925E+02
      6.672  0.0000E+00  0.1962E+02
      6.848  0.0000E+00  0.1975E+02
      7.024  0.0000E+00  0.1975E+02
      7.200  0.0000E+00  0.1975E+02
      7.375  0.0000E+00  0.2000E+02
      7.551  0.0000E+00  0.2000E+02
      7.727  0.0000E+00  0.2000E+02
      7.902  0.7113E+00  0.2012E+02
      8.078  0.0000E+00  0.2025E+02
      8.254  0.0000E+00  0.2038E+02
      8.430  0.0000E+00  0.2038E+02
      8.605  0.0000E+00  0.2038E+02
      8.781  0.0000E+00  0.2038E+02
      8.957  0.0000E+00  0.2050E+02
      9.133  0.0000E+00  0.2050E+02
      9.308  0.0000E+00  0.2050E+02
      9.484  0.0000E+00  0.2062E+02
      9.660  0.0000E+00  0.2062E+02
      9.835  0.0000E+00  0.2075E+02
     10.011  0.0000E+00  0.2075E+02
     10.187  0.0000E+00  0.2088E+02
     10.363  0.0000E+00  0.2112E+02
     10.538  0.0000E+00  0.2150E+02
     10.714  0.0000E+00  0.2162E+02
     10.890  0.0000E+00  0.2175E+02
     11.066  0.0000E+00  0.2250E+02
     11.241  0.1022E+01  0.2324E+02
     11.417  0.0000E+00  0.2412E+02
     11.593  0.0000E+00  0.2438E+02
     11.768  0.0000E+00  0.2450E+02
     11.944  0.0000E+00  0.2462E+02
     12.120  0.0000E+00  0.2512E+02
     12.296  0.0000E+00  0.2550E+02
     12.471  0.0000E+00  0.2550E+02
     12.647  0.0000E+00  0.2562E+02
     12.823  0.0000E+00  0.2588E+02
     12.999  0.0000E+00  0.2600E+02
     13.174  0.0000E+00  0.2600E+02
     13.350  0.0000E+00  0.2638E+02
     13.526  0.0000E+00  0.2675E+02
     13.701  0.0000E+00  0.2675E+02
     13.877  0.0000E+00  0.2675E+02
     14.053  0.0000E+00  0.2688E+02
     14.229  0.0000E+00  0.2712E+02
     14.404  0.0000E+00  0.2712E+02
     14.580  0.0000E+00  0.2712E+02
     14.756  0.0000E+00  0.2712E+02
     14.931  0.0000E+00  0.2712E+02
     15.107  0.0000E+00  0.2725E+02
     15.283  0.0000E+00  0.2750E+02
     15.459  0.0000E+00  0.2750E+02
     15.634  0.0000E+00  0.2750E+02
     15.810  0.0000E+00  0.2750E+02
     15.986  0.0000E+00  0.2750E+02
     16.162  0.0000E+00  0.2762E+02
     16.337  0.0000E+00  0.2762E+02
     16.513  0.0000E+00  0.2775E+02
     16.689  0.0000E+00  0.2775E+02
     16.864  0.0000E+00  0.2788E+02
     17.040  0.0000E+00  0.2788E+02
     17.216  0.0000E+00  0.2788E+02
     17.392  0.0000E+00  0.2788E+02
     17.567  0.0000E+00  0.2800E+02
     17.743  0.0000E+00  0.2800E+02
     17.919  0.0000E+00  0.2800E+02
     18.095  0.0000E+00  0.2800E+02
     18.270  0.0000E+00  0.2800E+02
     18.446  0.0000E+00  0.2800E+02
     18.622  0.0000E+00  0.2800E+02
     18.797  0.0000E+00  0.2800E+02
     18.973  0.0000E+00  0.2800E+02
     19.149  0.0000E+00  0.2800E+02
     19.325  0.0000E+00  0.2800E+02
     19.500  0.0000E+00  0.2800E+02
     19.676  0.0000E+00  0.2800E+02
     19.852  0.0000E+00  0.2800E+02
