    1    1    1    1
  0.5789729E+02  0.4342346E-09  0.4342346E-09  0.4342346E-09  0.1000000E-15
  1.000000000000000E-004
  CAR 
 Og_FCC                                  
     18     16     28
 
  0.5000000E+00  0.5000000E+00  0.5000000E+00  0.6250000E-01
    1      -30.393223   1.000000
    2      -30.392948   1.000000
    3      -30.209766   1.000000
    4      -30.208972   1.000000
    5      -23.641673   1.000000
    6      -23.638402   1.000000
    7      -23.554151   1.000000
    8      -23.551787   1.000000
    9      -23.429554   1.000000
   10      -23.424069   1.000000
   11      -19.890480   1.000000
   12      -19.890070   1.000000
   13       -6.784369   1.000000
   14       -6.784072   1.000000
   15        1.595122   1.000000
   16        1.595790   1.000000
   17        3.454484   1.000000
   18        3.455466   1.000000
   19        6.456106   0.000000
   20        6.456646   0.000000
   21       10.454233   0.000000
   22       10.454386   0.000000
   23       11.407054   0.000000
   24       11.407610   0.000000
   25       11.968012   0.000000
   26       11.970041   0.000000
   27       14.952173   0.000000
   28       14.953021   0.000000
 
  0.4285714E+00  0.4285714E+00  0.4285714E+00  0.6250000E-01
    1      -30.404411   1.000000
    2      -30.404195   1.000000
    3      -30.292309   1.000000
    4      -30.292069   1.000000
    5      -23.757546   1.000000
    6      -23.757189   1.000000
    7      -23.683765   1.000000
    8      -23.683065   1.000000
    9      -23.526806   1.000000
   10      -23.525828   1.000000
   11      -19.945969   1.000000
   12      -19.945560   1.000000
   13       -6.797502   1.000000
   14       -6.797464   1.000000
   15        1.410541   1.000000
   16        1.411066   1.000000
   17        3.853236   1.000000
   18        3.854336   1.000000
   19        6.519876   0.000000
   20        6.520045   0.000000
   21       10.577775   0.000000
   22       10.578217   0.000000
   23       11.270026   0.000000
   24       11.271380   0.000000
   25       12.035909   0.000000
   26       12.037135   0.000000
   27       13.494068   0.000000
   28       13.494519   0.000000
 
  0.3571429E+00  0.3571429E+00  0.3571429E+00  0.6250000E-01
    1      -30.420828   1.000000
    2      -30.414267   1.000000
    3      -30.368993   1.000000
    4      -30.367546   1.000000
    5      -23.769863   1.000000
    6      -23.763491   1.000000
    7      -23.759619   1.000000
    8      -23.718353   1.000000
    9      -23.589955   1.000000
   10      -23.587018   1.000000
   11      -20.036062   1.000000
   12      -20.025928   1.000000
   13       -7.075422   1.000000
   14       -7.072406   1.000000
   15        1.294474   1.000000
   16        1.300778   1.000000
   17        4.101434   1.000000
   18        4.117344   1.000000
   19        6.363558   0.000000
   20        6.366545   0.000000
   21       10.998069   0.000000
   22       11.002089   0.000000
   23       12.099702   0.000000
   24       12.104572   0.000000
   25       12.677104   0.000000
   26       12.705417   0.000000
   27       14.103168   0.000000
   28       14.112107   0.000000
 
  0.2857143E+00  0.2857143E+00  0.2857143E+00  0.6250000E-01
    1      -30.407801   1.000000
    2      -30.407701   1.000000
    3      -30.308892   1.000000
    4      -30.308789   1.000000
    5      -23.757890   1.000000
    6      -23.757759   1.000000
    7      -23.694258   1.000000
    8      -23.693392   1.000000
    9      -23.651170   1.000000
   10      -23.650262   1.000000
   11      -19.975834   1.000000
   12      -19.975371   1.000000
   13       -6.801724   1.000000
   14       -6.801289   1.000000
   15        1.793596   1.000000
   16        1.794341   1.000000
   17        4.210603   1.000000
   18        4.211403   1.000000
   19        6.329719   0.000000
   20        6.329895   0.000000
   21       10.431142   0.000000
   22       10.431607   0.000000
   23       11.141763   0.000000
   24       11.141968   0.000000
   25       11.848019   0.000000
   26       11.848741   0.000000
   27       13.226242   0.000000
   28       13.227031   0.000000
 
  0.2142857E+00  0.2142857E+00  0.2142857E+00  0.6250000E-01
    1      -30.358329   1.000000
    2      -30.357502   1.000000
    3      -30.187742   1.000000
    4      -30.187656   1.000000
    5      -23.726499   1.000000
    6      -23.724979   1.000000
    7      -23.605711   1.000000
    8      -23.603066   1.000000
    9      -23.340888   1.000000
   10      -23.337643   1.000000
   11      -19.888949   1.000000
   12      -19.888647   1.000000
   13       -6.710758   1.000000
   14       -6.710389   1.000000
   15        2.227624   1.000000
   16        2.228244   1.000000
   17        4.309882   0.670256
   18        4.310506   0.329138
   19        6.178360   0.000000
   20        6.178564   0.000000
   21       10.081729   0.000000
   22       10.081780   0.000000
   23       11.404678   0.000000
   24       11.404803   0.000000
   25       12.128878   0.000000
   26       12.129646   0.000000
   27       12.894973   0.000000
   28       12.895134   0.000000
 
  0.1428571E+00  0.1428571E+00  0.1428571E+00  0.6250000E-01
    1      -30.356980   1.000000
    2      -30.356698   1.000000
    3      -30.211158   1.000000
    4      -30.210797   1.000000
    5      -23.739523   1.000000
    6      -23.738870   1.000000
    7      -23.627722   1.000000
    8      -23.627274   1.000000
    9      -23.461065   1.000000
   10      -23.460116   1.000000
   11      -19.951378   1.000000
   12      -19.951187   1.000000
   13       -6.709180   1.000000
   14       -6.709002   1.000000
   15        2.696966   1.000000
   16        2.697732   1.000000
   17        4.353370   0.000000
   18        4.354329   0.000000
   19        5.803394   0.000000
   20        5.803896   0.000000
   21       10.223922   0.000000
   22       10.224174   0.000000
   23       11.483832   0.000000
   24       11.484247   0.000000
   25       11.987475   0.000000
   26       11.988618   0.000000
   27       13.296438   0.000000
   28       13.298682   0.000000
 
  0.7142857E-01  0.7142857E-01  0.7142857E-01  0.6250000E-01
    1      -30.440119   1.000000
    2      -30.439641   1.000000
    3      -30.409244   1.000000
    4      -30.408901   1.000000
    5      -23.785725   1.000000
    6      -23.783037   1.000000
    7      -23.764659   1.000000
    8      -23.756988   1.000000
    9      -23.741524   1.000000
   10      -23.711195   1.000000
   11      -20.132467   1.000000
   12      -20.128048   1.000000
   13       -6.887505   1.000000
   14       -6.885671   1.000000
   15        3.220007   1.000000
   16        3.221429   1.000000
   17        4.302385   1.000000
   18        4.312481   0.000606
   19        4.843622   0.000000
   20        4.852108   0.000000
   21       10.779738   0.000000
   22       10.782026   0.000000
   23       11.233155   0.000000
   24       11.234779   0.000000
   25       12.126486   0.000000
   26       12.128465   0.000000
   27       12.590732   0.000000
   28       12.595509   0.000000
 
  0.0000000E+00  0.0000000E+00  0.0000000E+00  0.6250000E-01
    1      -30.469649   1.000000
    2      -30.469577   1.000000
    3      -30.467721   1.000000
    4      -30.467675   1.000000
    5      -23.801684   1.000000
    6      -23.801394   1.000000
    7      -23.798212   1.000000
    8      -23.798126   1.000000
    9      -23.796940   1.000000
   10      -23.796155   1.000000
   11      -20.197604   1.000000
   12      -20.197399   1.000000
   13       -6.900205   1.000000
   14       -6.899826   1.000000
   15        3.721960   1.000000
   16        3.722083   1.000000
   17        3.968254   1.000000
   18        3.969468   1.000000
   19        4.042915   1.000000
   20        4.044052   1.000000
   21       10.911820   0.000000
   22       10.912080   0.000000
   23       10.951754   0.000000
   24       10.951960   0.000000
   25       11.197452   0.000000
   26       11.197613   0.000000
   27       11.381167   0.000000
   28       11.381732   0.000000
 
  0.0000000E+00  0.0000000E+00  0.0000000E+00  0.6250000E-01
    1      -30.469618   1.000000
    2      -30.469610   1.000000
    3      -30.467718   1.000000
    4      -30.467678   1.000000
    5      -23.801564   1.000000
    6      -23.801520   1.000000
    7      -23.798292   1.000000
    8      -23.798054   1.000000
    9      -23.797051   1.000000
   10      -23.796046   1.000000
   11      -20.197695   1.000000
   12      -20.197276   1.000000
   13       -6.900207   1.000000
   14       -6.899810   1.000000
   15        3.721965   1.000000
   16        3.722079   1.000000
   17        3.968730   1.000000
   18        3.968983   1.000000
   19        4.043451   1.000000
   20        4.043553   1.000000
   21       10.911935   0.000000
   22       10.911965   0.000000
   23       10.951855   0.000000
   24       10.951911   0.000000
   25       11.197467   0.000000
   26       11.197639   0.000000
   27       11.381236   0.000000
   28       11.381729   0.000000
 
  0.0000000E+00  0.7142857E-01  0.7142857E-01  0.6250000E-01
    1      -30.454417   1.000000
    2      -30.454347   1.000000
    3      -30.441802   1.000000
    4      -30.441754   1.000000
    5      -23.792716   1.000000
    6      -23.792547   1.000000
    7      -23.785050   1.000000
    8      -23.784917   1.000000
    9      -23.779101   1.000000
   10      -23.778906   1.000000
   11      -20.184845   1.000000
   12      -20.184609   1.000000
   13       -6.866854   1.000000
   14       -6.866539   1.000000
   15        3.061430   1.000000
   16        3.062117   1.000000
   17        3.994278   1.000000
   18        3.995622   1.000000
   19        4.854673   0.000000
   20        4.855453   0.000000
   21       10.307671   0.000000
   22       10.307739   0.000000
   23       11.102134   0.000000
   24       11.102385   0.000000
   25       11.622200   0.000000
   26       11.622700   0.000000
   27       13.253961   0.000000
   28       13.254532   0.000000
 
  0.0000000E+00  0.1428571E+00  0.1428571E+00  0.6250000E-01
    1      -30.424471   1.000000
    2      -30.424263   1.000000
    3      -30.367759   1.000000
    4      -30.367634   1.000000
    5      -23.775210   1.000000
    6      -23.774965   1.000000
    7      -23.741105   1.000000
    8      -23.739805   1.000000
    9      -23.683839   1.000000
   10      -23.682852   1.000000
   11      -20.071552   1.000000
   12      -20.071277   1.000000
   13       -6.795322   1.000000
   14       -6.795011   1.000000
   15        2.474494   1.000000
   16        2.475308   1.000000
   17        3.814491   1.000000
   18        3.815672   1.000000
   19        6.007577   0.000000
   20        6.008127   0.000000
   21        9.741346   0.000000
   22        9.741404   0.000000
   23       11.463465   0.000000
   24       11.463784   0.000000
   25       12.251784   0.000000
   26       12.252349   0.000000
   27       13.496733   0.000000
   28       13.497207   0.000000
 
  0.0000000E+00  0.2142857E+00  0.2142857E+00  0.6250000E-01
    1      -30.326840   1.000000
    2      -30.324972   1.000000
    3      -30.138236   1.000000
    4      -30.137461   1.000000
    5      -23.648768   1.000000
    6      -23.645990   1.000000
    7      -23.524165   1.000000
    8      -23.518467   1.000000
    9      -23.332823   1.000000
   10      -23.327989   1.000000
   11      -19.838961   1.000000
   12      -19.838547   1.000000
   13       -6.702132   1.000000
   14       -6.701855   1.000000
   15        2.140294   1.000000
   16        2.141493   1.000000
   17        3.955045   1.000000
   18        3.956457   1.000000
   19        7.236066   0.000000
   20        7.236419   0.000000
   21        9.334765   0.000000
   22        9.336288   0.000000
   23       11.239233   0.000000
   24       11.240440   0.000000
   25       12.754796   0.000000
   26       12.756273   0.000000
   27       14.086058   0.000000
   28       14.089437   0.000000
 
  0.0000000E+00  0.2857143E+00  0.2857143E+00  0.6250000E-01
    1      -30.150478   1.000000
    2      -30.148495   1.000000
    3      -29.724837   1.000000
    4      -29.724108   1.000000
    5      -23.474314   1.000000
    6      -23.466386   1.000000
    7      -23.197607   1.000000
    8      -23.185557   1.000000
    9      -22.756210   1.000000
   10      -22.754022   1.000000
   11      -19.510983   1.000000
   12      -19.510713   1.000000
   13       -6.578029   1.000000
   14       -6.577522   1.000000
   15        1.746521   1.000000
   16        1.746825   1.000000
   17        3.205256   1.000000
   18        3.206179   1.000000
   19        7.337052   0.000000
   20        7.337730   0.000000
   21        8.824379   0.000000
   22        8.824771   0.000000
   23       11.305301   0.000000
   24       11.307178   0.000000
   25       13.357626   0.000000
   26       13.360247   0.000000
   27       15.151198   0.000000
   28       15.152739   0.000000
 
  0.0000000E+00  0.3571429E+00  0.3571429E+00  0.6250000E-01
    1      -30.439409   1.000000
    2      -30.439341   1.000000
    3      -30.365639   1.000000
    4      -30.365584   1.000000
    5      -23.773200   1.000000
    6      -23.772976   1.000000
    7      -23.743831   1.000000
    8      -23.742975   1.000000
    9      -23.700123   1.000000
   10      -23.699910   1.000000
   11      -19.932485   1.000000
   12      -19.932108   1.000000
   13       -7.096284   1.000000
   14       -7.095831   1.000000
   15        1.202784   1.000000
   16        1.203754   1.000000
   17        2.849317   1.000000
   18        2.850361   1.000000
   19        6.825795   0.000000
   20        6.825937   0.000000
   21        8.165635   0.000000
   22        8.165866   0.000000
   23       10.391165   0.000000
   24       10.391802   0.000000
   25       13.973208   0.000000
   26       13.973942   0.000000
   27       16.737413   0.000000
   28       16.738198   0.000000
 
  0.0000000E+00  0.4285714E+00  0.4285714E+00  0.6250000E-01
    1      -30.433055   1.000000
    2      -30.432870   1.000000
    3      -30.390622   1.000000
    4      -30.390510   1.000000
    5      -23.776541   1.000000
    6      -23.776151   1.000000
    7      -23.763676   1.000000
    8      -23.763318   1.000000
    9      -23.694440   1.000000
   10      -23.694151   1.000000
   11      -19.978441   1.000000
   12      -19.978172   1.000000
   13       -7.008732   1.000000
   14       -7.008434   1.000000
   15        1.081536   1.000000
   16        1.082401   1.000000
   17        2.672585   1.000000
   18        2.673823   1.000000
   19        6.663342   0.000000
   20        6.663471   0.000000
   21        7.917416   0.000000
   22        7.917487   0.000000
   23       10.914354   0.000000
   24       10.914785   0.000000
   25       15.215026   0.000000
   26       15.215540   0.000000
   27       16.015753   0.000000
   28       16.015877   0.000000
 
  0.0000000E+00  0.5000000E+00  0.5000000E+00  0.6250000E-01
    1      -30.407033   1.000000
    2      -30.406323   1.000000
    3      -30.342288   1.000000
    4      -30.342142   1.000000
    5      -23.767106   1.000000
    6      -23.766219   1.000000
    7      -23.716953   1.000000
    8      -23.716264   1.000000
    9      -23.600851   1.000000
   10      -23.600109   1.000000
   11      -19.909574   1.000000
   12      -19.909423   1.000000
   13       -6.789396   1.000000
   14       -6.789056   1.000000
   15        1.112193   1.000000
   16        1.113129   1.000000
   17        2.737279   1.000000
   18        2.738559   1.000000
   19        6.539518   0.000000
   20        6.539721   0.000000
   21        7.895393   0.000000
   22        7.895450   0.000000
   23       11.270776   0.000000
   24       11.271561   0.000000
   25       16.357036   0.000000
   26       16.357552   0.000000
   27       17.454963   0.000000
   28       17.455561   0.000000
