       N       E                     dE             d eps       ncg     rms          rms(c)
DAV:   1    -0.643658072831E+01   -0.64366E+01   -0.42755E+02  1416   0.196E+02
   1 F= -.68765428E+01 E0= -.68765268E+01  d E =-.320818E-04  mag=    -0.0006     0.0001     0.0000
