 vasp.5.4.4.18Apr17-6-g9f103f2a35 (build Nov 03 2018 10:20:46) complex          
  
 executed on             LinuxIFC date 2018.12.05  10:22:12
 running on   32 total cores
 distrk:  each k-point on    4 cores,    8 groups
 distr:  one band on NCORES_PER_BAND=   1 cores,    4 groups


--------------------------------------------------------------------------------------------------------


 INCAR:
 POTCAR:    PAW Og, JanMewes Oct 18               

 ----------------------------------------------------------------------------- 
|                                                                             |
|           W    W    AA    RRRRR   N    N  II  N    N   GGGG   !!!           |
|           W    W   A  A   R    R  NN   N  II  NN   N  G    G  !!!           |
|           W    W  A    A  R    R  N N  N  II  N N  N  G       !!!           |
|           W WW W  AAAAAA  RRRRR   N  N N  II  N  N N  G  GGG   !            |
|           WW  WW  A    A  R   R   N   NN  II  N   NN  G    G                |
|           W    W  A    A  R    R  N    N  II  N    N   GGGG   !!!           |
|                                                                             |
|      For optimal performance we recommend to set                            |
|        NCORE= 4 - approx SQRT( number of cores)                             |
|      NCORE specifies how many cores store one orbital (NPAR=cpu/NCORE).     |
|      This setting can  greatly improve the performance of VASP for DFT.     |
|      The default,   NCORE=1            might be grossly inefficient         |
|      on modern multi-core architectures or massively parallel machines.     |
|      Do your own testing !!!!                                               |
|      Unfortunately you need to use the default for GW and RPA calculations. |
|      (for HF NCORE is supported but not extensively tested yet)             |
|                                                                             |
 ----------------------------------------------------------------------------- 


 ----------------------------------------------------------------------------- 
|                                                                             |
|           W    W    AA    RRRRR   N    N  II  N    N   GGGG   !!!           |
|           W    W   A  A   R    R  NN   N  II  NN   N  G    G  !!!           |
|           W    W  A    A  R    R  N N  N  II  N N  N  G       !!!           |
|           W WW W  AAAAAA  RRRRR   N  N N  II  N  N N  G  GGG   !            |
|           WW  WW  A    A  R   R   N   NN  II  N   NN  G    G                |
|           W    W  A    A  R    R  N    N  II  N    N   GGGG   !!!           |
|                                                                             |
|      You have enabled k-point parallelism (KPAR>1).                         |
|      This developmental code was originally  written by Paul Kent at ORNL,  |
|      and carefully double checked in Vienna.                                |
|      GW as well as linear response parallelism added by Martijn Marsman     |
|      and Georg Kresse.                                                      |
|      Carefully verify results versus KPAR=1.                                |
|      Report problems to Paul Kent and Vienna.                               |
|                                                                             |
 ----------------------------------------------------------------------------- 

 POTCAR:    PAW Og, JanMewes Oct 18               
  local pseudopotential read in
  partial core-charges read in
  partial kinetic energy density read in
  kinetic energy density of atom read in
  atomic valenz-charges read in
  non local Contribution for L=           2  read in
    real space projection operators read in
  non local Contribution for L=           2  read in
    real space projection operators read in
  non local Contribution for L=           0  read in
    real space projection operators read in
  non local Contribution for L=           0  read in
    real space projection operators read in
  non local Contribution for L=           1  read in
    real space projection operators read in
  non local Contribution for L=           1  read in
    real space projection operators read in
    PAW grid and wavefunctions read in
 
   number of l-projection  operators is LMAX  =           6
   number of lm-projection operators is LMMAX =          18
 
  PAW Og, JanMewes Oct 18               :
 energy of atom  1       EATOM=-2640.5573
 kinetic energy error for atom=    0.6524 (will be added to EATOM!!)
 
 
 POSCAR: Og_FCC                                  
  positions in direct lattice
  velocities in cartesian coordinates
 exchange correlation table for  LEXCH =        8
   RHO(1)=    0.500       N(1)  =     2000
   RHO(2)=  100.500       N(2)  =     4000
 


--------------------------------------------------------------------------------------------------------


 ion  position               nearest neighbor table
   1  0.000  0.000  0.000-
 

IMPORTANT INFORMATION: All symmetrisations will be switched off!
NOSYMM: (Re-)initialisation of all symmetry stuff for point group C_1.

 
 
 KPOINTS: k-points for bandstructure L-G-X        
  interpolating k-points between supplied coordinates
  k-points in reciprocal lattice
Space group operators:
 irot       det(A)        alpha          n_x          n_y          n_z        tau_x        tau_y        tau_z
    1     1.000000     0.000000     1.000000     0.000000     0.000000     0.000000     0.000000     0.000000


--------------------------------------------------------------------------------------------------------




 Dimension of arrays:
   k-points           NKPTS =     16   k-points in BZ     NKDIM =     16   number of bands    NBANDS=     28
   number of dos      NEDOS =    301   number of ions     NIONS =      1
   non local maximal  LDIM  =      6   non local SUM 2l+1 LMDIM =     18
   total plane-waves  NPLWV =  21952
   max r-space proj   IRMAX =      1   max aug-charges    IRDMAX= 182324
   dimension x,y,z NGX =    28 NGY =   28 NGZ =   28
   dimension x,y,z NGXF=    56 NGYF=   56 NGZF=   56
   support grid    NGXF=   112 NGYF=  112 NGZF=  112
   ions per type =               1
   NGX,Y,Z   is equivalent  to a cutoff of  10.72, 10.72, 10.72 a.u.
   NGXF,Y,Z  is equivalent  to a cutoff of  21.44, 21.44, 21.44 a.u.

 SYSTEM =  Og_FCC                                  
 POSCAR =  Og_FCC                                  

 Startparameter for this run:
   NWRITE =      1    write-flag & timer
   PREC   = accura    normal or accurate (medium, high low for compatibility)
   ISTART =      1    job   : 0-new  1-cont  2-samecut
   ICHARG =     11    charge: 1-file 2-atom 10-const
   ISPIN  =      1    spin polarized calculation?
   LNONCOLLINEAR =      T non collinear calculations
   LSORBIT =      T    spin-orbit coupling
   INIWAV =      1    electr: 0-lowe 1-rand  2-diag
   LASPH  =      F    aspherical Exc in radial PAW
   METAGGA=      F    non-selfconsistent MetaGGA calc.

 Electronic Relaxation 1
   ENCUT  =  300.0 eV  22.05 Ry    4.70 a.u.   6.13  6.13  6.13*2*pi/ulx,y,z
   ENINI  =  300.0     initial cutoff
   ENAUG  =  361.0 eV  augmentation charge cutoff
   NELM   =      1;   NELMIN=  2; NELMDL=  0     # of ELM steps 
   EDIFF  = 0.1E-07   stopping-criterion for ELM
   LREAL  =      F    real-space projection
   NLSPLINE    = F    spline interpolate recip. space projectors
   LCOMPAT=      F    compatible to vasp.4.4
   GGA_COMPAT  = F    GGA compatible to vasp.4.4-vasp.4.6
   LMAXPAW     = -100 max onsite density
   LMAXMIX     =    2 max onsite mixed and CHGCAR
   VOSKOWN=      0    Vosko Wilk Nusair interpolation
   ROPT   =    0.00000
 Ionic relaxation
   EDIFFG = 0.1E-04   stopping-criterion for IOM
   NSW    =      1    number of steps for IOM
   NBLOCK =      1;   KBLOCK =      1    inner block; outer block 
   IBRION =     -1    ionic relax: 0-MD 1-quasi-New 2-CG
   NFREE  =      5    steps in history (QN), initial steepest desc. (CG)
   ISIF   =      3    stress and relaxation
   IWAVPR =     10    prediction:  0-non 1-charg 2-wave 3-comb
   ISYM   =      0    0-nonsym 1-usesym 2-fastsym
   LCORR  =      T    Harris-Foulkes like correction to forces

   POTIM  = 0.1000    time-step for ionic-motion
   TEIN   =    0.0    initial temperature
   TEBEG  =    0.0;   TEEND  =   0.0 temperature during run
   SMASS  =  -3.00    Nose mass-parameter (am)
   estimated Nose-frequenzy (Omega)   =  0.10E-29 period in steps =****** mass=  -0.431E-27a.u.
   SCALEE = 1.0000    scale energy and forces
   NPACO  =    256;   APACO  = 16.0  distance and # of slots for P.C.
   PSTRESS=    0.0 pullay stress

  Mass of Ions in am
   POMASS =   0.01
  Ionic Valenz
   ZVAL   =  18.00
  Atomic Wigner-Seitz radii
   RWIGS  =  -1.00
  virtual crystal weights 
   VCA    =   1.00
   NELECT =      18.0000    total number of electrons
   NUPDOWN=      -1.0000    fix difference up-down

 DOS related values:
   EMIN   =  10.00;   EMAX   =-10.00  energy-range for DOS
   EFERMI =   0.00
   ISMEAR =     0;   SIGMA  =   0.00  broadening in eV -4-tet -1-fermi 0-gaus

 Electronic relaxation 2 (details)
   IALGO  =     38    algorithm
   LDIAG  =      T    sub-space diagonalisation (order eigenvalues)
   LSUBROT=      F    optimize rotation matrix (better conditioning)
   TURBO    =      0    0=normal 1=particle mesh
   IRESTART =      0    0=no restart 2=restart with 2 vectors
   NREBOOT  =      0    no. of reboots
   NMIN     =      0    reboot dimension
   EREF     =   0.00    reference energy to select bands
   IMIX   =      4    mixing-type and parameters
     AMIX     =   0.40;   BMIX     =  1.00
     AMIX_MAG =   1.60;   BMIX_MAG =  1.00
     AMIN     =   0.10
     WC   =   100.;   INIMIX=   1;  MIXPRE=   1;  MAXMIX=  50

 Intra band minimization:
   WEIMIN = 0.0000     energy-eigenvalue tresh-hold
   EBREAK =  0.89E-10  absolut break condition
   DEPER  =   0.30     relativ break condition  

   TIME   =   0.40     timestep for ELM

  volume/ion in A,a.u.               =      57.90       390.71
  Fermi-wavevector in a.u.,A,eV,Ry     =   1.109038  2.095777 16.734680  1.229964
  Thomas-Fermi vector in A             =   2.245572
 
 Write flags
   LWAVE        =      F    write WAVECAR
   LDOWNSAMPLE  =      F    k-point downsampling of WAVECAR
   LCHARG       =      F    write CHGCAR
   LVTOT        =      F    write LOCPOT, total local potential
   LVHAR        =      F    write LOCPOT, Hartree potential only
   LELF         =      F    write electronic localiz. function (ELF)
   LORBIT       =      0    0 simple, 1 ext, 2 COOP (PROOUT), +10 PAW based schemes


 Dipole corrections
   LMONO  =      F    monopole corrections only (constant potential shift)
   LDIPOL =      F    correct potential (dipole corrections)
   IDIPOL =      0    1-x, 2-y, 3-z, 4-all directions 
   EPSILON=  1.0000000 bulk dielectric constant

 Exchange correlation treatment:
   GGA     =    PE    GGA type
   LEXCH   =     8    internal setting for exchange type
   VOSKOWN=      0    Vosko Wilk Nusair interpolation
   LHFCALC =     F    Hartree Fock is set to
   LHFONE  =     F    Hartree Fock one center treatment
   AEXX    =    0.0000 exact exchange contribution

 Linear response parameters
   LEPSILON=     F    determine dielectric tensor
   LRPA    =     F    only Hartree local field effects (RPA)
   LNABLA  =     F    use nabla operator in PAW spheres
   LVEL    =     F    velocity operator in full k-point grid
   LINTERFAST=   F  fast interpolation
   KINTER  =     0    interpolate to denser k-point grid
   CSHIFT  =0.1000    complex shift for real part using Kramers Kronig
   OMEGAMAX=  -1.0    maximum frequency
   DEG_THRESHOLD= 0.2000000E-02 threshold for treating states as degnerate
   RTIME   =   -0.100 relaxation time in fs
  (WPLASMAI=    0.000 imaginary part of plasma frequency in eV, 0.658/RTIME)
   DFIELD  = 0.0000000 0.0000000 0.0000000 field for delta impulse in time
 
 Orbital magnetization related:
   ORBITALMAG=     F  switch on orbital magnetization
   LCHIMAG   =     F  perturbation theory with respect to B field
   DQ        =  0.001000  dq finite difference perturbation B field
   LLRAUG    =     F  two centre corrections for induced B field



--------------------------------------------------------------------------------------------------------


 Static calculation
 charge density and potential remain constant during run
 non collinear spin polarized calculation
 Variant of blocked Davidson
 Davidson routine will perform the subspace rotation
 perform sub-space diagonalisation
    after iterative eigenvector-optimisation
 no mixing
 using additional bands           19
 reciprocal scheme for non local part
 use partial core corrections
 calculate Harris-corrections to forces 
   (improved forces if not selfconsistent)
 use gradient corrections 
 WARNING: stress and forces are not correct
  (second derivative of E(xc) not defined)
 use of overlap-Matrix (Vanderbilt PP)
 Gauss-broadening in eV      SIGMA  =   0.00


--------------------------------------------------------------------------------------------------------


  energy-cutoff  :      300.00
  volume of cell :       57.90
      direct lattice vectors                 reciprocal lattice vectors
     4.342345876  0.000000000  0.000000000     0.230290269 -0.132958149 -0.094015609
     2.171172938  3.760581840 -0.000000000     0.000000000  0.265916298 -0.094015609
     2.171172938  1.253527280  3.545510561    -0.000000000  0.000000000  0.282046826

  length of vectors
     4.342345876  4.342345876  4.342345876     0.282046826  0.282046826  0.282046826


 
 old parameters found on file WAVECAR:
  energy-cutoff  :      300.00
  volume of cell :       57.90
      direct lattice vectors                 reciprocal lattice vectors
     4.342345876  0.000000000  0.000000000     0.230290269 -0.132958149 -0.094015609
     2.171172938  3.760581840 -0.000000000     0.000000000  0.265916298 -0.094015609
     2.171172938  1.253527280  3.545510561    -0.000000000  0.000000000  0.282046826

  length of vectors

 
 k-points in units of 2pi/SCALE and weight: k-points for bandstructure L-G-X        
   0.11514513  0.06647907  0.04700780       0.062
   0.09869583  0.05698206  0.04029240       0.062
   0.08224652  0.04748505  0.03357700       0.062
   0.06579722  0.03798804  0.02686160       0.062
   0.04934791  0.02849103  0.02014620       0.062
   0.03289861  0.01899402  0.01343080       0.062
   0.01644930  0.00949701  0.00671540       0.062
   0.00000000  0.00000000  0.00000000       0.062
   0.00000000  0.00000000  0.00000000       0.062
  -0.00000000  0.01899402  0.01343080       0.062
  -0.00000000  0.03798804  0.02686160       0.062
  -0.00000000  0.05698206  0.04029240       0.062
  -0.00000000  0.07597609  0.05372320       0.062
  -0.00000000  0.09497011  0.06715401       0.062
  -0.00000000  0.11396413  0.08058481       0.062
  -0.00000000  0.13295815  0.09401561       0.062
 
 k-points in reciprocal lattice and weights: k-points for bandstructure L-G-X        
   0.50000000  0.50000000  0.50000000       0.062
   0.42857143  0.42857143  0.42857143       0.062
   0.35714286  0.35714286  0.35714286       0.062
   0.28571429  0.28571429  0.28571429       0.062
   0.21428571  0.21428571  0.21428571       0.062
   0.14285714  0.14285714  0.14285714       0.062
   0.07142857  0.07142857  0.07142857       0.062
   0.00000000  0.00000000  0.00000000       0.062
   0.00000000  0.00000000  0.00000000       0.062
   0.00000000  0.07142857  0.07142857       0.062
   0.00000000  0.14285714  0.14285714       0.062
   0.00000000  0.21428571  0.21428571       0.062
   0.00000000  0.28571429  0.28571429       0.062
   0.00000000  0.35714286  0.35714286       0.062
   0.00000000  0.42857143  0.42857143       0.062
   0.00000000  0.50000000  0.50000000       0.062
 
 position of ions in fractional coordinates (direct lattice) 
   0.00000000  0.00000000  0.00000000
 
 position of ions in cartesian coordinates  (Angst):
   0.00000000  0.00000000  0.00000000
 
 Euler angles ALPHA=     0.0000000  BETA=     0.0000000

 transformation matrix from SAXIS to cartesian coordinates
 ---------------------------------------------------------
     1.0000000 m_x     0.0000000 m_y     0.0000000 m_z
     0.0000000 m_x     1.0000000 m_y     0.0000000 m_z
     0.0000000 m_x     0.0000000 m_y     1.0000000 m_z

 transformation matrix from cartesian coordinates to SAXIS
 ---------------------------------------------------------
     1.0000000 m_x     0.0000000 m_y     0.0000000 m_z
     0.0000000 m_x     1.0000000 m_y     0.0000000 m_z
     0.0000000 m_x     0.0000000 m_y     1.0000000 m_z




--------------------------------------------------------------------------------------------------------


 k-point  1 :   0.5000 0.5000 0.5000  plane waves:    1400
 k-point  2 :   0.4286 0.4286 0.4286  plane waves:    1364
 k-point  3 :   0.3571 0.3571 0.3571  plane waves:    1352
 k-point  4 :   0.2857 0.2857 0.2857  plane waves:    1364
 k-point  5 :   0.2143 0.2143 0.2143  plane waves:    1346
 k-point  6 :   0.1429 0.1429 0.1429  plane waves:    1346
 k-point  7 :   0.0714 0.0714 0.0714  plane waves:    1370
 k-point  8 :   0.0000 0.0000 0.0000  plane waves:    1402
 k-point  9 :   0.0000 0.0000 0.0000  plane waves:    1402
 k-point 10 :   0.0000 0.0714 0.0714  plane waves:    1362
 k-point 11 :   0.0000 0.1429 0.1429  plane waves:    1354
 k-point 12 :   0.0000 0.2143 0.2143  plane waves:    1362
 k-point 13 :   0.0000 0.2857 0.2857  plane waves:    1370
 k-point 14 :   0.0000 0.3571 0.3571  plane waves:    1368
 k-point 15 :   0.0000 0.4286 0.4286  plane waves:    1368
 k-point 16 :   0.0000 0.5000 0.5000  plane waves:    1384

 maximum and minimum number of plane-waves per node :      1402     1346

 maximum number of plane-waves:      1402
 maximum index in each direction: 
   IXMAX=    6   IYMAX=    6   IZMAX=    6
   IXMIN=   -6   IYMIN=   -6   IZMIN=   -6


 serial   3D FFT for wavefunctions
 parallel 3D FFT for charge:
    minimum data exchange during FFTs selected (reduces bandwidth)


 total amount of memory used by VASP MPI-rank0    59880. kBytes
=======================================================================

   base      :      30000. kBytes
   nonl-proj :       1633. kBytes
   fftplans  :      12947. kBytes
   grid      :      12644. kBytes
   one-center:         62. kBytes
   wavefun   :       2594. kBytes
 
     INWAV:  cpu time    0.0839: real time    0.0966
 initial charge density was supplied:
 number of electron      18.0000000 magnetization      -0.0005685      0.0000897      0.0000388
 keeping initial charge density in first step


--------------------------------------------------------------------------------------------------------


 Maximum index for augmentation-charges        44167 (set IRDMAX)


--------------------------------------------------------------------------------------------------------


 First call to EWALD:  gamma=   0.458
 Maximum number of real-space cells 3x 3x 3
 Maximum number of reciprocal cells 3x 3x 3

    FEWALD:  cpu time    0.0021: real time    0.0021


--------------------------------------- Iteration      1(   1)  ---------------------------------------


    POTLOK:  cpu time    0.2019: real time    0.2033
    SETDIJ:  cpu time    0.3517: real time    0.3537
     EDDAV:  cpu time    0.2581: real time    0.2586
       DOS:  cpu time    0.0007: real time    0.0007
    --------------------------------------------
      LOOP:  cpu time    0.8124: real time    0.8163

 eigenvalue-minimisations  :  1416
 total energy-change (2. order) :-0.6436581E+01  (-0.4275472E+02)
 number of electron      18.0000000 magnetization      -0.0005685      0.0000897      0.0000388
 augmentation part       18.0000000 magnetization      -0.0005685      0.0000897      0.0000388

 Free energy of the ion-electron system (eV)
  ---------------------------------------------------
  alpha Z        PSCENC =        65.89697999
  Ewald energy   TEWEN  =     -1741.63824267
  -Hartree energ DENC   =      -672.04789813
  -exchange      EXHF   =         0.00000000
  -V(xc)+E(xc)   XCENC  =       -68.73281984
  PAW double counting   =      2336.10829606    -2260.71252966
  entropy T*S    EENTRO =        -0.00003208
  eigenvalues    EBANDS =      -305.21525845
  atomic energy  EATOM  =      2639.90492407
  Solvation  Ediel_sol  =         0.00000000
  ---------------------------------------------------
  free energy    TOTEN  =        -6.43658073 eV

  energy without entropy =       -6.43654865  energy(sigma->0) =       -6.43656469


--------------------------------------------------------------------------------------------------------




 average (electrostatic) potential at core
  the test charge radii are     1.2024
  (the norm of the test charge is              1.0000)
       1-110.0729
 
 
 
 E-fermi :   4.3102     XC(G=0):  -8.2296     alpha+bet : -7.5793


 k-point     1 :       0.5000    0.5000    0.5000
  band No.  band energies     occupation 
      1     -30.3932      1.00000
      2     -30.3929      1.00000
      3     -30.2098      1.00000
      4     -30.2090      1.00000
      5     -23.6417      1.00000
      6     -23.6384      1.00000
      7     -23.5542      1.00000
      8     -23.5518      1.00000
      9     -23.4296      1.00000
     10     -23.4241      1.00000
     11     -19.8905      1.00000
     12     -19.8901      1.00000
     13      -6.7844      1.00000
     14      -6.7841      1.00000
     15       1.5951      1.00000
     16       1.5958      1.00000
     17       3.4545      1.00000
     18       3.4555      1.00000
     19       6.4561      0.00000
     20       6.4566      0.00000
     21      10.4542      0.00000
     22      10.4544      0.00000
     23      11.4071      0.00000
     24      11.4076      0.00000
     25      11.9680      0.00000
     26      11.9700      0.00000
     27      14.9522      0.00000
     28      14.9530      0.00000

 k-point     2 :       0.4286    0.4286    0.4286
  band No.  band energies     occupation 
      1     -30.4044      1.00000
      2     -30.4042      1.00000
      3     -30.2923      1.00000
      4     -30.2921      1.00000
      5     -23.7575      1.00000
      6     -23.7572      1.00000
      7     -23.6838      1.00000
      8     -23.6831      1.00000
      9     -23.5268      1.00000
     10     -23.5258      1.00000
     11     -19.9460      1.00000
     12     -19.9456      1.00000
     13      -6.7975      1.00000
     14      -6.7975      1.00000
     15       1.4105      1.00000
     16       1.4111      1.00000
     17       3.8532      1.00000
     18       3.8543      1.00000
     19       6.5199      0.00000
     20       6.5200      0.00000
     21      10.5778      0.00000
     22      10.5782      0.00000
     23      11.2700      0.00000
     24      11.2714      0.00000
     25      12.0359      0.00000
     26      12.0371      0.00000
     27      13.4941      0.00000
     28      13.4945      0.00000

 k-point     3 :       0.3571    0.3571    0.3571
  band No.  band energies     occupation 
      1     -30.4208      1.00000
      2     -30.4143      1.00000
      3     -30.3690      1.00000
      4     -30.3675      1.00000
      5     -23.7699      1.00000
      6     -23.7635      1.00000
      7     -23.7596      1.00000
      8     -23.7184      1.00000
      9     -23.5900      1.00000
     10     -23.5870      1.00000
     11     -20.0361      1.00000
     12     -20.0259      1.00000
     13      -7.0754      1.00000
     14      -7.0724      1.00000
     15       1.2945      1.00000
     16       1.3008      1.00000
     17       4.1014      1.00000
     18       4.1173      1.00000
     19       6.3636      0.00000
     20       6.3665      0.00000
     21      10.9981      0.00000
     22      11.0021      0.00000
     23      12.0997      0.00000
     24      12.1046      0.00000
     25      12.6771      0.00000
     26      12.7054      0.00000
     27      14.1032      0.00000
     28      14.1121      0.00000

 k-point     4 :       0.2857    0.2857    0.2857
  band No.  band energies     occupation 
      1     -30.4078      1.00000
      2     -30.4077      1.00000
      3     -30.3089      1.00000
      4     -30.3088      1.00000
      5     -23.7579      1.00000
      6     -23.7578      1.00000
      7     -23.6943      1.00000
      8     -23.6934      1.00000
      9     -23.6512      1.00000
     10     -23.6503      1.00000
     11     -19.9758      1.00000
     12     -19.9754      1.00000
     13      -6.8017      1.00000
     14      -6.8013      1.00000
     15       1.7936      1.00000
     16       1.7943      1.00000
     17       4.2106      1.00000
     18       4.2114      1.00000
     19       6.3297      0.00000
     20       6.3299      0.00000
     21      10.4311      0.00000
     22      10.4316      0.00000
     23      11.1418      0.00000
     24      11.1420      0.00000
     25      11.8480      0.00000
     26      11.8487      0.00000
     27      13.2262      0.00000
     28      13.2270      0.00000

 k-point     5 :       0.2143    0.2143    0.2143
  band No.  band energies     occupation 
      1     -30.3583      1.00000
      2     -30.3575      1.00000
      3     -30.1877      1.00000
      4     -30.1877      1.00000
      5     -23.7265      1.00000
      6     -23.7250      1.00000
      7     -23.6057      1.00000
      8     -23.6031      1.00000
      9     -23.3409      1.00000
     10     -23.3376      1.00000
     11     -19.8889      1.00000
     12     -19.8886      1.00000
     13      -6.7108      1.00000
     14      -6.7104      1.00000
     15       2.2276      1.00000
     16       2.2282      1.00000
     17       4.3099      0.67026
     18       4.3105      0.32914
     19       6.1784      0.00000
     20       6.1786      0.00000
     21      10.0817      0.00000
     22      10.0818      0.00000
     23      11.4047      0.00000
     24      11.4048      0.00000
     25      12.1289      0.00000
     26      12.1296      0.00000
     27      12.8950      0.00000
     28      12.8951      0.00000

 k-point     6 :       0.1429    0.1429    0.1429
  band No.  band energies     occupation 
      1     -30.3570      1.00000
      2     -30.3567      1.00000
      3     -30.2112      1.00000
      4     -30.2108      1.00000
      5     -23.7395      1.00000
      6     -23.7389      1.00000
      7     -23.6277      1.00000
      8     -23.6273      1.00000
      9     -23.4611      1.00000
     10     -23.4601      1.00000
     11     -19.9514      1.00000
     12     -19.9512      1.00000
     13      -6.7092      1.00000
     14      -6.7090      1.00000
     15       2.6970      1.00000
     16       2.6977      1.00000
     17       4.3534      0.00000
     18       4.3543      0.00000
     19       5.8034      0.00000
     20       5.8039      0.00000
     21      10.2239      0.00000
     22      10.2242      0.00000
     23      11.4838      0.00000
     24      11.4842      0.00000
     25      11.9875      0.00000
     26      11.9886      0.00000
     27      13.2964      0.00000
     28      13.2987      0.00000

 k-point     7 :       0.0714    0.0714    0.0714
  band No.  band energies     occupation 
      1     -30.4401      1.00000
      2     -30.4396      1.00000
      3     -30.4092      1.00000
      4     -30.4089      1.00000
      5     -23.7857      1.00000
      6     -23.7830      1.00000
      7     -23.7647      1.00000
      8     -23.7570      1.00000
      9     -23.7415      1.00000
     10     -23.7112      1.00000
     11     -20.1325      1.00000
     12     -20.1280      1.00000
     13      -6.8875      1.00000
     14      -6.8857      1.00000
     15       3.2200      1.00000
     16       3.2214      1.00000
     17       4.3024      1.00000
     18       4.3125      0.00061
     19       4.8436      0.00000
     20       4.8521      0.00000
     21      10.7797      0.00000
     22      10.7820      0.00000
     23      11.2332      0.00000
     24      11.2348      0.00000
     25      12.1265      0.00000
     26      12.1285      0.00000
     27      12.5907      0.00000
     28      12.5955      0.00000

 k-point     8 :       0.0000    0.0000    0.0000
  band No.  band energies     occupation 
      1     -30.4696      1.00000
      2     -30.4696      1.00000
      3     -30.4677      1.00000
      4     -30.4677      1.00000
      5     -23.8017      1.00000
      6     -23.8014      1.00000
      7     -23.7982      1.00000
      8     -23.7981      1.00000
      9     -23.7969      1.00000
     10     -23.7962      1.00000
     11     -20.1976      1.00000
     12     -20.1974      1.00000
     13      -6.9002      1.00000
     14      -6.8998      1.00000
     15       3.7220      1.00000
     16       3.7221      1.00000
     17       3.9683      1.00000
     18       3.9695      1.00000
     19       4.0429      1.00000
     20       4.0441      1.00000
     21      10.9118      0.00000
     22      10.9121      0.00000
     23      10.9518      0.00000
     24      10.9520      0.00000
     25      11.1975      0.00000
     26      11.1976      0.00000
     27      11.3812      0.00000
     28      11.3817      0.00000

 k-point     9 :       0.0000    0.0000    0.0000
  band No.  band energies     occupation 
      1     -30.4696      1.00000
      2     -30.4696      1.00000
      3     -30.4677      1.00000
      4     -30.4677      1.00000
      5     -23.8016      1.00000
      6     -23.8015      1.00000
      7     -23.7983      1.00000
      8     -23.7981      1.00000
      9     -23.7971      1.00000
     10     -23.7960      1.00000
     11     -20.1977      1.00000
     12     -20.1973      1.00000
     13      -6.9002      1.00000
     14      -6.8998      1.00000
     15       3.7220      1.00000
     16       3.7221      1.00000
     17       3.9687      1.00000
     18       3.9690      1.00000
     19       4.0435      1.00000
     20       4.0436      1.00000
     21      10.9119      0.00000
     22      10.9120      0.00000
     23      10.9519      0.00000
     24      10.9519      0.00000
     25      11.1975      0.00000
     26      11.1976      0.00000
     27      11.3812      0.00000
     28      11.3817      0.00000

 k-point    10 :       0.0000    0.0714    0.0714
  band No.  band energies     occupation 
      1     -30.4544      1.00000
      2     -30.4543      1.00000
      3     -30.4418      1.00000
      4     -30.4418      1.00000
      5     -23.7927      1.00000
      6     -23.7925      1.00000
      7     -23.7850      1.00000
      8     -23.7849      1.00000
      9     -23.7791      1.00000
     10     -23.7789      1.00000
     11     -20.1848      1.00000
     12     -20.1846      1.00000
     13      -6.8669      1.00000
     14      -6.8665      1.00000
     15       3.0614      1.00000
     16       3.0621      1.00000
     17       3.9943      1.00000
     18       3.9956      1.00000
     19       4.8547      0.00000
     20       4.8555      0.00000
     21      10.3077      0.00000
     22      10.3077      0.00000
     23      11.1021      0.00000
     24      11.1024      0.00000
     25      11.6222      0.00000
     26      11.6227      0.00000
     27      13.2540      0.00000
     28      13.2545      0.00000

 k-point    11 :       0.0000    0.1429    0.1429
  band No.  band energies     occupation 
      1     -30.4245      1.00000
      2     -30.4243      1.00000
      3     -30.3678      1.00000
      4     -30.3676      1.00000
      5     -23.7752      1.00000
      6     -23.7750      1.00000
      7     -23.7411      1.00000
      8     -23.7398      1.00000
      9     -23.6838      1.00000
     10     -23.6829      1.00000
     11     -20.0716      1.00000
     12     -20.0713      1.00000
     13      -6.7953      1.00000
     14      -6.7950      1.00000
     15       2.4745      1.00000
     16       2.4753      1.00000
     17       3.8145      1.00000
     18       3.8157      1.00000
     19       6.0076      0.00000
     20       6.0081      0.00000
     21       9.7413      0.00000
     22       9.7414      0.00000
     23      11.4635      0.00000
     24      11.4638      0.00000
     25      12.2518      0.00000
     26      12.2523      0.00000
     27      13.4967      0.00000
     28      13.4972      0.00000

 k-point    12 :       0.0000    0.2143    0.2143
  band No.  band energies     occupation 
      1     -30.3268      1.00000
      2     -30.3250      1.00000
      3     -30.1382      1.00000
      4     -30.1375      1.00000
      5     -23.6488      1.00000
      6     -23.6460      1.00000
      7     -23.5242      1.00000
      8     -23.5185      1.00000
      9     -23.3328      1.00000
     10     -23.3280      1.00000
     11     -19.8390      1.00000
     12     -19.8385      1.00000
     13      -6.7021      1.00000
     14      -6.7019      1.00000
     15       2.1403      1.00000
     16       2.1415      1.00000
     17       3.9550      1.00000
     18       3.9565      1.00000
     19       7.2361      0.00000
     20       7.2364      0.00000
     21       9.3348      0.00000
     22       9.3363      0.00000
     23      11.2392      0.00000
     24      11.2404      0.00000
     25      12.7548      0.00000
     26      12.7563      0.00000
     27      14.0861      0.00000
     28      14.0894      0.00000

 k-point    13 :       0.0000    0.2857    0.2857
  band No.  band energies     occupation 
      1     -30.1505      1.00000
      2     -30.1485      1.00000
      3     -29.7248      1.00000
      4     -29.7241      1.00000
      5     -23.4743      1.00000
      6     -23.4664      1.00000
      7     -23.1976      1.00000
      8     -23.1856      1.00000
      9     -22.7562      1.00000
     10     -22.7540      1.00000
     11     -19.5110      1.00000
     12     -19.5107      1.00000
     13      -6.5780      1.00000
     14      -6.5775      1.00000
     15       1.7465      1.00000
     16       1.7468      1.00000
     17       3.2053      1.00000
     18       3.2062      1.00000
     19       7.3371      0.00000
     20       7.3377      0.00000
     21       8.8244      0.00000
     22       8.8248      0.00000
     23      11.3053      0.00000
     24      11.3072      0.00000
     25      13.3576      0.00000
     26      13.3602      0.00000
     27      15.1512      0.00000
     28      15.1527      0.00000

 k-point    14 :       0.0000    0.3571    0.3571
  band No.  band energies     occupation 
      1     -30.4394      1.00000
      2     -30.4393      1.00000
      3     -30.3656      1.00000
      4     -30.3656      1.00000
      5     -23.7732      1.00000
      6     -23.7730      1.00000
      7     -23.7438      1.00000
      8     -23.7430      1.00000
      9     -23.7001      1.00000
     10     -23.6999      1.00000
     11     -19.9325      1.00000
     12     -19.9321      1.00000
     13      -7.0963      1.00000
     14      -7.0958      1.00000
     15       1.2028      1.00000
     16       1.2038      1.00000
     17       2.8493      1.00000
     18       2.8504      1.00000
     19       6.8258      0.00000
     20       6.8259      0.00000
     21       8.1656      0.00000
     22       8.1659      0.00000
     23      10.3912      0.00000
     24      10.3918      0.00000
     25      13.9732      0.00000
     26      13.9739      0.00000
     27      16.7374      0.00000
     28      16.7382      0.00000

 k-point    15 :       0.0000    0.4286    0.4286
  band No.  band energies     occupation 
      1     -30.4331      1.00000
      2     -30.4329      1.00000
      3     -30.3906      1.00000
      4     -30.3905      1.00000
      5     -23.7765      1.00000
      6     -23.7762      1.00000
      7     -23.7637      1.00000
      8     -23.7633      1.00000
      9     -23.6944      1.00000
     10     -23.6942      1.00000
     11     -19.9784      1.00000
     12     -19.9782      1.00000
     13      -7.0087      1.00000
     14      -7.0084      1.00000
     15       1.0815      1.00000
     16       1.0824      1.00000
     17       2.6726      1.00000
     18       2.6738      1.00000
     19       6.6633      0.00000
     20       6.6635      0.00000
     21       7.9174      0.00000
     22       7.9175      0.00000
     23      10.9144      0.00000
     24      10.9148      0.00000
     25      15.2150      0.00000
     26      15.2155      0.00000
     27      16.0158      0.00000
     28      16.0159      0.00000

 k-point    16 :       0.0000    0.5000    0.5000
  band No.  band energies     occupation 
      1     -30.4070      1.00000
      2     -30.4063      1.00000
      3     -30.3423      1.00000
      4     -30.3421      1.00000
      5     -23.7671      1.00000
      6     -23.7662      1.00000
      7     -23.7170      1.00000
      8     -23.7163      1.00000
      9     -23.6009      1.00000
     10     -23.6001      1.00000
     11     -19.9096      1.00000
     12     -19.9094      1.00000
     13      -6.7894      1.00000
     14      -6.7891      1.00000
     15       1.1122      1.00000
     16       1.1131      1.00000
     17       2.7373      1.00000
     18       2.7386      1.00000
     19       6.5395      0.00000
     20       6.5397      0.00000
     21       7.8954      0.00000
     22       7.8954      0.00000
     23      11.2708      0.00000
     24      11.2716      0.00000
     25      16.3570      0.00000
     26      16.3576      0.00000
     27      17.4550      0.00000
     28      17.4556      0.00000


--------------------------------------------------------------------------------------------------------


 soft charge-density along one line, spin component           1
         0         1         2         3         4         5         6         7         8         9
 total charge-density along one line
 
 soft charge-density along one line, spin component           2
         0         1         2         3         4         5         6         7         8         9
 total charge-density along one line
 
 soft charge-density along one line, spin component           3
         0         1         2         3         4         5         6         7         8         9
 total charge-density along one line
 
 soft charge-density along one line, spin component           4
         0         1         2         3         4         5         6         7         8         9
 total charge-density along one line
 
 pseudopotential strength for first ion, spin component:           1
-21.250   0.000  -0.000   0.000  -0.000   0.000  -0.000   0.000   0.000   2.703   7.402   0.000   0.000   0.000   0.000   0.000
 -0.000   0.000 -21.250   0.000   0.000   0.000   0.000   1.352  -0.000   0.000   0.000   0.000   7.402   0.000  -0.000   0.000
 -0.000   0.000   0.000   0.000 -21.250   0.000  -0.000   0.000   0.000   0.000   0.000   0.000  -0.000   0.000   7.402   0.000
 -0.000   0.000   0.000  -1.352  -0.000   0.000 -21.250   0.000  -0.000   0.000   0.000   0.000  -0.000   1.018   0.000   0.000
  0.000  -2.703  -0.000   0.000   0.000   0.000  -0.000   0.000 -21.250   0.000  -0.000   2.036   0.000   0.000  -0.000   0.000
  7.402   0.000   0.000   0.000   0.000   0.000   0.000   0.000  -0.000  -2.036  20.520   0.000   0.000   0.000  -0.000   0.000
  0.000   0.000   7.402   0.000  -0.000   0.000  -0.000  -1.018   0.000   0.000   0.000   0.000  20.520   0.000   0.000   0.000
  0.000   0.000  -0.000   0.000   7.402   0.000   0.000   0.000  -0.000   0.000  -0.000   0.000   0.000   0.000  20.520   0.000
  0.000   0.000  -0.000   1.018   0.000   0.000   7.402   0.000   0.000   0.000   0.000   0.000  -0.000  -0.767  -0.000   0.000
 -0.000   2.036   0.000   0.000  -0.000   0.000   0.000   0.000   7.402   0.000  -0.000  -1.535   0.000   0.000   0.000   0.000
 -0.000   0.000   0.000   0.000  -0.000   0.000   0.000   0.000   0.000   0.000  -0.000   0.000  -0.000   0.000   0.000   0.000
 -0.000   0.000  -0.000   0.000   0.000   0.000   0.000   0.000   0.000   0.000   0.000   0.000   0.000   0.000  -0.000   0.000
  0.000   0.000  -0.000   0.000  -0.000   0.000  -0.000   0.000  -0.000   0.000  -0.000   0.000   0.000   0.000   0.000   0.000
 -0.000   0.000   0.000   0.000  -0.000   0.000   0.000   0.000  -0.000   0.000  -0.000   0.000  -0.000   0.000   0.000   0.000
  0.000   0.000  -0.000   0.000  -0.000   0.000  -0.000   0.000   0.000   0.000  -0.000   0.000  -0.000   0.000   0.000   0.000
  0.000   0.000  -0.000   0.000  -0.000   0.000  -0.000   0.000  -0.000   0.000   0.000   0.000  -0.000   0.000  -0.000   0.000
 -0.000   0.000   0.000   0.000  -0.000   0.000   0.000   0.000  -0.000   0.000  -0.000   0.000   0.000   0.000  -0.000   0.000
  0.000   0.000  -0.000   0.000  -0.000   0.000  -0.000   0.000   0.000   0.000   0.000   0.000  -0.000   0.000  -0.000   0.000
 pseudopotential strength for first ion, spin component:           2
  0.000   0.000   1.352  -0.000   0.000   0.000   0.000  -1.352  -0.000   0.000  -0.000  -0.000  -1.018   0.000  -0.000  -0.000
 -1.352  -0.000   0.000  -0.000   0.000  -2.341  -0.000  -0.000  -0.000  -1.352   1.018   0.000  -0.000   0.000  -0.000   1.763
  0.000   0.000   0.000   2.341  -0.000  -0.000  -2.341  -0.000   0.000  -0.000  -0.000  -0.000  -0.000  -1.763   0.000   0.000
  0.000   1.352  -0.000  -0.000   2.341  -0.000  -0.000   0.000  -1.352  -0.000  -0.000  -1.018   0.000   0.000  -1.763   0.000
 -0.000   0.000  -0.000   1.352   0.000  -0.000   1.352  -0.000   0.000   0.000   0.000  -0.000   0.000  -1.018  -0.000   0.000
 -0.000  -0.000  -1.018   0.000  -0.000  -0.000  -0.000   1.018   0.000  -0.000   0.000  -0.000   0.767   0.000  -0.000  -0.000
  1.018   0.000  -0.000   0.000  -0.000   1.763   0.000   0.000   0.000   1.018  -0.767   0.000  -0.000   0.000   0.000  -1.329
 -0.000  -0.000  -0.000  -1.763   0.000   0.000   1.763   0.000  -0.000   0.000  -0.000  -0.000   0.000   1.329   0.000   0.000
 -0.000  -1.018   0.000   0.000  -1.763   0.000   0.000  -0.000   1.018   0.000  -0.000   0.767  -0.000  -0.000   1.329  -0.000
  0.000  -0.000   0.000  -1.018  -0.000   0.000  -1.018   0.000  -0.000  -0.000   0.000  -0.000   0.000   0.767   0.000  -0.000
  0.000   0.000  -0.000   0.000   0.000   0.000   0.000   0.000   0.000  -0.000   0.000   0.000  -0.000   0.000   0.000   0.000
  0.000   0.000  -0.000   0.000   0.000   0.000   0.000   0.000   0.000  -0.000  -0.000  -0.000   0.000  -0.000  -0.000  -0.000
 -0.000   0.000  -0.000  -0.000  -0.000  -0.000  -0.000  -0.000  -0.000  -0.000  -0.000   0.000  -0.000  -0.000  -0.000  -0.000
 -0.000  -0.000   0.000   0.000   0.000   0.000  -0.000  -0.000   0.000  -0.000  -0.000  -0.000   0.000   0.000   0.000   0.000
  0.000   0.000  -0.000  -0.000   0.000  -0.000   0.000  -0.000  -0.000   0.000   0.000   0.000  -0.000  -0.000   0.000  -0.000
 -0.000   0.000   0.000  -0.000  -0.000  -0.000  -0.000  -0.000  -0.000  -0.000  -0.000   0.000  -0.000  -0.000  -0.000  -0.000
 -0.000  -0.000   0.000   0.000   0.000   0.000  -0.000   0.000   0.000  -0.000  -0.000  -0.000   0.000   0.000   0.000   0.000
  0.000   0.000  -0.000  -0.000   0.000  -0.000   0.000  -0.000  -0.000   0.000   0.000   0.000  -0.000  -0.000   0.000  -0.000
 pseudopotential strength for first ion, spin component:           3
  0.000  -0.000  -1.352   0.000   0.000  -0.000   0.000  -1.352  -0.000  -0.000  -0.000   0.000   1.018  -0.000  -0.000   0.000
  1.352   0.000   0.000   0.000   0.000  -2.341  -0.000   0.000  -0.000  -1.352  -1.018  -0.000  -0.000  -0.000  -0.000   1.763
  0.000  -0.000   0.000   2.341  -0.000   0.000   2.341   0.000   0.000   0.000  -0.000   0.000  -0.000  -1.763   0.000  -0.000
  0.000   1.352  -0.000   0.000  -2.341   0.000  -0.000  -0.000   1.352   0.000  -0.000  -1.018   0.000  -0.000   1.763  -0.000
 -0.000  -0.000  -0.000   1.352   0.000   0.000  -1.352   0.000   0.000  -0.000   0.000   0.000   0.000  -1.018  -0.000  -0.000
 -0.000   0.000   1.018  -0.000  -0.000   0.000  -0.000   1.018   0.000   0.000   0.000   0.000  -0.767  -0.000  -0.000   0.000
 -1.018  -0.000  -0.000  -0.000  -0.000   1.763   0.000  -0.000   0.000   1.018   0.767  -0.000  -0.000  -0.000   0.000  -1.329
 -0.000   0.000  -0.000  -1.763   0.000  -0.000  -1.763  -0.000  -0.000  -0.000  -0.000   0.000   0.000   1.329   0.000  -0.000
 -0.000  -1.018   0.000  -0.000   1.763  -0.000   0.000   0.000  -1.018  -0.000  -0.000   0.767  -0.000   0.000  -1.329   0.000
  0.000   0.000   0.000  -1.018  -0.000  -0.000   1.018  -0.000  -0.000   0.000   0.000   0.000   0.000   0.767   0.000   0.000
  0.000  -0.000  -0.000  -0.000   0.000  -0.000   0.000  -0.000   0.000   0.000   0.000  -0.000  -0.000  -0.000   0.000  -0.000
  0.000  -0.000  -0.000  -0.000   0.000  -0.000   0.000  -0.000   0.000   0.000  -0.000   0.000   0.000   0.000  -0.000   0.000
 -0.000  -0.000  -0.000   0.000  -0.000   0.000  -0.000   0.000  -0.000   0.000  -0.000  -0.000  -0.000   0.000  -0.000   0.000
 -0.000   0.000   0.000  -0.000   0.000  -0.000  -0.000   0.000   0.000   0.000  -0.000   0.000   0.000  -0.000   0.000  -0.000
  0.000  -0.000  -0.000   0.000   0.000   0.000   0.000   0.000  -0.000  -0.000   0.000  -0.000  -0.000   0.000   0.000   0.000
 -0.000  -0.000   0.000   0.000  -0.000   0.000  -0.000   0.000  -0.000   0.000  -0.000  -0.000  -0.000   0.000  -0.000   0.000
 -0.000   0.000   0.000  -0.000   0.000  -0.000  -0.000  -0.000   0.000   0.000  -0.000   0.000   0.000  -0.000   0.000  -0.000
  0.000  -0.000  -0.000   0.000   0.000   0.000   0.000   0.000  -0.000  -0.000   0.000  -0.000  -0.000   0.000   0.000   0.000
 pseudopotential strength for first ion, spin component:           4
-21.250   0.000   0.000   0.000   0.000   0.000  -0.000   0.000  -0.000  -2.703   7.402   0.000  -0.000   0.000  -0.000   0.000
  0.000   0.000 -21.250   0.000  -0.000   0.000  -0.000  -1.352  -0.000   0.000  -0.000   0.000   7.402   0.000   0.000   0.000
  0.000   0.000  -0.000   0.000 -21.250   0.000   0.000   0.000  -0.000   0.000  -0.000   0.000   0.000   0.000   7.402   0.000
 -0.000   0.000  -0.000   1.352   0.000   0.000 -21.250   0.000   0.000   0.000   0.000   0.000   0.000  -1.018  -0.000   0.000
 -0.000   2.703  -0.000   0.000  -0.000   0.000   0.000   0.000 -21.250   0.000   0.000  -2.036   0.000   0.000   0.000   0.000
  7.402   0.000  -0.000   0.000  -0.000   0.000   0.000   0.000   0.000   2.036  20.520   0.000  -0.000   0.000   0.000   0.000
 -0.000   0.000   7.402   0.000   0.000   0.000   0.000   1.018   0.000   0.000  -0.000   0.000  20.520   0.000   0.000   0.000
 -0.000   0.000   0.000   0.000   7.402   0.000  -0.000   0.000   0.000   0.000   0.000   0.000   0.000   0.000  20.520   0.000
  0.000   0.000   0.000  -1.018  -0.000   0.000   7.402   0.000  -0.000   0.000   0.000   0.000   0.000   0.767   0.000   0.000
  0.000  -2.036   0.000   0.000   0.000   0.000  -0.000   0.000   7.402   0.000   0.000   1.535   0.000   0.000  -0.000   0.000
  0.000   0.000   0.000   0.000  -0.000   0.000  -0.000   0.000  -0.000   0.000   0.000   0.000   0.000   0.000  -0.000   0.000
  0.000   0.000   0.000   0.000  -0.000   0.000  -0.000   0.000  -0.000   0.000  -0.000   0.000  -0.000   0.000   0.000   0.000
  0.000   0.000  -0.000   0.000  -0.000   0.000  -0.000   0.000  -0.000   0.000  -0.000   0.000   0.000   0.000   0.000   0.000
 -0.000   0.000   0.000   0.000  -0.000   0.000   0.000   0.000  -0.000   0.000  -0.000   0.000  -0.000   0.000   0.000   0.000
  0.000   0.000  -0.000   0.000  -0.000   0.000  -0.000   0.000   0.000   0.000  -0.000   0.000  -0.000   0.000   0.000   0.000
  0.000   0.000  -0.000   0.000  -0.000   0.000  -0.000   0.000  -0.000   0.000   0.000   0.000  -0.000   0.000  -0.000   0.000
 -0.000   0.000   0.000   0.000  -0.000   0.000   0.000   0.000  -0.000   0.000  -0.000   0.000   0.000   0.000  -0.000   0.000
  0.000   0.000  -0.000   0.000  -0.000   0.000  -0.000   0.000   0.000   0.000   0.000   0.000  -0.000   0.000  -0.000   0.000
 total augmentation occupancy for first ion, spin component:           1
  2.000   0.000   0.000   0.000   0.000   0.000   0.000   0.000   0.000   0.000   0.000   0.000   0.000   0.000   0.000   0.000
  0.000   2.000   0.000   0.000   0.000   0.000   0.000   0.000   0.000   0.000   0.000   0.000   0.000   0.000   0.000   0.000
  0.000   0.000   2.000   0.000   0.000   0.000   0.000   0.000   0.000   0.000   0.000   0.000   0.000   0.000   0.000   0.000
  0.000   0.000   0.000   2.000   0.000   0.000   0.000   0.000   0.000   0.000   0.000   0.000   0.000   0.000   0.000   0.000
  0.000   0.000   0.000   0.000   2.000   0.000   0.000   0.000   0.000   0.000   0.000   0.000   0.000   0.000   0.000   0.000
  0.000   0.000   0.000   0.000   0.000   0.000   0.000   0.000   0.000   0.000   0.000   0.000   0.000   0.000   0.000   0.000
  0.000   0.000   0.000   0.000   0.000   0.000   0.000   0.000   0.000   0.000   0.000   0.000   0.000   0.000   0.000   0.000
  0.000   0.000   0.000   0.000   0.000   0.000   0.000   0.000   0.000   0.000   0.000   0.000   0.000   0.000   0.000   0.000
  0.000   0.000   0.000   0.000   0.000   0.000   0.000   0.000   0.000   0.000   0.000   0.000   0.000   0.000   0.000   0.000
  0.000   0.000   0.000   0.000   0.000   0.000   0.000   0.000   0.000   0.000   0.000   0.000   0.000   0.000   0.000   0.000
  0.000   0.000   0.000   0.000   0.000   0.000   0.000   0.000   0.000   0.000   2.000   0.000   0.000   0.000   0.000   0.000
  0.000   0.000   0.000   0.000   0.000   0.000   0.000   0.000   0.000   0.000   0.000   0.000   0.000   0.000   0.000   0.000
  0.000   0.000   0.000   0.000   0.000   0.000   0.000   0.000   0.000   0.000   0.000   0.000   2.000   0.000   0.000   0.000
  0.000   0.000   0.000   0.000   0.000   0.000   0.000   0.000   0.000   0.000   0.000   0.000   0.000   2.000   0.000   0.000
  0.000   0.000   0.000   0.000   0.000   0.000   0.000   0.000   0.000   0.000   0.000   0.000   0.000   0.000   2.000   0.000
  0.000   0.000   0.000   0.000   0.000   0.000   0.000   0.000   0.000   0.000   0.000   0.000   0.000   0.000   0.000   0.000
  0.000   0.000   0.000   0.000   0.000   0.000   0.000   0.000   0.000   0.000   0.000   0.000   0.000   0.000   0.000   0.000
  0.000   0.000   0.000   0.000   0.000   0.000   0.000   0.000   0.000   0.000   0.000   0.000   0.000   0.000   0.000   0.000
 total augmentation occupancy for first ion, spin component:           2
  0.111   0.000   0.000   0.000   0.000   0.000   0.000   0.000   0.000   0.000   0.000   0.000   0.000   0.000   0.000   0.000
  0.000   0.111   0.000   0.000   0.000   0.000   0.000   0.000   0.000   0.000   0.000   0.000   0.000   0.000   0.000   0.000
  0.000   0.000   0.111   0.000   0.000   0.000   0.000   0.000   0.000   0.000   0.000   0.000   0.000   0.000   0.000   0.000
  0.000   0.000   0.000   0.111   0.000   0.000   0.000   0.000   0.000   0.000   0.000   0.000   0.000   0.000   0.000   0.000
  0.000   0.000   0.000   0.000   0.111   0.000   0.000   0.000   0.000   0.000   0.000   0.000   0.000   0.000   0.000   0.000
  0.000   0.000   0.000   0.000   0.000   0.000   0.000   0.000   0.000   0.000   0.000   0.000   0.000   0.000   0.000   0.000
  0.000   0.000   0.000   0.000   0.000   0.000   0.000   0.000   0.000   0.000   0.000   0.000   0.000   0.000   0.000   0.000
  0.000   0.000   0.000   0.000   0.000   0.000   0.000   0.000   0.000   0.000   0.000   0.000   0.000   0.000   0.000   0.000
  0.000   0.000   0.000   0.000   0.000   0.000   0.000   0.000   0.000   0.000   0.000   0.000   0.000   0.000   0.000   0.000
  0.000   0.000   0.000   0.000   0.000   0.000   0.000   0.000   0.000   0.000   0.000   0.000   0.000   0.000   0.000   0.000
  0.000   0.000   0.000   0.000   0.000   0.000   0.000   0.000   0.000   0.000   0.111   0.000   0.000   0.000   0.000   0.000
  0.000   0.000   0.000   0.000   0.000   0.000   0.000   0.000   0.000   0.000   0.000   0.000   0.000   0.000   0.000   0.000
  0.000   0.000   0.000   0.000   0.000   0.000   0.000   0.000   0.000   0.000   0.000   0.000   0.111   0.000   0.000   0.000
  0.000   0.000   0.000   0.000   0.000   0.000   0.000   0.000   0.000   0.000   0.000   0.000   0.000   0.111   0.000   0.000
  0.000   0.000   0.000   0.000   0.000   0.000   0.000   0.000   0.000   0.000   0.000   0.000   0.000   0.000   0.111   0.000
  0.000   0.000   0.000   0.000   0.000   0.000   0.000   0.000   0.000   0.000   0.000   0.000   0.000   0.000   0.000   0.000
  0.000   0.000   0.000   0.000   0.000   0.000   0.000   0.000   0.000   0.000   0.000   0.000   0.000   0.000   0.000   0.000
  0.000   0.000   0.000   0.000   0.000   0.000   0.000   0.000   0.000   0.000   0.000   0.000   0.000   0.000   0.000   0.000
 total augmentation occupancy for first ion, spin component:           3
  0.111   0.000   0.000   0.000   0.000   0.000   0.000   0.000   0.000   0.000   0.000   0.000   0.000   0.000   0.000   0.000
  0.000   0.111   0.000   0.000   0.000   0.000   0.000   0.000   0.000   0.000   0.000   0.000   0.000   0.000   0.000   0.000
  0.000   0.000   0.111   0.000   0.000   0.000   0.000   0.000   0.000   0.000   0.000   0.000   0.000   0.000   0.000   0.000
  0.000   0.000   0.000   0.111   0.000   0.000   0.000   0.000   0.000   0.000   0.000   0.000   0.000   0.000   0.000   0.000
  0.000   0.000   0.000   0.000   0.111   0.000   0.000   0.000   0.000   0.000   0.000   0.000   0.000   0.000   0.000   0.000
  0.000   0.000   0.000   0.000   0.000   0.000   0.000   0.000   0.000   0.000   0.000   0.000   0.000   0.000   0.000   0.000
  0.000   0.000   0.000   0.000   0.000   0.000   0.000   0.000   0.000   0.000   0.000   0.000   0.000   0.000   0.000   0.000
  0.000   0.000   0.000   0.000   0.000   0.000   0.000   0.000   0.000   0.000   0.000   0.000   0.000   0.000   0.000   0.000
  0.000   0.000   0.000   0.000   0.000   0.000   0.000   0.000   0.000   0.000   0.000   0.000   0.000   0.000   0.000   0.000
  0.000   0.000   0.000   0.000   0.000   0.000   0.000   0.000   0.000   0.000   0.000   0.000   0.000   0.000   0.000   0.000
  0.000   0.000   0.000   0.000   0.000   0.000   0.000   0.000   0.000   0.000   0.111   0.000   0.000   0.000   0.000   0.000
  0.000   0.000   0.000   0.000   0.000   0.000   0.000   0.000   0.000   0.000   0.000   0.000   0.000   0.000   0.000   0.000
  0.000   0.000   0.000   0.000   0.000   0.000   0.000   0.000   0.000   0.000   0.000   0.000   0.111   0.000   0.000   0.000
  0.000   0.000   0.000   0.000   0.000   0.000   0.000   0.000   0.000   0.000   0.000   0.000   0.000   0.111   0.000   0.000
  0.000   0.000   0.000   0.000   0.000   0.000   0.000   0.000   0.000   0.000   0.000   0.000   0.000   0.000   0.111   0.000
  0.000   0.000   0.000   0.000   0.000   0.000   0.000   0.000   0.000   0.000   0.000   0.000   0.000   0.000   0.000   0.000
  0.000   0.000   0.000   0.000   0.000   0.000   0.000   0.000   0.000   0.000   0.000   0.000   0.000   0.000   0.000   0.000
  0.000   0.000   0.000   0.000   0.000   0.000   0.000   0.000   0.000   0.000   0.000   0.000   0.000   0.000   0.000   0.000
 total augmentation occupancy for first ion, spin component:           4
  0.111   0.000   0.000   0.000   0.000   0.000   0.000   0.000   0.000   0.000   0.000   0.000   0.000   0.000   0.000   0.000
  0.000   0.111   0.000   0.000   0.000   0.000   0.000   0.000   0.000   0.000   0.000   0.000   0.000   0.000   0.000   0.000
  0.000   0.000   0.111   0.000   0.000   0.000   0.000   0.000   0.000   0.000   0.000   0.000   0.000   0.000   0.000   0.000
  0.000   0.000   0.000   0.111   0.000   0.000   0.000   0.000   0.000   0.000   0.000   0.000   0.000   0.000   0.000   0.000
  0.000   0.000   0.000   0.000   0.111   0.000   0.000   0.000   0.000   0.000   0.000   0.000   0.000   0.000   0.000   0.000
  0.000   0.000   0.000   0.000   0.000   0.000   0.000   0.000   0.000   0.000   0.000   0.000   0.000   0.000   0.000   0.000
  0.000   0.000   0.000   0.000   0.000   0.000   0.000   0.000   0.000   0.000   0.000   0.000   0.000   0.000   0.000   0.000
  0.000   0.000   0.000   0.000   0.000   0.000   0.000   0.000   0.000   0.000   0.000   0.000   0.000   0.000   0.000   0.000
  0.000   0.000   0.000   0.000   0.000   0.000   0.000   0.000   0.000   0.000   0.000   0.000   0.000   0.000   0.000   0.000
  0.000   0.000   0.000   0.000   0.000   0.000   0.000   0.000   0.000   0.000   0.000   0.000   0.000   0.000   0.000   0.000
  0.000   0.000   0.000   0.000   0.000   0.000   0.000   0.000   0.000   0.000   0.111   0.000   0.000   0.000   0.000   0.000
  0.000   0.000   0.000   0.000   0.000   0.000   0.000   0.000   0.000   0.000   0.000   0.000   0.000   0.000   0.000   0.000
  0.000   0.000   0.000   0.000   0.000   0.000   0.000   0.000   0.000   0.000   0.000   0.000   0.111   0.000   0.000   0.000
  0.000   0.000   0.000   0.000   0.000   0.000   0.000   0.000   0.000   0.000   0.000   0.000   0.000   0.111   0.000   0.000
  0.000   0.000   0.000   0.000   0.000   0.000   0.000   0.000   0.000   0.000   0.000   0.000   0.000   0.000   0.111   0.000
  0.000   0.000   0.000   0.000   0.000   0.000   0.000   0.000   0.000   0.000   0.000   0.000   0.000   0.000   0.000   0.000
  0.000   0.000   0.000   0.000   0.000   0.000   0.000   0.000   0.000   0.000   0.000   0.000   0.000   0.000   0.000   0.000
  0.000   0.000   0.000   0.000   0.000   0.000   0.000   0.000   0.000   0.000   0.000   0.000   0.000   0.000   0.000   0.000


------------------------ aborting loop because EDIFF is reached ----------------------------------------


    CHARGE:  cpu time    0.3905: real time    0.3910
    FORLOC:  cpu time    0.0026: real time    0.0024
    FORNL :  cpu time    2.0479: real time    2.0620
    STRESS:  cpu time    6.4952: real time    6.5316
    FORCOR:  cpu time    0.1742: real time    0.1747
    FORHAR:  cpu time    0.0147: real time    0.0147
    OFIELD:  cpu time    0.0015: real time    0.0013

 ---------------------------------------------------------------------------------------------

         DFTD3 V3.0 Rev 1        
 IVDW         = 12
 DF pbe       
 parameters
 VDW_S6       =    1.0000
 VDW_S8       =    0.7875
 VDW_A1       =    0.4289
 VDW_A2       =    4.4407
 k1-k3        =   16.0000    1.3333   -4.0000
 VDW_RADIUS   =   50.2022 A
 VDW_CNRADIUS =   21.1671 A
 Edisp (eV)   -0.43996

 E6    (eV) :    -0.2176
 E8    (eV) :    -0.2224
 % E8        : 50.54
    FORVDW:  cpu time    0.0195: real time    0.0197

  FORCE on cell =-STRESS in cart. coord.  units (eV):
  Direction    XX          YY          ZZ          XY          YZ          ZX
  --------------------------------------------------------------------------------------
  Alpha Z    65.89698    65.89698    65.89698
  Ewald    -580.54610  -580.54610  -580.54610     0.00000    -0.00000    -0.00000
  Hartree   227.39176   225.51866   224.58353     1.79072    -1.17237     1.56179
  E(xc)    -111.20586  -111.17370  -111.18707     0.05087     0.01512     0.02363
  Local    -156.68326  -152.77192  -152.66664    -1.41128     5.79681    -1.91940
  n-local   106.87704   105.16015   106.27490    -2.03808    -1.21067    -0.93017
  augment    79.06800    78.93865    78.52202     0.06257     1.16058     0.02748
  Kinetic   394.87009   394.37315   396.81725    -0.00744    -2.69545     0.18890
  Fock        0.00000     0.00000     0.00000     0.00000     0.00000     0.00000
  vdW        -0.44923    -0.44923    -0.44923     0.00000    -0.00000    -0.00000
  -------------------------------------------------------------------------------------
  Total      25.21942    24.94663    27.24563    -1.55263     1.89403    -1.04776
  in kB     697.89069   690.34199   753.96158   -42.96566    52.41290   -28.99452
  external pressure =      714.06 kB  Pullay stress =        0.00 kB


 VOLUME and BASIS-vectors are now :
 -----------------------------------------------------------------------------
  energy-cutoff  :      300.00
  volume of cell :       57.90
      direct lattice vectors                 reciprocal lattice vectors
     4.342345876  0.000000000  0.000000000     0.230290269 -0.132958149 -0.094015609
     2.171172938  3.760581840 -0.000000000     0.000000000  0.265916298 -0.094015609
     2.171172938  1.253527280  3.545510561    -0.000000000  0.000000000  0.282046826

  length of vectors
     4.342345876  4.342345876  4.342345876     0.282046826  0.282046826  0.282046826


 FORCES acting on ions
    electron-ion (+dipol)            ewald-force                    non-local-force                 convergence-correction
 -----------------------------------------------------------------------------------------------
   0.132E-02 0.257E-01 -.488E-01   0.498E-15 0.105E-14 0.672E-15   0.293E-03 0.206E-01 0.480E-01   -.178E-02 0.493E-02 0.155E-04
 -----------------------------------------------------------------------------------------------
   0.132E-02 0.257E-01 -.488E-01   0.498E-15 0.105E-14 0.672E-15   0.293E-03 0.206E-01 0.480E-01   -.178E-02 0.493E-02 0.155E-04
 
 
 POSITION                                       TOTAL-FORCE (eV/Angst)
 -----------------------------------------------------------------------------------
      0.00000      0.00000      0.00000        -0.000170      0.051175     -0.000729
 -----------------------------------------------------------------------------------
    total drift:                               -0.000170      0.051175     -0.000729


--------------------------------------------------------------------------------------------------------



  FREE ENERGIE OF THE ION-ELECTRON SYSTEM (eV)
  ---------------------------------------------------
  free  energy   TOTEN  =        -6.87654282 eV

  energy  without entropy=       -6.87651074  energy(sigma->0) =       -6.87652678
 


--------------------------------------------------------------------------------------------------------


    POTLOK:  cpu time    0.5611: real time    0.5639


--------------------------------------------------------------------------------------------------------


     LOOP+:  cpu time   10.8685: real time   10.9288
    4ORBIT:  cpu time    0.0000: real time    0.0000

 Spin-Orbit-Coupling matrix elements

 Ion:    1  E_soc:    -32.5966076
 l=   1
     0.0000000    -5.0559157    -5.0214495
    -5.0559157     0.0000000    -5.0098048
    -5.0214495    -5.0098048     0.0000000
 l=   2
     0.0000000    -0.0793839     0.0000000    -0.0806525    -0.3284218
    -0.0793839     0.0000000    -0.2442491    -0.0821775    -0.0794090
     0.0000000    -0.2442491     0.0000000    -0.2364103     0.0000000
    -0.0806525    -0.0821775    -0.2364103     0.0000000    -0.0804298
    -0.3284218    -0.0794090     0.0000000    -0.0804298     0.0000000
 l=   3
     0.0000000     0.0000000     0.0000000     0.0000000     0.0000000     0.0000000     0.0000000
     0.0000000     0.0000000     0.0000000     0.0000000     0.0000000     0.0000000     0.0000000
     0.0000000     0.0000000     0.0000000     0.0000000     0.0000000     0.0000000     0.0000000
     0.0000000     0.0000000     0.0000000     0.0000000     0.0000000     0.0000000     0.0000000
     0.0000000     0.0000000     0.0000000     0.0000000     0.0000000     0.0000000     0.0000000
     0.0000000     0.0000000     0.0000000     0.0000000     0.0000000     0.0000000     0.0000000
     0.0000000     0.0000000     0.0000000     0.0000000     0.0000000     0.0000000     0.0000000

 total amount of memory used by VASP MPI-rank0    59880. kBytes
=======================================================================

   base      :      30000. kBytes
   nonl-proj :       1633. kBytes
   fftplans  :      12947. kBytes
   grid      :      12644. kBytes
   one-center:         62. kBytes
   wavefun   :       2594. kBytes
 
  
  
 General timing and accounting informations for this job:
 ========================================================
  
                  Total CPU time used (sec):       15.496
                            User time (sec):       11.487
                          System time (sec):        4.009
                         Elapsed time (sec):       13.295
  
                   Maximum memory used (kb):      142536.
                   Average memory used (kb):           0.
  
                          Minor page faults:        98765
                          Major page faults:            0
                 Voluntary context switches:         7503
