<?xml version="1.0" encoding="ISO-8859-1"?>
<modeling>
 <generator>
  <i name="program" type="string">vasp </i>
  <i name="version" type="string">5.4.4.18Apr17-6-g9f103f2a35  </i>
  <i name="subversion" type="string">(build Nov 03 2018 10:20:46) complex            parallel </i>
  <i name="platform" type="string">LinuxIFC </i>
  <i name="date" type="string">2018 12 05 </i>
  <i name="time" type="string">10:22:12 </i>
 </generator>
 <incar>
  <i type="string" name="SYSTEM">   Og_FCC</i>
  <i type="string" name="PREC">accurate</i>
  <i type="logical" name="ADDGRID"> T  </i>
  <i type="logical" name="LSORBIT"> T  </i>
  <i type="int" name="ISPIN">     1</i>
  <i type="int" name="MAXMIX">    50</i>
  <i type="int" name="ICHARG">    11</i>
  <i type="int" name="NELM">     1</i>
  <i type="int" name="IBRION">    -1</i>
  <i type="int" name="NFREE">     5</i>
  <i name="EDIFF">      0.00000001</i>
  <i name="EDIFFG">      0.00001000</i>
  <i type="int" name="NSW">     1</i>
  <i type="int" name="ISIF">     3</i>
  <i type="int" name="ISYM">     0</i>
  <i name="SYMPREC">      0.00000010</i>
  <i name="ENCUT">    300.00000000</i>
  <i name="POTIM">      0.10000000</i>
  <i type="logical" name="LREAL"> F  </i>
  <i type="int" name="ISMEAR">     0</i>
  <i name="SIGMA">      0.00100000</i>
  <i type="int" name="NWRITE">     1</i>
  <i type="logical" name="LWAVE"> F  </i>
  <i type="logical" name="LCHARG"> F  </i>
  <i type="logical" name="LVTOT"> F  </i>
  <i type="logical" name="GGA_COMPAT"> F  </i>
  <v type="int" name="KPOINT_BSE">    -1     0     0     0</v>
  <i type="int" name="NELM">     1</i>
  <i type="string" name="GGA"> PE</i>
 </incar>
 <structure name="primitive_cell" >
  <crystal>
   <varray name="basis" >
    <v>       4.34234588       0.00000000       0.00000000 </v>
    <v>       2.17117294       3.76058184      -0.00000000 </v>
    <v>       2.17117294       1.25352728       3.54551056 </v>
   </varray>
   <i name="volume">     57.89729060 </i>
   <varray name="rec_basis" >
    <v>       0.23029027      -0.13295815      -0.09401561 </v>
    <v>       0.00000000       0.26591630      -0.09401561 </v>
    <v>      -0.00000000       0.00000000       0.28204683 </v>
   </varray>
  </crystal>
  <varray name="positions" >
   <v>       0.00000000       0.00000000       0.00000000 </v>
  </varray>
 </structure>
 <varray name="primitive_index" >
  <v type="int" >        1 </v>
 </varray>
 <kpoints>
  <generation param="listgenerated">
   <i name="divisions" type="int">       8 </i>
   <v>       0.50000000       0.50000000       0.50000000 </v>
   <v>       0.00000000       0.00000000       0.00000000 </v>
   <v>       0.00000000       0.50000000       0.50000000 </v>
  </generation>
  <varray name="kpointlist" >
   <v>       0.50000000       0.50000000       0.50000000 </v>
   <v>       0.42857143       0.42857143       0.42857143 </v>
   <v>       0.35714286       0.35714286       0.35714286 </v>
   <v>       0.28571429       0.28571429       0.28571429 </v>
   <v>       0.21428571       0.21428571       0.21428571 </v>
   <v>       0.14285714       0.14285714       0.14285714 </v>
   <v>       0.07142857       0.07142857       0.07142857 </v>
   <v>       0.00000000       0.00000000       0.00000000 </v>
   <v>       0.00000000       0.00000000       0.00000000 </v>
   <v>       0.00000000       0.07142857       0.07142857 </v>
   <v>       0.00000000       0.14285714       0.14285714 </v>
   <v>       0.00000000       0.21428571       0.21428571 </v>
   <v>       0.00000000       0.28571429       0.28571429 </v>
   <v>       0.00000000       0.35714286       0.35714286 </v>
   <v>       0.00000000       0.42857143       0.42857143 </v>
   <v>       0.00000000       0.50000000       0.50000000 </v>
  </varray>
  <varray name="weights" >
   <v>       0.06250000 </v>
   <v>       0.06250000 </v>
   <v>       0.06250000 </v>
   <v>       0.06250000 </v>
   <v>       0.06250000 </v>
   <v>       0.06250000 </v>
   <v>       0.06250000 </v>
   <v>       0.06250000 </v>
   <v>       0.06250000 </v>
   <v>       0.06250000 </v>
   <v>       0.06250000 </v>
   <v>       0.06250000 </v>
   <v>       0.06250000 </v>
   <v>       0.06250000 </v>
   <v>       0.06250000 </v>
   <v>       0.06250000 </v>
  </varray>
 </kpoints>
 <parameters>
  <separator name="general" >
   <i type="string" name="SYSTEM">Og_FCC</i>
   <i type="logical" name="LCOMPAT"> F  </i>
  </separator>
  <separator name="electronic" >
   <i type="string" name="PREC">accura</i>
   <i name="ENMAX">    300.00000000</i>
   <i name="ENAUG">    361.02500000</i>
   <i name="EDIFF">      0.00000001</i>
   <i type="int" name="IALGO">    38</i>
   <i type="int" name="IWAVPR">    10</i>
   <i type="int" name="NBANDS">    28</i>
   <i name="NELECT">     18.00000000</i>
   <i type="int" name="TURBO">     0</i>
   <i type="int" name="IRESTART">     0</i>
   <i type="int" name="NREBOOT">     0</i>
   <i type="int" name="NMIN">     0</i>
   <i name="EREF">      0.00000000</i>
   <separator name="electronic smearing" >
    <i type="int" name="ISMEAR">     0</i>
    <i name="SIGMA">      0.00100000</i>
    <i name="KSPACING">      0.50000000</i>
    <i type="logical" name="KGAMMA"> T  </i>
   </separator>
   <separator name="electronic projectors" >
    <i type="logical" name="LREAL"> F  </i>
    <v name="ROPT">      0.00000000</v>
    <i type="int" name="LMAXPAW">  -100</i>
    <i type="int" name="LMAXMIX">     2</i>
    <i type="logical" name="NLSPLINE"> F  </i>
   </separator>
   <separator name="electronic startup" >
    <i type="int" name="ISTART">     1</i>
    <i type="int" name="ICHARG">    11</i>
    <i type="int" name="INIWAV">     1</i>
   </separator>
   <separator name="electronic spin" >
    <i type="int" name="ISPIN">     1</i>
    <i type="logical" name="LNONCOLLINEAR"> T  </i>
    <v name="MAGMOM">      1.00000000      1.00000000      1.00000000</v>
    <i name="NUPDOWN">     -1.00000000</i>
    <i type="logical" name="LSORBIT"> T  </i>
    <v name="SAXIS">      0.00000000      0.00000000      1.00000000</v>
    <i type="logical" name="LSPIRAL"> F  </i>
    <v name="QSPIRAL">      0.00000000      0.00000000      0.00000000</v>
    <i type="logical" name="LZEROZ"> F  </i>
   </separator>
   <separator name="electronic exchange-correlation" >
    <i type="logical" name="LASPH"> F  </i>
    <i type="logical" name="LMETAGGA"> F  </i>
   </separator>
   <separator name="electronic convergence" >
    <i type="int" name="NELM">     1</i>
    <i type="int" name="NELMDL">     0</i>
    <i type="int" name="NELMIN">     2</i>
    <i name="ENINI">    300.00000000</i>
    <separator name="electronic convergence detail" >
     <i type="logical" name="LDIAG"> T  </i>
     <i type="logical" name="LSUBROT"> F  </i>
     <i name="WEIMIN">      0.00000000</i>
     <i name="EBREAK">      0.00000000</i>
     <i name="DEPER">      0.30000000</i>
     <i type="int" name="NRMM">     4</i>
     <i name="TIME">      0.40000000</i>
    </separator>
   </separator>
   <separator name="electronic mixer" >
    <i name="AMIX">      0.40000000</i>
    <i name="BMIX">      1.00000000</i>
    <i name="AMIN">      0.10000000</i>
    <i name="AMIX_MAG">      1.60000000</i>
    <i name="BMIX_MAG">      1.00000000</i>
    <separator name="electronic mixer details" >
     <i type="int" name="IMIX">     4</i>
     <i type="logical" name="MIXFIRST"> F  </i>
     <i type="int" name="MAXMIX">    50</i>
     <i name="WC">    100.00000000</i>
     <i type="int" name="INIMIX">     1</i>
     <i type="int" name="MIXPRE">     1</i>
     <i type="int" name="MREMOVE">     5</i>
    </separator>
   </separator>
   <separator name="electronic dipolcorrection" >
    <i type="logical" name="LDIPOL"> F  </i>
    <i type="logical" name="LMONO"> F  </i>
    <i type="int" name="IDIPOL">     0</i>
    <i name="EPSILON">      1.00000000</i>
    <v name="DIPOL">   -100.00000000   -100.00000000   -100.00000000</v>
    <i name="EFIELD">      0.00000000</i>
   </separator>
  </separator>
  <separator name="grids" >
   <i type="int" name="NGX">    28</i>
   <i type="int" name="NGY">    28</i>
   <i type="int" name="NGZ">    28</i>
   <i type="int" name="NGXF">    56</i>
   <i type="int" name="NGYF">    56</i>
   <i type="int" name="NGZF">    56</i>
   <i type="logical" name="ADDGRID"> T  </i>
  </separator>
  <separator name="ionic" >
   <i type="int" name="NSW">     1</i>
   <i type="int" name="IBRION">    -1</i>
   <i type="int" name="MDALGO">     0</i>
   <i type="int" name="ISIF">     3</i>
   <i name="PSTRESS">      0.00000000</i>
   <i name="EDIFFG">      0.00001000</i>
   <i type="int" name="NFREE">     5</i>
   <i name="POTIM">      0.10000000</i>
   <i name="SMASS">     -3.00000000</i>
   <i name="SCALEE">      1.00000000</i>
  </separator>
  <separator name="ionic md" >
   <i name="TEBEG">      0.00010000</i>
   <i name="TEEND">      0.00010000</i>
   <i type="int" name="NBLOCK">     1</i>
   <i type="int" name="KBLOCK">     1</i>
   <i type="int" name="NPACO">   256</i>
   <i name="APACO">     16.00000000</i>
  </separator>
  <separator name="symmetry" >
   <i type="int" name="ISYM">     0</i>
   <i name="SYMPREC">      0.00000010</i>
  </separator>
  <separator name="dos" >
   <i type="int" name="LORBIT">     0</i>
   <v name="RWIGS">     -1.00000000</v>
   <i type="int" name="NEDOS">   301</i>
   <i name="EMIN">     10.00000000</i>
   <i name="EMAX">    -10.00000000</i>
   <i name="EFERMI">      0.00000000</i>
  </separator>
  <separator name="writing" >
   <i type="int" name="NWRITE">     1</i>
   <i type="logical" name="LWAVE"> F  </i>
   <i type="logical" name="LDOWNSAMPLE"> F  </i>
   <i type="logical" name="LCHARG"> F  </i>
   <i type="logical" name="LPARD"> F  </i>
   <i type="logical" name="LVTOT"> F  </i>
   <i type="logical" name="LVHAR"> F  </i>
   <i type="logical" name="LELF"> F  </i>
   <i type="logical" name="LOPTICS"> F  </i>
   <v name="STM">      0.00000000      0.00000000      0.00000000      0.00000000      0.00000000      0.00000000      0.00000000</v>
  </separator>
  <separator name="performance" >
   <i type="int" name="NPAR">     4</i>
   <i type="int" name="NSIM">     4</i>
   <i type="int" name="NBLK">    -1</i>
   <i type="logical" name="LPLANE"> T  </i>
   <i type="logical" name="LSCALAPACK"> T  </i>
   <i type="logical" name="LSCAAWARE"> F  </i>
   <i type="logical" name="LSCALU"> F  </i>
   <i type="logical" name="LASYNC"> F  </i>
   <i type="logical" name="LORBITALREAL"> F  </i>
  </separator>
  <separator name="miscellaneous" >
   <i type="int" name="IDIOT">     3</i>
   <i type="int" name="ISPECIAL">     0</i>
   <i type="logical" name="LMUSIC"> F  </i>
   <v name="POMASS">      0.01000000</v>
   <v name="DARWINR">      0.00000000</v>
   <v name="DARWINV">      1.00000000</v>
   <i type="logical" name="LCORR"> T  </i>
  </separator>
  <i type="logical" name="GGA_COMPAT"> F  </i>
  <i type="logical" name="LBERRY"> F  </i>
  <i type="int" name="ICORELEVEL">     0</i>
  <i type="logical" name="LDAU"> F  </i>
  <i type="int" name="I_CONSTRAINED_M">     0</i>
  <separator name="electronic exchange-correlation" >
   <i type="string" name="GGA">PE</i>
   <i type="int" name="VOSKOWN">     0</i>
   <i type="logical" name="LHFCALC"> F  </i>
   <i type="string" name="PRECFOCK"></i>
   <i type="logical" name="LSYMGRAD"> F  </i>
   <i type="logical" name="LHFONE"> F  </i>
   <i type="logical" name="LRHFCALC"> F  </i>
   <i type="logical" name="LTHOMAS"> F  </i>
   <i type="logical" name="LMODELHF"> F  </i>
   <i name="ENCUT4O">     -1.00000000</i>
   <i type="int" name="EXXOEP">     0</i>
   <i type="int" name="FOURORBIT">     0</i>
   <i name="AEXX">      0.00000000</i>
   <i name="HFALPHA">      0.00000000</i>
   <i name="MCALPHA">      0.00000000</i>
   <i name="ALDAX">      1.00000000</i>
   <i name="AGGAX">      1.00000000</i>
   <i name="ALDAC">      1.00000000</i>
   <i name="AGGAC">      1.00000000</i>
   <i type="int" name="NKREDX">     1</i>
   <i type="int" name="NKREDY">     1</i>
   <i type="int" name="NKREDZ">     1</i>
   <i type="logical" name="SHIFTRED"> F  </i>
   <i type="logical" name="ODDONLY"> F  </i>
   <i type="logical" name="EVENONLY"> F  </i>
   <i type="int" name="LMAXFOCK">     0</i>
   <i type="int" name="NMAXFOCKAE">     0</i>
   <i type="logical" name="LFOCKAEDFT"> F  </i>
   <i name="HFSCREEN">      0.00000000</i>
   <i name="HFSCREENC">      0.00000000</i>
   <i type="int" name="NBANDSGWLOW">     0</i>
  </separator>
  <separator name="vdW DFT" >
   <i type="logical" name="LUSE_VDW"> F  </i>
   <i name="Zab_VDW">     -0.84910000</i>
   <i name="PARAM1">      0.12340000</i>
   <i name="PARAM2">      1.00000000</i>
   <i name="PARAM3">      0.00000000</i>
  </separator>
  <separator name="model GW" >
   <i type="int" name="MODEL_GW">     0</i>
   <i name="MODEL_EPS0">     34.73837436</i>
   <i name="MODEL_ALPHA">      1.00000000</i>
  </separator>
  <separator name="linear response parameters" >
   <i type="logical" name="LEPSILON"> F  </i>
   <i type="logical" name="LRPA"> F  </i>
   <i type="logical" name="LNABLA"> F  </i>
   <i type="logical" name="LVEL"> F  </i>
   <i type="int" name="KINTER">     0</i>
   <i name="CSHIFT">      0.10000000</i>
   <i name="OMEGAMAX">     -1.00000000</i>
   <i name="DEG_THRESHOLD">      0.00200000</i>
   <i name="RTIME">     -0.10000000</i>
   <i name="WPLASMAI">      0.00000000</i>
   <v name="DFIELD">      0.00000000      0.00000000      0.00000000</v>
   <v name="WPLASMA">      0.00000000      0.00000000      0.00000000      0.00000000      0.00000000      0.00000000      0.00000000      0.00000000      0.00000000</v>
  </separator>
  <separator name="orbital magnetization" >
   <i type="logical" name="NUCIND"> F  </i>
   <v name="MAGPOS">      0.00000000      0.00000000      0.00000000</v>
   <i type="logical" name="LNICSALL"> T  </i>
   <i type="logical" name="ORBITALMAG"> F  </i>
   <i type="logical" name="LMAGBLOCH"> F  </i>
   <i type="logical" name="LCHIMAG"> F  </i>
   <i type="logical" name="LGAUGE"> T  </i>
   <i type="int" name="MAGATOM">     0</i>
   <v name="MAGDIPOL">      0.00000000      0.00000000      0.00000000</v>
   <v name="AVECCONST">      0.00000000      0.00000000      0.00000000</v>
  </separator>
  <separator name="response functions" >
   <i type="logical" name="LADDER"> F  </i>
   <i type="logical" name="LRPAFORCE"> F  </i>
   <i type="logical" name="LFXC"> F  </i>
   <i type="logical" name="LHARTREE"> T  </i>
   <i type="int" name="IBSE">     0</i>
   <v type="int" name="KPOINT">    -1     0     0     0</v>
   <i type="logical" name="LTCTE"> F  </i>
   <i type="logical" name="LTETE"> F  </i>
   <i type="logical" name="LTRIPLET"> F  </i>
   <i type="logical" name="LFXCEPS"> F  </i>
   <i type="logical" name="LFXHEG"> F  </i>
   <i type="int" name="NATURALO">     2</i>
   <i type="logical" name="L2ORDER"> F  </i>
   <i type="logical" name="LMP2LT"> F  </i>
   <i type="logical" name="LUSEW"> F  </i>
   <i name="ENCUTGW">     -2.00000000</i>
   <i name="ENCUTGWSOFT">     -2.00000000</i>
   <i name="ENCUTLF">     -1.00000000</i>
   <i type="int" name="LMAXMP2">    -1</i>
   <i name="SCISSOR">      0.00000000</i>
   <i type="int" name="NOMEGA">     0</i>
   <i type="int" name="NOMEGAR">     0</i>
   <i type="int" name="NBANDSGW">    -1</i>
   <i type="int" name="NBANDSO">    -1</i>
   <i type="int" name="NBANDSV">    -1</i>
   <i type="int" name="NELM">     1</i>
   <i type="int" name="NELMHF">     1</i>
   <i type="int" name="DIM">     3</i>
   <i type="int" name="ANTIRES">     0</i>
   <i name="OMEGAMAX">    -30.00000000</i>
   <i name="OMEGAMIN">    -30.00000000</i>
   <i name="OMEGATL">   -200.00000000</i>
   <i type="int" name="OMEGAGRID">   140</i>
   <i name="CSHIFT">     -0.10000000</i>
   <i type="logical" name="SELFENERGY"> F  </i>
   <i type="logical" name="LSPECTRAL"> F  </i>
   <i type="logical" name="LSPECTRALGW"> F  </i>
   <i type="logical" name="LSINGLES"> F  </i>
   <i type="logical" name="LFERMIGW"> F  </i>
   <i type="logical" name="ODDONLYGW"> F  </i>
   <i type="logical" name="EVENONLYGW"> F  </i>
   <i type="int" name="NKREDLFX">     1</i>
   <i type="int" name="NKREDLFY">     1</i>
   <i type="int" name="NKREDLFZ">     1</i>
   <i type="int" name="MAXMEM">  2800</i>
   <i type="int" name="TELESCOPE">     0</i>
   <i type="int" name="TAUPAR">     1</i>
   <i type="int" name="OMEGAPAR">    -1</i>
   <i name="LAMBDA">      1.00000000</i>
  </separator>
  <separator name="External order field" >
   <i name="OFIELD_KAPPA">      0.00000000</i>
   <v name="OFIELD_K">      0.00000000      0.00000000      0.00000000</v>
   <i name="OFIELD_Q6_NEAR">      0.00000000</i>
   <i name="OFIELD_Q6_FAR">      0.00000000</i>
   <i name="OFIELD_A">      0.00000000</i>
  </separator>
 </parameters>
 <atominfo>
  <atoms>       1 </atoms>
  <types>       1 </types>
  <array name="atoms" >
   <dimension dim="1">ion</dimension>
   <field type="string">element</field>
   <field type="int">atomtype</field>
   <set>
    <rc><c>Og</c><c>   1</c></rc>
   </set>
  </array>
  <array name="atomtypes" >
   <dimension dim="1">type</dimension>
   <field type="int">atomspertype</field>
   <field type="string">element</field>
   <field>mass</field>
   <field>valence</field>
   <field type="string">pseudopotential</field>
   <set>
    <rc><c>   1</c><c>Og</c><c>      0.01000000</c><c>     18.00000000</c><c>  PAW Og, JanMewes Oct 18               </c></rc>
   </set>
  </array>
 </atominfo>
 <structure name="initialpos" >
  <crystal>
   <varray name="basis" >
    <v>       4.34234588       0.00000000       0.00000000 </v>
    <v>       2.17117294       3.76058184      -0.00000000 </v>
    <v>       2.17117294       1.25352728       3.54551056 </v>
   </varray>
   <i name="volume">     57.89729060 </i>
   <varray name="rec_basis" >
    <v>       0.23029027      -0.13295815      -0.09401561 </v>
    <v>       0.00000000       0.26591630      -0.09401561 </v>
    <v>      -0.00000000       0.00000000       0.28204683 </v>
   </varray>
  </crystal>
  <varray name="positions" >
   <v>       0.00000000       0.00000000       0.00000000 </v>
  </varray>
  <varray name="velocities" >
   <v>       0.00000000       0.00000000       0.00000000 </v>
  </varray>
 </structure>
 <calculation>
  <scstep>
   <time name="dav">    0.26    0.26</time>
   <time name="total">    0.81    0.82</time>
   <energy>
    <i name="alphaZ">     65.89697999 </i>
    <i name="ewald">  -1741.63824267 </i>
    <i name="hartreedc">   -672.04789813 </i>
    <i name="XCdc">    -68.73281984 </i>
    <i name="pawpsdc">   2336.10829606 </i>
    <i name="pawaedc">  -2260.71252966 </i>
    <i name="eentropy">     -0.00003208 </i>
    <i name="bandstr">   -305.21525845 </i>
    <i name="atom">   2639.90492407 </i>
    <i name="e_fr_energy">     -6.43658073 </i>
    <i name="e_wo_entrp">     -6.43654865 </i>
    <i name="e_0_energy">     -6.43656469 </i>
   </energy>
  </scstep>
  <structure>
   <crystal>
    <varray name="basis" >
     <v>       4.34234588       0.00000000       0.00000000 </v>
     <v>       2.17117294       3.76058184      -0.00000000 </v>
     <v>       2.17117294       1.25352728       3.54551056 </v>
    </varray>
    <i name="volume">     57.89729060 </i>
    <varray name="rec_basis" >
     <v>       0.23029027      -0.13295815      -0.09401561 </v>
     <v>       0.00000000       0.26591630      -0.09401561 </v>
     <v>      -0.00000000       0.00000000       0.28204683 </v>
    </varray>
   </crystal>
   <varray name="positions" >
    <v>       0.00000000       0.00000000       0.00000000 </v>
   </varray>
  </structure>
  <varray name="forces" >
   <v>      -0.00017004       0.05117520      -0.00072938 </v>
  </varray>
  <varray name="stress" >
   <v>     697.89069348     -40.59973278     -28.99451511 </v>
   <v>     -42.96565520     690.34198714      53.20703576 </v>
   <v>     -30.16719227      52.41290362     753.96158137 </v>
  </varray>
  <energy>
   <i name="e_fr_energy">     -6.87654282 </i>
   <i name="e_wo_entrp">     -6.87652678 </i>
   <i name="e_0_energy">     -0.00003208 </i>
  </energy>
  <time name="totalsc">   10.87   10.93</time>
  <eigenvalues>
   <array>
    <dimension dim="1">band</dimension>
    <dimension dim="2">kpoint</dimension>
    <dimension dim="3">spin</dimension>
    <field>eigene</field>
    <field>occ</field>
    <set>
     <set comment="spin 1">
      <set comment="kpoint 1">
       <r>  -30.3932    1.0000 </r>
       <r>  -30.3929    1.0000 </r>
       <r>  -30.2098    1.0000 </r>
       <r>  -30.2090    1.0000 </r>
       <r>  -23.6417    1.0000 </r>
       <r>  -23.6384    1.0000 </r>
       <r>  -23.5542    1.0000 </r>
       <r>  -23.5518    1.0000 </r>
       <r>  -23.4296    1.0000 </r>
       <r>  -23.4241    1.0000 </r>
       <r>  -19.8905    1.0000 </r>
       <r>  -19.8901    1.0000 </r>
       <r>   -6.7844    1.0000 </r>
       <r>   -6.7841    1.0000 </r>
       <r>    1.5951    1.0000 </r>
       <r>    1.5958    1.0000 </r>
       <r>    3.4545    1.0000 </r>
       <r>    3.4555    1.0000 </r>
       <r>    6.4561    0.0000 </r>
       <r>    6.4566    0.0000 </r>
       <r>   10.4542    0.0000 </r>
       <r>   10.4544    0.0000 </r>
       <r>   11.4071    0.0000 </r>
       <r>   11.4076    0.0000 </r>
       <r>   11.9680    0.0000 </r>
       <r>   11.9700    0.0000 </r>
       <r>   14.9522    0.0000 </r>
       <r>   14.9530    0.0000 </r>
      </set>
      <set comment="kpoint 2">
       <r>  -30.4044    1.0000 </r>
       <r>  -30.4042    1.0000 </r>
       <r>  -30.2923    1.0000 </r>
       <r>  -30.2921    1.0000 </r>
       <r>  -23.7575    1.0000 </r>
       <r>  -23.7572    1.0000 </r>
       <r>  -23.6838    1.0000 </r>
       <r>  -23.6831    1.0000 </r>
       <r>  -23.5268    1.0000 </r>
       <r>  -23.5258    1.0000 </r>
       <r>  -19.9460    1.0000 </r>
       <r>  -19.9456    1.0000 </r>
       <r>   -6.7975    1.0000 </r>
       <r>   -6.7975    1.0000 </r>
       <r>    1.4105    1.0000 </r>
       <r>    1.4111    1.0000 </r>
       <r>    3.8532    1.0000 </r>
       <r>    3.8543    1.0000 </r>
       <r>    6.5199    0.0000 </r>
       <r>    6.5200    0.0000 </r>
       <r>   10.5778    0.0000 </r>
       <r>   10.5782    0.0000 </r>
       <r>   11.2700    0.0000 </r>
       <r>   11.2714    0.0000 </r>
       <r>   12.0359    0.0000 </r>
       <r>   12.0371    0.0000 </r>
       <r>   13.4941    0.0000 </r>
       <r>   13.4945    0.0000 </r>
      </set>
      <set comment="kpoint 3">
       <r>  -30.4208    1.0000 </r>
       <r>  -30.4143    1.0000 </r>
       <r>  -30.3690    1.0000 </r>
       <r>  -30.3675    1.0000 </r>
       <r>  -23.7699    1.0000 </r>
       <r>  -23.7635    1.0000 </r>
       <r>  -23.7596    1.0000 </r>
       <r>  -23.7184    1.0000 </r>
       <r>  -23.5900    1.0000 </r>
       <r>  -23.5870    1.0000 </r>
       <r>  -20.0361    1.0000 </r>
       <r>  -20.0259    1.0000 </r>
       <r>   -7.0754    1.0000 </r>
       <r>   -7.0724    1.0000 </r>
       <r>    1.2945    1.0000 </r>
       <r>    1.3008    1.0000 </r>
       <r>    4.1014    1.0000 </r>
       <r>    4.1173    1.0000 </r>
       <r>    6.3636    0.0000 </r>
       <r>    6.3665    0.0000 </r>
       <r>   10.9981    0.0000 </r>
       <r>   11.0021    0.0000 </r>
       <r>   12.0997    0.0000 </r>
       <r>   12.1046    0.0000 </r>
       <r>   12.6771    0.0000 </r>
       <r>   12.7054    0.0000 </r>
       <r>   14.1032    0.0000 </r>
       <r>   14.1121    0.0000 </r>
      </set>
      <set comment="kpoint 4">
       <r>  -30.4078    1.0000 </r>
       <r>  -30.4077    1.0000 </r>
       <r>  -30.3089    1.0000 </r>
       <r>  -30.3088    1.0000 </r>
       <r>  -23.7579    1.0000 </r>
       <r>  -23.7578    1.0000 </r>
       <r>  -23.6943    1.0000 </r>
       <r>  -23.6934    1.0000 </r>
       <r>  -23.6512    1.0000 </r>
       <r>  -23.6503    1.0000 </r>
       <r>  -19.9758    1.0000 </r>
       <r>  -19.9754    1.0000 </r>
       <r>   -6.8017    1.0000 </r>
       <r>   -6.8013    1.0000 </r>
       <r>    1.7936    1.0000 </r>
       <r>    1.7943    1.0000 </r>
       <r>    4.2106    1.0000 </r>
       <r>    4.2114    1.0000 </r>
       <r>    6.3297    0.0000 </r>
       <r>    6.3299    0.0000 </r>
       <r>   10.4311    0.0000 </r>
       <r>   10.4316    0.0000 </r>
       <r>   11.1418    0.0000 </r>
       <r>   11.1420    0.0000 </r>
       <r>   11.8480    0.0000 </r>
       <r>   11.8487    0.0000 </r>
       <r>   13.2262    0.0000 </r>
       <r>   13.2270    0.0000 </r>
      </set>
      <set comment="kpoint 5">
       <r>  -30.3583    1.0000 </r>
       <r>  -30.3575    1.0000 </r>
       <r>  -30.1877    1.0000 </r>
       <r>  -30.1877    1.0000 </r>
       <r>  -23.7265    1.0000 </r>
       <r>  -23.7250    1.0000 </r>
       <r>  -23.6057    1.0000 </r>
       <r>  -23.6031    1.0000 </r>
       <r>  -23.3409    1.0000 </r>
       <r>  -23.3376    1.0000 </r>
       <r>  -19.8889    1.0000 </r>
       <r>  -19.8886    1.0000 </r>
       <r>   -6.7108    1.0000 </r>
       <r>   -6.7104    1.0000 </r>
       <r>    2.2276    1.0000 </r>
       <r>    2.2282    1.0000 </r>
       <r>    4.3099    0.6703 </r>
       <r>    4.3105    0.3291 </r>
       <r>    6.1784    0.0000 </r>
       <r>    6.1786    0.0000 </r>
       <r>   10.0817    0.0000 </r>
       <r>   10.0818    0.0000 </r>
       <r>   11.4047    0.0000 </r>
       <r>   11.4048    0.0000 </r>
       <r>   12.1289    0.0000 </r>
       <r>   12.1296    0.0000 </r>
       <r>   12.8950    0.0000 </r>
       <r>   12.8951    0.0000 </r>
      </set>
      <set comment="kpoint 6">
       <r>  -30.3570    1.0000 </r>
       <r>  -30.3567    1.0000 </r>
       <r>  -30.2112    1.0000 </r>
       <r>  -30.2108    1.0000 </r>
       <r>  -23.7395    1.0000 </r>
       <r>  -23.7389    1.0000 </r>
       <r>  -23.6277    1.0000 </r>
       <r>  -23.6273    1.0000 </r>
       <r>  -23.4611    1.0000 </r>
       <r>  -23.4601    1.0000 </r>
       <r>  -19.9514    1.0000 </r>
       <r>  -19.9512    1.0000 </r>
       <r>   -6.7092    1.0000 </r>
       <r>   -6.7090    1.0000 </r>
       <r>    2.6970    1.0000 </r>
       <r>    2.6977    1.0000 </r>
       <r>    4.3534    0.0000 </r>
       <r>    4.3543    0.0000 </r>
       <r>    5.8034    0.0000 </r>
       <r>    5.8039    0.0000 </r>
       <r>   10.2239    0.0000 </r>
       <r>   10.2242    0.0000 </r>
       <r>   11.4838    0.0000 </r>
       <r>   11.4842    0.0000 </r>
       <r>   11.9875    0.0000 </r>
       <r>   11.9886    0.0000 </r>
       <r>   13.2964    0.0000 </r>
       <r>   13.2987    0.0000 </r>
      </set>
      <set comment="kpoint 7">
       <r>  -30.4401    1.0000 </r>
       <r>  -30.4396    1.0000 </r>
       <r>  -30.4092    1.0000 </r>
       <r>  -30.4089    1.0000 </r>
       <r>  -23.7857    1.0000 </r>
       <r>  -23.7830    1.0000 </r>
       <r>  -23.7647    1.0000 </r>
       <r>  -23.7570    1.0000 </r>
       <r>  -23.7415    1.0000 </r>
       <r>  -23.7112    1.0000 </r>
       <r>  -20.1325    1.0000 </r>
       <r>  -20.1280    1.0000 </r>
       <r>   -6.8875    1.0000 </r>
       <r>   -6.8857    1.0000 </r>
       <r>    3.2200    1.0000 </r>
       <r>    3.2214    1.0000 </r>
       <r>    4.3024    1.0000 </r>
       <r>    4.3125    0.0006 </r>
       <r>    4.8436    0.0000 </r>
       <r>    4.8521    0.0000 </r>
       <r>   10.7797    0.0000 </r>
       <r>   10.7820    0.0000 </r>
       <r>   11.2332    0.0000 </r>
       <r>   11.2348    0.0000 </r>
       <r>   12.1265    0.0000 </r>
       <r>   12.1285    0.0000 </r>
       <r>   12.5907    0.0000 </r>
       <r>   12.5955    0.0000 </r>
      </set>
      <set comment="kpoint 8">
       <r>  -30.4696    1.0000 </r>
       <r>  -30.4696    1.0000 </r>
       <r>  -30.4677    1.0000 </r>
       <r>  -30.4677    1.0000 </r>
       <r>  -23.8017    1.0000 </r>
       <r>  -23.8014    1.0000 </r>
       <r>  -23.7982    1.0000 </r>
       <r>  -23.7981    1.0000 </r>
       <r>  -23.7969    1.0000 </r>
       <r>  -23.7962    1.0000 </r>
       <r>  -20.1976    1.0000 </r>
       <r>  -20.1974    1.0000 </r>
       <r>   -6.9002    1.0000 </r>
       <r>   -6.8998    1.0000 </r>
       <r>    3.7220    1.0000 </r>
       <r>    3.7221    1.0000 </r>
       <r>    3.9683    1.0000 </r>
       <r>    3.9695    1.0000 </r>
       <r>    4.0429    1.0000 </r>
       <r>    4.0441    1.0000 </r>
       <r>   10.9118    0.0000 </r>
       <r>   10.9121    0.0000 </r>
       <r>   10.9518    0.0000 </r>
       <r>   10.9520    0.0000 </r>
       <r>   11.1975    0.0000 </r>
       <r>   11.1976    0.0000 </r>
       <r>   11.3812    0.0000 </r>
       <r>   11.3817    0.0000 </r>
      </set>
      <set comment="kpoint 9">
       <r>  -30.4696    1.0000 </r>
       <r>  -30.4696    1.0000 </r>
       <r>  -30.4677    1.0000 </r>
       <r>  -30.4677    1.0000 </r>
       <r>  -23.8016    1.0000 </r>
       <r>  -23.8015    1.0000 </r>
       <r>  -23.7983    1.0000 </r>
       <r>  -23.7981    1.0000 </r>
       <r>  -23.7971    1.0000 </r>
       <r>  -23.7960    1.0000 </r>
       <r>  -20.1977    1.0000 </r>
       <r>  -20.1973    1.0000 </r>
       <r>   -6.9002    1.0000 </r>
       <r>   -6.8998    1.0000 </r>
       <r>    3.7220    1.0000 </r>
       <r>    3.7221    1.0000 </r>
       <r>    3.9687    1.0000 </r>
       <r>    3.9690    1.0000 </r>
       <r>    4.0435    1.0000 </r>
       <r>    4.0436    1.0000 </r>
       <r>   10.9119    0.0000 </r>
       <r>   10.9120    0.0000 </r>
       <r>   10.9519    0.0000 </r>
       <r>   10.9519    0.0000 </r>
       <r>   11.1975    0.0000 </r>
       <r>   11.1976    0.0000 </r>
       <r>   11.3812    0.0000 </r>
       <r>   11.3817    0.0000 </r>
      </set>
      <set comment="kpoint 10">
       <r>  -30.4544    1.0000 </r>
       <r>  -30.4543    1.0000 </r>
       <r>  -30.4418    1.0000 </r>
       <r>  -30.4418    1.0000 </r>
       <r>  -23.7927    1.0000 </r>
       <r>  -23.7925    1.0000 </r>
       <r>  -23.7850    1.0000 </r>
       <r>  -23.7849    1.0000 </r>
       <r>  -23.7791    1.0000 </r>
       <r>  -23.7789    1.0000 </r>
       <r>  -20.1848    1.0000 </r>
       <r>  -20.1846    1.0000 </r>
       <r>   -6.8669    1.0000 </r>
       <r>   -6.8665    1.0000 </r>
       <r>    3.0614    1.0000 </r>
       <r>    3.0621    1.0000 </r>
       <r>    3.9943    1.0000 </r>
       <r>    3.9956    1.0000 </r>
       <r>    4.8547    0.0000 </r>
       <r>    4.8555    0.0000 </r>
       <r>   10.3077    0.0000 </r>
       <r>   10.3077    0.0000 </r>
       <r>   11.1021    0.0000 </r>
       <r>   11.1024    0.0000 </r>
       <r>   11.6222    0.0000 </r>
       <r>   11.6227    0.0000 </r>
       <r>   13.2540    0.0000 </r>
       <r>   13.2545    0.0000 </r>
      </set>
      <set comment="kpoint 11">
       <r>  -30.4245    1.0000 </r>
       <r>  -30.4243    1.0000 </r>
       <r>  -30.3678    1.0000 </r>
       <r>  -30.3676    1.0000 </r>
       <r>  -23.7752    1.0000 </r>
       <r>  -23.7750    1.0000 </r>
       <r>  -23.7411    1.0000 </r>
       <r>  -23.7398    1.0000 </r>
       <r>  -23.6838    1.0000 </r>
       <r>  -23.6829    1.0000 </r>
       <r>  -20.0716    1.0000 </r>
       <r>  -20.0713    1.0000 </r>
       <r>   -6.7953    1.0000 </r>
       <r>   -6.7950    1.0000 </r>
       <r>    2.4745    1.0000 </r>
       <r>    2.4753    1.0000 </r>
       <r>    3.8145    1.0000 </r>
       <r>    3.8157    1.0000 </r>
       <r>    6.0076    0.0000 </r>
       <r>    6.0081    0.0000 </r>
       <r>    9.7413    0.0000 </r>
       <r>    9.7414    0.0000 </r>
       <r>   11.4635    0.0000 </r>
       <r>   11.4638    0.0000 </r>
       <r>   12.2518    0.0000 </r>
       <r>   12.2523    0.0000 </r>
       <r>   13.4967    0.0000 </r>
       <r>   13.4972    0.0000 </r>
      </set>
      <set comment="kpoint 12">
       <r>  -30.3268    1.0000 </r>
       <r>  -30.3250    1.0000 </r>
       <r>  -30.1382    1.0000 </r>
       <r>  -30.1375    1.0000 </r>
       <r>  -23.6488    1.0000 </r>
       <r>  -23.6460    1.0000 </r>
       <r>  -23.5242    1.0000 </r>
       <r>  -23.5185    1.0000 </r>
       <r>  -23.3328    1.0000 </r>
       <r>  -23.3280    1.0000 </r>
       <r>  -19.8390    1.0000 </r>
       <r>  -19.8385    1.0000 </r>
       <r>   -6.7021    1.0000 </r>
       <r>   -6.7019    1.0000 </r>
       <r>    2.1403    1.0000 </r>
       <r>    2.1415    1.0000 </r>
       <r>    3.9550    1.0000 </r>
       <r>    3.9565    1.0000 </r>
       <r>    7.2361    0.0000 </r>
       <r>    7.2364    0.0000 </r>
       <r>    9.3348    0.0000 </r>
       <r>    9.3363    0.0000 </r>
       <r>   11.2392    0.0000 </r>
       <r>   11.2404    0.0000 </r>
       <r>   12.7548    0.0000 </r>
       <r>   12.7563    0.0000 </r>
       <r>   14.0861    0.0000 </r>
       <r>   14.0894    0.0000 </r>
      </set>
      <set comment="kpoint 13">
       <r>  -30.1505    1.0000 </r>
       <r>  -30.1485    1.0000 </r>
       <r>  -29.7248    1.0000 </r>
       <r>  -29.7241    1.0000 </r>
       <r>  -23.4743    1.0000 </r>
       <r>  -23.4664    1.0000 </r>
       <r>  -23.1976    1.0000 </r>
       <r>  -23.1856    1.0000 </r>
       <r>  -22.7562    1.0000 </r>
       <r>  -22.7540    1.0000 </r>
       <r>  -19.5110    1.0000 </r>
       <r>  -19.5107    1.0000 </r>
       <r>   -6.5780    1.0000 </r>
       <r>   -6.5775    1.0000 </r>
       <r>    1.7465    1.0000 </r>
       <r>    1.7468    1.0000 </r>
       <r>    3.2053    1.0000 </r>
       <r>    3.2062    1.0000 </r>
       <r>    7.3371    0.0000 </r>
       <r>    7.3377    0.0000 </r>
       <r>    8.8244    0.0000 </r>
       <r>    8.8248    0.0000 </r>
       <r>   11.3053    0.0000 </r>
       <r>   11.3072    0.0000 </r>
       <r>   13.3576    0.0000 </r>
       <r>   13.3602    0.0000 </r>
       <r>   15.1512    0.0000 </r>
       <r>   15.1527    0.0000 </r>
      </set>
      <set comment="kpoint 14">
       <r>  -30.4394    1.0000 </r>
       <r>  -30.4393    1.0000 </r>
       <r>  -30.3656    1.0000 </r>
       <r>  -30.3656    1.0000 </r>
       <r>  -23.7732    1.0000 </r>
       <r>  -23.7730    1.0000 </r>
       <r>  -23.7438    1.0000 </r>
       <r>  -23.7430    1.0000 </r>
       <r>  -23.7001    1.0000 </r>
       <r>  -23.6999    1.0000 </r>
       <r>  -19.9325    1.0000 </r>
       <r>  -19.9321    1.0000 </r>
       <r>   -7.0963    1.0000 </r>
       <r>   -7.0958    1.0000 </r>
       <r>    1.2028    1.0000 </r>
       <r>    1.2038    1.0000 </r>
       <r>    2.8493    1.0000 </r>
       <r>    2.8504    1.0000 </r>
       <r>    6.8258    0.0000 </r>
       <r>    6.8259    0.0000 </r>
       <r>    8.1656    0.0000 </r>
       <r>    8.1659    0.0000 </r>
       <r>   10.3912    0.0000 </r>
       <r>   10.3918    0.0000 </r>
       <r>   13.9732    0.0000 </r>
       <r>   13.9739    0.0000 </r>
       <r>   16.7374    0.0000 </r>
       <r>   16.7382    0.0000 </r>
      </set>
      <set comment="kpoint 15">
       <r>  -30.4331    1.0000 </r>
       <r>  -30.4329    1.0000 </r>
       <r>  -30.3906    1.0000 </r>
       <r>  -30.3905    1.0000 </r>
       <r>  -23.7765    1.0000 </r>
       <r>  -23.7762    1.0000 </r>
       <r>  -23.7637    1.0000 </r>
       <r>  -23.7633    1.0000 </r>
       <r>  -23.6944    1.0000 </r>
       <r>  -23.6942    1.0000 </r>
       <r>  -19.9784    1.0000 </r>
       <r>  -19.9782    1.0000 </r>
       <r>   -7.0087    1.0000 </r>
       <r>   -7.0084    1.0000 </r>
       <r>    1.0815    1.0000 </r>
       <r>    1.0824    1.0000 </r>
       <r>    2.6726    1.0000 </r>
       <r>    2.6738    1.0000 </r>
       <r>    6.6633    0.0000 </r>
       <r>    6.6635    0.0000 </r>
       <r>    7.9174    0.0000 </r>
       <r>    7.9175    0.0000 </r>
       <r>   10.9144    0.0000 </r>
       <r>   10.9148    0.0000 </r>
       <r>   15.2150    0.0000 </r>
       <r>   15.2155    0.0000 </r>
       <r>   16.0158    0.0000 </r>
       <r>   16.0159    0.0000 </r>
      </set>
      <set comment="kpoint 16">
       <r>  -30.4070    1.0000 </r>
       <r>  -30.4063    1.0000 </r>
       <r>  -30.3423    1.0000 </r>
       <r>  -30.3421    1.0000 </r>
       <r>  -23.7671    1.0000 </r>
       <r>  -23.7662    1.0000 </r>
       <r>  -23.7170    1.0000 </r>
       <r>  -23.7163    1.0000 </r>
       <r>  -23.6009    1.0000 </r>
       <r>  -23.6001    1.0000 </r>
       <r>  -19.9096    1.0000 </r>
       <r>  -19.9094    1.0000 </r>
       <r>   -6.7894    1.0000 </r>
       <r>   -6.7891    1.0000 </r>
       <r>    1.1122    1.0000 </r>
       <r>    1.1131    1.0000 </r>
       <r>    2.7373    1.0000 </r>
       <r>    2.7386    1.0000 </r>
       <r>    6.5395    0.0000 </r>
       <r>    6.5397    0.0000 </r>
       <r>    7.8954    0.0000 </r>
       <r>    7.8954    0.0000 </r>
       <r>   11.2708    0.0000 </r>
       <r>   11.2716    0.0000 </r>
       <r>   16.3570    0.0000 </r>
       <r>   16.3576    0.0000 </r>
       <r>   17.4550    0.0000 </r>
       <r>   17.4556    0.0000 </r>
      </set>
     </set>
    </set>
   </array>
  </eigenvalues>
  <separator name="orbital magnetization" >
   <v name="MAGDIPOLOUT">      0.00000000      0.00000000      0.00000000</v>
  </separator>
  <dos>
   <i name="efermi">      4.31019320 </i>
   <total>
    <array>
     <dimension dim="1">gridpoints</dimension>
     <dimension dim="2">spin</dimension>
     <field>energy</field>
     <field>total</field>
     <field>integrated</field>
     <set>
      <set comment="spin 1">
       <r>   -32.8659     0.0000     0.0000 </r>
       <r>   -32.6902     0.0000     0.0000 </r>
       <r>   -32.5145     0.0000     0.0000 </r>
       <r>   -32.3387     0.0000     0.0000 </r>
       <r>   -32.1630     0.0000     0.0000 </r>
       <r>   -31.9873     0.0000     0.0000 </r>
       <r>   -31.8116     0.0000     0.0000 </r>
       <r>   -31.6358     0.0000     0.0000 </r>
       <r>   -31.4601     0.0000     0.0000 </r>
       <r>   -31.2844     0.0000     0.0000 </r>
       <r>   -31.1087     0.0000     0.0000 </r>
       <r>   -30.9329     0.0000     0.0000 </r>
       <r>   -30.7572     0.0000     0.0000 </r>
       <r>   -30.5815     0.0000     0.0000 </r>
       <r>   -30.4057     2.0612     1.7372 </r>
       <r>   -30.2300     0.0000     3.2500 </r>
       <r>   -30.0543     0.0000     3.8750 </r>
       <r>   -29.8786     0.0000     3.8750 </r>
       <r>   -29.7028     0.0000     4.0000 </r>
       <r>   -29.5271     0.0000     4.0000 </r>
       <r>   -29.3514     0.0000     4.0000 </r>
       <r>   -29.1757     0.0000     4.0000 </r>
       <r>   -28.9999     0.0000     4.0000 </r>
       <r>   -28.8242     0.0000     4.0000 </r>
       <r>   -28.6485     0.0000     4.0000 </r>
       <r>   -28.4728     0.0000     4.0000 </r>
       <r>   -28.2970     0.0000     4.0000 </r>
       <r>   -28.1213     0.0000     4.0000 </r>
       <r>   -27.9456     0.0000     4.0000 </r>
       <r>   -27.7699     0.0000     4.0000 </r>
       <r>   -27.5941     0.0000     4.0000 </r>
       <r>   -27.4184     0.0000     4.0000 </r>
       <r>   -27.2427     0.0000     4.0000 </r>
       <r>   -27.0670     0.0000     4.0000 </r>
       <r>   -26.8912     0.0000     4.0000 </r>
       <r>   -26.7155     0.0000     4.0000 </r>
       <r>   -26.5398     0.0000     4.0000 </r>
       <r>   -26.3641     0.0000     4.0000 </r>
       <r>   -26.1883     0.0000     4.0000 </r>
       <r>   -26.0126     0.0000     4.0000 </r>
       <r>   -25.8369     0.0000     4.0000 </r>
       <r>   -25.6612     0.0000     4.0000 </r>
       <r>   -25.4854     0.0000     4.0000 </r>
       <r>   -25.3097     0.0000     4.0000 </r>
       <r>   -25.1340     0.0000     4.0000 </r>
       <r>   -24.9583     0.0000     4.0000 </r>
       <r>   -24.7825     0.0000     4.0000 </r>
       <r>   -24.6068     0.0000     4.0000 </r>
       <r>   -24.4311     0.0000     4.0000 </r>
       <r>   -24.2553     0.0000     4.0000 </r>
       <r>   -24.0796     0.0000     4.0000 </r>
       <r>   -23.9039     0.0000     4.0000 </r>
       <r>   -23.7282     0.0032     6.8756 </r>
       <r>   -23.5524     0.4156     8.8230 </r>
       <r>   -23.3767     0.0000     9.5000 </r>
       <r>   -23.2010     0.0000     9.7500 </r>
       <r>   -23.0253     0.0000     9.8750 </r>
       <r>   -22.8495     0.0000     9.8750 </r>
       <r>   -22.6738     0.0000    10.0000 </r>
       <r>   -22.4981     0.0000    10.0000 </r>
       <r>   -22.3224     0.0000    10.0000 </r>
       <r>   -22.1466     0.0000    10.0000 </r>
       <r>   -21.9709     0.0000    10.0000 </r>
       <r>   -21.7952     0.0000    10.0000 </r>
       <r>   -21.6195     0.0000    10.0000 </r>
       <r>   -21.4437     0.0000    10.0000 </r>
       <r>   -21.2680     0.0000    10.0000 </r>
       <r>   -21.0923     0.0000    10.0000 </r>
       <r>   -20.9166     0.0000    10.0000 </r>
       <r>   -20.7408     0.0000    10.0000 </r>
       <r>   -20.5651     0.0000    10.0000 </r>
       <r>   -20.3894     0.0000    10.0000 </r>
       <r>   -20.2137     0.0000    10.0000 </r>
       <r>   -20.0379     0.0015    10.6253 </r>
       <r>   -19.8622     0.0000    11.7500 </r>
       <r>   -19.6865     0.0000    11.8750 </r>
       <r>   -19.5108     0.3936    11.9442 </r>
       <r>   -19.3350     0.0000    12.0000 </r>
       <r>   -19.1593     0.0000    12.0000 </r>
       <r>   -18.9836     0.0000    12.0000 </r>
       <r>   -18.8078     0.0000    12.0000 </r>
       <r>   -18.6321     0.0000    12.0000 </r>
       <r>   -18.4564     0.0000    12.0000 </r>
       <r>   -18.2807     0.0000    12.0000 </r>
       <r>   -18.1049     0.0000    12.0000 </r>
       <r>   -17.9292     0.0000    12.0000 </r>
       <r>   -17.7535     0.0000    12.0000 </r>
       <r>   -17.5778     0.0000    12.0000 </r>
       <r>   -17.4020     0.0000    12.0000 </r>
       <r>   -17.2263     0.0000    12.0000 </r>
       <r>   -17.0506     0.0000    12.0000 </r>
       <r>   -16.8749     0.0000    12.0000 </r>
       <r>   -16.6991     0.0000    12.0000 </r>
       <r>   -16.5234     0.0000    12.0000 </r>
       <r>   -16.3477     0.0000    12.0000 </r>
       <r>   -16.1720     0.0000    12.0000 </r>
       <r>   -15.9962     0.0000    12.0000 </r>
       <r>   -15.8205     0.0000    12.0000 </r>
       <r>   -15.6448     0.0000    12.0000 </r>
       <r>   -15.4691     0.0000    12.0000 </r>
       <r>   -15.2933     0.0000    12.0000 </r>
       <r>   -15.1176     0.0000    12.0000 </r>
       <r>   -14.9419     0.0000    12.0000 </r>
       <r>   -14.7662     0.0000    12.0000 </r>
       <r>   -14.5904     0.0000    12.0000 </r>
       <r>   -14.4147     0.0000    12.0000 </r>
       <r>   -14.2390     0.0000    12.0000 </r>
       <r>   -14.0633     0.0000    12.0000 </r>
       <r>   -13.8875     0.0000    12.0000 </r>
       <r>   -13.7118     0.0000    12.0000 </r>
       <r>   -13.5361     0.0000    12.0000 </r>
       <r>   -13.3603     0.0000    12.0000 </r>
       <r>   -13.1846     0.0000    12.0000 </r>
       <r>   -13.0089     0.0000    12.0000 </r>
       <r>   -12.8332     0.0000    12.0000 </r>
       <r>   -12.6574     0.0000    12.0000 </r>
       <r>   -12.4817     0.0000    12.0000 </r>
       <r>   -12.3060     0.0000    12.0000 </r>
       <r>   -12.1303     0.0000    12.0000 </r>
       <r>   -11.9545     0.0000    12.0000 </r>
       <r>   -11.7788     0.0000    12.0000 </r>
       <r>   -11.6031     0.0000    12.0000 </r>
       <r>   -11.4274     0.0000    12.0000 </r>
       <r>   -11.2516     0.0000    12.0000 </r>
       <r>   -11.0759     0.0000    12.0000 </r>
       <r>   -10.9002     0.0000    12.0000 </r>
       <r>   -10.7245     0.0000    12.0000 </r>
       <r>   -10.5487     0.0000    12.0000 </r>
       <r>   -10.3730     0.0000    12.0000 </r>
       <r>   -10.1973     0.0000    12.0000 </r>
       <r>   -10.0216     0.0000    12.0000 </r>
       <r>    -9.8458     0.0000    12.0000 </r>
       <r>    -9.6701     0.0000    12.0000 </r>
       <r>    -9.4944     0.0000    12.0000 </r>
       <r>    -9.3187     0.0000    12.0000 </r>
       <r>    -9.1429     0.0000    12.0000 </r>
       <r>    -8.9672     0.0000    12.0000 </r>
       <r>    -8.7915     0.0000    12.0000 </r>
       <r>    -8.6158     0.0000    12.0000 </r>
       <r>    -8.4400     0.0000    12.0000 </r>
       <r>    -8.2643     0.0000    12.0000 </r>
       <r>    -8.0886     0.0000    12.0000 </r>
       <r>    -7.9129     0.0000    12.0000 </r>
       <r>    -7.7371     0.0000    12.0000 </r>
       <r>    -7.5614     0.0000    12.0000 </r>
       <r>    -7.3857     0.0000    12.0000 </r>
       <r>    -7.2099     0.0000    12.0000 </r>
       <r>    -7.0342     0.0000    12.2500 </r>
       <r>    -6.8585     0.0000    12.8750 </r>
       <r>    -6.6828     0.0000    13.8750 </r>
       <r>    -6.5070     0.0000    14.0000 </r>
       <r>    -6.3313     0.0000    14.0000 </r>
       <r>    -6.1556     0.0000    14.0000 </r>
       <r>    -5.9799     0.0000    14.0000 </r>
       <r>    -5.8041     0.0000    14.0000 </r>
       <r>    -5.6284     0.0000    14.0000 </r>
       <r>    -5.4527     0.0000    14.0000 </r>
       <r>    -5.2770     0.0000    14.0000 </r>
       <r>    -5.1012     0.0000    14.0000 </r>
       <r>    -4.9255     0.0000    14.0000 </r>
       <r>    -4.7498     0.0000    14.0000 </r>
       <r>    -4.5741     0.0000    14.0000 </r>
       <r>    -4.3983     0.0000    14.0000 </r>
       <r>    -4.2226     0.0000    14.0000 </r>
       <r>    -4.0469     0.0000    14.0000 </r>
       <r>    -3.8712     0.0000    14.0000 </r>
       <r>    -3.6954     0.0000    14.0000 </r>
       <r>    -3.5197     0.0000    14.0000 </r>
       <r>    -3.3440     0.0000    14.0000 </r>
       <r>    -3.1683     0.0000    14.0000 </r>
       <r>    -2.9925     0.0000    14.0000 </r>
       <r>    -2.8168     0.0000    14.0000 </r>
       <r>    -2.6411     0.0000    14.0000 </r>
       <r>    -2.4654     0.0000    14.0000 </r>
       <r>    -2.2896     0.0000    14.0000 </r>
       <r>    -2.1139     0.0000    14.0000 </r>
       <r>    -1.9382     0.0000    14.0000 </r>
       <r>    -1.7624     0.0000    14.0000 </r>
       <r>    -1.5867     0.0000    14.0000 </r>
       <r>    -1.4110     0.0000    14.0000 </r>
       <r>    -1.2353     0.0000    14.0000 </r>
       <r>    -1.0595     0.0000    14.0000 </r>
       <r>    -0.8838     0.0000    14.0000 </r>
       <r>    -0.7081     0.0000    14.0000 </r>
       <r>    -0.5324     0.0000    14.0000 </r>
       <r>    -0.3566     0.0000    14.0000 </r>
       <r>    -0.1809     0.0000    14.0000 </r>
       <r>    -0.0052     0.0000    14.0000 </r>
       <r>     0.1705     0.0000    14.0000 </r>
       <r>     0.3463     0.0000    14.0000 </r>
       <r>     0.5220     0.0000    14.0000 </r>
       <r>     0.6977     0.0000    14.0000 </r>
       <r>     0.8734     0.0000    14.0000 </r>
       <r>     1.0492     0.0000    14.0000 </r>
       <r>     1.2249     0.0000    14.3750 </r>
       <r>     1.4006     0.0000    14.5000 </r>
       <r>     1.5763     0.0000    14.6250 </r>
       <r>     1.7521     0.7113    14.8750 </r>
       <r>     1.9278     0.0000    15.0000 </r>
       <r>     2.1035     0.0000    15.0000 </r>
       <r>     2.2792     0.0000    15.2500 </r>
       <r>     2.4550     0.0000    15.2500 </r>
       <r>     2.6307     0.0000    15.3750 </r>
       <r>     2.8064     0.0000    15.7500 </r>
       <r>     2.9821     0.0000    15.8750 </r>
       <r>     3.1579     0.0000    16.0000 </r>
       <r>     3.3336     0.0000    16.2500 </r>
       <r>     3.5093     0.0000    16.3750 </r>
       <r>     3.6851     0.0000    16.3750 </r>
       <r>     3.8608     0.7113    16.8750 </r>
       <r>     4.0365     0.0000    17.3750 </r>
       <r>     4.2122     0.6642    17.8667 </r>
       <r>     4.3880     0.0000    18.2500 </r>
       <r>     4.5637     0.0000    18.2500 </r>
       <r>     4.7394     0.0000    18.2500 </r>
       <r>     4.9151     0.0000    18.5000 </r>
       <r>     5.0909     0.0000    18.5000 </r>
       <r>     5.2666     0.0000    18.5000 </r>
       <r>     5.4423     0.0000    18.5000 </r>
       <r>     5.6180     0.0000    18.5000 </r>
       <r>     5.7938     0.0000    18.5000 </r>
       <r>     5.9695     0.0000    18.6250 </r>
       <r>     6.1452     0.0000    18.7500 </r>
       <r>     6.3209     0.0000    18.8750 </r>
       <r>     6.4967     0.0000    19.2500 </r>
       <r>     6.6724     0.0000    19.6250 </r>
       <r>     6.8481     0.0000    19.7500 </r>
       <r>     7.0238     0.0000    19.7500 </r>
       <r>     7.1996     0.0000    19.7500 </r>
       <r>     7.3753     0.0000    20.0000 </r>
       <r>     7.5510     0.0000    20.0000 </r>
       <r>     7.7267     0.0000    20.0000 </r>
       <r>     7.9025     0.7113    20.1250 </r>
       <r>     8.0782     0.0000    20.2500 </r>
       <r>     8.2539     0.0000    20.3750 </r>
       <r>     8.4296     0.0000    20.3750 </r>
       <r>     8.6054     0.0000    20.3750 </r>
       <r>     8.7811     0.0000    20.3750 </r>
       <r>     8.9568     0.0000    20.5000 </r>
       <r>     9.1325     0.0000    20.5000 </r>
       <r>     9.3083     0.0000    20.5000 </r>
       <r>     9.4840     0.0000    20.6250 </r>
       <r>     9.6597     0.0000    20.6250 </r>
       <r>     9.8355     0.0000    20.7500 </r>
       <r>    10.0112     0.0000    20.7500 </r>
       <r>    10.1869     0.0000    20.8750 </r>
       <r>    10.3626     0.0000    21.1250 </r>
       <r>    10.5384     0.0000    21.5000 </r>
       <r>    10.7141     0.0000    21.6250 </r>
       <r>    10.8898     0.0000    21.7500 </r>
       <r>    11.0655     0.0000    22.5000 </r>
       <r>    11.2413     1.0223    23.2421 </r>
       <r>    11.4170     0.0000    24.1250 </r>
       <r>    11.5927     0.0000    24.3750 </r>
       <r>    11.7684     0.0000    24.5000 </r>
       <r>    11.9442     0.0000    24.6250 </r>
       <r>    12.1199     0.0000    25.1250 </r>
       <r>    12.2956     0.0000    25.5000 </r>
       <r>    12.4713     0.0000    25.5000 </r>
       <r>    12.6471     0.0000    25.6250 </r>
       <r>    12.8228     0.0000    25.8750 </r>
       <r>    12.9985     0.0000    26.0000 </r>
       <r>    13.1742     0.0000    26.0000 </r>
       <r>    13.3500     0.0000    26.3750 </r>
       <r>    13.5257     0.0000    26.7500 </r>
       <r>    13.7014     0.0000    26.7500 </r>
       <r>    13.8771     0.0000    26.7500 </r>
       <r>    14.0529     0.0000    26.8750 </r>
       <r>    14.2286     0.0000    27.1250 </r>
       <r>    14.4043     0.0000    27.1250 </r>
       <r>    14.5800     0.0000    27.1250 </r>
       <r>    14.7558     0.0000    27.1250 </r>
       <r>    14.9315     0.0000    27.1250 </r>
       <r>    15.1072     0.0000    27.2500 </r>
       <r>    15.2830     0.0000    27.5000 </r>
       <r>    15.4587     0.0000    27.5000 </r>
       <r>    15.6344     0.0000    27.5000 </r>
       <r>    15.8101     0.0000    27.5000 </r>
       <r>    15.9859     0.0000    27.5000 </r>
       <r>    16.1616     0.0000    27.6250 </r>
       <r>    16.3373     0.0000    27.6250 </r>
       <r>    16.5130     0.0000    27.7500 </r>
       <r>    16.6888     0.0000    27.7500 </r>
       <r>    16.8645     0.0000    27.8750 </r>
       <r>    17.0402     0.0000    27.8750 </r>
       <r>    17.2159     0.0000    27.8750 </r>
       <r>    17.3917     0.0000    27.8750 </r>
       <r>    17.5674     0.0000    28.0000 </r>
       <r>    17.7431     0.0000    28.0000 </r>
       <r>    17.9188     0.0000    28.0000 </r>
       <r>    18.0946     0.0000    28.0000 </r>
       <r>    18.2703     0.0000    28.0000 </r>
       <r>    18.4460     0.0000    28.0000 </r>
       <r>    18.6217     0.0000    28.0000 </r>
       <r>    18.7975     0.0000    28.0000 </r>
       <r>    18.9732     0.0000    28.0000 </r>
       <r>    19.1489     0.0000    28.0000 </r>
       <r>    19.3246     0.0000    28.0000 </r>
       <r>    19.5004     0.0000    28.0000 </r>
       <r>    19.6761     0.0000    28.0000 </r>
       <r>    19.8518     0.0000    28.0000 </r>
      </set>
      <set comment="spin 2">
       <r>   -32.8659     0.0000     0.0000 </r>
       <r>   -32.6902     0.0000     0.0000 </r>
       <r>   -32.5145     0.0000     0.0000 </r>
       <r>   -32.3387     0.0000     0.0000 </r>
       <r>   -32.1630     0.0000     0.0000 </r>
       <r>   -31.9873     0.0000     0.0000 </r>
       <r>   -31.8116     0.0000     0.0000 </r>
       <r>   -31.6358     0.0000     0.0000 </r>
       <r>   -31.4601     0.0000     0.0000 </r>
       <r>   -31.2844     0.0000     0.0000 </r>
       <r>   -31.1087     0.0000     0.0000 </r>
       <r>   -30.9329     0.0000     0.0000 </r>
       <r>   -30.7572     0.0000     0.0000 </r>
       <r>   -30.5815     0.0000     0.0000 </r>
       <r>   -30.4057     0.0000     0.0000 </r>
       <r>   -30.2300     0.0000     0.0000 </r>
       <r>   -30.0543     0.0000     0.0000 </r>
       <r>   -29.8786     0.0000     0.0000 </r>
       <r>   -29.7028     0.0000     0.0000 </r>
       <r>   -29.5271     0.0000     0.0000 </r>
       <r>   -29.3514     0.0000     0.0000 </r>
       <r>   -29.1757     0.0000     0.0000 </r>
       <r>   -28.9999     0.0000     0.0000 </r>
       <r>   -28.8242     0.0000     0.0000 </r>
       <r>   -28.6485     0.0000     0.0000 </r>
       <r>   -28.4728     0.0000     0.0000 </r>
       <r>   -28.2970     0.0000     0.0000 </r>
       <r>   -28.1213     0.0000     0.0000 </r>
       <r>   -27.9456     0.0000     0.0000 </r>
       <r>   -27.7699     0.0000     0.0000 </r>
       <r>   -27.5941     0.0000     0.0000 </r>
       <r>   -27.4184     0.0000     0.0000 </r>
       <r>   -27.2427     0.0000     0.0000 </r>
       <r>   -27.0670     0.0000     0.0000 </r>
       <r>   -26.8912     0.0000     0.0000 </r>
       <r>   -26.7155     0.0000     0.0000 </r>
       <r>   -26.5398     0.0000     0.0000 </r>
       <r>   -26.3641     0.0000     0.0000 </r>
       <r>   -26.1883     0.0000     0.0000 </r>
       <r>   -26.0126     0.0000     0.0000 </r>
       <r>   -25.8369     0.0000     0.0000 </r>
       <r>   -25.6612     0.0000     0.0000 </r>
       <r>   -25.4854     0.0000     0.0000 </r>
       <r>   -25.3097     0.0000     0.0000 </r>
       <r>   -25.1340     0.0000     0.0000 </r>
       <r>   -24.9583     0.0000     0.0000 </r>
       <r>   -24.7825     0.0000     0.0000 </r>
       <r>   -24.6068     0.0000     0.0000 </r>
       <r>   -24.4311     0.0000     0.0000 </r>
       <r>   -24.2553     0.0000     0.0000 </r>
       <r>   -24.0796     0.0000     0.0000 </r>
       <r>   -23.9039     0.0000     0.0000 </r>
       <r>   -23.7282     0.0000     0.0000 </r>
       <r>   -23.5524     0.0000     0.0000 </r>
       <r>   -23.3767     0.0000     0.0000 </r>
       <r>   -23.2010     0.0000     0.0000 </r>
       <r>   -23.0253     0.0000     0.0000 </r>
       <r>   -22.8495     0.0000     0.0000 </r>
       <r>   -22.6738     0.0000     0.0000 </r>
       <r>   -22.4981     0.0000     0.0000 </r>
       <r>   -22.3224     0.0000     0.0000 </r>
       <r>   -22.1466     0.0000     0.0000 </r>
       <r>   -21.9709     0.0000     0.0000 </r>
       <r>   -21.7952     0.0000     0.0000 </r>
       <r>   -21.6195     0.0000     0.0000 </r>
       <r>   -21.4437     0.0000     0.0000 </r>
       <r>   -21.2680     0.0000     0.0000 </r>
       <r>   -21.0923     0.0000     0.0000 </r>
       <r>   -20.9166     0.0000     0.0000 </r>
       <r>   -20.7408     0.0000     0.0000 </r>
       <r>   -20.5651     0.0000     0.0000 </r>
       <r>   -20.3894     0.0000     0.0000 </r>
       <r>   -20.2137     0.0000     0.0000 </r>
       <r>   -20.0379     0.0000     0.0000 </r>
       <r>   -19.8622     0.0000     0.0000 </r>
       <r>   -19.6865     0.0000     0.0000 </r>
       <r>   -19.5108     0.0000     0.0000 </r>
       <r>   -19.3350     0.0000     0.0000 </r>
       <r>   -19.1593     0.0000     0.0000 </r>
       <r>   -18.9836     0.0000     0.0000 </r>
       <r>   -18.8078     0.0000     0.0000 </r>
       <r>   -18.6321     0.0000     0.0000 </r>
       <r>   -18.4564     0.0000     0.0000 </r>
       <r>   -18.2807     0.0000     0.0000 </r>
       <r>   -18.1049     0.0000     0.0000 </r>
       <r>   -17.9292     0.0000     0.0000 </r>
       <r>   -17.7535     0.0000     0.0000 </r>
       <r>   -17.5778     0.0000     0.0000 </r>
       <r>   -17.4020     0.0000     0.0000 </r>
       <r>   -17.2263     0.0000     0.0000 </r>
       <r>   -17.0506     0.0000     0.0000 </r>
       <r>   -16.8749     0.0000     0.0000 </r>
       <r>   -16.6991     0.0000     0.0000 </r>
       <r>   -16.5234     0.0000     0.0000 </r>
       <r>   -16.3477     0.0000     0.0000 </r>
       <r>   -16.1720     0.0000     0.0000 </r>
       <r>   -15.9962     0.0000     0.0000 </r>
       <r>   -15.8205     0.0000     0.0000 </r>
       <r>   -15.6448     0.0000     0.0000 </r>
       <r>   -15.4691     0.0000     0.0000 </r>
       <r>   -15.2933     0.0000     0.0000 </r>
       <r>   -15.1176     0.0000     0.0000 </r>
       <r>   -14.9419     0.0000     0.0000 </r>
       <r>   -14.7662     0.0000     0.0000 </r>
       <r>   -14.5904     0.0000     0.0000 </r>
       <r>   -14.4147     0.0000     0.0000 </r>
       <r>   -14.2390     0.0000     0.0000 </r>
       <r>   -14.0633     0.0000     0.0000 </r>
       <r>   -13.8875     0.0000     0.0000 </r>
       <r>   -13.7118     0.0000     0.0000 </r>
       <r>   -13.5361     0.0000     0.0000 </r>
       <r>   -13.3603     0.0000     0.0000 </r>
       <r>   -13.1846     0.0000     0.0000 </r>
       <r>   -13.0089     0.0000     0.0000 </r>
       <r>   -12.8332     0.0000     0.0000 </r>
       <r>   -12.6574     0.0000     0.0000 </r>
       <r>   -12.4817     0.0000     0.0000 </r>
       <r>   -12.3060     0.0000     0.0000 </r>
       <r>   -12.1303     0.0000     0.0000 </r>
       <r>   -11.9545     0.0000     0.0000 </r>
       <r>   -11.7788     0.0000     0.0000 </r>
       <r>   -11.6031     0.0000     0.0000 </r>
       <r>   -11.4274     0.0000     0.0000 </r>
       <r>   -11.2516     0.0000     0.0000 </r>
       <r>   -11.0759     0.0000     0.0000 </r>
       <r>   -10.9002     0.0000     0.0000 </r>
       <r>   -10.7245     0.0000     0.0000 </r>
       <r>   -10.5487     0.0000     0.0000 </r>
       <r>   -10.3730     0.0000     0.0000 </r>
       <r>   -10.1973     0.0000     0.0000 </r>
       <r>   -10.0216     0.0000     0.0000 </r>
       <r>    -9.8458     0.0000     0.0000 </r>
       <r>    -9.6701     0.0000     0.0000 </r>
       <r>    -9.4944     0.0000     0.0000 </r>
       <r>    -9.3187     0.0000     0.0000 </r>
       <r>    -9.1429     0.0000     0.0000 </r>
       <r>    -8.9672     0.0000     0.0000 </r>
       <r>    -8.7915     0.0000     0.0000 </r>
       <r>    -8.6158     0.0000     0.0000 </r>
       <r>    -8.4400     0.0000     0.0000 </r>
       <r>    -8.2643     0.0000     0.0000 </r>
       <r>    -8.0886     0.0000     0.0000 </r>
       <r>    -7.9129     0.0000     0.0000 </r>
       <r>    -7.7371     0.0000     0.0000 </r>
       <r>    -7.5614     0.0000     0.0000 </r>
       <r>    -7.3857     0.0000     0.0000 </r>
       <r>    -7.2099     0.0000     0.0000 </r>
       <r>    -7.0342     0.0000     0.0000 </r>
       <r>    -6.8585     0.0000     0.0000 </r>
       <r>    -6.6828     0.0000     0.0000 </r>
       <r>    -6.5070     0.0000     0.0000 </r>
       <r>    -6.3313     0.0000     0.0000 </r>
       <r>    -6.1556     0.0000     0.0000 </r>
       <r>    -5.9799     0.0000     0.0000 </r>
       <r>    -5.8041     0.0000     0.0000 </r>
       <r>    -5.6284     0.0000     0.0000 </r>
       <r>    -5.4527     0.0000     0.0000 </r>
       <r>    -5.2770     0.0000     0.0000 </r>
       <r>    -5.1012     0.0000     0.0000 </r>
       <r>    -4.9255     0.0000     0.0000 </r>
       <r>    -4.7498     0.0000     0.0000 </r>
       <r>    -4.5741     0.0000     0.0000 </r>
       <r>    -4.3983     0.0000     0.0000 </r>
       <r>    -4.2226     0.0000     0.0000 </r>
       <r>    -4.0469     0.0000     0.0000 </r>
       <r>    -3.8712     0.0000     0.0000 </r>
       <r>    -3.6954     0.0000     0.0000 </r>
       <r>    -3.5197     0.0000     0.0000 </r>
       <r>    -3.3440     0.0000     0.0000 </r>
       <r>    -3.1683     0.0000     0.0000 </r>
       <r>    -2.9925     0.0000     0.0000 </r>
       <r>    -2.8168     0.0000     0.0000 </r>
       <r>    -2.6411     0.0000     0.0000 </r>
       <r>    -2.4654     0.0000     0.0000 </r>
       <r>    -2.2896     0.0000     0.0000 </r>
       <r>    -2.1139     0.0000     0.0000 </r>
       <r>    -1.9382     0.0000     0.0000 </r>
       <r>    -1.7624     0.0000     0.0000 </r>
       <r>    -1.5867     0.0000     0.0000 </r>
       <r>    -1.4110     0.0000     0.0000 </r>
       <r>    -1.2353     0.0000     0.0000 </r>
       <r>    -1.0595     0.0000     0.0000 </r>
       <r>    -0.8838     0.0000     0.0000 </r>
       <r>    -0.7081     0.0000     0.0000 </r>
       <r>    -0.5324     0.0000     0.0000 </r>
       <r>    -0.3566     0.0000     0.0000 </r>
       <r>    -0.1809     0.0000     0.0000 </r>
       <r>    -0.0052     0.0000     0.0000 </r>
       <r>     0.1705     0.0000     0.0000 </r>
       <r>     0.3463     0.0000     0.0000 </r>
       <r>     0.5220     0.0000     0.0000 </r>
       <r>     0.6977     0.0000     0.0000 </r>
       <r>     0.8734     0.0000     0.0000 </r>
       <r>     1.0492     0.0000     0.0000 </r>
       <r>     1.2249     0.0000     0.0000 </r>
       <r>     1.4006     0.0000     0.0000 </r>
       <r>     1.5763     0.0000     0.0000 </r>
       <r>     1.7521     0.0000     0.0000 </r>
       <r>     1.9278     0.0000     0.0000 </r>
       <r>     2.1035     0.0000     0.0000 </r>
       <r>     2.2792     0.0000     0.0000 </r>
       <r>     2.4550     0.0000     0.0000 </r>
       <r>     2.6307     0.0000     0.0000 </r>
       <r>     2.8064     0.0000     0.0000 </r>
       <r>     2.9821     0.0000     0.0000 </r>
       <r>     3.1579     0.0000     0.0000 </r>
       <r>     3.3336     0.0000     0.0000 </r>
       <r>     3.5093     0.0000     0.0000 </r>
       <r>     3.6851     0.0000     0.0000 </r>
       <r>     3.8608     0.0000     0.0000 </r>
       <r>     4.0365     0.0000     0.0000 </r>
       <r>     4.2122     0.0000     0.0000 </r>
       <r>     4.3880     0.0000     0.0000 </r>
       <r>     4.5637     0.0000     0.0000 </r>
       <r>     4.7394     0.0000     0.0000 </r>
       <r>     4.9151     0.0000     0.0000 </r>
       <r>     5.0909     0.0000     0.0000 </r>
       <r>     5.2666     0.0000     0.0000 </r>
       <r>     5.4423     0.0000     0.0000 </r>
       <r>     5.6180     0.0000     0.0000 </r>
       <r>     5.7938     0.0000     0.0000 </r>
       <r>     5.9695     0.0000     0.0000 </r>
       <r>     6.1452     0.0000     0.0000 </r>
       <r>     6.3209     0.0000     0.0000 </r>
       <r>     6.4967     0.0000     0.0000 </r>
       <r>     6.6724     0.0000     0.0000 </r>
       <r>     6.8481     0.0000     0.0000 </r>
       <r>     7.0238     0.0000     0.0000 </r>
       <r>     7.1996     0.0000     0.0000 </r>
       <r>     7.3753     0.0000     0.0000 </r>
       <r>     7.5510     0.0000     0.0000 </r>
       <r>     7.7267     0.0000     0.0000 </r>
       <r>     7.9025     0.0000     0.0000 </r>
       <r>     8.0782     0.0000     0.0000 </r>
       <r>     8.2539     0.0000     0.0000 </r>
       <r>     8.4296     0.0000     0.0000 </r>
       <r>     8.6054     0.0000     0.0000 </r>
       <r>     8.7811     0.0000     0.0000 </r>
       <r>     8.9568     0.0000     0.0000 </r>
       <r>     9.1325     0.0000     0.0000 </r>
       <r>     9.3083     0.0000     0.0000 </r>
       <r>     9.4840     0.0000     0.0000 </r>
       <r>     9.6597     0.0000     0.0000 </r>
       <r>     9.8355     0.0000     0.0000 </r>
       <r>    10.0112     0.0000     0.0000 </r>
       <r>    10.1869     0.0000     0.0000 </r>
       <r>    10.3626     0.0000     0.0000 </r>
       <r>    10.5384     0.0000     0.0000 </r>
       <r>    10.7141     0.0000     0.0000 </r>
       <r>    10.8898     0.0000     0.0000 </r>
       <r>    11.0655     0.0000     0.0000 </r>
       <r>    11.2413     0.0000     0.0000 </r>
       <r>    11.4170     0.0000     0.0000 </r>
       <r>    11.5927     0.0000     0.0000 </r>
       <r>    11.7684     0.0000     0.0000 </r>
       <r>    11.9442     0.0000     0.0000 </r>
       <r>    12.1199     0.0000     0.0000 </r>
       <r>    12.2956     0.0000     0.0000 </r>
       <r>    12.4713     0.0000     0.0000 </r>
       <r>    12.6471     0.0000     0.0000 </r>
       <r>    12.8228     0.0000     0.0000 </r>
       <r>    12.9985     0.0000     0.0000 </r>
       <r>    13.1742     0.0000     0.0000 </r>
       <r>    13.3500     0.0000     0.0000 </r>
       <r>    13.5257     0.0000     0.0000 </r>
       <r>    13.7014     0.0000     0.0000 </r>
       <r>    13.8771     0.0000     0.0000 </r>
       <r>    14.0529     0.0000     0.0000 </r>
       <r>    14.2286     0.0000     0.0000 </r>
       <r>    14.4043     0.0000     0.0000 </r>
       <r>    14.5800     0.0000     0.0000 </r>
       <r>    14.7558     0.0000     0.0000 </r>
       <r>    14.9315     0.0000     0.0000 </r>
       <r>    15.1072     0.0000     0.0000 </r>
       <r>    15.2830     0.0000     0.0000 </r>
       <r>    15.4587     0.0000     0.0000 </r>
       <r>    15.6344     0.0000     0.0000 </r>
       <r>    15.8101     0.0000     0.0000 </r>
       <r>    15.9859     0.0000     0.0000 </r>
       <r>    16.1616     0.0000     0.0000 </r>
       <r>    16.3373     0.0000     0.0000 </r>
       <r>    16.5130     0.0000     0.0000 </r>
       <r>    16.6888     0.0000     0.0000 </r>
       <r>    16.8645     0.0000     0.0000 </r>
       <r>    17.0402     0.0000     0.0000 </r>
       <r>    17.2159     0.0000     0.0000 </r>
       <r>    17.3917     0.0000     0.0000 </r>
       <r>    17.5674     0.0000     0.0000 </r>
       <r>    17.7431     0.0000     0.0000 </r>
       <r>    17.9188     0.0000     0.0000 </r>
       <r>    18.0946     0.0000     0.0000 </r>
       <r>    18.2703     0.0000     0.0000 </r>
       <r>    18.4460     0.0000     0.0000 </r>
       <r>    18.6217     0.0000     0.0000 </r>
       <r>    18.7975     0.0000     0.0000 </r>
       <r>    18.9732     0.0000     0.0000 </r>
       <r>    19.1489     0.0000     0.0000 </r>
       <r>    19.3246     0.0000     0.0000 </r>
       <r>    19.5004     0.0000     0.0000 </r>
       <r>    19.6761     0.0000     0.0000 </r>
       <r>    19.8518     0.0000     0.0000 </r>
      </set>
      <set comment="spin 3">
       <r>   -32.8659     0.0000     0.0000 </r>
       <r>   -32.6902     0.0000     0.0000 </r>
       <r>   -32.5145     0.0000     0.0000 </r>
       <r>   -32.3387     0.0000     0.0000 </r>
       <r>   -32.1630     0.0000     0.0000 </r>
       <r>   -31.9873     0.0000     0.0000 </r>
       <r>   -31.8116     0.0000     0.0000 </r>
       <r>   -31.6358     0.0000     0.0000 </r>
       <r>   -31.4601     0.0000     0.0000 </r>
       <r>   -31.2844     0.0000     0.0000 </r>
       <r>   -31.1087     0.0000     0.0000 </r>
       <r>   -30.9329     0.0000     0.0000 </r>
       <r>   -30.7572     0.0000     0.0000 </r>
       <r>   -30.5815     0.0000     0.0000 </r>
       <r>   -30.4057     0.0000     0.0000 </r>
       <r>   -30.2300     0.0000     0.0000 </r>
       <r>   -30.0543     0.0000     0.0000 </r>
       <r>   -29.8786     0.0000     0.0000 </r>
       <r>   -29.7028     0.0000     0.0000 </r>
       <r>   -29.5271     0.0000     0.0000 </r>
       <r>   -29.3514     0.0000     0.0000 </r>
       <r>   -29.1757     0.0000     0.0000 </r>
       <r>   -28.9999     0.0000     0.0000 </r>
       <r>   -28.8242     0.0000     0.0000 </r>
       <r>   -28.6485     0.0000     0.0000 </r>
       <r>   -28.4728     0.0000     0.0000 </r>
       <r>   -28.2970     0.0000     0.0000 </r>
       <r>   -28.1213     0.0000     0.0000 </r>
       <r>   -27.9456     0.0000     0.0000 </r>
       <r>   -27.7699     0.0000     0.0000 </r>
       <r>   -27.5941     0.0000     0.0000 </r>
       <r>   -27.4184     0.0000     0.0000 </r>
       <r>   -27.2427     0.0000     0.0000 </r>
       <r>   -27.0670     0.0000     0.0000 </r>
       <r>   -26.8912     0.0000     0.0000 </r>
       <r>   -26.7155     0.0000     0.0000 </r>
       <r>   -26.5398     0.0000     0.0000 </r>
       <r>   -26.3641     0.0000     0.0000 </r>
       <r>   -26.1883     0.0000     0.0000 </r>
       <r>   -26.0126     0.0000     0.0000 </r>
       <r>   -25.8369     0.0000     0.0000 </r>
       <r>   -25.6612     0.0000     0.0000 </r>
       <r>   -25.4854     0.0000     0.0000 </r>
       <r>   -25.3097     0.0000     0.0000 </r>
       <r>   -25.1340     0.0000     0.0000 </r>
       <r>   -24.9583     0.0000     0.0000 </r>
       <r>   -24.7825     0.0000     0.0000 </r>
       <r>   -24.6068     0.0000     0.0000 </r>
       <r>   -24.4311     0.0000     0.0000 </r>
       <r>   -24.2553     0.0000     0.0000 </r>
       <r>   -24.0796     0.0000     0.0000 </r>
       <r>   -23.9039     0.0000     0.0000 </r>
       <r>   -23.7282     0.0000     0.0000 </r>
       <r>   -23.5524     0.0000     0.0000 </r>
       <r>   -23.3767     0.0000     0.0000 </r>
       <r>   -23.2010     0.0000     0.0000 </r>
       <r>   -23.0253     0.0000     0.0000 </r>
       <r>   -22.8495     0.0000     0.0000 </r>
       <r>   -22.6738     0.0000     0.0000 </r>
       <r>   -22.4981     0.0000     0.0000 </r>
       <r>   -22.3224     0.0000     0.0000 </r>
       <r>   -22.1466     0.0000     0.0000 </r>
       <r>   -21.9709     0.0000     0.0000 </r>
       <r>   -21.7952     0.0000     0.0000 </r>
       <r>   -21.6195     0.0000     0.0000 </r>
       <r>   -21.4437     0.0000     0.0000 </r>
       <r>   -21.2680     0.0000     0.0000 </r>
       <r>   -21.0923     0.0000     0.0000 </r>
       <r>   -20.9166     0.0000     0.0000 </r>
       <r>   -20.7408     0.0000     0.0000 </r>
       <r>   -20.5651     0.0000     0.0000 </r>
       <r>   -20.3894     0.0000     0.0000 </r>
       <r>   -20.2137     0.0000     0.0000 </r>
       <r>   -20.0379     0.0000     0.0000 </r>
       <r>   -19.8622     0.0000     0.0000 </r>
       <r>   -19.6865     0.0000     0.0000 </r>
       <r>   -19.5108     0.0000     0.0000 </r>
       <r>   -19.3350     0.0000     0.0000 </r>
       <r>   -19.1593     0.0000     0.0000 </r>
       <r>   -18.9836     0.0000     0.0000 </r>
       <r>   -18.8078     0.0000     0.0000 </r>
       <r>   -18.6321     0.0000     0.0000 </r>
       <r>   -18.4564     0.0000     0.0000 </r>
       <r>   -18.2807     0.0000     0.0000 </r>
       <r>   -18.1049     0.0000     0.0000 </r>
       <r>   -17.9292     0.0000     0.0000 </r>
       <r>   -17.7535     0.0000     0.0000 </r>
       <r>   -17.5778     0.0000     0.0000 </r>
       <r>   -17.4020     0.0000     0.0000 </r>
       <r>   -17.2263     0.0000     0.0000 </r>
       <r>   -17.0506     0.0000     0.0000 </r>
       <r>   -16.8749     0.0000     0.0000 </r>
       <r>   -16.6991     0.0000     0.0000 </r>
       <r>   -16.5234     0.0000     0.0000 </r>
       <r>   -16.3477     0.0000     0.0000 </r>
       <r>   -16.1720     0.0000     0.0000 </r>
       <r>   -15.9962     0.0000     0.0000 </r>
       <r>   -15.8205     0.0000     0.0000 </r>
       <r>   -15.6448     0.0000     0.0000 </r>
       <r>   -15.4691     0.0000     0.0000 </r>
       <r>   -15.2933     0.0000     0.0000 </r>
       <r>   -15.1176     0.0000     0.0000 </r>
       <r>   -14.9419     0.0000     0.0000 </r>
       <r>   -14.7662     0.0000     0.0000 </r>
       <r>   -14.5904     0.0000     0.0000 </r>
       <r>   -14.4147     0.0000     0.0000 </r>
       <r>   -14.2390     0.0000     0.0000 </r>
       <r>   -14.0633     0.0000     0.0000 </r>
       <r>   -13.8875     0.0000     0.0000 </r>
       <r>   -13.7118     0.0000     0.0000 </r>
       <r>   -13.5361     0.0000     0.0000 </r>
       <r>   -13.3603     0.0000     0.0000 </r>
       <r>   -13.1846     0.0000     0.0000 </r>
       <r>   -13.0089     0.0000     0.0000 </r>
       <r>   -12.8332     0.0000     0.0000 </r>
       <r>   -12.6574     0.0000     0.0000 </r>
       <r>   -12.4817     0.0000     0.0000 </r>
       <r>   -12.3060     0.0000     0.0000 </r>
       <r>   -12.1303     0.0000     0.0000 </r>
       <r>   -11.9545     0.0000     0.0000 </r>
       <r>   -11.7788     0.0000     0.0000 </r>
       <r>   -11.6031     0.0000     0.0000 </r>
       <r>   -11.4274     0.0000     0.0000 </r>
       <r>   -11.2516     0.0000     0.0000 </r>
       <r>   -11.0759     0.0000     0.0000 </r>
       <r>   -10.9002     0.0000     0.0000 </r>
       <r>   -10.7245     0.0000     0.0000 </r>
       <r>   -10.5487     0.0000     0.0000 </r>
       <r>   -10.3730     0.0000     0.0000 </r>
       <r>   -10.1973     0.0000     0.0000 </r>
       <r>   -10.0216     0.0000     0.0000 </r>
       <r>    -9.8458     0.0000     0.0000 </r>
       <r>    -9.6701     0.0000     0.0000 </r>
       <r>    -9.4944     0.0000     0.0000 </r>
       <r>    -9.3187     0.0000     0.0000 </r>
       <r>    -9.1429     0.0000     0.0000 </r>
       <r>    -8.9672     0.0000     0.0000 </r>
       <r>    -8.7915     0.0000     0.0000 </r>
       <r>    -8.6158     0.0000     0.0000 </r>
       <r>    -8.4400     0.0000     0.0000 </r>
       <r>    -8.2643     0.0000     0.0000 </r>
       <r>    -8.0886     0.0000     0.0000 </r>
       <r>    -7.9129     0.0000     0.0000 </r>
       <r>    -7.7371     0.0000     0.0000 </r>
       <r>    -7.5614     0.0000     0.0000 </r>
       <r>    -7.3857     0.0000     0.0000 </r>
       <r>    -7.2099     0.0000     0.0000 </r>
       <r>    -7.0342     0.0000     0.0000 </r>
       <r>    -6.8585     0.0000     0.0000 </r>
       <r>    -6.6828     0.0000     0.0000 </r>
       <r>    -6.5070     0.0000     0.0000 </r>
       <r>    -6.3313     0.0000     0.0000 </r>
       <r>    -6.1556     0.0000     0.0000 </r>
       <r>    -5.9799     0.0000     0.0000 </r>
       <r>    -5.8041     0.0000     0.0000 </r>
       <r>    -5.6284     0.0000     0.0000 </r>
       <r>    -5.4527     0.0000     0.0000 </r>
       <r>    -5.2770     0.0000     0.0000 </r>
       <r>    -5.1012     0.0000     0.0000 </r>
       <r>    -4.9255     0.0000     0.0000 </r>
       <r>    -4.7498     0.0000     0.0000 </r>
       <r>    -4.5741     0.0000     0.0000 </r>
       <r>    -4.3983     0.0000     0.0000 </r>
       <r>    -4.2226     0.0000     0.0000 </r>
       <r>    -4.0469     0.0000     0.0000 </r>
       <r>    -3.8712     0.0000     0.0000 </r>
       <r>    -3.6954     0.0000     0.0000 </r>
       <r>    -3.5197     0.0000     0.0000 </r>
       <r>    -3.3440     0.0000     0.0000 </r>
       <r>    -3.1683     0.0000     0.0000 </r>
       <r>    -2.9925     0.0000     0.0000 </r>
       <r>    -2.8168     0.0000     0.0000 </r>
       <r>    -2.6411     0.0000     0.0000 </r>
       <r>    -2.4654     0.0000     0.0000 </r>
       <r>    -2.2896     0.0000     0.0000 </r>
       <r>    -2.1139     0.0000     0.0000 </r>
       <r>    -1.9382     0.0000     0.0000 </r>
       <r>    -1.7624     0.0000     0.0000 </r>
       <r>    -1.5867     0.0000     0.0000 </r>
       <r>    -1.4110     0.0000     0.0000 </r>
       <r>    -1.2353     0.0000     0.0000 </r>
       <r>    -1.0595     0.0000     0.0000 </r>
       <r>    -0.8838     0.0000     0.0000 </r>
       <r>    -0.7081     0.0000     0.0000 </r>
       <r>    -0.5324     0.0000     0.0000 </r>
       <r>    -0.3566     0.0000     0.0000 </r>
       <r>    -0.1809     0.0000     0.0000 </r>
       <r>    -0.0052     0.0000     0.0000 </r>
       <r>     0.1705     0.0000     0.0000 </r>
       <r>     0.3463     0.0000     0.0000 </r>
       <r>     0.5220     0.0000     0.0000 </r>
       <r>     0.6977     0.0000     0.0000 </r>
       <r>     0.8734     0.0000     0.0000 </r>
       <r>     1.0492     0.0000     0.0000 </r>
       <r>     1.2249     0.0000     0.0000 </r>
       <r>     1.4006     0.0000     0.0000 </r>
       <r>     1.5763     0.0000     0.0000 </r>
       <r>     1.7521     0.0000     0.0000 </r>
       <r>     1.9278     0.0000     0.0000 </r>
       <r>     2.1035     0.0000     0.0000 </r>
       <r>     2.2792     0.0000     0.0000 </r>
       <r>     2.4550     0.0000     0.0000 </r>
       <r>     2.6307     0.0000     0.0000 </r>
       <r>     2.8064     0.0000     0.0000 </r>
       <r>     2.9821     0.0000     0.0000 </r>
       <r>     3.1579     0.0000     0.0000 </r>
       <r>     3.3336     0.0000     0.0000 </r>
       <r>     3.5093     0.0000     0.0000 </r>
       <r>     3.6851     0.0000     0.0000 </r>
       <r>     3.8608     0.0000     0.0000 </r>
       <r>     4.0365     0.0000     0.0000 </r>
       <r>     4.2122     0.0000     0.0000 </r>
       <r>     4.3880     0.0000     0.0000 </r>
       <r>     4.5637     0.0000     0.0000 </r>
       <r>     4.7394     0.0000     0.0000 </r>
       <r>     4.9151     0.0000     0.0000 </r>
       <r>     5.0909     0.0000     0.0000 </r>
       <r>     5.2666     0.0000     0.0000 </r>
       <r>     5.4423     0.0000     0.0000 </r>
       <r>     5.6180     0.0000     0.0000 </r>
       <r>     5.7938     0.0000     0.0000 </r>
       <r>     5.9695     0.0000     0.0000 </r>
       <r>     6.1452     0.0000     0.0000 </r>
       <r>     6.3209     0.0000     0.0000 </r>
       <r>     6.4967     0.0000     0.0000 </r>
       <r>     6.6724     0.0000     0.0000 </r>
       <r>     6.8481     0.0000     0.0000 </r>
       <r>     7.0238     0.0000     0.0000 </r>
       <r>     7.1996     0.0000     0.0000 </r>
       <r>     7.3753     0.0000     0.0000 </r>
       <r>     7.5510     0.0000     0.0000 </r>
       <r>     7.7267     0.0000     0.0000 </r>
       <r>     7.9025     0.0000     0.0000 </r>
       <r>     8.0782     0.0000     0.0000 </r>
       <r>     8.2539     0.0000     0.0000 </r>
       <r>     8.4296     0.0000     0.0000 </r>
       <r>     8.6054     0.0000     0.0000 </r>
       <r>     8.7811     0.0000     0.0000 </r>
       <r>     8.9568     0.0000     0.0000 </r>
       <r>     9.1325     0.0000     0.0000 </r>
       <r>     9.3083     0.0000     0.0000 </r>
       <r>     9.4840     0.0000     0.0000 </r>
       <r>     9.6597     0.0000     0.0000 </r>
       <r>     9.8355     0.0000     0.0000 </r>
       <r>    10.0112     0.0000     0.0000 </r>
       <r>    10.1869     0.0000     0.0000 </r>
       <r>    10.3626     0.0000     0.0000 </r>
       <r>    10.5384     0.0000     0.0000 </r>
       <r>    10.7141     0.0000     0.0000 </r>
       <r>    10.8898     0.0000     0.0000 </r>
       <r>    11.0655     0.0000     0.0000 </r>
       <r>    11.2413     0.0000     0.0000 </r>
       <r>    11.4170     0.0000     0.0000 </r>
       <r>    11.5927     0.0000     0.0000 </r>
       <r>    11.7684     0.0000     0.0000 </r>
       <r>    11.9442     0.0000     0.0000 </r>
       <r>    12.1199     0.0000     0.0000 </r>
       <r>    12.2956     0.0000     0.0000 </r>
       <r>    12.4713     0.0000     0.0000 </r>
       <r>    12.6471     0.0000     0.0000 </r>
       <r>    12.8228     0.0000     0.0000 </r>
       <r>    12.9985     0.0000     0.0000 </r>
       <r>    13.1742     0.0000     0.0000 </r>
       <r>    13.3500     0.0000     0.0000 </r>
       <r>    13.5257     0.0000     0.0000 </r>
       <r>    13.7014     0.0000     0.0000 </r>
       <r>    13.8771     0.0000     0.0000 </r>
       <r>    14.0529     0.0000     0.0000 </r>
       <r>    14.2286     0.0000     0.0000 </r>
       <r>    14.4043     0.0000     0.0000 </r>
       <r>    14.5800     0.0000     0.0000 </r>
       <r>    14.7558     0.0000     0.0000 </r>
       <r>    14.9315     0.0000     0.0000 </r>
       <r>    15.1072     0.0000     0.0000 </r>
       <r>    15.2830     0.0000     0.0000 </r>
       <r>    15.4587     0.0000     0.0000 </r>
       <r>    15.6344     0.0000     0.0000 </r>
       <r>    15.8101     0.0000     0.0000 </r>
       <r>    15.9859     0.0000     0.0000 </r>
       <r>    16.1616     0.0000     0.0000 </r>
       <r>    16.3373     0.0000     0.0000 </r>
       <r>    16.5130     0.0000     0.0000 </r>
       <r>    16.6888     0.0000     0.0000 </r>
       <r>    16.8645     0.0000     0.0000 </r>
       <r>    17.0402     0.0000     0.0000 </r>
       <r>    17.2159     0.0000     0.0000 </r>
       <r>    17.3917     0.0000     0.0000 </r>
       <r>    17.5674     0.0000     0.0000 </r>
       <r>    17.7431     0.0000     0.0000 </r>
       <r>    17.9188     0.0000     0.0000 </r>
       <r>    18.0946     0.0000     0.0000 </r>
       <r>    18.2703     0.0000     0.0000 </r>
       <r>    18.4460     0.0000     0.0000 </r>
       <r>    18.6217     0.0000     0.0000 </r>
       <r>    18.7975     0.0000     0.0000 </r>
       <r>    18.9732     0.0000     0.0000 </r>
       <r>    19.1489     0.0000     0.0000 </r>
       <r>    19.3246     0.0000     0.0000 </r>
       <r>    19.5004     0.0000     0.0000 </r>
       <r>    19.6761     0.0000     0.0000 </r>
       <r>    19.8518     0.0000     0.0000 </r>
      </set>
      <set comment="spin 4">
       <r>   -32.8659     0.0000     0.0000 </r>
       <r>   -32.6902     0.0000     0.0000 </r>
       <r>   -32.5145     0.0000     0.0000 </r>
       <r>   -32.3387     0.0000     0.0000 </r>
       <r>   -32.1630     0.0000     0.0000 </r>
       <r>   -31.9873     0.0000     0.0000 </r>
       <r>   -31.8116     0.0000     0.0000 </r>
       <r>   -31.6358     0.0000     0.0000 </r>
       <r>   -31.4601     0.0000     0.0000 </r>
       <r>   -31.2844     0.0000     0.0000 </r>
       <r>   -31.1087     0.0000     0.0000 </r>
       <r>   -30.9329     0.0000     0.0000 </r>
       <r>   -30.7572     0.0000     0.0000 </r>
       <r>   -30.5815     0.0000     0.0000 </r>
       <r>   -30.4057     0.0000     0.0000 </r>
       <r>   -30.2300     0.0000     0.0000 </r>
       <r>   -30.0543     0.0000     0.0000 </r>
       <r>   -29.8786     0.0000     0.0000 </r>
       <r>   -29.7028     0.0000     0.0000 </r>
       <r>   -29.5271     0.0000     0.0000 </r>
       <r>   -29.3514     0.0000     0.0000 </r>
       <r>   -29.1757     0.0000     0.0000 </r>
       <r>   -28.9999     0.0000     0.0000 </r>
       <r>   -28.8242     0.0000     0.0000 </r>
       <r>   -28.6485     0.0000     0.0000 </r>
       <r>   -28.4728     0.0000     0.0000 </r>
       <r>   -28.2970     0.0000     0.0000 </r>
       <r>   -28.1213     0.0000     0.0000 </r>
       <r>   -27.9456     0.0000     0.0000 </r>
       <r>   -27.7699     0.0000     0.0000 </r>
       <r>   -27.5941     0.0000     0.0000 </r>
       <r>   -27.4184     0.0000     0.0000 </r>
       <r>   -27.2427     0.0000     0.0000 </r>
       <r>   -27.0670     0.0000     0.0000 </r>
       <r>   -26.8912     0.0000     0.0000 </r>
       <r>   -26.7155     0.0000     0.0000 </r>
       <r>   -26.5398     0.0000     0.0000 </r>
       <r>   -26.3641     0.0000     0.0000 </r>
       <r>   -26.1883     0.0000     0.0000 </r>
       <r>   -26.0126     0.0000     0.0000 </r>
       <r>   -25.8369     0.0000     0.0000 </r>
       <r>   -25.6612     0.0000     0.0000 </r>
       <r>   -25.4854     0.0000     0.0000 </r>
       <r>   -25.3097     0.0000     0.0000 </r>
       <r>   -25.1340     0.0000     0.0000 </r>
       <r>   -24.9583     0.0000     0.0000 </r>
       <r>   -24.7825     0.0000     0.0000 </r>
       <r>   -24.6068     0.0000     0.0000 </r>
       <r>   -24.4311     0.0000     0.0000 </r>
       <r>   -24.2553     0.0000     0.0000 </r>
       <r>   -24.0796     0.0000     0.0000 </r>
       <r>   -23.9039     0.0000     0.0000 </r>
       <r>   -23.7282     0.0000     0.0000 </r>
       <r>   -23.5524     0.0000     0.0000 </r>
       <r>   -23.3767     0.0000     0.0000 </r>
       <r>   -23.2010     0.0000     0.0000 </r>
       <r>   -23.0253     0.0000     0.0000 </r>
       <r>   -22.8495     0.0000     0.0000 </r>
       <r>   -22.6738     0.0000     0.0000 </r>
       <r>   -22.4981     0.0000     0.0000 </r>
       <r>   -22.3224     0.0000     0.0000 </r>
       <r>   -22.1466     0.0000     0.0000 </r>
       <r>   -21.9709     0.0000     0.0000 </r>
       <r>   -21.7952     0.0000     0.0000 </r>
       <r>   -21.6195     0.0000     0.0000 </r>
       <r>   -21.4437     0.0000     0.0000 </r>
       <r>   -21.2680     0.0000     0.0000 </r>
       <r>   -21.0923     0.0000     0.0000 </r>
       <r>   -20.9166     0.0000     0.0000 </r>
       <r>   -20.7408     0.0000     0.0000 </r>
       <r>   -20.5651     0.0000     0.0000 </r>
       <r>   -20.3894     0.0000     0.0000 </r>
       <r>   -20.2137     0.0000     0.0000 </r>
       <r>   -20.0379     0.0000     0.0000 </r>
       <r>   -19.8622     0.0000     0.0000 </r>
       <r>   -19.6865     0.0000     0.0000 </r>
       <r>   -19.5108     0.0000     0.0000 </r>
       <r>   -19.3350     0.0000     0.0000 </r>
       <r>   -19.1593     0.0000     0.0000 </r>
       <r>   -18.9836     0.0000     0.0000 </r>
       <r>   -18.8078     0.0000     0.0000 </r>
       <r>   -18.6321     0.0000     0.0000 </r>
       <r>   -18.4564     0.0000     0.0000 </r>
       <r>   -18.2807     0.0000     0.0000 </r>
       <r>   -18.1049     0.0000     0.0000 </r>
       <r>   -17.9292     0.0000     0.0000 </r>
       <r>   -17.7535     0.0000     0.0000 </r>
       <r>   -17.5778     0.0000     0.0000 </r>
       <r>   -17.4020     0.0000     0.0000 </r>
       <r>   -17.2263     0.0000     0.0000 </r>
       <r>   -17.0506     0.0000     0.0000 </r>
       <r>   -16.8749     0.0000     0.0000 </r>
       <r>   -16.6991     0.0000     0.0000 </r>
       <r>   -16.5234     0.0000     0.0000 </r>
       <r>   -16.3477     0.0000     0.0000 </r>
       <r>   -16.1720     0.0000     0.0000 </r>
       <r>   -15.9962     0.0000     0.0000 </r>
       <r>   -15.8205     0.0000     0.0000 </r>
       <r>   -15.6448     0.0000     0.0000 </r>
       <r>   -15.4691     0.0000     0.0000 </r>
       <r>   -15.2933     0.0000     0.0000 </r>
       <r>   -15.1176     0.0000     0.0000 </r>
       <r>   -14.9419     0.0000     0.0000 </r>
       <r>   -14.7662     0.0000     0.0000 </r>
       <r>   -14.5904     0.0000     0.0000 </r>
       <r>   -14.4147     0.0000     0.0000 </r>
       <r>   -14.2390     0.0000     0.0000 </r>
       <r>   -14.0633     0.0000     0.0000 </r>
       <r>   -13.8875     0.0000     0.0000 </r>
       <r>   -13.7118     0.0000     0.0000 </r>
       <r>   -13.5361     0.0000     0.0000 </r>
       <r>   -13.3603     0.0000     0.0000 </r>
       <r>   -13.1846     0.0000     0.0000 </r>
       <r>   -13.0089     0.0000     0.0000 </r>
       <r>   -12.8332     0.0000     0.0000 </r>
       <r>   -12.6574     0.0000     0.0000 </r>
       <r>   -12.4817     0.0000     0.0000 </r>
       <r>   -12.3060     0.0000     0.0000 </r>
       <r>   -12.1303     0.0000     0.0000 </r>
       <r>   -11.9545     0.0000     0.0000 </r>
       <r>   -11.7788     0.0000     0.0000 </r>
       <r>   -11.6031     0.0000     0.0000 </r>
       <r>   -11.4274     0.0000     0.0000 </r>
       <r>   -11.2516     0.0000     0.0000 </r>
       <r>   -11.0759     0.0000     0.0000 </r>
       <r>   -10.9002     0.0000     0.0000 </r>
       <r>   -10.7245     0.0000     0.0000 </r>
       <r>   -10.5487     0.0000     0.0000 </r>
       <r>   -10.3730     0.0000     0.0000 </r>
       <r>   -10.1973     0.0000     0.0000 </r>
       <r>   -10.0216     0.0000     0.0000 </r>
       <r>    -9.8458     0.0000     0.0000 </r>
       <r>    -9.6701     0.0000     0.0000 </r>
       <r>    -9.4944     0.0000     0.0000 </r>
       <r>    -9.3187     0.0000     0.0000 </r>
       <r>    -9.1429     0.0000     0.0000 </r>
       <r>    -8.9672     0.0000     0.0000 </r>
       <r>    -8.7915     0.0000     0.0000 </r>
       <r>    -8.6158     0.0000     0.0000 </r>
       <r>    -8.4400     0.0000     0.0000 </r>
       <r>    -8.2643     0.0000     0.0000 </r>
       <r>    -8.0886     0.0000     0.0000 </r>
       <r>    -7.9129     0.0000     0.0000 </r>
       <r>    -7.7371     0.0000     0.0000 </r>
       <r>    -7.5614     0.0000     0.0000 </r>
       <r>    -7.3857     0.0000     0.0000 </r>
       <r>    -7.2099     0.0000     0.0000 </r>
       <r>    -7.0342     0.0000     0.0000 </r>
       <r>    -6.8585     0.0000     0.0000 </r>
       <r>    -6.6828     0.0000     0.0000 </r>
       <r>    -6.5070     0.0000     0.0000 </r>
       <r>    -6.3313     0.0000     0.0000 </r>
       <r>    -6.1556     0.0000     0.0000 </r>
       <r>    -5.9799     0.0000     0.0000 </r>
       <r>    -5.8041     0.0000     0.0000 </r>
       <r>    -5.6284     0.0000     0.0000 </r>
       <r>    -5.4527     0.0000     0.0000 </r>
       <r>    -5.2770     0.0000     0.0000 </r>
       <r>    -5.1012     0.0000     0.0000 </r>
       <r>    -4.9255     0.0000     0.0000 </r>
       <r>    -4.7498     0.0000     0.0000 </r>
       <r>    -4.5741     0.0000     0.0000 </r>
       <r>    -4.3983     0.0000     0.0000 </r>
       <r>    -4.2226     0.0000     0.0000 </r>
       <r>    -4.0469     0.0000     0.0000 </r>
       <r>    -3.8712     0.0000     0.0000 </r>
       <r>    -3.6954     0.0000     0.0000 </r>
       <r>    -3.5197     0.0000     0.0000 </r>
       <r>    -3.3440     0.0000     0.0000 </r>
       <r>    -3.1683     0.0000     0.0000 </r>
       <r>    -2.9925     0.0000     0.0000 </r>
       <r>    -2.8168     0.0000     0.0000 </r>
       <r>    -2.6411     0.0000     0.0000 </r>
       <r>    -2.4654     0.0000     0.0000 </r>
       <r>    -2.2896     0.0000     0.0000 </r>
       <r>    -2.1139     0.0000     0.0000 </r>
       <r>    -1.9382     0.0000     0.0000 </r>
       <r>    -1.7624     0.0000     0.0000 </r>
       <r>    -1.5867     0.0000     0.0000 </r>
       <r>    -1.4110     0.0000     0.0000 </r>
       <r>    -1.2353     0.0000     0.0000 </r>
       <r>    -1.0595     0.0000     0.0000 </r>
       <r>    -0.8838     0.0000     0.0000 </r>
       <r>    -0.7081     0.0000     0.0000 </r>
       <r>    -0.5324     0.0000     0.0000 </r>
       <r>    -0.3566     0.0000     0.0000 </r>
       <r>    -0.1809     0.0000     0.0000 </r>
       <r>    -0.0052     0.0000     0.0000 </r>
       <r>     0.1705     0.0000     0.0000 </r>
       <r>     0.3463     0.0000     0.0000 </r>
       <r>     0.5220     0.0000     0.0000 </r>
       <r>     0.6977     0.0000     0.0000 </r>
       <r>     0.8734     0.0000     0.0000 </r>
       <r>     1.0492     0.0000     0.0000 </r>
       <r>     1.2249     0.0000     0.0000 </r>
       <r>     1.4006     0.0000     0.0000 </r>
       <r>     1.5763     0.0000     0.0000 </r>
       <r>     1.7521     0.0000     0.0000 </r>
       <r>     1.9278     0.0000     0.0000 </r>
       <r>     2.1035     0.0000     0.0000 </r>
       <r>     2.2792     0.0000     0.0000 </r>
       <r>     2.4550     0.0000     0.0000 </r>
       <r>     2.6307     0.0000     0.0000 </r>
       <r>     2.8064     0.0000     0.0000 </r>
       <r>     2.9821     0.0000     0.0000 </r>
       <r>     3.1579     0.0000     0.0000 </r>
       <r>     3.3336     0.0000     0.0000 </r>
       <r>     3.5093     0.0000     0.0000 </r>
       <r>     3.6851     0.0000     0.0000 </r>
       <r>     3.8608     0.0000     0.0000 </r>
       <r>     4.0365     0.0000     0.0000 </r>
       <r>     4.2122     0.0000     0.0000 </r>
       <r>     4.3880     0.0000     0.0000 </r>
       <r>     4.5637     0.0000     0.0000 </r>
       <r>     4.7394     0.0000     0.0000 </r>
       <r>     4.9151     0.0000     0.0000 </r>
       <r>     5.0909     0.0000     0.0000 </r>
       <r>     5.2666     0.0000     0.0000 </r>
       <r>     5.4423     0.0000     0.0000 </r>
       <r>     5.6180     0.0000     0.0000 </r>
       <r>     5.7938     0.0000     0.0000 </r>
       <r>     5.9695     0.0000     0.0000 </r>
       <r>     6.1452     0.0000     0.0000 </r>
       <r>     6.3209     0.0000     0.0000 </r>
       <r>     6.4967     0.0000     0.0000 </r>
       <r>     6.6724     0.0000     0.0000 </r>
       <r>     6.8481     0.0000     0.0000 </r>
       <r>     7.0238     0.0000     0.0000 </r>
       <r>     7.1996     0.0000     0.0000 </r>
       <r>     7.3753     0.0000     0.0000 </r>
       <r>     7.5510     0.0000     0.0000 </r>
       <r>     7.7267     0.0000     0.0000 </r>
       <r>     7.9025     0.0000     0.0000 </r>
       <r>     8.0782     0.0000     0.0000 </r>
       <r>     8.2539     0.0000     0.0000 </r>
       <r>     8.4296     0.0000     0.0000 </r>
       <r>     8.6054     0.0000     0.0000 </r>
       <r>     8.7811     0.0000     0.0000 </r>
       <r>     8.9568     0.0000     0.0000 </r>
       <r>     9.1325     0.0000     0.0000 </r>
       <r>     9.3083     0.0000     0.0000 </r>
       <r>     9.4840     0.0000     0.0000 </r>
       <r>     9.6597     0.0000     0.0000 </r>
       <r>     9.8355     0.0000     0.0000 </r>
       <r>    10.0112     0.0000     0.0000 </r>
       <r>    10.1869     0.0000     0.0000 </r>
       <r>    10.3626     0.0000     0.0000 </r>
       <r>    10.5384     0.0000     0.0000 </r>
       <r>    10.7141     0.0000     0.0000 </r>
       <r>    10.8898     0.0000     0.0000 </r>
       <r>    11.0655     0.0000     0.0000 </r>
       <r>    11.2413     0.0000     0.0000 </r>
       <r>    11.4170     0.0000     0.0000 </r>
       <r>    11.5927     0.0000     0.0000 </r>
       <r>    11.7684     0.0000     0.0000 </r>
       <r>    11.9442     0.0000     0.0000 </r>
       <r>    12.1199     0.0000     0.0000 </r>
       <r>    12.2956     0.0000     0.0000 </r>
       <r>    12.4713     0.0000     0.0000 </r>
       <r>    12.6471     0.0000     0.0000 </r>
       <r>    12.8228     0.0000     0.0000 </r>
       <r>    12.9985     0.0000     0.0000 </r>
       <r>    13.1742     0.0000     0.0000 </r>
       <r>    13.3500     0.0000     0.0000 </r>
       <r>    13.5257     0.0000     0.0000 </r>
       <r>    13.7014     0.0000     0.0000 </r>
       <r>    13.8771     0.0000     0.0000 </r>
       <r>    14.0529     0.0000     0.0000 </r>
       <r>    14.2286     0.0000     0.0000 </r>
       <r>    14.4043     0.0000     0.0000 </r>
       <r>    14.5800     0.0000     0.0000 </r>
       <r>    14.7558     0.0000     0.0000 </r>
       <r>    14.9315     0.0000     0.0000 </r>
       <r>    15.1072     0.0000     0.0000 </r>
       <r>    15.2830     0.0000     0.0000 </r>
       <r>    15.4587     0.0000     0.0000 </r>
       <r>    15.6344     0.0000     0.0000 </r>
       <r>    15.8101     0.0000     0.0000 </r>
       <r>    15.9859     0.0000     0.0000 </r>
       <r>    16.1616     0.0000     0.0000 </r>
       <r>    16.3373     0.0000     0.0000 </r>
       <r>    16.5130     0.0000     0.0000 </r>
       <r>    16.6888     0.0000     0.0000 </r>
       <r>    16.8645     0.0000     0.0000 </r>
       <r>    17.0402     0.0000     0.0000 </r>
       <r>    17.2159     0.0000     0.0000 </r>
       <r>    17.3917     0.0000     0.0000 </r>
       <r>    17.5674     0.0000     0.0000 </r>
       <r>    17.7431     0.0000     0.0000 </r>
       <r>    17.9188     0.0000     0.0000 </r>
       <r>    18.0946     0.0000     0.0000 </r>
       <r>    18.2703     0.0000     0.0000 </r>
       <r>    18.4460     0.0000     0.0000 </r>
       <r>    18.6217     0.0000     0.0000 </r>
       <r>    18.7975     0.0000     0.0000 </r>
       <r>    18.9732     0.0000     0.0000 </r>
       <r>    19.1489     0.0000     0.0000 </r>
       <r>    19.3246     0.0000     0.0000 </r>
       <r>    19.5004     0.0000     0.0000 </r>
       <r>    19.6761     0.0000     0.0000 </r>
       <r>    19.8518     0.0000     0.0000 </r>
      </set>
     </set>
    </array>
   </total>
  </dos>
 </calculation>
 <structure name="finalpos" >
  <crystal>
   <varray name="basis" >
    <v>       4.34234588       0.00000000       0.00000000 </v>
    <v>       2.17117294       3.76058184      -0.00000000 </v>
    <v>       2.17117294       1.25352728       3.54551056 </v>
   </varray>
   <i name="volume">     57.89729060 </i>
   <varray name="rec_basis" >
    <v>       0.23029027      -0.13295815      -0.09401561 </v>
    <v>       0.00000000       0.26591630      -0.09401561 </v>
    <v>      -0.00000000       0.00000000       0.28204683 </v>
   </varray>
  </crystal>
  <varray name="positions" >
   <v>       0.00000000       0.00000000       0.00000000 </v>
  </varray>
  <varray name="velocities" >
   <v>       0.00000000       0.00000000       0.00000000 </v>
  </varray>
 </structure>
</modeling>
