   1   1   0   0
  0.3298244E+02  0.3599697E-09  0.3599697E-09  0.3599697E-09  0.1000000E-15
  1.000000000000000E-004
  CAR 
 Og_FCC                                  
    147.63755183    -27.29400867  301     -4.26135320      1.00000000
    -27.294  0.0000E+00  0.0000E+00
    -26.711  0.0000E+00  0.0000E+00
    -26.128  0.0000E+00  0.0000E+00
    -25.545  0.0000E+00  0.0000E+00
    -24.962  0.0000E+00  0.0000E+00
    -24.378  0.0000E+00  0.0000E+00
    -23.795  0.0000E+00  0.0000E+00
    -23.212  0.0000E+00  0.0000E+00
    -22.629  0.0000E+00  0.0000E+00
    -22.046  0.0000E+00  0.0000E+00
    -21.463  0.0000E+00  0.0000E+00
    -20.880  0.0000E+00  0.0000E+00
    -20.297  0.0000E+00  0.0000E+00
    -19.714  0.0000E+00  0.0000E+00
    -19.131  0.3960E+00  0.4809E+00
    -18.547  0.0000E+00  0.2000E+01
    -17.964  0.0000E+00  0.2000E+01
    -17.381  0.0000E+00  0.2000E+01
    -16.798  0.0000E+00  0.2000E+01
    -16.215  0.0000E+00  0.2000E+01
    -15.632  0.0000E+00  0.2000E+01
    -15.049  0.0000E+00  0.2000E+01
    -14.466  0.0000E+00  0.2000E+01
    -13.883  0.0000E+00  0.2000E+01
    -13.299  0.0000E+00  0.2000E+01
    -12.716  0.0000E+00  0.2000E+01
    -12.133  0.0000E+00  0.2000E+01
    -11.550  0.0000E+00  0.2000E+01
    -10.967  0.0000E+00  0.2000E+01
    -10.384  0.0000E+00  0.2000E+01
     -9.801  0.0000E+00  0.2000E+01
     -9.218  0.0000E+00  0.2000E+01
     -8.635  0.0000E+00  0.2000E+01
     -8.052  0.0000E+00  0.2000E+01
     -7.468  0.0000E+00  0.2000E+01
     -6.885  0.0000E+00  0.2000E+01
     -6.302  0.0000E+00  0.2000E+01
     -5.719  0.3811E+00  0.2731E+01
     -5.136  0.0000E+00  0.4306E+01
     -4.553  0.5081E+00  0.7454E+01
     -3.970  0.0000E+00  0.8000E+01
     -3.387  0.0000E+00  0.8000E+01
     -2.804  0.0000E+00  0.8000E+01
     -2.220  0.0000E+00  0.8000E+01
     -1.637  0.0000E+00  0.8000E+01
     -1.054  0.0000E+00  0.8000E+01
     -0.471  0.0000E+00  0.8000E+01
      0.112  0.0000E+00  0.8000E+01
      0.695  0.0000E+00  0.8000E+01
      1.278  0.0000E+00  0.8000E+01
      1.861  0.0000E+00  0.8000E+01
      2.444  0.0000E+00  0.8000E+01
      3.027  0.0000E+00  0.8000E+01
      3.611  0.0000E+00  0.8000E+01
      4.194  0.0000E+00  0.8000E+01
      4.777  0.0000E+00  0.8009E+01
      5.360  0.0000E+00  0.8083E+01
      5.943  0.0000E+00  0.8139E+01
      6.526  0.0000E+00  0.8250E+01
      7.109  0.0000E+00  0.8630E+01
      7.692  0.0000E+00  0.9222E+01
      8.275  0.0000E+00  0.9694E+01
      8.859  0.0000E+00  0.1031E+02
      9.442  0.0000E+00  0.1119E+02
     10.025  0.0000E+00  0.1208E+02
     10.608  0.0000E+00  0.1292E+02
     11.191  0.0000E+00  0.1379E+02
     11.774  0.0000E+00  0.1436E+02
     12.357  0.0000E+00  0.1519E+02
     12.940  0.0000E+00  0.1586E+02
     13.523  0.0000E+00  0.1608E+02
     14.106  0.0000E+00  0.1681E+02
     14.690  0.0000E+00  0.1723E+02
     15.273  0.3811E+00  0.1851E+02
     15.856  0.0000E+00  0.1883E+02
     16.439  0.9221E-07  0.1967E+02
     17.022  0.0000E+00  0.2029E+02
     17.605  0.0000E+00  0.2073E+02
     18.188  0.4571E-01  0.2139E+02
     18.771  0.0000E+00  0.2218E+02
     19.354  0.0000E+00  0.2297E+02
     19.938  0.0000E+00  0.2361E+02
     20.521  0.0000E+00  0.2460E+02
     21.104  0.0000E+00  0.2551E+02
     21.687  0.0000E+00  0.2621E+02
     22.270  0.0000E+00  0.2699E+02
     22.853  0.0000E+00  0.2731E+02
     23.436  0.0000E+00  0.2795E+02
     24.019  0.0000E+00  0.2847E+02
     24.602  0.1850E+00  0.2902E+02
     25.185  0.0000E+00  0.3014E+02
     25.769  0.0000E+00  0.3017E+02
     26.352  0.0000E+00  0.3117E+02
     26.935  0.7021E+00  0.3199E+02
     27.518  0.0000E+00  0.3342E+02
     28.101  0.0000E+00  0.3392E+02
     28.684  0.0000E+00  0.3425E+02
     29.267  0.0000E+00  0.3481E+02
     29.850  0.0000E+00  0.3558E+02
     30.433  0.0000E+00  0.3640E+02
     31.017  0.0000E+00  0.3740E+02
     31.600  0.3811E+00  0.3859E+02
     32.183  0.0000E+00  0.3893E+02
     32.766  0.0000E+00  0.3984E+02
     33.349  0.0000E+00  0.4040E+02
     33.932  0.0000E+00  0.4132E+02
     34.515  0.0000E+00  0.4179E+02
     35.098  0.0000E+00  0.4271E+02
     35.681  0.3792E+00  0.4429E+02
     36.264  0.0000E+00  0.4516E+02
     36.848  0.0000E+00  0.4585E+02
     37.431  0.0000E+00  0.4663E+02
     38.014  0.0000E+00  0.4746E+02
     38.597  0.0000E+00  0.4798E+02
     39.180  0.0000E+00  0.4868E+02
     39.763  0.0000E+00  0.4934E+02
     40.346  0.0000E+00  0.5079E+02
     40.929  0.3385E-01  0.5153E+02
     41.512  0.0000E+00  0.5251E+02
     42.096  0.0000E+00  0.5346E+02
     42.679  0.0000E+00  0.5470E+02
     43.262  0.0000E+00  0.5587E+02
     43.845  0.0000E+00  0.5643E+02
     44.428  0.3505E-09  0.5687E+02
     45.011  0.0000E+00  0.5761E+02
     45.594  0.0000E+00  0.5902E+02
     46.177  0.2919E-14  0.5982E+02
     46.760  0.0000E+00  0.6053E+02
     47.343  0.0000E+00  0.6201E+02
     47.927  0.0000E+00  0.6284E+02
     48.510  0.0000E+00  0.6351E+02
     49.093  0.0000E+00  0.6493E+02
     49.676  0.0000E+00  0.6600E+02
     50.259  0.0000E+00  0.6694E+02
     50.842  0.1055E-10  0.6767E+02
     51.425  0.0000E+00  0.6906E+02
     52.008  0.0000E+00  0.6938E+02
     52.591  0.0000E+00  0.7056E+02
     53.175  0.0000E+00  0.7167E+02
     53.758  0.0000E+00  0.7225E+02
     54.341  0.0000E+00  0.7303E+02
     54.924  0.0000E+00  0.7423E+02
     55.507  0.0000E+00  0.7589E+02
     56.090  0.0000E+00  0.7662E+02
     56.673  0.0000E+00  0.7725E+02
     57.256  0.0000E+00  0.7797E+02
     57.839  0.0000E+00  0.7932E+02
     58.422  0.0000E+00  0.8025E+02
     59.006  0.0000E+00  0.8190E+02
     59.589  0.0000E+00  0.8324E+02
     60.172  0.0000E+00  0.8339E+02
     60.755  0.0000E+00  0.8394E+02
     61.338  0.0000E+00  0.8573E+02
     61.921  0.0000E+00  0.8729E+02
     62.504  0.1906E+00  0.8780E+02
     63.087  0.0000E+00  0.8876E+02
     63.670  0.0000E+00  0.9071E+02
     64.254  0.0000E+00  0.9153E+02
     64.837  0.0000E+00  0.9232E+02
     65.420  0.0000E+00  0.9380E+02
     66.003  0.0000E+00  0.9479E+02
     66.586  0.0000E+00  0.9631E+02
     67.169  0.0000E+00  0.9741E+02
     67.752  0.0000E+00  0.9827E+02
     68.335  0.0000E+00  0.9931E+02
     68.918  0.0000E+00  0.1008E+03
     69.501  0.0000E+00  0.1016E+03
     70.085  0.0000E+00  0.1027E+03
     70.668  0.0000E+00  0.1042E+03
     71.251  0.0000E+00  0.1057E+03
     71.834  0.0000E+00  0.1062E+03
     72.417  0.0000E+00  0.1074E+03
     73.000  0.0000E+00  0.1080E+03
     73.583  0.0000E+00  0.1091E+03
     74.166  0.0000E+00  0.1099E+03
     74.749  0.0000E+00  0.1110E+03
     75.333  0.0000E+00  0.1123E+03
     75.916  0.0000E+00  0.1138E+03
     76.499  0.0000E+00  0.1152E+03
     77.082  0.0000E+00  0.1173E+03
     77.665  0.1906E+00  0.1183E+03
     78.248  0.0000E+00  0.1198E+03
     78.831  0.0000E+00  0.1207E+03
     79.414  0.0000E+00  0.1215E+03
     79.997  0.0000E+00  0.1228E+03
     80.580  0.0000E+00  0.1240E+03
     81.164  0.3802E+00  0.1250E+03
     81.747  0.0000E+00  0.1261E+03
     82.330  0.0000E+00  0.1275E+03
     82.913  0.0000E+00  0.1284E+03
     83.496  0.0000E+00  0.1290E+03
     84.079  0.0000E+00  0.1305E+03
     84.662  0.0000E+00  0.1324E+03
     85.245  0.0000E+00  0.1331E+03
     85.828  0.0000E+00  0.1353E+03
     86.412  0.0000E+00  0.1365E+03
     86.995  0.0000E+00  0.1372E+03
     87.578  0.0000E+00  0.1385E+03
     88.161  0.0000E+00  0.1395E+03
     88.744  0.3811E+00  0.1411E+03
     89.327  0.3811E+00  0.1428E+03
     89.910  0.0000E+00  0.1442E+03
     90.493  0.0000E+00  0.1450E+03
     91.076  0.0000E+00  0.1459E+03
     91.659  0.0000E+00  0.1472E+03
     92.243  0.0000E+00  0.1477E+03
     92.826  0.0000E+00  0.1488E+03
     93.409  0.0000E+00  0.1500E+03
     93.992  0.0000E+00  0.1523E+03
     94.575  0.0000E+00  0.1541E+03
     95.158  0.0000E+00  0.1549E+03
     95.741  0.0000E+00  0.1576E+03
     96.324  0.1925E+00  0.1586E+03
     96.907  0.0000E+00  0.1595E+03
     97.491  0.1905E+00  0.1615E+03
     98.074  0.3811E+00  0.1630E+03
     98.657  0.0000E+00  0.1638E+03
     99.240  0.0000E+00  0.1653E+03
     99.823  0.0000E+00  0.1665E+03
    100.406  0.0000E+00  0.1675E+03
    100.989  0.1420E-07  0.1684E+03
    101.572  0.0000E+00  0.1704E+03
    102.155  0.4469E-02  0.1713E+03
    102.738  0.0000E+00  0.1728E+03
    103.322  0.0000E+00  0.1735E+03
    103.905  0.0000E+00  0.1745E+03
    104.488  0.3811E+00  0.1759E+03
    105.071  0.0000E+00  0.1775E+03
    105.654  0.0000E+00  0.1789E+03
    106.237  0.0000E+00  0.1810E+03
    106.820  0.0000E+00  0.1825E+03
    107.403  0.3017E+00  0.1836E+03
    107.986  0.0000E+00  0.1852E+03
    108.570  0.0000E+00  0.1876E+03
    109.153  0.0000E+00  0.1891E+03
    109.736  0.0000E+00  0.1900E+03
    110.319  0.0000E+00  0.1910E+03
    110.902  0.0000E+00  0.1923E+03
    111.485  0.0000E+00  0.1941E+03
    112.068  0.0000E+00  0.1952E+03
    112.651  0.0000E+00  0.1962E+03
    113.234  0.4555E-01  0.1974E+03
    113.817  0.0000E+00  0.1986E+03
    114.401  0.0000E+00  0.2005E+03
    114.984  0.0000E+00  0.2021E+03
    115.567  0.0000E+00  0.2030E+03
    116.150  0.0000E+00  0.2051E+03
    116.733  0.0000E+00  0.2062E+03
    117.316  0.0000E+00  0.2074E+03
    117.899  0.0000E+00  0.2086E+03
    118.482  0.0000E+00  0.2102E+03
    119.065  0.0000E+00  0.2116E+03
    119.649  0.0000E+00  0.2135E+03
    120.232  0.2962E-15  0.2159E+03
    120.815  0.0000E+00  0.2172E+03
    121.398  0.0000E+00  0.2193E+03
    121.981  0.0000E+00  0.2205E+03
    122.564  0.0000E+00  0.2218E+03
    123.147  0.0000E+00  0.2228E+03
    123.730  0.0000E+00  0.2245E+03
    124.313  0.0000E+00  0.2258E+03
    124.896  0.0000E+00  0.2270E+03
    125.480  0.0000E+00  0.2286E+03
    126.063  0.2445E-03  0.2290E+03
    126.646  0.0000E+00  0.2307E+03
    127.229  0.0000E+00  0.2328E+03
    127.812  0.0000E+00  0.2341E+03
    128.395  0.0000E+00  0.2349E+03
    128.978  0.0000E+00  0.2360E+03
    129.561  0.9528E-01  0.2375E+03
    130.144  0.0000E+00  0.2388E+03
    130.728  0.0000E+00  0.2411E+03
    131.311  0.0000E+00  0.2432E+03
    131.894  0.0000E+00  0.2449E+03
    132.477  0.0000E+00  0.2471E+03
    133.060  0.0000E+00  0.2485E+03
    133.643  0.0000E+00  0.2503E+03
    134.226  0.0000E+00  0.2509E+03
    134.809  0.0000E+00  0.2524E+03
    135.392  0.0000E+00  0.2539E+03
    135.975  0.0000E+00  0.2542E+03
    136.559  0.1200E-01  0.2549E+03
    137.142  0.0000E+00  0.2553E+03
    137.725  0.0000E+00  0.2557E+03
    138.308  0.0000E+00  0.2559E+03
    138.891  0.0000E+00  0.2559E+03
    139.474  0.6903E-02  0.2559E+03
    140.057  0.0000E+00  0.2560E+03
    140.640  0.0000E+00  0.2560E+03
    141.223  0.0000E+00  0.2560E+03
    141.806  0.0000E+00  0.2560E+03
    142.390  0.0000E+00  0.2560E+03
    142.973  0.0000E+00  0.2560E+03
    143.556  0.0000E+00  0.2560E+03
    144.139  0.0000E+00  0.2560E+03
    144.722  0.0000E+00  0.2560E+03
    145.305  0.0000E+00  0.2560E+03
    145.888  0.0000E+00  0.2560E+03
    146.471  0.0000E+00  0.2560E+03
    147.054  0.0000E+00  0.2560E+03
    147.638  0.0000E+00  0.2560E+03
