       N       E                     dE             d eps       ncg     rms          rms(c)
DIA:   1     0.137123612124E-01    0.13712E-01    0.00000E+00     0   0.000E+00
DIA:   2     0.137123612019E-01   -0.10459E-10    0.00000E+00     0   0.000E+00
DIA:   3     0.137123612146E-01    0.12733E-10    0.00000E+00     0   0.000E+00
DIA:   4     0.137123612142E-01   -0.45475E-12    0.00000E+00     0   0.000E+00
DIA:   5     0.137123611973E-01   -0.16826E-10    0.00000E+00     0   0.000E+00    0.906E-07
DIA:   6     0.137123612924E-01    0.95042E-10    0.00000E+00     0   0.000E+00
   1 F= -.88222214E-01 E0= -.88222214E-01  d E =0.000000E+00
 imaginary and real dielectric function
