   1   1   0   0
  0.6008441E+02  0.4396350E-09  0.4396350E-09  0.4396350E-09  0.1000000E-15
  1.000000000000000E-004
  CAR 
 Og_FCC                                  
     34.46015125    -34.09563264  301      3.30248057      1.00000000
    -34.096  0.0000E+00  0.0000E+00
    -33.867  0.0000E+00  0.0000E+00
    -33.639  0.0000E+00  0.0000E+00
    -33.410  0.0000E+00  0.0000E+00
    -33.182  0.0000E+00  0.0000E+00
    -32.953  0.0000E+00  0.0000E+00
    -32.725  0.0000E+00  0.0000E+00
    -32.496  0.0000E+00  0.0000E+00
    -32.267  0.0000E+00  0.0000E+00
    -32.039  0.0000E+00  0.0000E+00
    -31.810  0.0000E+00  0.0000E+00
    -31.582  0.0000E+00  0.0000E+00
    -31.353  0.0000E+00  0.0000E+00
    -31.125  0.3988E-04  0.9114E-05
    -30.896  0.1676E+02  0.3829E+01
    -30.668  0.7474E+00  0.4000E+01
    -30.439  0.0000E+00  0.4000E+01
    -30.211  0.0000E+00  0.4000E+01
    -29.982  0.0000E+00  0.4000E+01
    -29.754  0.0000E+00  0.4000E+01
    -29.525  0.0000E+00  0.4000E+01
    -29.297  0.0000E+00  0.4000E+01
    -29.068  0.0000E+00  0.4000E+01
    -28.840  0.0000E+00  0.4000E+01
    -28.611  0.0000E+00  0.4000E+01
    -28.383  0.0000E+00  0.4000E+01
    -28.154  0.0000E+00  0.4000E+01
    -27.926  0.0000E+00  0.4000E+01
    -27.697  0.0000E+00  0.4000E+01
    -27.469  0.0000E+00  0.4000E+01
    -27.240  0.0000E+00  0.4000E+01
    -27.012  0.0000E+00  0.4000E+01
    -26.783  0.0000E+00  0.4000E+01
    -26.554  0.0000E+00  0.4000E+01
    -26.326  0.0000E+00  0.4000E+01
    -26.097  0.0000E+00  0.4000E+01
    -25.869  0.0000E+00  0.4000E+01
    -25.640  0.0000E+00  0.4000E+01
    -25.412  0.0000E+00  0.4000E+01
    -25.183  0.0000E+00  0.4000E+01
    -24.955  0.0000E+00  0.4000E+01
    -24.726  0.0000E+00  0.4000E+01
    -24.498  0.1747E-06  0.4000E+01
    -24.269  0.1999E+02  0.8567E+01
    -24.041  0.6270E+01  0.1000E+02
    -23.812  0.0000E+00  0.1000E+02
    -23.584  0.0000E+00  0.1000E+02
    -23.355  0.0000E+00  0.1000E+02
    -23.127  0.0000E+00  0.1000E+02
    -22.898  0.0000E+00  0.1000E+02
    -22.670  0.0000E+00  0.1000E+02
    -22.441  0.0000E+00  0.1000E+02
    -22.213  0.0000E+00  0.1000E+02
    -21.984  0.0000E+00  0.1000E+02
    -21.756  0.0000E+00  0.1000E+02
    -21.527  0.0000E+00  0.1000E+02
    -21.299  0.0000E+00  0.1000E+02
    -21.070  0.0000E+00  0.1000E+02
    -20.842  0.1850E-11  0.1000E+02
    -20.613  0.1496E+00  0.1003E+02
    -20.384  0.8581E+01  0.1200E+02
    -20.156  0.2140E-01  0.1200E+02
    -19.927  0.0000E+00  0.1200E+02
    -19.699  0.0000E+00  0.1200E+02
    -19.470  0.0000E+00  0.1200E+02
    -19.242  0.0000E+00  0.1200E+02
    -19.013  0.0000E+00  0.1200E+02
    -18.785  0.0000E+00  0.1200E+02
    -18.556  0.0000E+00  0.1200E+02
    -18.328  0.0000E+00  0.1200E+02
    -18.099  0.0000E+00  0.1200E+02
    -17.871  0.0000E+00  0.1200E+02
    -17.642  0.0000E+00  0.1200E+02
    -17.414  0.0000E+00  0.1200E+02
    -17.185  0.0000E+00  0.1200E+02
    -16.957  0.0000E+00  0.1200E+02
    -16.728  0.0000E+00  0.1200E+02
    -16.500  0.0000E+00  0.1200E+02
    -16.271  0.0000E+00  0.1200E+02
    -16.043  0.0000E+00  0.1200E+02
    -15.814  0.0000E+00  0.1200E+02
    -15.586  0.0000E+00  0.1200E+02
    -15.357  0.0000E+00  0.1200E+02
    -15.129  0.0000E+00  0.1200E+02
    -14.900  0.0000E+00  0.1200E+02
    -14.671  0.0000E+00  0.1200E+02
    -14.443  0.0000E+00  0.1200E+02
    -14.214  0.0000E+00  0.1200E+02
    -13.986  0.0000E+00  0.1200E+02
    -13.757  0.0000E+00  0.1200E+02
    -13.529  0.0000E+00  0.1200E+02
    -13.300  0.0000E+00  0.1200E+02
    -13.072  0.0000E+00  0.1200E+02
    -12.843  0.0000E+00  0.1200E+02
    -12.615  0.0000E+00  0.1200E+02
    -12.386  0.0000E+00  0.1200E+02
    -12.158  0.0000E+00  0.1200E+02
    -11.929  0.0000E+00  0.1200E+02
    -11.701  0.0000E+00  0.1200E+02
    -11.472  0.0000E+00  0.1200E+02
    -11.244  0.0000E+00  0.1200E+02
    -11.015  0.0000E+00  0.1200E+02
    -10.787  0.0000E+00  0.1200E+02
    -10.558  0.0000E+00  0.1200E+02
    -10.330  0.0000E+00  0.1200E+02
    -10.101  0.0000E+00  0.1200E+02
     -9.873  0.0000E+00  0.1200E+02
     -9.644  0.0000E+00  0.1200E+02
     -9.416  0.0000E+00  0.1200E+02
     -9.187  0.0000E+00  0.1200E+02
     -8.959  0.0000E+00  0.1200E+02
     -8.730  0.0000E+00  0.1200E+02
     -8.501  0.0000E+00  0.1200E+02
     -8.273  0.0000E+00  0.1200E+02
     -8.044  0.0000E+00  0.1200E+02
     -7.816  0.0000E+00  0.1200E+02
     -7.587  0.9058E-07  0.1200E+02
     -7.359  0.2888E+01  0.1266E+02
     -7.130  0.5175E+01  0.1384E+02
     -6.902  0.6829E+00  0.1400E+02
     -6.673  0.6422E-02  0.1400E+02
     -6.445  0.0000E+00  0.1400E+02
     -6.216  0.0000E+00  0.1400E+02
     -5.988  0.0000E+00  0.1400E+02
     -5.759  0.0000E+00  0.1400E+02
     -5.531  0.0000E+00  0.1400E+02
     -5.302  0.0000E+00  0.1400E+02
     -5.074  0.0000E+00  0.1400E+02
     -4.845  0.0000E+00  0.1400E+02
     -4.617  0.0000E+00  0.1400E+02
     -4.388  0.0000E+00  0.1400E+02
     -4.160  0.0000E+00  0.1400E+02
     -3.931  0.0000E+00  0.1400E+02
     -3.703  0.0000E+00  0.1400E+02
     -3.474  0.0000E+00  0.1400E+02
     -3.246  0.0000E+00  0.1400E+02
     -3.017  0.0000E+00  0.1400E+02
     -2.788  0.0000E+00  0.1400E+02
     -2.560  0.0000E+00  0.1400E+02
     -2.331  0.0000E+00  0.1400E+02
     -2.103  0.0000E+00  0.1400E+02
     -1.874  0.0000E+00  0.1400E+02
     -1.646  0.0000E+00  0.1400E+02
     -1.417  0.0000E+00  0.1400E+02
     -1.189  0.0000E+00  0.1400E+02
     -0.960  0.0000E+00  0.1400E+02
     -0.732  0.0000E+00  0.1400E+02
     -0.503  0.0000E+00  0.1400E+02
     -0.275  0.0000E+00  0.1400E+02
     -0.046  0.5431E-09  0.1400E+02
      0.182  0.3598E+00  0.1408E+02
      0.411  0.5596E+01  0.1536E+02
      0.639  0.7826E+00  0.1554E+02
      0.868  0.9754E+00  0.1576E+02
      1.096  0.4802E+00  0.1587E+02
      1.325  0.6522E+00  0.1602E+02
      1.553  0.2265E+01  0.1654E+02
      1.782  0.1617E+01  0.1691E+02
      2.010  0.6903E+00  0.1707E+02
      2.239  0.1547E+01  0.1742E+02
      2.467  0.9587E+00  0.1764E+02
      2.696  0.7862E+00  0.1782E+02
      2.924  0.4280E+00  0.1792E+02
      3.153  0.3168E+00  0.1799E+02
      3.382  0.5058E-01  0.1800E+02
      3.610  0.3843E-01  0.1801E+02
      3.839  0.0000E+00  0.1801E+02
      4.067  0.0000E+00  0.1801E+02
      4.296  0.0000E+00  0.1801E+02
      4.524  0.0000E+00  0.1801E+02
      4.753  0.0000E+00  0.1801E+02
      4.981  0.1903E-02  0.1801E+02
      5.210  0.2830E+00  0.1807E+02
      5.438  0.3480E-04  0.1807E+02
      5.667  0.2435E+00  0.1813E+02
      5.895  0.1704E+00  0.1817E+02
      6.124  0.4314E+00  0.1827E+02
      6.352  0.4979E+00  0.1838E+02
      6.581  0.1021E+01  0.1861E+02
      6.809  0.1399E+01  0.1893E+02
      7.038  0.2106E+01  0.1942E+02
      7.266  0.5687E+00  0.1955E+02
      7.495  0.1058E+01  0.1979E+02
      7.723  0.1053E+01  0.2003E+02
      7.952  0.2182E+00  0.2008E+02
      8.180  0.6664E+00  0.2023E+02
      8.409  0.4238E+00  0.2033E+02
      8.637  0.2440E+01  0.2088E+02
      8.866  0.2359E+01  0.2142E+02
      9.095  0.1227E+01  0.2170E+02
      9.323  0.1464E+01  0.2204E+02
      9.552  0.9868E+00  0.2226E+02
      9.780  0.5036E+00  0.2238E+02
     10.009  0.6452E+00  0.2253E+02
     10.237  0.2548E+01  0.2311E+02
     10.466  0.2184E+01  0.2361E+02
     10.694  0.1099E+01  0.2386E+02
     10.923  0.9939E+00  0.2409E+02
     11.151  0.2838E+01  0.2474E+02
     11.380  0.2643E+01  0.2534E+02
     11.608  0.1419E+01  0.2566E+02
     11.837  0.9796E+00  0.2589E+02
     12.065  0.5160E+00  0.2601E+02
     12.294  0.8800E+00  0.2621E+02
     12.522  0.1515E+01  0.2655E+02
     12.751  0.2113E+01  0.2704E+02
     12.979  0.1861E+01  0.2746E+02
     13.208  0.1540E+01  0.2781E+02
     13.436  0.2451E+01  0.2837E+02
     13.665  0.2329E+01  0.2890E+02
     13.893  0.2362E+01  0.2944E+02
     14.122  0.1405E+01  0.2977E+02
     14.350  0.2685E+01  0.3038E+02
     14.579  0.3627E+00  0.3046E+02
     14.807  0.9434E+00  0.3068E+02
     15.036  0.1335E+01  0.3098E+02
     15.265  0.1083E+01  0.3123E+02
     15.493  0.2526E+01  0.3181E+02
     15.722  0.1793E+01  0.3222E+02
     15.950  0.1344E+01  0.3252E+02
     16.179  0.2437E+01  0.3308E+02
     16.407  0.2625E+01  0.3368E+02
     16.636  0.2992E+01  0.3436E+02
     16.864  0.1259E+01  0.3465E+02
     17.093  0.1086E+01  0.3490E+02
     17.321  0.2227E+01  0.3541E+02
     17.550  0.2100E+01  0.3589E+02
     17.778  0.2267E+01  0.3641E+02
     18.007  0.5088E+01  0.3757E+02
     18.235  0.4835E+01  0.3868E+02
     18.464  0.5308E+01  0.3989E+02
     18.692  0.2099E+01  0.4037E+02
     18.921  0.5010E+01  0.4151E+02
     19.149  0.2460E+01  0.4208E+02
     19.378  0.4814E+01  0.4318E+02
     19.606  0.1066E+01  0.4342E+02
     19.835  0.1521E+01  0.4377E+02
     20.063  0.2577E+01  0.4436E+02
     20.292  0.1122E+01  0.4461E+02
     20.520  0.2768E+01  0.4524E+02
     20.749  0.3002E+01  0.4593E+02
     20.978  0.1767E+01  0.4633E+02
     21.206  0.5787E+00  0.4647E+02
     21.435  0.7671E+00  0.4664E+02
     21.663  0.8400E-01  0.4666E+02
     21.892  0.1955E+01  0.4711E+02
     22.120  0.1416E+01  0.4743E+02
     22.349  0.2081E+01  0.4791E+02
     22.577  0.5005E+00  0.4802E+02
     22.806  0.1128E+01  0.4828E+02
     23.034  0.6011E+00  0.4842E+02
     23.263  0.2838E+01  0.4906E+02
     23.491  0.2383E+01  0.4961E+02
     23.720  0.1529E+01  0.4996E+02
     23.948  0.2710E+01  0.5058E+02
     24.177  0.1118E+01  0.5083E+02
     24.405  0.1836E+01  0.5125E+02
     24.634  0.3965E+01  0.5216E+02
     24.862  0.3715E+01  0.5301E+02
     25.091  0.3286E+01  0.5376E+02
     25.319  0.2442E+01  0.5432E+02
     25.548  0.3702E+01  0.5516E+02
     25.776  0.3024E+01  0.5585E+02
     26.005  0.2387E+01  0.5640E+02
     26.233  0.2221E+01  0.5691E+02
     26.462  0.1840E+01  0.5733E+02
     26.690  0.7859E+00  0.5751E+02
     26.919  0.1006E+01  0.5774E+02
     27.148  0.1048E+01  0.5798E+02
     27.376  0.3205E+01  0.5871E+02
     27.605  0.3943E+01  0.5961E+02
     27.833  0.7900E+00  0.5979E+02
     28.062  0.2298E+01  0.6032E+02
     28.290  0.1476E+01  0.6065E+02
     28.519  0.2486E+01  0.6122E+02
     28.747  0.1909E+01  0.6166E+02
     28.976  0.1888E+01  0.6209E+02
     29.204  0.7119E+00  0.6225E+02
     29.433  0.9914E+00  0.6248E+02
     29.661  0.1697E+01  0.6287E+02
     29.890  0.1222E+01  0.6314E+02
     30.118  0.1033E+01  0.6338E+02
     30.347  0.8962E+00  0.6359E+02
     30.575  0.1172E+01  0.6385E+02
     30.804  0.7188E-01  0.6387E+02
     31.032  0.2875E+00  0.6394E+02
     31.261  0.4140E-01  0.6394E+02
     31.489  0.2410E+00  0.6400E+02
     31.718  0.2829E-05  0.6400E+02
     31.946  0.0000E+00  0.6400E+02
     32.175  0.0000E+00  0.6400E+02
     32.403  0.0000E+00  0.6400E+02
     32.632  0.0000E+00  0.6400E+02
     32.861  0.0000E+00  0.6400E+02
     33.089  0.0000E+00  0.6400E+02
     33.318  0.0000E+00  0.6400E+02
     33.546  0.0000E+00  0.6400E+02
     33.775  0.0000E+00  0.6400E+02
     34.003  0.0000E+00  0.6400E+02
     34.232  0.0000E+00  0.6400E+02
     34.460  0.0000E+00  0.6400E+02
