    1    1    1    1
  0.6008441E+02  0.4396350E-09  0.4396350E-09  0.4396350E-09  0.1000000E-15
  1.000000000000000E-004
  CAR 
 Og_FCC                                  
     18    256     64
 
  0.5000000E+00  0.5000000E+00  0.5000000E+00  0.0000000E+00
    1      -30.965696   1.000000
    2      -30.965678   1.000000
    3      -30.964740   1.000000
    4      -30.964735   1.000000
    5      -24.303063   1.000000
    6      -24.303053   1.000000
    7      -24.297785   1.000000
    8      -24.297770   1.000000
    9      -24.295610   1.000000
   10      -24.295594   1.000000
   11      -20.502279   1.000000
   12      -20.502278   1.000000
   13       -7.319594   1.000000
   14       -7.319590   1.000000
   15        0.159667   1.000000
   16        0.159671   1.000000
   17        2.636006   1.000000
   18        2.636023   1.000000
   19        5.943639   0.000000
   20        5.943649   0.000000
   21       10.002970   0.000000
   22       10.002974   0.000000
   23       10.363186   0.000000
   24       10.363199   0.000000
   25       10.414587   0.000000
   26       10.414588   0.000000
   27       11.942966   0.000000
   28       11.942979   0.000000
   29       14.613785   0.000000
   30       14.613789   0.000000
   31       14.749533   0.000000
   32       14.749541   0.000000
   33       15.628895   0.000000
   34       15.628900   0.000000
   35       16.588015   0.000000
   36       16.588019   0.000000
   37       16.751668   0.000000
   38       16.751675   0.000000
   39       18.501107   0.000000
   40       18.501115   0.000000
   41       19.100757   0.000000
   42       19.100767   0.000000
   43       19.137853   0.000000
   44       19.137863   0.000000
   45       20.852011   0.000000
   46       20.852021   0.000000
   47       23.118047   0.000000
   48       23.118056   0.000000
   49       23.777375   0.000000
   50       23.777383   0.000000
   51       25.205627   0.000000
   52       25.205632   0.000000
   53       25.394533   0.000000
   54       25.394537   0.000000
   55       25.436329   0.000000
   56       25.436335   0.000000
   57       26.974531   0.000000
   58       26.974538   0.000000
   59       27.389143   0.000000
   60       27.389154   0.000000
   61       28.636572   0.000000
   62       28.636596   0.000000
   63       29.620688   0.000000
   64       29.620695   0.000000
 
  0.4750000E+00  0.4750000E+00  0.4750000E+00  0.0000000E+00
    1      -30.965437   1.000000
    2      -30.965419   1.000000
    3      -30.964612   1.000000
    4      -30.964608   1.000000
    5      -24.302956   1.000000
    6      -24.302946   1.000000
    7      -24.297663   1.000000
    8      -24.297648   1.000000
    9      -24.295499   1.000000
   10      -24.295483   1.000000
   11      -20.502977   1.000000
   12      -20.502975   1.000000
   13       -7.317208   1.000000
   14       -7.317204   1.000000
   15        0.168172   1.000000
   16        0.168177   1.000000
   17        2.638863   1.000000
   18        2.638880   1.000000
   19        5.944033   0.000000
   20        5.944043   0.000000
   21       10.009908   0.000000
   22       10.009911   0.000000
   23       10.361433   0.000000
   24       10.361445   0.000000
   25       10.425910   0.000000
   26       10.425911   0.000000
   27       11.900638   0.000000
   28       11.900650   0.000000
   29       14.528582   0.000000
   30       14.528587   0.000000
   31       14.689432   0.000000
   32       14.689441   0.000000
   33       15.708060   0.000000
   34       15.708064   0.000000
   35       16.666496   0.000000
   36       16.666499   0.000000
   37       16.816721   0.000000
   38       16.816729   0.000000
   39       18.450462   0.000000
   40       18.450470   0.000000
   41       19.074060   0.000000
   42       19.074071   0.000000
   43       19.103853   0.000000
   44       19.103863   0.000000
   45       20.850083   0.000000
   46       20.850092   0.000000
   47       23.053019   0.000000
   48       23.053027   0.000000
   49       23.797999   0.000000
   50       23.798006   0.000000
   51       25.101627   0.000000
   52       25.101631   0.000000
   53       25.433853   0.000000
   54       25.433860   0.000000
   55       25.510318   0.000000
   56       25.510322   0.000000
   57       26.995953   0.000000
   58       26.995960   0.000000
   59       27.396487   0.000000
   60       27.396498   0.000000
   61       28.669427   0.000000
   62       28.669450   0.000000
   63       29.655700   0.000000
   64       29.655707   0.000000
 
  0.4500000E+00  0.4500000E+00  0.4500000E+00  0.0000000E+00
    1      -30.962431   1.000000
    2      -30.962412   1.000000
    3      -30.960156   1.000000
    4      -30.960152   1.000000
    5      -24.299029   1.000000
    6      -24.299020   1.000000
    7      -24.296670   1.000000
    8      -24.296653   1.000000
    9      -24.293058   1.000000
   10      -24.293042   1.000000
   11      -20.505032   1.000000
   12      -20.505031   1.000000
   13       -7.310122   1.000000
   14       -7.310118   1.000000
   15        0.193786   1.000000
   16        0.193791   1.000000
   17        2.647400   1.000000
   18        2.647417   1.000000
   19        5.944728   0.000000
   20        5.944738   0.000000
   21       10.030669   0.000000
   22       10.030673   0.000000
   23       10.358086   0.000000
   24       10.358097   0.000000
   25       10.456506   0.000000
   26       10.456508   0.000000
   27       11.784529   0.000000
   28       11.784541   0.000000
   29       14.323812   0.000000
   30       14.323815   0.000000
   31       14.529798   0.000000
   32       14.529806   0.000000
   33       15.905298   0.000000
   34       15.905301   0.000000
   35       16.882406   0.000000
   36       16.882408   0.000000
   37       16.991460   0.000000
   38       16.991468   0.000000
   39       18.302901   0.000000
   40       18.302908   0.000000
   41       18.995787   0.000000
   42       18.995797   0.000000
   43       19.006538   0.000000
   44       19.006548   0.000000
   45       20.844355   0.000000
   46       20.844365   0.000000
   47       22.875116   0.000000
   48       22.875123   0.000000
   49       23.835226   0.000000
   50       23.835231   0.000000
   51       24.986665   0.000000
   52       24.986668   0.000000
   53       25.426701   0.000000
   54       25.426708   0.000000
   55       25.678090   0.000000
   56       25.678095   0.000000
   57       27.057988   0.000000
   58       27.057994   0.000000
   59       27.420253   0.000000
   60       27.420263   0.000000
   61       28.768464   0.000000
   62       28.768486   0.000000
   63       29.764930   0.000000
   64       29.764938   0.000000
 
  0.4250000E+00  0.4250000E+00  0.4250000E+00  0.0000000E+00
    1      -30.966209   1.000000
    2      -30.966190   1.000000
    3      -30.954897   1.000000
    4      -30.954893   1.000000
    5      -24.297758   1.000000
    6      -24.297742   1.000000
    7      -24.296963   1.000000
    8      -24.296947   1.000000
    9      -24.292781   1.000000
   10      -24.292775   1.000000
   11      -20.508406   1.000000
   12      -20.508404   1.000000
   13       -7.298541   1.000000
   14       -7.298537   1.000000
   15        0.236462   1.000000
   16        0.236467   1.000000
   17        2.661458   1.000000
   18        2.661475   1.000000
   19        5.944725   0.000000
   20        5.944734   0.000000
   21       10.064957   0.000000
   22       10.064961   0.000000
   23       10.352710   0.000000
   24       10.352719   0.000000
   25       10.500752   0.000000
   26       10.500754   0.000000
   27       11.621075   0.000000
   28       11.621087   0.000000
   29       14.067346   0.000000
   30       14.067348   0.000000
   31       14.308968   0.000000
   32       14.308976   0.000000
   33       16.168424   0.000000
   34       16.168426   0.000000
   35       17.194529   0.000000
   36       17.194531   0.000000
   37       17.235505   0.000000
   38       17.235513   0.000000
   39       18.069567   0.000000
   40       18.069574   0.000000
   41       18.849152   0.000000
   42       18.849161   0.000000
   43       18.862448   0.000000
   44       18.862459   0.000000
   45       20.846153   0.000000
   46       20.846162   0.000000
   47       22.599684   0.000000
   48       22.599690   0.000000
   49       23.848560   0.000000
   50       23.848564   0.000000
   51       24.948748   0.000000
   52       24.948752   0.000000
   53       25.415766   0.000000
   54       25.415773   0.000000
   55       25.837398   0.000000
   56       25.837403   0.000000
   57       27.142079   0.000000
   58       27.142085   0.000000
   59       27.458288   0.000000
   60       27.458298   0.000000
   61       28.921989   0.000000
   62       28.922008   0.000000
   63       29.947775   0.000000
   64       29.947784   0.000000
 
  0.4000000E+00  0.4000000E+00  0.4000000E+00  0.0000000E+00
    1      -30.965239   1.000000
    2      -30.965221   1.000000
    3      -30.954826   1.000000
    4      -30.954822   1.000000
    5      -24.297169   1.000000
    6      -24.297153   1.000000
    7      -24.296891   1.000000
    8      -24.296875   1.000000
    9      -24.292764   1.000000
   10      -24.292758   1.000000
   11      -20.513007   1.000000
   12      -20.513005   1.000000
   13       -7.282753   1.000000
   14       -7.282748   1.000000
   15        0.296112   1.000000
   16        0.296116   1.000000
   17        2.680804   1.000000
   18        2.680821   1.000000
   19        5.941837   0.000000
   20        5.941847   0.000000
   21       10.112110   0.000000
   22       10.112114   0.000000
   23       10.336103   0.000000
   24       10.336112   0.000000
   25       10.555765   0.000000
   26       10.555767   0.000000
   27       11.446660   0.000000
   28       11.446673   0.000000
   29       13.794202   0.000000
   30       13.794204   0.000000
   31       14.057394   0.000000
   32       14.057402   0.000000
   33       16.463323   0.000000
   34       16.463325   0.000000
   35       17.514545   0.000000
   36       17.514554   0.000000
   37       17.562793   0.000000
   38       17.562796   0.000000
   39       17.779012   0.000000
   40       17.779019   0.000000
   41       18.655240   0.000000
   42       18.655249   0.000000
   43       18.695024   0.000000
   44       18.695034   0.000000
   45       20.833093   0.000000
   46       20.833103   0.000000
   47       22.247635   0.000000
   48       22.247642   0.000000
   49       23.827463   0.000000
   50       23.827466   0.000000
   51       24.999195   0.000000
   52       24.999201   0.000000
   53       25.401752   0.000000
   54       25.401759   0.000000
   55       25.989711   0.000000
   56       25.989716   0.000000
   57       27.226210   0.000000
   58       27.226216   0.000000
   59       27.511451   0.000000
   60       27.511460   0.000000
   61       29.114765   0.000000
   62       29.114780   0.000000
   63       30.213361   0.000000
   64       30.213372   0.000000
 
  0.3750000E+00  0.3750000E+00  0.3750000E+00  0.0000000E+00
    1      -30.963773   1.000000
    2      -30.963754   1.000000
    3      -30.954522   1.000000
    4      -30.954518   1.000000
    5      -24.296619   1.000000
    6      -24.296603   1.000000
    7      -24.296261   1.000000
    8      -24.296245   1.000000
    9      -24.292607   1.000000
   10      -24.292602   1.000000
   11      -20.518720   1.000000
   12      -20.518719   1.000000
   13       -7.263141   1.000000
   14       -7.263137   1.000000
   15        0.372637   1.000000
   16        0.372642   1.000000
   17        2.705098   1.000000
   18        2.705115   1.000000
   19        5.933401   0.000000
   20        5.933411   0.000000
   21       10.171385   0.000000
   22       10.171389   0.000000
   23       10.290903   0.000000
   24       10.290911   0.000000
   25       10.619147   0.000000
   26       10.619149   0.000000
   27       11.302536   0.000000
   28       11.302549   0.000000
   29       13.521756   0.000000
   30       13.521758   0.000000
   31       13.795328   0.000000
   32       13.795335   0.000000
   33       16.735704   0.000000
   34       16.735704   0.000000
   35       17.458636   0.000000
   36       17.458641   0.000000
   37       17.796784   0.000000
   38       17.796794   0.000000
   39       17.983294   0.000000
   40       17.983297   0.000000
   41       18.436768   0.000000
   42       18.436776   0.000000
   43       18.504318   0.000000
   44       18.504327   0.000000
   45       20.817054   0.000000
   46       20.817063   0.000000
   47       21.838453   0.000000
   48       21.838461   0.000000
   49       23.791019   0.000000
   50       23.791023   0.000000
   51       25.111728   0.000000
   52       25.111735   0.000000
   53       25.387890   0.000000
   54       25.387897   0.000000
   55       26.142116   0.000000
   56       26.142121   0.000000
   57       27.301959   0.000000
   58       27.301966   0.000000
   59       27.580612   0.000000
   60       27.580621   0.000000
   61       29.329957   0.000000
   62       29.329969   0.000000
   63       30.565071   0.000000
   64       30.565084   0.000000
 
  0.3500000E+00  0.3500000E+00  0.3500000E+00  0.0000000E+00
    1      -30.955390   1.000000
    2      -30.955371   1.000000
    3      -30.948436   1.000000
    4      -30.948432   1.000000
    5      -24.292650   1.000000
    6      -24.292638   1.000000
    7      -24.291063   1.000000
    8      -24.291048   1.000000
    9      -24.287719   1.000000
   10      -24.287714   1.000000
   11      -20.525374   1.000000
   12      -20.525373   1.000000
   13       -7.240164   1.000000
   14       -7.240159   1.000000
   15        0.465918   1.000000
   16        0.465923   1.000000
   17        2.733934   1.000000
   18        2.733951   1.000000
   19        5.915674   0.000000
   20        5.915684   0.000000
   21       10.199466   0.000000
   22       10.199473   0.000000
   23       10.241541   0.000000
   24       10.241545   0.000000
   25       10.688514   0.000000
   26       10.688514   0.000000
   27       11.225260   0.000000
   28       11.225274   0.000000
   29       13.259881   0.000000
   30       13.259882   0.000000
   31       13.535880   0.000000
   32       13.535887   0.000000
   33       16.756014   0.000000
   34       16.756018   0.000000
   35       17.354826   0.000000
   36       17.354830   0.000000
   37       17.983983   0.000000
   38       17.983992   0.000000
   39       18.186783   0.000000
   40       18.186790   0.000000
   41       18.382595   0.000000
   42       18.382604   0.000000
   43       18.445909   0.000000
   44       18.445913   0.000000
   45       20.802578   0.000000
   46       20.802588   0.000000
   47       21.391947   0.000000
   48       21.391956   0.000000
   49       23.763613   0.000000
   50       23.763617   0.000000
   51       25.263348   0.000000
   52       25.263355   0.000000
   53       25.378923   0.000000
   54       25.378931   0.000000
   55       26.306688   0.000000
   56       26.306693   0.000000
   57       27.368963   0.000000
   58       27.368971   0.000000
   59       27.672585   0.000000
   60       27.672594   0.000000
   61       29.555807   0.000000
   62       29.555816   0.000000
   63       30.995305   0.000000
   64       30.996126   0.000000
 
  0.3250000E+00  0.3250000E+00  0.3250000E+00  0.0000000E+00
    1      -30.943835   1.000000
    2      -30.943816   1.000000
    3      -30.935345   1.000000
    4      -30.935340   1.000000
    5      -24.286806   1.000000
    6      -24.286792   1.000000
    7      -24.280549   1.000000
    8      -24.280545   1.000000
    9      -24.279928   1.000000
   10      -24.279912   1.000000
   11      -20.532781   1.000000
   12      -20.532780   1.000000
   13       -7.214418   1.000000
   14       -7.214413   1.000000
   15        0.575735   1.000000
   16        0.575740   1.000000
   17        2.766761   1.000000
   18        2.766778   1.000000
   19        5.883877   0.000000
   20        5.883888   0.000000
   21       10.065163   0.000000
   22       10.065168   0.000000
   23       10.320707   0.000000
   24       10.320711   0.000000
   25       10.762442   0.000000
   26       10.762442   0.000000
   27       11.226760   0.000000
   28       11.226774   0.000000
   29       13.013965   0.000000
   30       13.013967   0.000000
   31       13.286714   0.000000
   32       13.286721   0.000000
   33       16.420604   0.000000
   34       16.420608   0.000000
   35       17.462278   0.000000
   36       17.462281   0.000000
   37       17.853780   0.000000
   38       17.853788   0.000000
   39       18.078449   0.000000
   40       18.078456   0.000000
   41       18.552572   0.000000
   42       18.552582   0.000000
   43       18.884633   0.000000
   44       18.884637   0.000000
   45       20.785082   0.000000
   46       20.785092   0.000000
   47       20.922018   0.000000
   48       20.922027   0.000000
   49       23.761647   0.000000
   50       23.761652   0.000000
   51       25.380861   0.000000
   52       25.380868   0.000000
   53       25.427232   0.000000
   54       25.427240   0.000000
   55       26.481641   0.000000
   56       26.481646   0.000000
   57       27.438614   0.000000
   58       27.438623   0.000000
   59       27.783528   0.000000
   60       27.783537   0.000000
   61       29.778561   0.000000
   62       29.778568   0.000000
   63       30.974062   0.000000
   64       30.974077   0.000000
 
  0.3000000E+00  0.3000000E+00  0.3000000E+00  0.0000000E+00
    1      -30.960290   1.000000
    2      -30.960272   1.000000
    3      -30.951518   1.000000
    4      -30.951514   1.000000
    5      -24.299398   1.000000
    6      -24.299383   1.000000
    7      -24.291028   1.000000
    8      -24.291024   1.000000
    9      -24.290449   1.000000
   10      -24.290433   1.000000
   11      -20.540861   1.000000
   12      -20.540859   1.000000
   13       -7.186691   1.000000
   14       -7.186686   1.000000
   15        0.701773   1.000000
   16        0.701778   1.000000
   17        2.802799   1.000000
   18        2.802816   1.000000
   19        5.832406   0.000000
   20        5.832416   0.000000
   21        9.912414   0.000000
   22        9.912419   0.000000
   23       10.405464   0.000000
   24       10.405469   0.000000
   25       10.839356   0.000000
   26       10.839357   0.000000
   27       11.290693   0.000000
   28       11.290707   0.000000
   29       12.787749   0.000000
   30       12.787751   0.000000
   31       13.053323   0.000000
   32       13.053329   0.000000
   33       15.989061   0.000000
   34       15.989066   0.000000
   35       17.340358   0.000000
   36       17.340362   0.000000
   37       17.579547   0.000000
   38       17.579556   0.000000
   39       18.238067   0.000000
   40       18.238073   0.000000
   41       18.824225   0.000000
   42       18.824236   0.000000
   43       19.330114   0.000000
   44       19.330119   0.000000
   45       20.434285   0.000000
   46       20.434295   0.000000
   47       20.742664   0.000000
   48       20.742673   0.000000
   49       23.791998   0.000000
   50       23.792002   0.000000
   51       25.387226   0.000000
   52       25.387234   0.000000
   53       25.572798   0.000000
   54       25.572806   0.000000
   55       26.646278   0.000000
   56       26.646283   0.000000
   57       27.486163   0.000000
   58       27.486173   0.000000
   59       27.890132   0.000000
   60       27.890141   0.000000
   61       29.975429   0.000000
   62       29.975435   0.000000
   63       30.899618   0.000000
   64       30.899633   0.000000
 
  0.2750000E+00  0.2750000E+00  0.2750000E+00  0.0000000E+00
    1      -30.956762   1.000000
    2      -30.956744   1.000000
    3      -30.949911   1.000000
    4      -30.949907   1.000000
    5      -24.297179   1.000000
    6      -24.297164   1.000000
    7      -24.291458   1.000000
    8      -24.291453   1.000000
    9      -24.287853   1.000000
   10      -24.287837   1.000000
   11      -20.549276   1.000000
   12      -20.549275   1.000000
   13       -7.157466   1.000000
   14       -7.157461   1.000000
   15        0.843810   1.000000
   16        0.843815   1.000000
   17        2.841474   1.000000
   18        2.841491   1.000000
   19        5.756220   0.000000
   20        5.756230   0.000000
   21        9.770245   0.000000
   22        9.770249   0.000000
   23       10.492938   0.000000
   24       10.492943   0.000000
   25       10.918322   0.000000
   26       10.918322   0.000000
   27       11.397881   0.000000
   28       11.397896   0.000000
   29       12.589045   0.000000
   30       12.589048   0.000000
   31       12.845101   0.000000
   32       12.845107   0.000000
   33       15.539084   0.000000
   34       15.539088   0.000000
   35       17.069580   0.000000
   36       17.069585   0.000000
   37       17.274699   0.000000
   38       17.274707   0.000000
   39       18.548298   0.000000
   40       18.548304   0.000000
   41       19.101979   0.000000
   42       19.101990   0.000000
   43       19.763277   0.000000
   44       19.763281   0.000000
   45       19.952217   0.000000
   46       19.952227   0.000000
   47       20.718622   0.000000
   48       20.718631   0.000000
   49       23.875059   0.000000
   50       23.875063   0.000000
   51       25.420301   0.000000
   52       25.420308   0.000000
   53       25.722111   0.000000
   54       25.722120   0.000000
   55       26.823882   0.000000
   56       26.823887   0.000000
   57       27.538908   0.000000
   58       27.538920   0.000000
   59       28.020915   0.000000
   60       28.020924   0.000000
   61       30.157690   0.000000
   62       30.157695   0.000000
   63       30.800212   0.000000
   64       30.800227   0.000000
 
  0.2500000E+00  0.2500000E+00  0.2500000E+00  0.0000000E+00
    1      -30.948368   1.000000
    2      -30.948364   1.000000
    3      -30.945981   1.000000
    4      -30.945963   1.000000
    5      -24.292904   1.000000
    6      -24.292894   1.000000
    7      -24.288372   1.000000
    8      -24.288356   1.000000
    9      -24.283573   1.000000
   10      -24.283558   1.000000
   11      -20.557872   1.000000
   12      -20.557871   1.000000
   13       -7.127515   1.000000
   14       -7.127510   1.000000
   15        1.001468   1.000000
   16        1.001473   1.000000
   17        2.881907   1.000000
   18        2.881925   1.000000
   19        5.650461   0.000000
   20        5.650472   0.000000
   21        9.657932   0.000000
   22        9.657937   0.000000
   23       10.576791   0.000000
   24       10.576795   0.000000
   25       10.993441   0.000000
   26       10.993442   0.000000
   27       11.533867   0.000000
   28       11.533881   0.000000
   29       12.425364   0.000000
   30       12.425367   0.000000
   31       12.669960   0.000000
   32       12.669965   0.000000
   33       15.084990   0.000000
   34       15.084995   0.000000
   35       16.757617   0.000000
   36       16.757622   0.000000
   37       16.952722   0.000000
   38       16.952729   0.000000
   39       18.880421   0.000000
   40       18.880427   0.000000
   41       19.367248   0.000000
   42       19.367260   0.000000
   43       19.472762   0.000000
   44       19.472772   0.000000
   45       20.179545   0.000000
   46       20.179549   0.000000
   47       20.694509   0.000000
   48       20.694518   0.000000
   49       24.019049   0.000000
   50       24.019053   0.000000
   51       25.479577   0.000000
   52       25.479584   0.000000
   53       25.871348   0.000000
   54       25.871357   0.000000
   55       27.001859   0.000000
   56       27.001865   0.000000
   57       27.594743   0.000000
   58       27.594755   0.000000
   59       28.166839   0.000000
   60       28.166848   0.000000
   61       30.306797   0.000000
   62       30.306801   0.000000
   63       30.682728   0.000000
   64       30.682743   0.000000
 
  0.2250000E+00  0.2250000E+00  0.2250000E+00  0.0000000E+00
    1      -30.958621   1.000000
    2      -30.958616   1.000000
    3      -30.949794   1.000000
    4      -30.949775   1.000000
    5      -24.300717   1.000000
    6      -24.300708   1.000000
    7      -24.292394   1.000000
    8      -24.292377   1.000000
    9      -24.286695   1.000000
   10      -24.286679   1.000000
   11      -20.566469   1.000000
   12      -20.566467   1.000000
   13       -7.097675   1.000000
   14       -7.097671   1.000000
   15        1.174216   1.000000
   16        1.174221   1.000000
   17        2.923105   1.000000
   18        2.923123   1.000000
   19        5.512193   0.000000
   20        5.512203   0.000000
   21        9.587088   0.000000
   22        9.587093   0.000000
   23       10.648792   0.000000
   24       10.648797   0.000000
   25       11.054967   0.000000
   26       11.054968   0.000000
   27       11.689233   0.000000
   28       11.689248   0.000000
   29       12.306714   0.000000
   30       12.306717   0.000000
   31       12.536981   0.000000
   32       12.536987   0.000000
   33       14.634888   0.000000
   34       14.634892   0.000000
   35       16.428325   0.000000
   36       16.428329   0.000000
   37       16.616918   0.000000
   38       16.616925   0.000000
   39       18.964421   0.000000
   40       18.964431   0.000000
   41       19.244453   0.000000
   42       19.244460   0.000000
   43       19.607403   0.000000
   44       19.607415   0.000000
   45       20.554600   0.000000
   46       20.554603   0.000000
   47       20.658108   0.000000
   48       20.658117   0.000000
   49       24.220777   0.000000
   50       24.220781   0.000000
   51       25.546339   0.000000
   52       25.546347   0.000000
   53       26.006661   0.000000
   54       26.006670   0.000000
   55       27.163838   0.000000
   56       27.163844   0.000000
   57       27.661226   0.000000
   58       27.661239   0.000000
   59       28.325120   0.000000
   60       28.325129   0.000000
   61       30.400293   0.000000
   62       30.400296   0.000000
   63       30.551734   0.000000
   64       30.551749   0.000000
 
  0.2000000E+00  0.2000000E+00  0.2000000E+00  0.0000000E+00
    1      -30.961232   1.000000
    2      -30.961227   1.000000
    3      -30.947661   1.000000
    4      -30.947643   1.000000
    5      -24.301969   1.000000
    6      -24.301960   1.000000
    7      -24.290380   1.000000
    8      -24.290364   1.000000
    9      -24.288712   1.000000
   10      -24.288695   1.000000
   11      -20.574804   1.000000
   12      -20.574803   1.000000
   13       -7.068569   1.000000
   14       -7.068565   1.000000
   15        1.361612   1.000000
   16        1.361617   1.000000
   17        2.964147   1.000000
   18        2.964165   1.000000
   19        5.341677   0.000000
   20        5.341687   0.000000
   21        9.563567   0.000000
   22        9.563572   0.000000
   23       10.700891   0.000000
   24       10.700896   0.000000
   25       11.091881   0.000000
   26       11.091881   0.000000
   27       11.856347   0.000000
   28       11.856361   0.000000
   29       12.246120   0.000000
   30       12.246123   0.000000
   31       12.456983   0.000000
   32       12.456988   0.000000
   33       14.199702   0.000000
   34       14.199706   0.000000
   35       16.094928   0.000000
   36       16.094932   0.000000
   37       16.276418   0.000000
   38       16.276426   0.000000
   39       18.522331   0.000000
   40       18.522342   0.000000
   41       19.531576   0.000000
   42       19.531583   0.000000
   43       19.820561   0.000000
   44       19.820574   0.000000
   45       20.634901   0.000000
   46       20.634910   0.000000
   47       20.889721   0.000000
   48       20.889724   0.000000
   49       24.489289   0.000000
   50       24.489292   0.000000
   51       25.636733   0.000000
   52       25.636741   0.000000
   53       26.162484   0.000000
   54       26.162494   0.000000
   55       27.310392   0.000000
   56       27.310398   0.000000
   57       27.762067   0.000000
   58       27.762079   0.000000
   59       28.496735   0.000000
   60       28.496744   0.000000
   61       30.412637   0.000000
   62       30.412651   0.000000
   63       30.414200   0.000000
   64       30.414202   0.000000
 
  0.1750000E+00  0.1750000E+00  0.1750000E+00  0.0000000E+00
    1      -30.966321   1.000000
    2      -30.966317   1.000000
    3      -30.951228   1.000000
    4      -30.951209   1.000000
    5      -24.305596   1.000000
    6      -24.305588   1.000000
    7      -24.293465   1.000000
    8      -24.293450   1.000000
    9      -24.291486   1.000000
   10      -24.291469   1.000000
   11      -20.582690   1.000000
   12      -20.582689   1.000000
   13       -7.040983   1.000000
   14       -7.040979   1.000000
   15        1.562898   1.000000
   16        1.562903   1.000000
   17        3.003926   1.000000
   18        3.003944   1.000000
   19        5.141295   0.000000
   20        5.141305   0.000000
   21        9.588508   0.000000
   22        9.588513   0.000000
   23       10.725623   0.000000
   24       10.725628   0.000000
   25       11.095604   0.000000
   26       11.095605   0.000000
   27       12.023901   0.000000
   28       12.023915   0.000000
   29       12.251644   0.000000
   30       12.251648   0.000000
   31       12.437988   0.000000
   32       12.437993   0.000000
   33       13.785720   0.000000
   34       13.785724   0.000000
   35       15.762195   0.000000
   36       15.762199   0.000000
   37       15.934361   0.000000
   38       15.934368   0.000000
   39       18.081481   0.000000
   40       18.081493   0.000000
   41       19.799608   0.000000
   42       19.799616   0.000000
   43       20.005766   0.000000
   44       20.005780   0.000000