 vasp.5.4.4.18Apr17-6-g9f103f2a35 (build Nov 03 2018 10:20:46) complex          
  
 executed on             LinuxIFC date 2018.12.21  13:04:23
 running on   32 total cores
 distrk:  each k-point on    4 cores,    8 groups
 distr:  one band on NCORES_PER_BAND=   4 cores,    1 groups


--------------------------------------------------------------------------------------------------------


 INCAR:
 POTCAR:    PAW Og, JanMewes Oct 18               

 ----------------------------------------------------------------------------- 
|                                                                             |
|           W    W    AA    RRRRR   N    N  II  N    N   GGGG   !!!           |
|           W    W   A  A   R    R  NN   N  II  NN   N  G    G  !!!           |
|           W    W  A    A  R    R  N N  N  II  N N  N  G       !!!           |
|           W WW W  AAAAAA  RRRRR   N  N N  II  N  N N  G  GGG   !            |
|           WW  WW  A    A  R   R   N   NN  II  N   NN  G    G                |
|           W    W  A    A  R    R  N    N  II  N    N   GGGG   !!!           |
|                                                                             |
|      You have enabled k-point parallelism (KPAR>1).                         |
|      This developmental code was originally  written by Paul Kent at ORNL,  |
|      and carefully double checked in Vienna.                                |
|      GW as well as linear response parallelism added by Martijn Marsman     |
|      and Georg Kresse.                                                      |
|      Carefully verify results versus KPAR=1.                                |
|      Report problems to Paul Kent and Vienna.                               |
|                                                                             |
 ----------------------------------------------------------------------------- 

 POTCAR:    PAW Og, JanMewes Oct 18               
   VRHFIN =Og : 10d 2s 6p, PE                                                   
   LEXCH  = PE                                                                  
   EATOM  =  2640.5573 eV,  194.0755 Ry                                         
                                                                                
   TITEL  = PAW Og, JanMewes Oct 18                                             
   LULTRA =        F    use ultrasoft PP ?                                      
   IUNSCR =        1    unscreen: 0-lin 1-nonlin 2-no                           
   RPACOR =    1.700    partial core radius                                     
   POMASS =    0.010; ZVAL   =   18.000    mass and valenz                      
   RCORE  =    2.600    outmost cutoff radius                                   
   RWIGS  =    3.500; RWIGS  =    1.852    wigner-seitz radius (au A)           
   ENMAX  =  339.336; ENMIN  =  254.502 eV                                      
   ICORE  =        3    local potential                                         
   LCOR   =        T    correct aug charges                                     
   LPAW   =        T    paw PP                                                  
   EAUG   =  361.025                                                            
   DEXC   =   -0.000                                                            
   RAUG   =    1.300    factor for augmentation sphere                          
   RDEP   =    2.775    radius for radial grids                                 
   RDEPT  =    2.135    core radius for aug-charge                              
   QCUT   =   -4.994; QGAM   =    9.988    optimization parameters              
                                                                                
   Atomic configuration                                                         
   22 entries                                                                   
     n  l   j            E        occ.                                          
     1  0  0.50   -225781.4217   2.0000                                         
     2  0  0.50    -47342.3774   2.0000                                         
     2  1  1.50    -33463.4058   6.0000                                         
     3  0  0.50    -12845.8060   2.0000                                         
     3  1  1.50     -9184.5562   6.0000                                         
     3  2  2.50     -7322.6146  10.0000                                         
     4  0  0.50     -3781.9433   2.0000                                         
     4  1  1.50     -2605.9204   6.0000                                         
     4  2  2.50     -1899.4626  10.0000                                         
     4  3  3.50     -1273.6890  14.0000                                         
     5  0  0.50     -1046.0643   2.0000                                         
     5  1  1.50      -650.9265   6.0000                                         
     5  2  2.50      -388.1490  10.0000                                         
     5  3  3.50      -152.1121  14.0000                                         
     6  0  0.50      -224.6639   2.0000                                         
     6  1  0.50      -184.3267   2.0000                                         
     6  1  1.50       -97.8537   4.0000                                         
     6  2  2.50       -35.6667  10.0000                                         
     7  0  0.50       -28.5889   2.0000                                         
     8  0  0.50        -1.3606   0.0000                                         
     7  1  1.50        -7.0827   6.0000                                         
     6  3  3.50        -0.0136   0.0000                                         
   Description                                                                  
     l       E           TYP  RCUT    TYP  RCUT                                 
     2    -35.6666962     23  2.100                                             
     2     34.0145650     23  2.300                                             
     0    -28.5889381     23  1.600                                             
     0     40.8174780     23  2.200                                             
     1     -7.0826811     23  2.200                                             
     1    148.3035034     23  1.900                                             
     3      6.8029130      7  2.600                                             
  local pseudopotential read in
  partial core-charges read in
  partial kinetic energy density read in
  kinetic energy density of atom read in
  atomic valenz-charges read in
  non local Contribution for L=           2  read in
    real space projection operators read in
  non local Contribution for L=           2  read in
    real space projection operators read in
  non local Contribution for L=           0  read in
    real space projection operators read in
  non local Contribution for L=           0  read in
    real space projection operators read in
  non local Contribution for L=           1  read in
    real space projection operators read in
  non local Contribution for L=           1  read in
    real space projection operators read in
    PAW grid and wavefunctions read in
 
   number of l-projection  operators is LMAX  =           6
   number of lm-projection operators is LMMAX =          18
 
  PAW Og, JanMewes Oct 18               :
 energy of atom  1       EATOM=-2640.5573
 kinetic energy error for atom=    0.6524 (will be added to EATOM!!)
 
 
 POSCAR: Og_FCC                                  
  positions in direct lattice
  velocities in cartesian coordinates

 METAGGA = SCAN     LMAXTAU =  0    LMIXTAU =  F

 exchange correlation table for  LEXCH =        8
   RHO(1)=    0.500       N(1)  =     2000
   RHO(2)=  100.500       N(2)  =     4000
 


--------------------------------------------------------------------------------------------------------


 ion  position               nearest neighbor table
   1  0.000  0.000  0.000-
 

IMPORTANT INFORMATION: All symmetrisations will be switched off!
NOSYMM: (Re-)initialisation of all symmetry stuff for point group C_1.

 
 
 KPOINTS: Automatically generated mesh + R-points 
  k-points in reciprocal lattice
Space group operators:
 irot       det(A)        alpha          n_x          n_y          n_z        tau_x        tau_y        tau_z
    1     1.000000     0.000000     1.000000     0.000000     0.000000     0.000000     0.000000     0.000000


--------------------------------------------------------------------------------------------------------




 Dimension of arrays:
   k-points           NKPTS =    256   k-points in BZ     NKDIM =    256   number of bands    NBANDS=     64
   number of dos      NEDOS =    301   number of ions     NIONS =      1
   non local maximal  LDIM  =      6   non local SUM 2l+1 LMDIM =     18
   total plane-waves  NPLWV =  21952
   max r-space proj   IRMAX =      1   max aug-charges    IRDMAX= 175694
   dimension x,y,z NGX =    28 NGY =   28 NGZ =   28
   dimension x,y,z NGXF=    56 NGYF=   56 NGZF=   56
   support grid    NGXF=   112 NGYF=  112 NGZF=  112
   ions per type =               1
   NGX,Y,Z   is equivalent  to a cutoff of  10.59, 10.59, 10.59 a.u.
   NGXF,Y,Z  is equivalent  to a cutoff of  21.18, 21.18, 21.18 a.u.

 SYSTEM =  Og_FCC                                  
 POSCAR =  Og_FCC                                  

 Startparameter for this run:
   NWRITE =      2    write-flag & timer
   PREC   = accura    normal or accurate (medium, high low for compatibility)
   ISTART =      1    job   : 0-new  1-cont  2-samecut
   ICHARG =      0    charge: 1-file 2-atom 10-const
   ISPIN  =      1    spin polarized calculation?
   LNONCOLLINEAR =      T non collinear calculations
   LSORBIT =      T    spin-orbit coupling
   INIWAV =      1    electr: 0-lowe 1-rand  2-diag
   LASPH  =      F    aspherical Exc in radial PAW
   METAGGA=      F    non-selfconsistent MetaGGA calc.

 Electronic Relaxation 1
   ENCUT  =  300.0 eV  22.05 Ry    4.70 a.u.   6.21  6.21  6.21*2*pi/ulx,y,z
   ENINI  =  300.0     initial cutoff
   ENAUG  =  361.0 eV  augmentation charge cutoff
   NELM   =     50;   NELMIN=  2; NELMDL= -5     # of ELM steps 
   EDIFF  = 0.1E-07   stopping-criterion for ELM
   LREAL  =      F    real-space projection
   NLSPLINE    = F    spline interpolate recip. space projectors
   LCOMPAT=      F    compatible to vasp.4.4
   GGA_COMPAT  = F    GGA compatible to vasp.4.4-vasp.4.6
   LMAXPAW     = -100 max onsite density
   LMAXMIX     =    2 max onsite mixed and CHGCAR
   VOSKOWN=      0    Vosko Wilk Nusair interpolation
   ROPT   =    0.00000
 Ionic relaxation
   EDIFFG = 0.1E-04   stopping-criterion for IOM
   NSW    =      1    number of steps for IOM
   NBLOCK =      1;   KBLOCK =      1    inner block; outer block 
   IBRION =     -1    ionic relax: 0-MD 1-quasi-New 2-CG
   NFREE  =      5    steps in history (QN), initial steepest desc. (CG)
   ISIF   =      3    stress and relaxation
   IWAVPR =     10    prediction:  0-non 1-charg 2-wave 3-comb
   ISYM   =      0    0-nonsym 1-usesym 2-fastsym
   LCORR  =      T    Harris-Foulkes like correction to forces

   POTIM  = 0.1000    time-step for ionic-motion
   TEIN   =    0.0    initial temperature
   TEBEG  =    0.0;   TEEND  =   0.0 temperature during run
   SMASS  =  -3.00    Nose mass-parameter (am)
   estimated Nose-frequenzy (Omega)   =  0.10E-29 period in steps =****** mass=  -0.442E-27a.u.
   SCALEE = 1.0000    scale energy and forces
   NPACO  =    256;   APACO  = 16.0  distance and # of slots for P.C.
   PSTRESS=    0.0 pullay stress

  Mass of Ions in am
   POMASS =   0.01
  Ionic Valenz
   ZVAL   =  18.00
  Atomic Wigner-Seitz radii
   RWIGS  =  -1.00
  virtual crystal weights 
   VCA    =   1.00
   NELECT =      18.0000    total number of electrons
   NUPDOWN=      -1.0000    fix difference up-down

 DOS related values:
   EMIN   =  10.00;   EMAX   =-10.00  energy-range for DOS
   EFERMI =   0.00
   ISMEAR =     0;   SIGMA  =   0.05  broadening in eV -4-tet -1-fermi 0-gaus

 Electronic relaxation 2 (details)
   IALGO  =     38    algorithm
   LDIAG  =      T    sub-space diagonalisation (order eigenvalues)
   LSUBROT=      F    optimize rotation matrix (better conditioning)
   TURBO    =      0    0=normal 1=particle mesh
   IRESTART =      0    0=no restart 2=restart with 2 vectors
   NREBOOT  =      0    no. of reboots
   NMIN     =      0    reboot dimension
   EREF     =   0.00    reference energy to select bands
   IMIX   =      4    mixing-type and parameters
     AMIX     =   0.40;   BMIX     =  1.00
     AMIX_MAG =   1.60;   BMIX_MAG =  1.00
     AMIN     =   0.10
     WC   =   100.;   INIMIX=   1;  MIXPRE=   1;  MAXMIX=  50

 Intra band minimization:
   WEIMIN = 0.0000     energy-eigenvalue tresh-hold
   EBREAK =  0.39E-10  absolut break condition
   DEPER  =   0.30     relativ break condition  

   TIME   =   0.40     timestep for ELM

  volume/ion in A,a.u.               =      60.08       405.47
  Fermi-wavevector in a.u.,A,eV,Ry     =   1.095414  2.070033 16.326071  1.199932
  Thomas-Fermi vector in A             =   2.231737
 
 Write flags
   LWAVE        =      T    write WAVECAR
   LDOWNSAMPLE  =      F    k-point downsampling of WAVECAR
   LCHARG       =      T    write CHGCAR
   LVTOT        =      F    write LOCPOT, total local potential
   LVHAR        =      F    write LOCPOT, Hartree potential only
   LELF         =      F    write electronic localiz. function (ELF)
   LORBIT       =      0    0 simple, 1 ext, 2 COOP (PROOUT), +10 PAW based schemes


 Dipole corrections
   LMONO  =      F    monopole corrections only (constant potential shift)
   LDIPOL =      F    correct potential (dipole corrections)
   IDIPOL =      0    1-x, 2-y, 3-z, 4-all directions 
   EPSILON=  1.0000000 bulk dielectric constant

 Exchange correlation treatment:
   GGA     =    --    GGA type
   LEXCH   =     8    internal setting for exchange type
   VOSKOWN=      0    Vosko Wilk Nusair interpolation
   LHFCALC =     F    Hartree Fock is set to
   LHFONE  =     F    Hartree Fock one center treatment
   AEXX    =    0.0000 exact exchange contribution

 Linear response parameters
   LEPSILON=     F    determine dielectric tensor
   LRPA    =     F    only Hartree local field effects (RPA)
   LNABLA  =     F    use nabla operator in PAW spheres
   LVEL    =     F    velocity operator in full k-point grid
   LINTERFAST=   F  fast interpolation
   KINTER  =     0    interpolate to denser k-point grid
   CSHIFT  =0.1000    complex shift for real part using Kramers Kronig
   OMEGAMAX=  -1.0    maximum frequency
   DEG_THRESHOLD= 0.2000000E-02 threshold for treating states as degnerate
   RTIME   =   -0.100 relaxation time in fs
  (WPLASMAI=    0.000 imaginary part of plasma frequency in eV, 0.658/RTIME)
   DFIELD  = 0.0000000 0.0000000 0.0000000 field for delta impulse in time
 
 Orbital magnetization related:
   ORBITALMAG=     F  switch on orbital magnetization
   LCHIMAG   =     F  perturbation theory with respect to B field
   DQ        =  0.001000  dq finite difference perturbation B field
   LLRAUG    =     F  two centre corrections for induced B field



--------------------------------------------------------------------------------------------------------


 Static calculation
 charge density and potential will be updated during run
 non collinear spin polarized calculation
 Variant of blocked Davidson
 Davidson routine will perform the subspace rotation
 perform sub-space diagonalisation
    after iterative eigenvector-optimisation
 modified Broyden-mixing scheme, WC =      100.0
 initial mixing is a Kerker type mixing with AMIX =  0.4000 and BMIX =      1.0000
 Hartree-type preconditioning will be used
 using additional bands           55
 reciprocal scheme for non local part
 use partial core corrections
 calculate Harris-corrections to forces 
   (improved forces if not selfconsistent)
 use gradient corrections 
 use of overlap-Matrix (Vanderbilt PP)
 Gauss-broadening in eV      SIGMA  =   0.05


--------------------------------------------------------------------------------------------------------


  energy-cutoff  :      300.00
  volume of cell :       60.08
      direct lattice vectors                 reciprocal lattice vectors
     4.396350177  0.000000000  0.000000000     0.227461408 -0.131324905 -0.092860731
     2.198175089  3.807350937 -0.000000000     0.000000000  0.262649810 -0.092860731
     2.198175089  1.269116979  3.589604888    -0.000000000  0.000000000  0.278582192

  length of vectors
     4.396350177  4.396350177  4.396350177     0.278582193  0.278582193  0.278582192


 
 old parameters found on file WAVECAR:
  energy-cutoff  :      300.00
  volume of cell :       57.90
      direct lattice vectors                 reciprocal lattice vectors
     4.342345876  0.000000000  0.000000000     0.230290269 -0.132958149 -0.094015609
     2.171172938  3.760581840 -0.000000000     0.000000000  0.265916298 -0.094015609
     2.171172938  1.253527280  3.545510561    -0.000000000  0.000000000  0.282046826

  length of vectors

 
 k-points in units of 2pi/SCALE and weight: Automatically generated mesh + R-points 
   0.11514513  0.06647907  0.04700780       0.000
   0.10938788  0.06315512  0.04465741       0.000
   0.10363062  0.05983117  0.04230702       0.000
   0.09787336  0.05650721  0.03995663       0.000
   0.09211611  0.05318326  0.03760624       0.000
   0.08635885  0.04985931  0.03525585       0.000
   0.08060159  0.04653535  0.03290546       0.000
   0.07484434  0.04321140  0.03055507       0.000
   0.06908708  0.03988744  0.02820468       0.000
   0.06332982  0.03656349  0.02585429       0.000
   0.05757257  0.03323954  0.02350390       0.000
   0.05181531  0.02991558  0.02115351       0.000
   0.04605805  0.02659163  0.01880312       0.000
   0.04030080  0.02326768  0.01645273       0.000
   0.03454354  0.01994372  0.01410234       0.000
   0.02878628  0.01661977  0.01175195       0.000
   0.02302903  0.01329581  0.00940156       0.000
   0.01727177  0.00997186  0.00705117       0.000
   0.01151451  0.00664791  0.00470078       0.000
   0.00575726  0.00332395  0.00235039       0.000
   0.00000000  0.00000000  0.00000000       0.000
  -0.00000000  0.00664791  0.00470078       0.000
  -0.00000000  0.01329581  0.00940156       0.000
  -0.00000000  0.01994372  0.01410234       0.000
  -0.00000000  0.02659163  0.01880312       0.000
  -0.00000000  0.03323954  0.02350390       0.000
  -0.00000000  0.03988744  0.02820468       0.000
  -0.00000000  0.04653535  0.03290546       0.000
  -0.00000000  0.05318326  0.03760624       0.000
  -0.00000000  0.05983117  0.04230702       0.000
  -0.00000000  0.06647907  0.04700780       0.000
  -0.00000000  0.07312698  0.05170858       0.000
  -0.00000000  0.07977489  0.05640937       0.000
  -0.00000000  0.08642280  0.06111015       0.000
  -0.00000000  0.09307070  0.06581093       0.000
  -0.00000000  0.09971861  0.07051171       0.000
  -0.00000000  0.10636652  0.07521249       0.000
  -0.00000000  0.11301443  0.07991327       0.000
  -0.00000000  0.11966233  0.08461405       0.000
  -0.00000000  0.12631024  0.08931483       0.000
  -0.00000000  0.13295815  0.09401561       0.000
   0.00000000  0.00000000  0.00000000       0.005
   0.03838171 -0.02215969 -0.01566927       0.005
   0.07676342 -0.04431938 -0.03133854       0.005
   0.11514513 -0.06647907 -0.04700780       0.005
  -0.07676342  0.04431938  0.03133854       0.005
  -0.03838171  0.02215969  0.01566927       0.005
   0.00000000  0.04431938 -0.01566927       0.005
   0.03838171  0.02215969 -0.03133854       0.005
   0.07676342  0.00000000 -0.04700780       0.005
   0.11514513 -0.02215969 -0.06267707       0.005
  -0.07676342  0.08863877  0.01566927       0.005
  -0.03838171  0.06647907  0.00000000       0.005
   0.00000000  0.08863877 -0.03133854       0.005
   0.03838171  0.06647907 -0.04700780       0.005
   0.07676342  0.04431938 -0.06267707       0.005
   0.11514513  0.02215969 -0.07834634       0.005
  -0.07676342  0.13295815  0.00000000       0.005
  -0.03838171  0.11079846 -0.01566927       0.005
   0.00000000  0.13295815 -0.04700780       0.005
   0.03838171  0.11079846 -0.06267707       0.005
   0.07676342  0.08863877 -0.07834634       0.005
   0.11514513  0.06647907 -0.09401561       0.005
  -0.07676342  0.17727753 -0.01566927       0.005
  -0.03838171  0.15511784 -0.03133854       0.005
  -0.00000000 -0.08863877  0.03133854       0.005
   0.03838171 -0.11079846  0.01566927       0.005
   0.07676342 -0.13295815 -0.00000000       0.005
   0.11514513 -0.15511784 -0.01566927       0.005
  -0.07676342 -0.04431938  0.06267707       0.005
  -0.03838171 -0.06647907  0.04700780       0.005
  -0.00000000 -0.04431938  0.01566927       0.005
   0.03838171 -0.06647907 -0.00000000       0.005
   0.07676342 -0.08863877 -0.01566927       0.005
   0.11514513 -0.11079846 -0.03133854       0.005
  -0.07676342 -0.00000000  0.04700780       0.005
  -0.03838171 -0.02215969  0.03133854       0.005
  -0.00000000  0.00000000  0.04700780       0.005
   0.03838171 -0.02215969  0.03133854       0.005
   0.07676342 -0.04431938  0.01566927       0.005
   0.11514513 -0.06647907  0.00000000       0.005
  -0.07676342  0.04431938  0.07834634       0.005
  -0.03838171  0.02215969  0.06267707       0.005
  -0.00000000  0.04431938  0.03133854       0.005
   0.03838171  0.02215969  0.01566927       0.005
   0.07676342  0.00000000  0.00000000       0.005
   0.11514513 -0.02215969 -0.01566927       0.005
  -0.07676342  0.08863877  0.06267707       0.005
  -0.03838171  0.06647907  0.04700780       0.005
  -0.00000000  0.08863877  0.01566927       0.005
   0.03838171  0.06647907  0.00000000       0.005
   0.07676342  0.04431938 -0.01566927       0.005
   0.11514513  0.02215969 -0.03133854       0.005
  -0.07676342  0.13295815  0.04700780       0.005
  -0.03838171  0.11079846  0.03133854       0.005
  -0.00000000  0.13295815  0.00000000       0.005
   0.03838171  0.11079846 -0.01566927       0.005
   0.07676342  0.08863877 -0.03133854       0.005
   0.11514513  0.06647907 -0.04700780       0.005
  -0.07676342  0.17727753  0.03133854       0.005
  -0.03838171  0.15511784  0.01566927       0.005
  -0.00000000 -0.08863877  0.07834634       0.005
   0.03838171 -0.11079846  0.06267707       0.005
   0.07676342 -0.13295815  0.04700780       0.005
   0.11514513 -0.15511784  0.03133854       0.005
  -0.07676342 -0.04431938  0.10968488       0.005
  -0.03838171 -0.06647907  0.09401561       0.005
  -0.00000000 -0.04431938  0.06267707       0.005
   0.03838171 -0.06647907  0.04700780       0.005
   0.07676342 -0.08863877  0.03133854       0.005
   0.11514513 -0.11079846  0.01566927       0.005
  -0.07676342 -0.00000000  0.09401561       0.005
  -0.03838171 -0.02215969  0.07834634       0.005
  -0.00000000  0.00000000  0.09401561       0.005
   0.03838171 -0.02215969  0.07834634       0.005
   0.07676342 -0.04431938  0.06267707       0.005
   0.11514513 -0.06647907  0.04700780       0.005
  -0.07676342  0.04431938  0.12535414       0.005
  -0.03838171  0.02215969  0.10968488       0.005
  -0.00000000  0.04431938  0.07834634       0.005
   0.03838171  0.02215969  0.06267707       0.005
   0.07676342  0.00000000  0.04700780       0.005
   0.11514513 -0.02215969  0.03133854       0.005
  -0.07676342  0.08863877  0.10968488       0.005
  -0.03838171  0.06647907  0.09401561       0.005
  -0.00000000  0.08863877  0.06267707       0.005
   0.03838171  0.06647907  0.04700780       0.005
   0.07676342  0.04431938  0.03133854       0.005
   0.11514513  0.02215969  0.01566927       0.005
  -0.07676342  0.13295815  0.09401561       0.005
  -0.03838171  0.11079846  0.07834634       0.005
  -0.00000000  0.13295815  0.04700780       0.005
   0.03838171  0.11079846  0.03133854       0.005
   0.07676342  0.08863877  0.01566927       0.005
   0.11514513  0.06647907 -0.00000000       0.005
  -0.07676342  0.17727753  0.07834634       0.005
  -0.03838171  0.15511784  0.06267707       0.005
  -0.00000000 -0.08863877  0.12535414       0.005
   0.03838171 -0.11079846  0.10968488       0.005
   0.07676342 -0.13295815  0.09401561       0.005
   0.11514513 -0.15511784  0.07834634       0.005
  -0.07676342 -0.04431938  0.15669268       0.005
  -0.03838171 -0.06647907  0.14102341       0.005
  -0.00000000 -0.04431938  0.10968488       0.005
   0.03838171 -0.06647907  0.09401561       0.005
   0.07676342 -0.08863877  0.07834634       0.005
   0.11514513 -0.11079846  0.06267707       0.005
  -0.07676342 -0.00000000  0.14102341       0.005
  -0.03838171 -0.02215969  0.12535414       0.005
  -0.00000000  0.00000000  0.14102341       0.005
   0.03838171 -0.02215969  0.12535414       0.005
   0.07676342 -0.04431938  0.10968488       0.005
   0.11514513 -0.06647907  0.09401561       0.005
  -0.07676342  0.04431938  0.17236195       0.005
  -0.03838171  0.02215969  0.15669268       0.005
  -0.00000000  0.04431938  0.12535414       0.005
   0.03838171  0.02215969  0.10968488       0.005
   0.07676342  0.00000000  0.09401561       0.005
   0.11514513 -0.02215969  0.07834634       0.005
  -0.07676342  0.08863877  0.15669268       0.005
  -0.03838171  0.06647907  0.14102341       0.005
  -0.00000000  0.08863877  0.10968488       0.005
   0.03838171  0.06647907  0.09401561       0.005
   0.07676342  0.04431938  0.07834634       0.005
   0.11514513  0.02215969  0.06267707       0.005
  -0.07676342  0.13295815  0.14102341       0.005
  -0.03838171  0.11079846  0.12535414       0.005
  -0.00000000  0.13295815  0.09401561       0.005
   0.03838171  0.11079846  0.07834634       0.005
   0.07676342  0.08863877  0.06267707       0.005
   0.11514513  0.06647907  0.04700780       0.005
  -0.07676342  0.17727753  0.12535414       0.005
  -0.03838171  0.15511784  0.10968488       0.005
  -0.00000000 -0.08863877  0.17236195       0.005
   0.03838171 -0.11079846  0.15669268       0.005
   0.07676342 -0.13295815  0.14102341       0.005
   0.11514513 -0.15511784  0.12535414       0.005
  -0.07676342 -0.04431938  0.20370049       0.005
  -0.03838171 -0.06647907  0.18803122       0.005
  -0.00000000 -0.04431938  0.15669268       0.005
   0.03838171 -0.06647907  0.14102341       0.005
   0.07676342 -0.08863877  0.12535414       0.005
   0.11514513 -0.11079846  0.10968488       0.005
  -0.07676342 -0.00000000  0.18803122       0.005
  -0.03838171 -0.02215969  0.17236195       0.005
   0.00000000 -0.00000000 -0.09401561       0.005
   0.03838171 -0.02215969 -0.10968488       0.005
   0.07676342 -0.04431938 -0.12535414       0.005
   0.11514513 -0.06647907 -0.14102341       0.005
  -0.07676342  0.04431938 -0.06267707       0.005
  -0.03838171  0.02215969 -0.07834634       0.005
   0.00000000  0.04431938 -0.10968488       0.005
   0.03838171  0.02215969 -0.12535414       0.005
   0.07676342  0.00000000 -0.14102341       0.005
   0.11514513 -0.02215969 -0.15669268       0.005
  -0.07676342  0.08863877 -0.07834634       0.005
  -0.03838171  0.06647907 -0.09401561       0.005
   0.00000000  0.08863877 -0.12535414       0.005
   0.03838171  0.06647907 -0.14102341       0.005
   0.07676342  0.04431938 -0.15669268       0.005
   0.11514513  0.02215969 -0.17236195       0.005
  -0.07676342  0.13295815 -0.09401561       0.005
  -0.03838171  0.11079846 -0.10968488       0.005
   0.00000000  0.13295815 -0.14102341       0.005
   0.03838171  0.11079846 -0.15669268       0.005
   0.07676342  0.08863877 -0.17236195       0.005
   0.11514513  0.06647907 -0.18803122       0.005
  -0.07676342  0.17727753 -0.10968488       0.005
  -0.03838171  0.15511784 -0.12535414       0.005
   0.00000000 -0.08863877 -0.06267707       0.005
   0.03838171 -0.11079846 -0.07834634       0.005
   0.07676342 -0.13295815 -0.09401561       0.005
   0.11514513 -0.15511784 -0.10968488       0.005
  -0.07676342 -0.04431938 -0.03133854       0.005
  -0.03838171 -0.06647907 -0.04700780       0.005
   0.00000000 -0.04431938 -0.07834634       0.005
   0.03838171 -0.06647907 -0.09401561       0.005
   0.07676342 -0.08863877 -0.10968488       0.005
   0.11514513 -0.11079846 -0.12535414       0.005
  -0.07676342 -0.00000000 -0.04700780       0.005
  -0.03838171 -0.02215969 -0.06267707       0.005
   0.00000000 -0.00000000 -0.04700780       0.005
   0.03838171 -0.02215969 -0.06267707       0.005
   0.07676342 -0.04431938 -0.07834634       0.005
   0.11514513 -0.06647907 -0.09401561       0.005
  -0.07676342  0.04431938 -0.01566927       0.005
  -0.03838171  0.02215969 -0.03133854       0.005
   0.00000000  0.04431938 -0.06267707       0.005
   0.03838171  0.02215969 -0.07834634       0.005
   0.07676342  0.00000000 -0.09401561       0.005
   0.11514513 -0.02215969 -0.10968488       0.005
  -0.07676342  0.08863877 -0.03133854       0.005
  -0.03838171  0.06647907 -0.04700780       0.005
   0.00000000  0.08863877 -0.07834634       0.005
   0.03838171  0.06647907 -0.09401561       0.005
   0.07676342  0.04431938 -0.10968488       0.005
   0.11514513  0.02215969 -0.12535414       0.005
  -0.07676342  0.13295815 -0.04700780       0.005
  -0.03838171  0.11079846 -0.06267707       0.005
   0.00000000  0.13295815 -0.09401561       0.005
   0.03838171  0.11079846 -0.10968488       0.005
   0.07676342  0.08863877 -0.12535414       0.005
   0.11514513  0.06647907 -0.14102341       0.005
  -0.07676342  0.17727753 -0.06267707       0.005
  -0.03838171  0.15511784 -0.07834634       0.005
   0.00000000 -0.08863877 -0.01566927       0.005
   0.03838171 -0.11079846 -0.03133854       0.005
   0.07676342 -0.13295815 -0.04700780       0.005
   0.11514513 -0.15511784 -0.06267707       0.005
  -0.07676342 -0.04431938  0.01566927       0.005
  -0.03838171 -0.06647907 -0.00000000       0.005
   0.00000000 -0.04431938 -0.03133854       0.005
   0.03838171 -0.06647907 -0.04700780       0.005
   0.07676342 -0.08863877 -0.06267707       0.005
   0.11514513 -0.11079846 -0.07834634       0.005
  -0.07676342 -0.00000000 -0.00000000       0.005
 
 k-points in reciprocal lattice and weights: Automatically generated mesh + R-points 
   0.50000000  0.50000000  0.50000000       0.000
   0.47500000  0.47500000  0.47500000       0.000
   0.45000000  0.45000000  0.45000000       0.000
   0.42500000  0.42500000  0.42500000       0.000
   0.40000000  0.40000000  0.40000000       0.000
   0.37500000  0.37500000  0.37500000       0.000
   0.35000000  0.35000000  0.35000000       0.000
   0.32500000  0.32500000  0.32500000       0.000
   0.30000000  0.30000000  0.30000000       0.000
   0.27500000  0.27500000  0.27500000       0.000
   0.25000000  0.25000000  0.25000000       0.000
   0.22500000  0.22500000  0.22500000       0.000
   0.20000000  0.20000000  0.20000000       0.000
   0.17500000  0.17500000  0.17500000       0.000
   0.15000000  0.15000000  0.15000000       0.000
   0.12500000  0.12500000  0.12500000       0.000
   0.10000000  0.10000000  0.10000000       0.000
   0.07500000  0.07500000  0.07500000       0.000
   0.05000000  0.05000000  0.05000000       0.000
   0.02500000  0.02500000  0.02500000       0.000
   0.00000000  0.00000000  0.00000000       0.000
   0.00000000  0.02500000  0.02500000       0.000
   0.00000000  0.05000000  0.05000000       0.000
   0.00000000  0.07500000  0.07500000       0.000
   0.00000000  0.10000000  0.10000000       0.000
   0.00000000  0.12500000  0.12500000       0.000
   0.00000000  0.15000000  0.15000000       0.000
   0.00000000  0.17500000  0.17500000       0.000
   0.00000000  0.20000000  0.20000000       0.000
   0.00000000  0.22500000  0.22500000       0.000
   0.00000000  0.25000000  0.25000000       0.000
   0.00000000  0.27500000  0.27500000       0.000
   0.00000000  0.30000000  0.30000000       0.000
   0.00000000  0.32500000  0.32500000       0.000
   0.00000000  0.35000000  0.35000000       0.000
   0.00000000  0.37500000  0.37500000       0.000
   0.00000000  0.40000000  0.40000000       0.000
   0.00000000  0.42500000  0.42500000       0.000
   0.00000000  0.45000000  0.45000000       0.000
   0.00000000  0.47500000  0.47500000       0.000
   0.00000000  0.50000000  0.50000000       0.000
   0.00000000  0.00000000  0.00000000       0.005
   0.16666667  0.00000000  0.00000000       0.005
   0.33333333  0.00000000  0.00000000       0.005
   0.50000000  0.00000000  0.00000000       0.005
  -0.33333333  0.00000000  0.00000000       0.005
  -0.16666667  0.00000000  0.00000000       0.005
   0.00000000  0.16666667  0.00000000       0.005
   0.16666667  0.16666667  0.00000000       0.005
   0.33333333  0.16666667  0.00000000       0.005
   0.50000000  0.16666667  0.00000000       0.005
  -0.33333333  0.16666667  0.00000000       0.005
  -0.16666667  0.16666667  0.00000000       0.005
   0.00000000  0.33333333  0.00000000       0.005
   0.16666667  0.33333333  0.00000000       0.005
   0.33333333  0.33333333  0.00000000       0.005
   0.50000000  0.33333333  0.00000000       0.005
  -0.33333333  0.33333333  0.00000000       0.005
  -0.16666667  0.33333333  0.00000000       0.005
   0.00000000  0.50000000  0.00000000       0.005
   0.16666667  0.50000000  0.00000000       0.005
   0.33333333  0.50000000  0.00000000       0.005
   0.50000000  0.50000000  0.00000000       0.005
  -0.33333333  0.50000000  0.00000000       0.005
  -0.16666667  0.50000000  0.00000000       0.005
   0.00000000 -0.33333333  0.00000000       0.005
   0.16666667 -0.33333333  0.00000000       0.005
   0.33333333 -0.33333333  0.00000000       0.005
   0.50000000 -0.33333333  0.00000000       0.005
  -0.33333333 -0.33333333  0.00000000       0.005
  -0.16666667 -0.33333333  0.00000000       0.005
   0.00000000 -0.16666667  0.00000000       0.005
   0.16666667 -0.16666667  0.00000000       0.005
   0.33333333 -0.16666667  0.00000000       0.005
   0.50000000 -0.16666667  0.00000000       0.005
  -0.33333333 -0.16666667  0.00000000       0.005
  -0.16666667 -0.16666667  0.00000000       0.005
   0.00000000  0.00000000  0.16666667       0.005
   0.16666667  0.00000000  0.16666667       0.005
   0.33333333  0.00000000  0.16666667       0.005
   0.50000000  0.00000000  0.16666667       0.005
  -0.33333333  0.00000000  0.16666667       0.005
  -0.16666667  0.00000000  0.16666667       0.005
   0.00000000  0.16666667  0.16666667       0.005
   0.16666667  0.16666667  0.16666667       0.005
   0.33333333  0.16666667  0.16666667       0.005
   0.50000000  0.16666667  0.16666667       0.005
  -0.33333333  0.16666667  0.16666667       0.005
  -0.16666667  0.16666667  0.16666667       0.005
   0.00000000  0.33333333  0.16666667       0.005
   0.16666667  0.33333333  0.16666667       0.005
   0.33333333  0.33333333  0.16666667       0.005
   0.50000000  0.33333333  0.16666667       0.005
  -0.33333333  0.33333333  0.16666667       0.005
  -0.16666667  0.33333333  0.16666667       0.005
   0.00000000  0.50000000  0.16666667       0.005
   0.16666667  0.50000000  0.16666667       0.005
   0.33333333  0.50000000  0.16666667       0.005
   0.50000000  0.50000000  0.16666667       0.005
  -0.33333333  0.50000000  0.16666667       0.005
  -0.16666667  0.50000000  0.16666667       0.005
   0.00000000 -0.33333333  0.16666667       0.005
   0.16666667 -0.33333333  0.16666667       0.005
   0.33333333 -0.33333333  0.16666667       0.005
   0.50000000 -0.33333333  0.16666667       0.005
  -0.33333333 -0.33333333  0.16666667       0.005
  -0.16666667 -0.33333333  0.16666667       0.005
   0.00000000 -0.16666667  0.16666667       0.005
   0.16666667 -0.16666667  0.16666667       0.005
   0.33333333 -0.16666667  0.16666667       0.005
   0.50000000 -0.16666667  0.16666667       0.005
  -0.33333333 -0.16666667  0.16666667       0.005
  -0.16666667 -0.16666667  0.16666667       0.005
   0.00000000  0.00000000  0.33333333       0.005
   0.16666667  0.00000000  0.33333333       0.005
   0.33333333  0.00000000  0.33333333       0.005
   0.50000000  0.00000000  0.33333333       0.005
  -0.33333333  0.00000000  0.33333333       0.005
  -0.16666667  0.00000000  0.33333333       0.005
   0.00000000  0.16666667  0.33333333       0.005
   0.16666667  0.16666667  0.33333333       0.005
   0.33333333  0.16666667  0.33333333       0.005
   0.50000000  0.16666667  0.33333333       0.005
  -0.33333333  0.16666667  0.33333333       0.005
  -0.16666667  0.16666667  0.33333333       0.005
   0.00000000  0.33333333  0.33333333       0.005
   0.16666667  0.33333333  0.33333333       0.005
   0.33333333  0.33333333  0.33333333       0.005
   0.50000000  0.33333333  0.33333333       0.005
  -0.33333333  0.33333333  0.33333333       0.005
  -0.16666667  0.33333333  0.33333333       0.005
   0.00000000  0.50000000  0.33333333       0.005
   0.16666667  0.50000000  0.33333333       0.005
   0.33333333  0.50000000  0.33333333       0.005
   0.50000000  0.50000000  0.33333333       0.005
  -0.33333333  0.50000000  0.33333333       0.005
  -0.16666667  0.50000000  0.33333333       0.005
   0.00000000 -0.33333333  0.33333333       0.005
   0.16666667 -0.33333333  0.33333333       0.005
   0.33333333 -0.33333333  0.33333333       0.005
   0.50000000 -0.33333333  0.33333333       0.005
  -0.33333333 -0.33333333  0.33333333       0.005
  -0.16666667 -0.33333333  0.33333333       0.005
   0.00000000 -0.16666667  0.33333333       0.005
   0.16666667 -0.16666667  0.33333333       0.005
   0.33333333 -0.16666667  0.33333333       0.005
   0.50000000 -0.16666667  0.33333333       0.005
  -0.33333333 -0.16666667  0.33333333       0.005
  -0.16666667 -0.16666667  0.33333333       0.005
   0.00000000  0.00000000  0.50000000       0.005
   0.16666667  0.00000000  0.50000000       0.005
   0.33333333  0.00000000  0.50000000       0.005
   0.50000000  0.00000000  0.50000000       0.005
  -0.33333333  0.00000000  0.50000000       0.005
  -0.16666667  0.00000000  0.50000000       0.005
   0.00000000  0.16666667  0.50000000       0.005
   0.16666667  0.16666667  0.50000000       0.005
   0.33333333  0.16666667  0.50000000       0.005
   0.50000000  0.16666667  0.50000000       0.005
  -0.33333333  0.16666667  0.50000000       0.005
  -0.16666667  0.16666667  0.50000000       0.005
   0.00000000  0.33333333  0.50000000       0.005
   0.16666667  0.33333333  0.50000000       0.005
   0.33333333  0.33333333  0.50000000       0.005
   0.50000000  0.33333333  0.50000000       0.005
  -0.33333333  0.33333333  0.50000000       0.005
  -0.16666667  0.33333333  0.50000000       0.005
   0.00000000  0.50000000  0.50000000       0.005
   0.16666667  0.50000000  0.50000000       0.005
   0.33333333  0.50000000  0.50000000       0.005
   0.50000000  0.50000000  0.50000000       0.005
  -0.33333333  0.50000000  0.50000000       0.005
  -0.16666667  0.50000000  0.50000000       0.005
   0.00000000 -0.33333333  0.50000000       0.005
   0.16666667 -0.33333333  0.50000000       0.005
   0.33333333 -0.33333333  0.50000000       0.005
   0.50000000 -0.33333333  0.50000000       0.005
  -0.33333333 -0.33333333  0.50000000       0.005
  -0.16666667 -0.33333333  0.50000000       0.005
   0.00000000 -0.16666667  0.50000000       0.005
   0.16666667 -0.16666667  0.50000000       0.005
   0.33333333 -0.16666667  0.50000000       0.005
   0.50000000 -0.16666667  0.50000000       0.005
  -0.33333333 -0.16666667  0.50000000       0.005
  -0.16666667 -0.16666667  0.50000000       0.005
   0.00000000  0.00000000 -0.33333333       0.005
   0.16666667  0.00000000 -0.33333333       0.005
   0.33333333  0.00000000 -0.33333333       0.005
   0.50000000  0.00000000 -0.33333333       0.005
  -0.33333333  0.00000000 -0.33333333       0.005
  -0.16666667  0.00000000 -0.33333333       0.005
   0.00000000  0.16666667 -0.33333333       0.005
   0.16666667  0.16666667 -0.33333333       0.005
   0.33333333  0.16666667 -0.33333333       0.005
   0.50000000  0.16666667 -0.33333333       0.005
  -0.33333333  0.16666667 -0.33333333       0.005
  -0.16666667  0.16666667 -0.33333333       0.005
   0.00000000  0.33333333 -0.33333333       0.005
   0.16666667  0.33333333 -0.33333333       0.005
   0.33333333  0.33333333 -0.33333333       0.005
   0.50000000  0.33333333 -0.33333333       0.005
  -0.33333333  0.33333333 -0.33333333       0.005
  -0.16666667  0.33333333 -0.33333333       0.005
   0.00000000  0.50000000 -0.33333333       0.005
   0.16666667  0.50000000 -0.33333333       0.005
   0.33333333  0.50000000 -0.33333333       0.005
   0.50000000  0.50000000 -0.33333333       0.005
  -0.33333333  0.50000000 -0.33333333       0.005
  -0.16666667  0.50000000 -0.33333333       0.005
   0.00000000 -0.33333333 -0.33333333       0.005
   0.16666667 -0.33333333 -0.33333333       0.005
   0.33333333 -0.33333333 -0.33333333       0.005
   0.50000000 -0.33333333 -0.33333333       0.005
  -0.33333333 -0.33333333 -0.33333333       0.005
  -0.16666667 -0.33333333 -0.33333333       0.005
   0.00000000 -0.16666667 -0.33333333       0.005
   0.16666667 -0.16666667 -0.33333333       0.005
   0.33333333 -0.16666667 -0.33333333       0.005
   0.50000000 -0.16666667 -0.33333333       0.005
  -0.33333333 -0.16666667 -0.33333333       0.005
  -0.16666667 -0.16666667 -0.33333333       0.005
   0.00000000  0.00000000 -0.16666667       0.005
   0.16666667  0.00000000 -0.16666667       0.005
   0.33333333  0.00000000 -0.16666667       0.005
   0.50000000  0.00000000 -0.16666667       0.005
  -0.33333333  0.00000000 -0.16666667       0.005
  -0.16666667  0.00000000 -0.16666667       0.005
   0.00000000  0.16666667 -0.16666667       0.005
   0.16666667  0.16666667 -0.16666667       0.005
   0.33333333  0.16666667 -0.16666667       0.005
   0.50000000  0.16666667 -0.16666667       0.005
  -0.33333333  0.16666667 -0.16666667       0.005
  -0.16666667  0.16666667 -0.16666667       0.005
   0.00000000  0.33333333 -0.16666667       0.005
   0.16666667  0.33333333 -0.16666667       0.005
   0.33333333  0.33333333 -0.16666667       0.005
   0.50000000  0.33333333 -0.16666667       0.005
  -0.33333333  0.33333333 -0.16666667       0.005
  -0.16666667  0.33333333 -0.16666667       0.005
   0.00000000  0.50000000 -0.16666667       0.005
   0.16666667  0.50000000 -0.16666667       0.005
   0.33333333  0.50000000 -0.16666667       0.005
   0.50000000  0.50000000 -0.16666667       0.005
  -0.33333333  0.50000000 -0.16666667       0.005
  -0.16666667  0.50000000 -0.16666667       0.005
   0.00000000 -0.33333333 -0.16666667       0.005
   0.16666667 -0.33333333 -0.16666667       0.005
   0.33333333 -0.33333333 -0.16666667       0.005
   0.50000000 -0.33333333 -0.16666667       0.005
  -0.33333333 -0.33333333 -0.16666667       0.005
  -0.16666667 -0.33333333 -0.16666667       0.005
   0.00000000 -0.16666667 -0.16666667       0.005
   0.16666667 -0.16666667 -0.16666667       0.005
   0.33333333 -0.16666667 -0.16666667       0.005
   0.50000000 -0.16666667 -0.16666667       0.005
  -0.33333333 -0.16666667 -0.16666667       0.005
 
 position of ions in fractional coordinates (direct lattice) 
   0.00000000  0.00000000  0.00000000
 
 position of ions in cartesian coordinates  (Angst):
   0.00000000  0.00000000  0.00000000
 
 Euler angles ALPHA=     0.0000000  BETA=     0.0000000

 transformation matrix from SAXIS to cartesian coordinates
 ---------------------------------------------------------
     1.0000000 m_x     0.0000000 m_y     0.0000000 m_z
     0.0000000 m_x     1.0000000 m_y     0.0000000 m_z
     0.0000000 m_x     0.0000000 m_y     1.0000000 m_z

 transformation matrix from cartesian coordinates to SAXIS
 ---------------------------------------------------------
     1.0000000 m_x     0.0000000 m_y     0.0000000 m_z
     0.0000000 m_x     1.0000000 m_y     0.0000000 m_z
     0.0000000 m_x     0.0000000 m_y     1.0000000 m_z




--------------------------------------------------------------------------------------------------------


 k-point  1 :   0.5000 0.5000 0.5000  plane waves:    1436
 k-point  2 :   0.4750 0.4750 0.4750  plane waves:    1436
 k-point  3 :   0.4500 0.4500 0.4500  plane waves:    1430
 k-point  4 :   0.4250 0.4250 0.4250  plane waves:    1430
 k-point  5 :   0.4000 0.4000 0.4000  plane waves:    1430
 k-point  6 :   0.3750 0.3750 0.3750  plane waves:    1430
 k-point  7 :   0.3500 0.3500 0.3500  plane waves:    1418
 k-point  8 :   0.3250 0.3250 0.3250  plane waves:    1394
 k-point  9 :   0.3000 0.3000 0.3000  plane waves:    1424
 k-point 10 :   0.2750 0.2750 0.2750  plane waves:    1418
 k-point 11 :   0.2500 0.2500 0.2500  plane waves:    1406
 k-point 12 :   0.2250 0.2250 0.2250  plane waves:    1418
 k-point 13 :   0.2000 0.2000 0.2000  plane waves:    1418
 k-point 14 :   0.1750 0.1750 0.1750  plane waves:    1424
 k-point 15 :   0.1500 0.1500 0.1500  plane waves:    1424
 k-point 16 :   0.1250 0.1250 0.1250  plane waves:    1424
 k-point 17 :   0.1000 0.1000 0.1000  plane waves:    1412
 k-point 18 :   0.0750 0.0750 0.0750  plane waves:    1436
 k-point 19 :   0.0500 0.0500 0.0500  plane waves:    1444
 k-point 20 :   0.0250 0.0250 0.0250  plane waves:    1450
 k-point 21 :   0.0000 0.0000 0.0000  plane waves:    1450
 k-point 22 :   0.0000 0.0250 0.0250  plane waves:    1450
 k-point 23 :   0.0000 0.0500 0.0500  plane waves:    1434
 k-point 24 :   0.0000 0.0750 0.0750  plane waves:    1418
 k-point 25 :   0.0000 0.1000 0.1000  plane waves:    1426
 k-point 26 :   0.0000 0.1250 0.1250  plane waves:    1402
 k-point 27 :   0.0000 0.1500 0.1500  plane waves:    1394
 k-point 28 :   0.0000 0.1750 0.1750  plane waves:    1394
 k-point 29 :   0.0000 0.2000 0.2000  plane waves:    1402
 k-point 30 :   0.0000 0.2250 0.2250  plane waves:    1426
 k-point 31 :   0.0000 0.2500 0.2500  plane waves:    1426
 k-point 32 :   0.0000 0.2750 0.2750  plane waves:    1418
 k-point 33 :   0.0000 0.3000 0.3000  plane waves:    1418
 k-point 34 :   0.0000 0.3250 0.3250  plane waves:    1434
 k-point 35 :   0.0000 0.3500 0.3500  plane waves:    1426
 k-point 36 :   0.0000 0.3750 0.3750  plane waves:    1418
 k-point 37 :   0.0000 0.4000 0.4000  plane waves:    1400
 k-point 38 :   0.0000 0.4250 0.4250  plane waves:    1416
 k-point 39 :   0.0000 0.4500 0.4500  plane waves:    1416
 k-point 40 :   0.0000 0.4750 0.4750  plane waves:    1416
 k-point 41 :   0.0000 0.5000 0.5000  plane waves:    1448
 k-point 42 :   0.0000 0.0000 0.0000  plane waves:    1450
 k-point 43 :   0.1667 0.0000 0.0000  plane waves:    1424
 k-point 44 :   0.3333 0.0000 0.0000  plane waves:    1394
 k-point 45 :   0.5000 0.0000 0.0000  plane waves:    1436
 k-point 46 :  -0.3333 0.0000 0.0000  plane waves:    1394
 k-point 47 :  -0.1667 0.0000 0.0000  plane waves:    1424
 k-point 48 :   0.0000 0.1667 0.0000  plane waves:    1424
 k-point 49 :   0.1667 0.1667 0.0000  plane waves:    1386
 k-point 50 :   0.3333 0.1667 0.0000  plane waves:    1428
 k-point 51 :   0.5000 0.1667 0.0000  plane waves:    1428
 k-point 52 :  -0.3333 0.1667 0.0000  plane waves:    1406
 k-point 53 :  -0.1667 0.1667 0.0000  plane waves:    1420
 k-point 54 :   0.0000 0.3333 0.0000  plane waves:    1394
 k-point 55 :   0.1667 0.3333 0.0000  plane waves:    1428
 k-point 56 :   0.3333 0.3333 0.0000  plane waves:    1434
 k-point 57 :   0.5000 0.3333 0.0000  plane waves:    1418
 k-point 58 :  -0.3333 0.3333 0.0000  plane waves:    1432
 k-point 59 :  -0.1667 0.3333 0.0000  plane waves:    1406
 k-point 60 :   0.0000 0.5000 0.0000  plane waves:    1436
 k-point 61 :   0.1667 0.5000 0.0000  plane waves:    1428
 k-point 62 :   0.3333 0.5000 0.0000  plane waves:    1418
 k-point 63 :   0.5000 0.5000 0.0000  plane waves:    1448
 k-point 64 :  -0.3333 0.5000 0.0000  plane waves:    1418
 k-point 65 :  -0.1667 0.5000 0.0000  plane waves:    1428
 k-point 66 :   0.0000-0.3333 0.0000  plane waves:    1394
 k-point 67 :   0.1667-0.3333 0.0000  plane waves:    1406
 k-point 68 :   0.3333-0.3333 0.0000  plane waves:    1432
 k-point 69 :   0.5000-0.3333 0.0000  plane waves:    1418
 k-point 70 :  -0.3333-0.3333 0.0000  plane waves:    1434
 k-point 71 :  -0.1667-0.3333 0.0000  plane waves:    1428
 k-point 72 :   0.0000-0.1667 0.0000  plane waves:    1424
 k-point 73 :   0.1667-0.1667 0.0000  plane waves:    1420
 k-point 74 :   0.3333-0.1667 0.0000  plane waves:    1406
 k-point 75 :   0.5000-0.1667 0.0000  plane waves:    1428
 k-point 76 :  -0.3333-0.1667 0.0000  plane waves:    1428
 k-point 77 :  -0.1667-0.1667 0.0000  plane waves:    1386
 k-point 78 :   0.0000 0.0000 0.1667  plane waves:    1424
 k-point 79 :   0.1667 0.0000 0.1667  plane waves:    1386
 k-point 80 :   0.3333 0.0000 0.1667  plane waves:    1428
 k-point 81 :   0.5000 0.0000 0.1667  plane waves:    1428
 k-point 82 :  -0.3333 0.0000 0.1667  plane waves:    1406
 k-point 83 :  -0.1667 0.0000 0.1667  plane waves:    1420
 k-point 84 :   0.0000 0.1667 0.1667  plane waves:    1386
 k-point 85 :   0.1667 0.1667 0.1667  plane waves:    1424
 k-point 86 :   0.3333 0.1667 0.1667  plane waves:    1420
 k-point 87 :   0.5000 0.1667 0.1667  plane waves:    1406
 k-point 88 :  -0.3333 0.1667 0.1667  plane waves:    1428
 k-point 89 :  -0.1667 0.1667 0.1667  plane waves:    1428
 k-point 90 :   0.0000 0.3333 0.1667  plane waves:    1428
 k-point 91 :   0.1667 0.3333 0.1667  plane waves:    1420
 k-point 92 :   0.3333 0.3333 0.1667  plane waves:    1428
 k-point 93 :   0.5000 0.3333 0.1667  plane waves:    1418
 k-point 94 :  -0.3333 0.3333 0.1667  plane waves:    1428
 k-point 95 :  -0.1667 0.3333 0.1667  plane waves:    1418
 k-point 96 :   0.0000 0.5000 0.1667  plane waves:    1428
 k-point 97 :   0.1667 0.5000 0.1667  plane waves:    1406
 k-point 98 :   0.3333 0.5000 0.1667  plane waves:    1418
 k-point 99 :   0.5000 0.5000 0.1667  plane waves:    1418
 k-point ** :  -0.3333 0.5000 0.1667  plane waves:    1416
 k-point ** :  -0.1667 0.5000 0.1667  plane waves:    1428
 k-point ** :   0.0000-0.3333 0.1667  plane waves:    1406
 k-point ** :   0.1667-0.3333 0.1667  plane waves:    1428
 k-point ** :   0.3333-0.3333 0.1667  plane waves:    1428
 k-point ** :   0.5000-0.3333 0.1667  plane waves:    1416
 k-point ** :  -0.3333-0.3333 0.1667  plane waves:    1418
 k-point ** :  -0.1667-0.3333 0.1667  plane waves:    1418
 k-point ** :   0.0000-0.1667 0.1667  plane waves:    1420
 k-point ** :   0.1667-0.1667 0.1667  plane waves:    1428
 k-point ** :   0.3333-0.1667 0.1667  plane waves:    1418
 k-point ** :   0.5000-0.1667 0.1667  plane waves:    1428
 k-point ** :  -0.3333-0.1667 0.1667  plane waves:    1418
 k-point ** :  -0.1667-0.1667 0.1667  plane waves:    1428
 k-point ** :   0.0000 0.0000 0.3333  plane waves:    1394
 k-point ** :   0.1667 0.0000 0.3333  plane waves:    1428
 k-point ** :   0.3333 0.0000 0.3333  plane waves:    1434
 k-point ** :   0.5000 0.0000 0.3333  plane waves:    1418
 k-point ** :  -0.3333 0.0000 0.3333  plane waves:    1432
 k-point ** :  -0.1667 0.0000 0.3333  plane waves:    1406
 k-point ** :   0.0000 0.1667 0.3333  plane waves:    1428
 k-point ** :   0.1667 0.1667 0.3333  plane waves:    1420
 k-point ** :   0.3333 0.1667 0.3333  plane waves:    1428
 k-point ** :   0.5000 0.1667 0.3333  plane waves:    1418
 k-point ** :  -0.3333 0.1667 0.3333  plane waves:    1428
 k-point ** :  -0.1667 0.1667 0.3333  plane waves:    1418
 k-point ** :   0.0000 0.3333 0.3333  plane waves:    1434
 k-point ** :   0.1667 0.3333 0.3333  plane waves:    1428
 k-point ** :   0.3333 0.3333 0.3333  plane waves:    1394
 k-point ** :   0.5000 0.3333 0.3333  plane waves:    1406
 k-point ** :  -0.3333 0.3333 0.3333  plane waves:    1432
 k-point ** :  -0.1667 0.3333 0.3333  plane waves:    1418
 k-point ** :   0.0000 0.5000 0.3333  plane waves:    1418
 k-point ** :   0.1667 0.5000 0.3333  plane waves:    1418
 k-point ** :   0.3333 0.5000 0.3333  plane waves:    1406
 k-point ** :   0.5000 0.5000 0.3333  plane waves:    1428
 k-point ** :  -0.3333 0.5000 0.3333  plane waves:    1428
 k-point ** :  -0.1667 0.5000 0.3333  plane waves:    1416
 k-point ** :   0.0000-0.3333 0.3333  plane waves:    1432
 k-point ** :   0.1667-0.3333 0.3333  plane waves:    1428
 k-point ** :   0.3333-0.3333 0.3333  plane waves:    1432
 k-point ** :   0.5000-0.3333 0.3333  plane waves:    1428
 k-point ** :  -0.3333-0.3333 0.3333  plane waves:    1432
 k-point ** :  -0.1667-0.3333 0.3333  plane waves:    1428
 k-point ** :   0.0000-0.1667 0.3333  plane waves:    1406
 k-point ** :   0.1667-0.1667 0.3333  plane waves:    1418
 k-point ** :   0.3333-0.1667 0.3333  plane waves:    1418
 k-point ** :   0.5000-0.1667 0.3333  plane waves:    1416
 k-point ** :  -0.3333-0.1667 0.3333  plane waves:    1428
 k-point ** :  -0.1667-0.1667 0.3333  plane waves:    1428
 k-point ** :   0.0000 0.0000 0.5000  plane waves:    1436
 k-point ** :   0.1667 0.0000 0.5000  plane waves:    1428
 k-point ** :   0.3333 0.0000 0.5000  plane waves:    1418
 k-point ** :   0.5000 0.0000 0.5000  plane waves:    1448
 k-point ** :  -0.3333 0.0000 0.5000  plane waves:    1418
 k-point ** :  -0.1667 0.0000 0.5000  plane waves:    1428
 k-point ** :   0.0000 0.1667 0.5000  plane waves:    1428
 k-point ** :   0.1667 0.1667 0.5000  plane waves:    1406
 k-point ** :   0.3333 0.1667 0.5000  plane waves:    1418
 k-point ** :   0.5000 0.1667 0.5000  plane waves:    1418
 k-point ** :  -0.3333 0.1667 0.5000  plane waves:    1416
 k-point ** :  -0.1667 0.1667 0.5000  plane waves:    1428
 k-point ** :   0.0000 0.3333 0.5000  plane waves:    1418
 k-point ** :   0.1667 0.3333 0.5000  plane waves:    1418
 k-point ** :   0.3333 0.3333 0.5000  plane waves:    1406
 k-point ** :   0.5000 0.3333 0.5000  plane waves:    1428
 k-point ** :  -0.3333 0.3333 0.5000  plane waves:    1428
 k-point ** :  -0.1667 0.3333 0.5000  plane waves:    1416
 k-point ** :   0.0000 0.5000 0.5000  plane waves:    1448
 k-point ** :   0.1667 0.5000 0.5000  plane waves:    1418
 k-point ** :   0.3333 0.5000 0.5000  plane waves:    1428
 k-point ** :   0.5000 0.5000 0.5000  plane waves:    1436
 k-point ** :  -0.3333 0.5000 0.5000  plane waves:    1428
 k-point ** :  -0.1667 0.5000 0.5000  plane waves:    1418
 k-point ** :   0.0000-0.3333 0.5000  plane waves:    1418
 k-point ** :   0.1667-0.3333 0.5000  plane waves:    1416
 k-point ** :   0.3333-0.3333 0.5000  plane waves:    1428
 k-point ** :   0.5000-0.3333 0.5000  plane waves:    1428
 k-point ** :  -0.3333-0.3333 0.5000  plane waves:    1406
 k-point ** :  -0.1667-0.3333 0.5000  plane waves:    1418
 k-point ** :   0.0000-0.1667 0.5000  plane waves:    1428
 k-point ** :   0.1667-0.1667 0.5000  plane waves:    1428
 k-point ** :   0.3333-0.1667 0.5000  plane waves:    1416
 k-point ** :   0.5000-0.1667 0.5000  plane waves:    1418
 k-point ** :  -0.3333-0.1667 0.5000  plane waves:    1418
 k-point ** :  -0.1667-0.1667 0.5000  plane waves:    1406
 k-point ** :   0.0000 0.0000-0.3333  plane waves:    1394
 k-point ** :   0.1667 0.0000-0.3333  plane waves:    1406
 k-point ** :   0.3333 0.0000-0.3333  plane waves:    1432
 k-point ** :   0.5000 0.0000-0.3333  plane waves:    1418
 k-point ** :  -0.3333 0.0000-0.3333  plane waves:    1434
 k-point ** :  -0.1667 0.0000-0.3333  plane waves:    1428
 k-point ** :   0.0000 0.1667-0.3333  plane waves:    1406
 k-point ** :   0.1667 0.1667-0.3333  plane waves:    1428
 k-point ** :   0.3333 0.1667-0.3333  plane waves:    1428
 k-point ** :   0.5000 0.1667-0.3333  plane waves:    1416
 k-point ** :  -0.3333 0.1667-0.3333  plane waves:    1418
 k-point ** :  -0.1667 0.1667-0.3333  plane waves:    1418
 k-point ** :   0.0000 0.3333-0.3333  plane waves:    1432
 k-point ** :   0.1667 0.3333-0.3333  plane waves:    1428
 k-point ** :   0.3333 0.3333-0.3333  plane waves:    1432
 k-point ** :   0.5000 0.3333-0.3333  plane waves:    1428
 k-point ** :  -0.3333 0.3333-0.3333  plane waves:    1432
 k-point ** :  -0.1667 0.3333-0.3333  plane waves:    1428
 k-point ** :   0.0000 0.5000-0.3333  plane waves:    1418
 k-point ** :   0.1667 0.5000-0.3333  plane waves:    1416
 k-point ** :   0.3333 0.5000-0.3333  plane waves:    1428
 k-point ** :   0.5000 0.5000-0.3333  plane waves:    1428
 k-point ** :  -0.3333 0.5000-0.3333  plane waves:    1406
 k-point ** :  -0.1667 0.5000-0.3333  plane waves:    1418
 k-point ** :   0.0000-0.3333-0.3333  plane waves:    1434
 k-point ** :   0.1667-0.3333-0.3333  plane waves:    1418
 k-point ** :   0.3333-0.3333-0.3333  plane waves:    1432
 k-point ** :   0.5000-0.3333-0.3333  plane waves:    1406
 k-point ** :  -0.3333-0.3333-0.3333  plane waves:    1394
 k-point ** :  -0.1667-0.3333-0.3333  plane waves:    1428
 k-point ** :   0.0000-0.1667-0.3333  plane waves:    1428
 k-point ** :   0.1667-0.1667-0.3333  plane waves:    1418
 k-point ** :   0.3333-0.1667-0.3333  plane waves:    1428
 k-point ** :   0.5000-0.1667-0.3333  plane waves:    1418
 k-point ** :  -0.3333-0.1667-0.3333  plane waves:    1428
 k-point ** :  -0.1667-0.1667-0.3333  plane waves:    1420
 k-point ** :   0.0000 0.0000-0.1667  plane waves:    1424
 k-point ** :   0.1667 0.0000-0.1667  plane waves:    1420
 k-point ** :   0.3333 0.0000-0.1667  plane waves:    1406
 k-point ** :   0.5000 0.0000-0.1667  plane waves:    1428
 k-point ** :  -0.3333 0.0000-0.1667  plane waves:    1428
 k-point ** :  -0.1667 0.0000-0.1667  plane waves:    1386
 k-point ** :   0.0000 0.1667-0.1667  plane waves:    1420
 k-point ** :   0.1667 0.1667-0.1667  plane waves:    1428
 k-point ** :   0.3333 0.1667-0.1667  plane waves:    1418
 k-point ** :   0.5000 0.1667-0.1667  plane waves:    1428
 k-point ** :  -0.3333 0.1667-0.1667  plane waves:    1418
 k-point ** :  -0.1667 0.1667-0.1667  plane waves:    1428
 k-point ** :   0.0000 0.3333-0.1667  plane waves:    1406
 k-point ** :   0.1667 0.3333-0.1667  plane waves:    1418
 k-point ** :   0.3333 0.3333-0.1667  plane waves:    1418
 k-point ** :   0.5000 0.3333-0.1667  plane waves:    1416
 k-point ** :  -0.3333 0.3333-0.1667  plane waves:    1428
 k-point ** :  -0.1667 0.3333-0.1667  plane waves:    1428
 k-point ** :   0.0000 0.5000-0.1667  plane waves:    1428
 k-point ** :   0.1667 0.5000-0.1667  plane waves:    1428
 k-point ** :   0.3333 0.5000-0.1667  plane waves:    1416
 k-point ** :   0.5000 0.5000-0.1667  plane waves:    1418
 k-point ** :  -0.3333 0.5000-0.1667  plane waves:    1418
 k-point ** :  -0.1667 0.5000-0.1667  plane waves:    1406
 k-point ** :   0.0000-0.3333-0.1667  plane waves:    1428
 k-point ** :   0.1667-0.3333-0.1667  plane waves:    1418
 k-point ** :   0.3333-0.3333-0.1667  plane waves:    1428
 k-point ** :   0.5000-0.3333-0.1667  plane waves:    1418
 k-point ** :  -0.3333-0.3333-0.1667  plane waves:    1428
 k-point ** :  -0.1667-0.3333-0.1667  plane waves:    1420
 k-point ** :   0.0000-0.1667-0.1667  plane waves:    1386
 k-point ** :   0.1667-0.1667-0.1667  plane waves:    1428
 k-point ** :   0.3333-0.1667-0.1667  plane waves:    1428
 k-point ** :   0.5000-0.1667-0.1667  plane waves:    1406
 k-point ** :  -0.3333-0.1667-0.1667  plane waves:    1420

 maximum and minimum number of plane-waves per node :       390      322

 maximum number of plane-waves:      1450
 maximum index in each direction: 
   IXMAX=    6   IYMAX=    6   IZMAX=    6
   IXMIN=   -6   IYMIN=   -6   IZMIN=   -6


 parallel 3D FFT for wavefunctions:
    minimum data exchange during FFTs selected (reduces bandwidth)
 parallel 3D FFT for charge:
    minimum data exchange during FFTs selected (reduces bandwidth)


 total amount of memory used by VASP MPI-rank0   172772. kBytes
=======================================================================

   base      :      30000. kBytes
   nonl-proj :       7007. kBytes
   fftplans  :      12955. kBytes
   grid      :      13697. kBytes
   one-center:         62. kBytes
   wavefun   :     109051. kBytes
 
     INWAV:  cpu time    1.4474: real time    1.4512
 Broyden mixing: mesh for mixing (old mesh)
   NGX = 13   NGY = 13   NGZ = 13
  (NGX  = 56   NGY  = 56   NGZ  = 56)
  gives a total of   2197 points

 charge density for first step will be calculated from the start-wavefunctions


--------------------------------------------------------------------------------------------------------


 Maximum index for augmentation-charges        42595 (set IRDMAX)


--------------------------------------------------------------------------------------------------------


 initial charge from wavefunction
 First call to EWALD:  gamma=   0.453
 Maximum number of real-space cells 3x 3x 3
 Maximum number of reciprocal cells 3x 3x 3

    FEWALD:  cpu time    0.0024: real time    0.0025


--------------------------------------- Iteration      1(   1)  ---------------------------------------


    POTLOK:  cpu time    0.3967: real time    0.4061
    SETDIJ:  cpu time    0.3676: real time    0.3728
     EDDAV:  cpu time   22.9619: real time   22.9945
       DOS:  cpu time    0.0025: real time    0.0024
    --------------------------------------------
      LOOP:  cpu time   23.7286: real time   23.7759

 eigenvalue-minimisations  : 38168
 total energy-change (2. order) :-0.1507853E+03  (-0.1751520E+01)
 number of electron      18.0000000 magnetization       0.0000002      0.0000010     -0.0000008
 augmentation part        2.4417582 magnetization       0.0000025     -0.0000010     -0.0000042

 Free energy of the ion-electron system (eV)
  ---------------------------------------------------
  alpha Z        PSCENC =        63.49827359
  Ewald energy   TEWEN  =     -1720.24414233
  -Hartree energ DENC   =      -656.84301177
  -exchange      EXHF   =         0.00000000
  -V(xc)+E(xc)   XCENC  =       -51.49778814
  PAW double counting   =      2361.87958540    -2435.91380396
  entropy T*S    EENTRO =        -0.00000000
  eigenvalues    EBANDS =      -351.56931767
  atomic energy  EATOM  =      2639.90492407
  Solvation  Ediel_sol  =         0.00000000
  ---------------------------------------------------
  free energy    TOTEN  =      -150.78528080 eV

  energy without entropy =     -150.78528080  energy(sigma->0) =     -150.78528080


--------------------------------------------------------------------------------------------------------




--------------------------------------- Iteration      1(   2)  ---------------------------------------


     EDDAV:  cpu time   24.6971: real time   24.7377
       DOS:  cpu time    0.0022: real time    0.0022
    --------------------------------------------
      LOOP:  cpu time   24.6994: real time   24.7400

 eigenvalue-minimisations  : 43344
 total energy-change (2. order) :-0.1305063E-01  (-0.1304976E-01)
 number of electron      18.0000000 magnetization       0.0000002      0.0000010     -0.0000008
 augmentation part        2.4417582 magnetization       0.0000025     -0.0000010     -0.0000042

 Free energy of the ion-electron system (eV)
  ---------------------------------------------------
  alpha Z        PSCENC =        63.49827359
  Ewald energy   TEWEN  =     -1720.24414233
  -Hartree energ DENC   =      -656.84301177
  -exchange      EXHF   =         0.00000000
  -V(xc)+E(xc)   XCENC  =       -51.49778814
  PAW double counting   =      2361.87958540    -2435.91380396
  entropy T*S    EENTRO =        -0.00000000
  eigenvalues    EBANDS =      -351.58236830
  atomic energy  EATOM  =      2639.90492407
  Solvation  Ediel_sol  =         0.00000000
  ---------------------------------------------------
  free energy    TOTEN  =      -150.79833143 eV

  energy without entropy =     -150.79833143  energy(sigma->0) =     -150.79833143


--------------------------------------------------------------------------------------------------------




--------------------------------------- Iteration      1(   3)  ---------------------------------------


     EDDAV:  cpu time   26.8402: real time   26.8827
       DOS:  cpu time    0.0023: real time    0.0023
    --------------------------------------------
      LOOP:  cpu time   26.8424: real time   26.8849

 eigenvalue-minimisations  : 50120
 total energy-change (2. order) :-0.5003098E-03  (-0.5003069E-03)
 number of electron      18.0000000 magnetization       0.0000002      0.0000010     -0.0000008
 augmentation part        2.4417582 magnetization       0.0000025     -0.0000010     -0.0000042

 Free energy of the ion-electron system (eV)
  ---------------------------------------------------
  alpha Z        PSCENC =        63.49827359
  Ewald energy   TEWEN  =     -1720.24414233
  -Hartree energ DENC   =      -656.84301177
  -exchange      EXHF   =         0.00000000
  -V(xc)+E(xc)   XCENC  =       -51.49778814
  PAW double counting   =      2361.87958540    -2435.91380396
  entropy T*S    EENTRO =        -0.00000000
  eigenvalues    EBANDS =      -351.58286861
  atomic energy  EATOM  =      2639.90492407
  Solvation  Ediel_sol  =         0.00000000
  ---------------------------------------------------
  free energy    TOTEN  =      -150.79883174 eV

  energy without entropy =     -150.79883174  energy(sigma->0) =     -150.79883174


--------------------------------------------------------------------------------------------------------




--------------------------------------- Iteration      1(   4)  ---------------------------------------


     EDDAV:  cpu time   26.0915: real time   26.1294
       DOS:  cpu time    0.0024: real time    0.0024
    --------------------------------------------
      LOOP:  cpu time   26.0939: real time   26.1318

 eigenvalue-minimisations  : 47600
 total energy-change (2. order) :-0.1023664E-04  (-0.1023664E-04)
 number of electron      18.0000000 magnetization       0.0000002      0.0000010     -0.0000008
 augmentation part        2.4417582 magnetization       0.0000025     -0.0000010     -0.0000042

 Free energy of the ion-electron system (eV)
  ---------------------------------------------------
  alpha Z        PSCENC =        63.49827359
  Ewald energy   TEWEN  =     -1720.24414233
  -Hartree energ DENC   =      -656.84301177
  -exchange      EXHF   =         0.00000000
  -V(xc)+E(xc)   XCENC  =       -51.49778814
  PAW double counting   =      2361.87958540    -2435.91380396
  entropy T*S    EENTRO =        -0.00000000
  eigenvalues    EBANDS =      -351.58287884
  atomic energy  EATOM  =      2639.90492407
  Solvation  Ediel_sol  =         0.00000000
  ---------------------------------------------------
  free energy    TOTEN  =      -150.79884198 eV

  energy without entropy =     -150.79884198  energy(sigma->0) =     -150.79884198


--------------------------------------------------------------------------------------------------------




--------------------------------------- Iteration      1(   5)  ---------------------------------------


     EDDAV:  cpu time   27.0816: real time   27.1231
       DOS:  cpu time    0.0025: real time    0.0025
    CHARGE:  cpu time    5.6453: real time    5.6500
    MIXING:  cpu time    0.0102: real time    0.0103
    --------------------------------------------
      LOOP:  cpu time   32.7407: real time   32.7859

 eigenvalue-minimisations  : 50504
 total energy-change (2. order) :-0.4560084E-06  (-0.4559975E-06)
 number of electron      18.0000000 magnetization       0.0000011     -0.0000031      0.0000009
 augmentation part        2.9221771 magnetization       0.0000031      0.0000014     -0.0000086

 Broyden mixing:
  rms(total) = 0.44878E+00    rms(broyden)= 0.44852E+00
  rms(prec ) = 0.11999E+01
  weight for this iteration     100.00

 Free energy of the ion-electron system (eV)
  ---------------------------------------------------
  alpha Z        PSCENC =        63.49827359
  Ewald energy   TEWEN  =     -1720.24414233
  -Hartree energ DENC   =      -656.84301177
  -exchange      EXHF   =         0.00000000
  -V(xc)+E(xc)   XCENC  =       -51.49778814
  PAW double counting   =      2361.87958540    -2435.91380396
  entropy T*S    EENTRO =        -0.00000000
  eigenvalues    EBANDS =      -351.58287930
  atomic energy  EATOM  =      2639.90492407
  Solvation  Ediel_sol  =         0.00000000
  ---------------------------------------------------
  free energy    TOTEN  =      -150.79884244 eV

  energy without entropy =     -150.79884244  energy(sigma->0) =     -150.79884244


--------------------------------------------------------------------------------------------------------




--------------------------------------- Iteration      1(   6)  ---------------------------------------


    POTLOK:  cpu time    0.3885: real time    0.3932
    SETDIJ:  cpu time    0.3683: real time    0.3687
     EDDAV:  cpu time   24.3184: real time   24.3542
       DOS:  cpu time    0.0035: real time    0.0035
    CHARGE:  cpu time    5.5901: real time    5.5949
    MIXING:  cpu time    0.0103: real time    0.0103
    --------------------------------------------
      LOOP:  cpu time   30.6782: real time   30.7248

 eigenvalue-minimisations  : 42048
 total energy-change (2. order) : 0.1020283E+01  (-0.2471925E+00)
 number of electron      18.0000000 magnetization      -0.0000053      0.0000076     -0.0000047
 augmentation part        2.8035663 magnetization       0.0000038     -0.0000007     -0.0000017

 Broyden mixing:
  rms(total) = 0.13916E+00    rms(broyden)= 0.13914E+00
  rms(prec ) = 0.36381E+00
  weight for this iteration     100.00

 eigenvalues of (default mixing * dielectric matrix)
  average eigenvalue GAMMA=   1.3759
  1.3759

 Free energy of the ion-electron system (eV)
  ---------------------------------------------------
  alpha Z        PSCENC =        63.49827359
  Ewald energy   TEWEN  =     -1720.24414233
  -Hartree energ DENC   =      -676.06751694
  -exchange      EXHF   =         0.00000000
  -V(xc)+E(xc)   XCENC  =       -50.61447935
  PAW double counting   =      2405.28350062    -2481.09629327
  entropy T*S    EENTRO =        -0.00000000
  eigenvalues    EBANDS =      -330.44282583
  atomic energy  EATOM  =      2639.90492407
  Solvation  Ediel_sol  =         0.00000000
  ---------------------------------------------------
  free energy    TOTEN  =      -149.77855944 eV

  energy without entropy =     -149.77855944  energy(sigma->0) =     -149.77855944


--------------------------------------------------------------------------------------------------------




--------------------------------------- Iteration      1(   7)  ---------------------------------------


    POTLOK:  cpu time    0.4022: real time    0.4060
    SETDIJ:  cpu time    0.3526: real time    0.3600
     EDDAV:  cpu time   24.2199: real time   24.2551
       DOS:  cpu time    0.0048: real time    0.0048
    CHARGE:  cpu time    5.6046: real time    5.6094
    MIXING:  cpu time    0.0104: real time    0.0104
    --------------------------------------------
      LOOP:  cpu time   30.5944: real time   30.6456

 eigenvalue-minimisations  : 41712
 total energy-change (2. order) : 0.6906573E-01  (-0.2978975E-01)
 number of electron      18.0000000 magnetization       0.0000015     -0.0000039      0.0000029
 augmentation part        2.7666708 magnetization      -0.0000026      0.0000059     -0.0000037

 Broyden mixing:
  rms(total) = 0.39198E-01    rms(broyden)= 0.39152E-01
  rms(prec ) = 0.63877E-01
  weight for this iteration     100.00

 eigenvalues of (default mixing * dielectric matrix)
  average eigenvalue GAMMA=   1.0564
  1.5178  0.5950

 Free energy of the ion-electron system (eV)
  ---------------------------------------------------
  alpha Z        PSCENC =        63.49827359
  Ewald energy   TEWEN  =     -1720.24414233
  -Hartree energ DENC   =      -684.41854476
  -exchange      EXHF   =         0.00000000
  -V(xc)+E(xc)   XCENC  =       -50.59502456
  PAW double counting   =      2423.46073620    -2500.27912369
  entropy T*S    EENTRO =        -0.00000015
  eigenvalues    EBANDS =      -321.03659206
  atomic energy  EATOM  =      2639.90492407
  Solvation  Ediel_sol  =         0.00000000
  ---------------------------------------------------
  free energy    TOTEN  =      -149.70949371 eV

  energy without entropy =     -149.70949355  energy(sigma->0) =     -149.70949363


--------------------------------------------------------------------------------------------------------




--------------------------------------- Iteration      1(   8)  ---------------------------------------


    POTLOK:  cpu time    0.3948: real time    0.3978
    SETDIJ:  cpu time    0.3658: real time    0.3713
     EDDAV:  cpu time   25.5308: real time   25.5680
       DOS:  cpu time    0.0041: real time    0.0041
    CHARGE:  cpu time    5.5983: real time    5.6029
    MIXING:  cpu time    0.0104: real time    0.0104
    --------------------------------------------
      LOOP:  cpu time   31.9042: real time   31.9545

 eigenvalue-minimisations  : 45696
 total energy-change (2. order) : 0.1212016E-02  (-0.6652874E-03)
 number of electron      18.0000000 magnetization      -0.0000027      0.0000073     -0.0000061
 augmentation part        2.7669934 magnetization      -0.0000012      0.0000044     -0.0000020

 Broyden mixing:
  rms(total) = 0.23854E-01    rms(broyden)= 0.23853E-01
  rms(prec ) = 0.44670E-01
  weight for this iteration     100.00

 eigenvalues of (default mixing * dielectric matrix)
  average eigenvalue GAMMA=   1.2800
  2.0693  1.1385  0.6322

 Free energy of the ion-electron system (eV)
  ---------------------------------------------------
  alpha Z        PSCENC =        63.49827359
  Ewald energy   TEWEN  =     -1720.24414233
  -Hartree energ DENC   =      -684.79364241
  -exchange      EXHF   =         0.00000000
  -V(xc)+E(xc)   XCENC  =       -50.63709507
  PAW double counting   =      2420.66253207    -2497.42610885
  entropy T*S    EENTRO =        -0.00000009
  eigenvalues    EBANDS =      -320.67302267
  atomic energy  EATOM  =      2639.90492407
  Solvation  Ediel_sol  =         0.00000000
  ---------------------------------------------------
  free energy    TOTEN  =      -149.70828169 eV

  energy without entropy =     -149.70828160  energy(sigma->0) =     -149.70828165


--------------------------------------------------------------------------------------------------------




--------------------------------------- Iteration      1(   9)  ---------------------------------------


    POTLOK:  cpu time    0.3968: real time    0.4005
    SETDIJ:  cpu time    0.3569: real time    0.3651
     EDDAV:  cpu time   25.8547: real time   25.8921
       DOS:  cpu time    0.0046: real time    0.0046
    CHARGE:  cpu time    5.5990: real time    5.6035
    MIXING:  cpu time    0.0107: real time    0.0107
    --------------------------------------------
      LOOP:  cpu time   32.2227: real time   32.2765

 eigenvalue-minimisations  : 47080
 total energy-change (2. order) : 0.7737476E-03  (-0.5230747E-03)
 number of electron      18.0000000 magnetization      -0.0000085     -0.0000002     -0.0000002
 augmentation part        2.7664967 magnetization       0.0000107     -0.0000153      0.0000206

 Broyden mixing:
  rms(total) = 0.12249E-01    rms(broyden)= 0.12246E-01
  rms(prec ) = 0.20965E-01
  weight for this iteration     100.00

 eigenvalues of (default mixing * dielectric matrix)
  average eigenvalue GAMMA=   1.4176
  2.4337  1.3962  1.2145  0.6258

 Free energy of the ion-electron system (eV)
  ---------------------------------------------------
  alpha Z        PSCENC =        63.49827359
  Ewald energy   TEWEN  =     -1720.24414233
  -Hartree energ DENC   =      -685.33702498
  -exchange      EXHF   =         0.00000000
  -V(xc)+E(xc)   XCENC  =       -50.70009394
  PAW double counting   =      2413.84043200    -2490.40123236
  entropy T*S    EENTRO =        -0.00000013
  eigenvalues    EBANDS =      -320.26864388
  atomic energy  EATOM  =      2639.90492407
  Solvation  Ediel_sol  =         0.00000000
  ---------------------------------------------------
  free energy    TOTEN  =      -149.70750794 eV

  energy without entropy =     -149.70750782  energy(sigma->0) =     -149.70750788


--------------------------------------------------------------------------------------------------------




--------------------------------------- Iteration      1(  10)  ---------------------------------------


    POTLOK:  cpu time    0.3877: real time    0.3909
    SETDIJ:  cpu time    0.3727: real time    0.3732
     EDDAV:  cpu time   22.2268: real time   22.2591
       DOS:  cpu time    0.0050: real time    0.0050
    CHARGE:  cpu time    5.5957: real time    5.6006
    MIXING:  cpu time    0.0108: real time    0.0108
    --------------------------------------------
      LOOP:  cpu time   28.5987: real time   28.6397

 eigenvalue-minimisations  : 36016
 total energy-change (2. order) : 0.1827322E-03  (-0.4736265E-04)
 number of electron      18.0000000 magnetization       0.0000006     -0.0000023      0.0000010
 augmentation part        2.7652940 magnetization       0.0000101     -0.0000038      0.0000100

 Broyden mixing:
  rms(total) = 0.13908E-02    rms(broyden)= 0.13897E-02
  rms(prec ) = 0.37818E-02
  weight for this iteration     100.00

 eigenvalues of (default mixing * dielectric matrix)
  average eigenvalue GAMMA=   1.2945
  2.3272  1.5568  1.2043  0.7612  0.6232

 Free energy of the ion-electron system (eV)
  ---------------------------------------------------
  alpha Z        PSCENC =        63.49827359
  Ewald energy   TEWEN  =     -1720.24414233
  -Hartree energ DENC   =      -685.54342439
  -exchange      EXHF   =         0.00000000
  -V(xc)+E(xc)   XCENC  =       -50.75790345
  PAW double counting   =      2405.76075380    -2482.03051279
  entropy T*S    EENTRO =        -0.00000018
  eigenvalues    EBANDS =      -320.29529353
  atomic energy  EATOM  =      2639.90492407
  Solvation  Ediel_sol  =         0.00000000
  ---------------------------------------------------
  free energy    TOTEN  =      -149.70732521 eV

  energy without entropy =     -149.70732503  energy(sigma->0) =     -149.70732512


--------------------------------------------------------------------------------------------------------




--------------------------------------- Iteration      1(  11)  ---------------------------------------


    POTLOK:  cpu time    0.3934: real time    0.3971
    SETDIJ:  cpu time    0.3584: real time    0.3588
     EDDAV:  cpu time   26.7235: real time   26.7624
       DOS:  cpu time    0.0040: real time    0.0040
    CHARGE:  cpu time    5.5564: real time    5.5614
    MIXING:  cpu time    0.0118: real time    0.0118
    --------------------------------------------
      LOOP:  cpu time   33.0474: real time   33.0955

 eigenvalue-minimisations  : 49752
 total energy-change (2. order) : 0.1353050E-04  (-0.3815283E-05)
 number of electron      18.0000000 magnetization      -0.0000002      0.0000055      0.0000039
 augmentation part        2.7657670 magnetization       0.0000056      0.0000127      0.0000041

 Broyden mixing:
  rms(total) = 0.53013E-03    rms(broyden)= 0.52981E-03
  rms(prec ) = 0.11335E-02
  weight for this iteration     100.00

 eigenvalues of (default mixing * dielectric matrix)
  average eigenvalue GAMMA=   1.2355
  2.2765  1.6008  1.2788  0.6237  0.8165  0.8165

 Free energy of the ion-electron system (eV)
  ---------------------------------------------------
  alpha Z        PSCENC =        63.49827359
  Ewald energy   TEWEN  =     -1720.24414233
  -Hartree energ DENC   =      -685.44786520
  -exchange      EXHF   =         0.00000000
  -V(xc)+E(xc)   XCENC  =       -50.76192260
  PAW double counting   =      2405.54074594    -2481.80341529
  entropy T*S    EENTRO =        -0.00000018
  eigenvalues    EBANDS =      -320.39390968
  atomic energy  EATOM  =      2639.90492407
  Solvation  Ediel_sol  =         0.00000000
  ---------------------------------------------------
  free energy    TOTEN  =      -149.70731168 eV

  energy without entropy =     -149.70731150  energy(sigma->0) =     -149.70731159


--------------------------------------------------------------------------------------------------------




[...]
 -0.000  -0.000   1.019  -0.000   0.000   0.000   0.000   1.019  -0.000  -0.000   0.000   0.000  -0.768  -0.000  -0.000  -0.000
 -1.019  -0.000  -0.000  -0.000  -0.000   1.764  -0.000  -0.000   0.000   1.019   0.768  -0.000   0.000   0.000  -0.000  -1.330
  0.000   0.000  -0.000  -1.764  -0.000  -0.000  -1.764  -0.000   0.000   0.000  -0.000  -0.000  -0.000   1.330   0.000   0.000
  0.000  -1.019  -0.000  -0.000   1.764  -0.000  -0.000  -0.000  -1.019   0.000   0.000   0.768  -0.000  -0.000  -1.330  -0.000
 -0.000  -0.000   0.000  -1.019   0.000   0.000   1.019   0.000  -0.000  -0.000  -0.000  -0.000   0.000   0.768   0.000   0.000
 -0.000  -0.000  -0.000  -0.000  -0.000   0.000   0.000   0.000  -0.000  -0.000  -0.000  -0.000  -0.000  -0.000  -0.000   0.000
 -0.000  -0.000  -0.000  -0.000  -0.000   0.000   0.000   0.000  -0.000  -0.000   0.000   0.000   0.000   0.000   0.000  -0.000
  0.000  -0.000  -0.000   0.000  -0.000   0.000  -0.000  -0.000  -0.000   0.000   0.000  -0.000  -0.000   0.000   0.000   0.000
 -0.000  -0.000   0.000   0.000  -0.000   0.000  -0.000  -0.000   0.000   0.000  -0.000  -0.000   0.000   0.000  -0.000   0.000
  0.000   0.000  -0.000  -0.000  -0.000   0.000  -0.000   0.000  -0.000  -0.000   0.000   0.000  -0.000  -0.000  -0.000   0.000
  0.000  -0.000  -0.000   0.000  -0.000   0.000  -0.000  -0.000  -0.000   0.000   0.000  -0.000  -0.000   0.000  -0.000   0.000
 -0.000  -0.000   0.000   0.000  -0.000   0.000  -0.000  -0.000   0.000   0.000  -0.000  -0.000   0.000   0.000  -0.000   0.000
  0.000   0.000  -0.000  -0.000  -0.000   0.000  -0.000   0.000   0.000  -0.000   0.000   0.000  -0.000  -0.000  -0.000   0.000
 pseudopotential strength for first ion, spin component:           4
-21.185   0.000   0.000   0.000  -0.000   0.000   0.000   0.000   0.000  -2.705   7.827   0.000  -0.000   0.000   0.000   0.000
  0.000   0.000 -21.185   0.000   0.000   0.000   0.000  -1.352   0.000   0.000  -0.000   0.000   7.827   0.000  -0.000   0.000
 -0.000   0.000   0.000   0.000 -21.185   0.000   0.000   0.000  -0.000   0.000   0.000   0.000  -0.000   0.000   7.827   0.000
  0.000   0.000   0.000   1.352   0.000   0.000 -21.185   0.000   0.000   0.000  -0.000   0.000  -0.000  -1.019  -0.000   0.000
  0.000   2.705   0.000   0.000  -0.000   0.000   0.000   0.000 -21.185   0.000  -0.000  -2.037  -0.000   0.000   0.000   0.000
  7.827   0.000  -0.000   0.000   0.000   0.000  -0.000   0.000  -0.000   2.037  19.921   0.000   0.000   0.000  -0.000   0.000
 -0.000   0.000   7.827   0.000  -0.000   0.000  -0.000   1.019  -0.000   0.000   0.000   0.000  19.921   0.000   0.000   0.000
  0.000   0.000  -0.000   0.000   7.827   0.000  -0.000   0.000   0.000   0.000  -0.000   0.000   0.000   0.000  19.921   0.000
 -0.000   0.000  -0.000  -1.019  -0.000   0.000   7.827   0.000  -0.000   0.000  -0.000   0.000   0.000   0.768   0.000   0.000
 -0.000  -2.037  -0.000   0.000   0.000   0.000  -0.000   0.000   7.827   0.000  -0.000   1.536  -0.000   0.000  -0.000   0.000
  0.000   0.000   0.000   0.000  -0.000   0.000   0.000   0.000   0.000   0.000  -0.000   0.000  -0.000   0.000   0.000   0.000
 -0.000   0.000  -0.000   0.000   0.000   0.000  -0.000   0.000  -0.000   0.000   0.000   0.000   0.000   0.000  -0.000   0.000
 -0.000   0.000   0.000   0.000  -0.000   0.000  -0.000   0.000  -0.000   0.000  -0.000   0.000  -0.000   0.000  -0.000   0.000
 -0.000   0.000   0.000   0.000   0.000   0.000  -0.000   0.000   0.000   0.000  -0.000   0.000   0.000   0.000   0.000   0.000
  0.000   0.000  -0.000   0.000   0.000   0.000   0.000   0.000  -0.000   0.000   0.000   0.000  -0.000   0.000   0.000   0.000
 -0.000   0.000   0.000   0.000  -0.000   0.000  -0.000   0.000  -0.000   0.000  -0.000   0.000  -0.000   0.000  -0.000   0.000
 -0.000   0.000   0.000   0.000   0.000   0.000  -0.000   0.000   0.000   0.000  -0.000   0.000   0.000   0.000   0.000   0.000
  0.000   0.000  -0.000   0.000   0.000   0.000   0.000   0.000  -0.000   0.000   0.000   0.000  -0.000   0.000   0.000   0.000
 total augmentation occupancy for first ion, spin component:           1
  2.002  -0.000   0.000   0.000   0.000   0.044  -0.000   0.000  -0.000  -0.000  -0.000   0.000  -0.000  -0.000   0.000   0.000
 -0.000   2.002  -0.000  -0.000   0.000  -0.000   0.044  -0.000  -0.000  -0.000  -0.000   0.000   0.000   0.000   0.000  -0.000
  0.000  -0.000   2.002  -0.000   0.000   0.000  -0.000   0.044  -0.000   0.000   0.000  -0.000   0.000   0.000   0.000  -0.000
  0.000  -0.000  -0.000   2.002  -0.000  -0.000  -0.000  -0.000   0.044  -0.000  -0.000   0.000   0.000   0.000   0.000  -0.000
  0.000   0.000   0.000  -0.000   2.002  -0.000  -0.000   0.000  -0.000   0.044  -0.000   0.000   0.000  -0.000  -0.000   0.000
  0.044  -0.000   0.000  -0.000  -0.000   0.007  -0.000   0.000   0.000   0.000   0.000  -0.000   0.000  -0.000   0.000  -0.000
 -0.000   0.044  -0.000  -0.000  -0.000  -0.000   0.007  -0.000  -0.000   0.000   0.000  -0.000   0.000   0.000  -0.000  -0.000
  0.000  -0.000   0.044  -0.000   0.000   0.000  -0.000   0.007  -0.000   0.000  -0.000   0.000   0.000   0.000   0.000  -0.000
 -0.000  -0.000  -0.000   0.044  -0.000   0.000  -0.000  -0.000   0.007  -0.000   0.000  -0.000  -0.000   0.000  -0.000  -0.000
 -0.000  -0.000   0.000  -0.000   0.044   0.000   0.000   0.000  -0.000   0.007   0.000  -0.000   0.000  -0.000   0.000   0.000
 -0.000  -0.000   0.000  -0.000  -0.000   0.000   0.000  -0.000   0.000   0.000   2.153   0.130  -0.000   0.000  -0.000   0.000
  0.000   0.000  -0.000   0.000   0.000  -0.000  -0.000   0.000  -0.000  -0.000   0.130   0.010  -0.000   0.000   0.000  -0.000
 -0.000   0.000   0.000   0.000   0.000   0.000   0.000   0.000  -0.000   0.000  -0.000  -0.000   2.008   0.001   0.001   0.217
 -0.000   0.000   0.000   0.000  -0.000  -0.000   0.000   0.000   0.000  -0.000   0.000   0.000   0.001   2.008   0.001  -0.000
  0.000   0.000   0.000   0.000  -0.000   0.000  -0.000   0.000  -0.000   0.000  -0.000   0.000   0.001   0.001   2.009  -0.000
  0.000  -0.000  -0.000  -0.000   0.000  -0.000  -0.000  -0.000  -0.000   0.000   0.000  -0.000   0.217  -0.000  -0.000   0.180
  0.000  -0.000  -0.000   0.000   0.000   0.000  -0.000   0.000   0.000   0.000  -0.000   0.000  -0.000   0.217  -0.000  -0.000
 -0.000  -0.000  -0.000  -0.000   0.000   0.000  -0.000  -0.000  -0.000  -0.000   0.000  -0.000  -0.000  -0.000   0.217  -0.000
 total augmentation occupancy for first ion, spin component:           2
  0.000  -0.000  -0.000   0.000   0.000   0.000   0.000   0.000   0.000  -0.000   0.000   0.000  -0.000   0.000  -0.000   0.000
 -0.000   0.000  -0.000  -0.000   0.000  -0.000   0.000  -0.000  -0.000  -0.000   0.000   0.000  -0.000  -0.000   0.000  -0.000
 -0.000  -0.000   0.000   0.000   0.000  -0.000   0.000   0.000   0.000  -0.000   0.000   0.000  -0.000   0.000   0.000   0.000
  0.000  -0.000   0.000   0.000  -0.000   0.000  -0.000  -0.000   0.000   0.000  -0.000  -0.000  -0.000   0.000   0.000   0.000
  0.000   0.000   0.000  -0.000   0.000   0.000  -0.000   0.000   0.000   0.000   0.000   0.000   0.000  -0.000   0.000  -0.000
  0.000  -0.000  -0.000   0.000   0.000  -0.000   0.000  -0.000  -0.000   0.000  -0.000   0.000   0.000  -0.000   0.000  -0.000
  0.000   0.000   0.000  -0.000  -0.000   0.000   0.000   0.000  -0.000  -0.000   0.000   0.000   0.000   0.000  -0.000   0.000
  0.000  -0.000   0.000  -0.000   0.000  -0.000   0.000   0.000  -0.000   0.000   0.000  -0.000   0.000   0.000  -0.000  -0.000
  0.000  -0.000   0.000   0.000   0.000  -0.000  -0.000  -0.000   0.000  -0.000   0.000  -0.000   0.000  -0.000  -0.000  -0.000
 -0.000  -0.000  -0.000   0.000   0.000   0.000  -0.000   0.000  -0.000   0.000   0.000  -0.000   0.000   0.000  -0.000  -0.000
  0.000   0.000   0.000  -0.000   0.000  -0.000   0.000   0.000   0.000   0.000  -0.000  -0.000  -0.000   0.000   0.000   0.000
  0.000   0.000   0.000  -0.000   0.000   0.000   0.000  -0.000  -0.000  -0.000  -0.000  -0.000   0.000  -0.000  -0.000  -0.000
 -0.000  -0.000  -0.000  -0.000   0.000   0.000   0.000   0.000   0.000   0.000  -0.000   0.000  -0.000   0.000  -0.000   0.000
  0.000  -0.000   0.000   0.000  -0.000  -0.000   0.000   0.000  -0.000   0.000   0.000  -0.000   0.000   0.000   0.000  -0.000
 -0.000   0.000   0.000   0.000   0.000   0.000  -0.000  -0.000  -0.000  -0.000   0.000  -0.000  -0.000   0.000  -0.000  -0.000
  0.000  -0.000   0.000   0.000  -0.000  -0.000   0.000  -0.000  -0.000  -0.000   0.000  -0.000   0.000  -0.000  -0.000   0.000
 -0.000   0.000  -0.000  -0.000   0.000   0.000  -0.000  -0.000   0.000  -0.000  -0.000   0.000  -0.000  -0.000   0.000   0.000
  0.000  -0.000  -0.000  -0.000  -0.000  -0.000   0.000   0.000   0.000   0.000   0.000  -0.000   0.000  -0.000  -0.000   0.000
 total augmentation occupancy for first ion, spin component:           3
  0.000  -0.000  -0.000   0.000  -0.000   0.000   0.000  -0.000   0.000  -0.000   0.000   0.000   0.000   0.000   0.000  -0.000
 -0.000   0.000   0.000   0.000  -0.000   0.000   0.000   0.000   0.000   0.000   0.000   0.000  -0.000  -0.000   0.000   0.000
 -0.000   0.000   0.000  -0.000  -0.000  -0.000   0.000   0.000   0.000  -0.000  -0.000  -0.000  -0.000  -0.000   0.000   0.000
  0.000   0.000  -0.000   0.000   0.000   0.000   0.000   0.000   0.000  -0.000  -0.000  -0.000  -0.000  -0.000  -0.000   0.000
 -0.000  -0.000  -0.000   0.000   0.000  -0.000   0.000  -0.000   0.000   0.000   0.000   0.000  -0.000  -0.000   0.000   0.000
  0.000   0.000  -0.000   0.000  -0.000   0.000   0.000  -0.000  -0.000  -0.000   0.000   0.000   0.000   0.000  -0.000  -0.000
  0.000   0.000   0.000   0.000   0.000   0.000   0.000  -0.000   0.000   0.000  -0.000   0.000   0.000   0.000  -0.000  -0.000
 -0.000   0.000   0.000   0.000  -0.000  -0.000  -0.000   0.000   0.000  -0.000   0.000  -0.000   0.000  -0.000  -0.000  -0.000
  0.000   0.000   0.000   0.000   0.000  -0.000   0.000   0.000   0.000   0.000   0.000  -0.000   0.000   0.000  -0.000  -0.000
 -0.000   0.000  -0.000  -0.000   0.000  -0.000   0.000  -0.000   0.000   0.000   0.000   0.000  -0.000   0.000  -0.000   0.000
  0.000   0.000  -0.000  -0.000   0.000   0.000  -0.000   0.000   0.000   0.000  -0.000  -0.000   0.000  -0.000   0.000   0.000
  0.000   0.000  -0.000  -0.000   0.000   0.000   0.000  -0.000  -0.000   0.000  -0.000  -0.000  -0.000   0.000  -0.000  -0.000
  0.000  -0.000  -0.000  -0.000  -0.000   0.000   0.000   0.000   0.000  -0.000   0.000  -0.000   0.000  -0.000   0.000   0.000
  0.000  -0.000  -0.000  -0.000  -0.000   0.000   0.000  -0.000   0.000   0.000  -0.000   0.000  -0.000  -0.000   0.000  -0.000
  0.000   0.000   0.000  -0.000   0.000  -0.000  -0.000  -0.000  -0.000  -0.000   0.000  -0.000   0.000   0.000  -0.000  -0.000
 -0.000   0.000   0.000   0.000   0.000  -0.000  -0.000  -0.000  -0.000   0.000   0.000  -0.000   0.000  -0.000  -0.000  -0.000
 -0.000   0.000   0.000  -0.000   0.000   0.000  -0.000   0.000   0.000  -0.000   0.000  -0.000   0.000   0.000  -0.000  -0.000
 -0.000  -0.000  -0.000   0.000  -0.000   0.000   0.000   0.000  -0.000   0.000  -0.000   0.000  -0.000  -0.000   0.000  -0.000
 total augmentation occupancy for first ion, spin component:           4
 -0.000  -0.000   0.000  -0.000   0.000  -0.000   0.000   0.000  -0.000  -0.000  -0.000  -0.000   0.000   0.000  -0.000   0.000
 -0.000  -0.000  -0.000  -0.000   0.000  -0.000  -0.000   0.000   0.000   0.000  -0.000  -0.000   0.000   0.000   0.000  -0.000
  0.000  -0.000  -0.000   0.000   0.000   0.000   0.000  -0.000   0.000  -0.000   0.000   0.000  -0.000  -0.000   0.000   0.000
 -0.000  -0.000   0.000  -0.000  -0.000  -0.000   0.000   0.000  -0.000   0.000  -0.000  -0.000  -0.000  -0.000  -0.000   0.000
  0.000   0.000   0.000  -0.000  -0.000  -0.000   0.000  -0.000   0.000  -0.000  -0.000  -0.000   0.000  -0.000  -0.000   0.000
 -0.000  -0.000   0.000  -0.000  -0.000  -0.000  -0.000  -0.000  -0.000  -0.000   0.000  -0.000  -0.000  -0.000   0.000  -0.000
  0.000  -0.000   0.000   0.000   0.000  -0.000  -0.000   0.000   0.000  -0.000  -0.000  -0.000  -0.000  -0.000   0.000   0.000
  0.000   0.000  -0.000   0.000  -0.000  -0.000   0.000   0.000  -0.000  -0.000   0.000   0.000   0.000  -0.000  -0.000  -0.000
 -0.000   0.000   0.000  -0.000   0.000  -0.000   0.000  -0.000  -0.000   0.000   0.000  -0.000  -0.000   0.000   0.000   0.000
 -0.000   0.000  -0.000   0.000  -0.000  -0.000  -0.000  -0.000   0.000  -0.000   0.000  -0.000  -0.000   0.000  -0.000   0.000
 -0.000  -0.000   0.000  -0.000  -0.000   0.000  -0.000   0.000   0.000   0.000   0.000   0.000   0.000   0.000  -0.000  -0.000
 -0.000  -0.000   0.000  -0.000  -0.000  -0.000  -0.000   0.000  -0.000  -0.000   0.000   0.000  -0.000  -0.000   0.000   0.000
  0.000   0.000  -0.000  -0.000   0.000  -0.000  -0.000   0.000  -0.000  -0.000   0.000  -0.000  -0.000  -0.000   0.000   0.000
  0.000   0.000  -0.000  -0.000  -0.000  -0.000  -0.000  -0.000   0.000   0.000   0.000  -0.000  -0.000   0.000   0.000  -0.000
 -0.000   0.000   0.000  -0.000  -0.000   0.000   0.000  -0.000   0.000  -0.000  -0.000   0.000   0.000   0.000   0.000  -0.000
  0.000  -0.000   0.000   0.000   0.000  -0.000   0.000  -0.000   0.000   0.000  -0.000   0.000   0.000  -0.000  -0.000   0.000
 -0.000  -0.000   0.000   0.000   0.000   0.000   0.000   0.000  -0.000  -0.000   0.000  -0.000   0.000  -0.000  -0.000  -0.000
 -0.000  -0.000  -0.000   0.000   0.000  -0.000   0.000   0.000  -0.000   0.000   0.000  -0.000  -0.000  -0.000  -0.000   0.000


------------------------ aborting loop because EDIFF is reached ----------------------------------------


    CHARGE:  cpu time    0.5154: real time    0.5161
    FORLOC:  cpu time    0.0031: real time    0.0031
    FORNL :  cpu time    2.2571: real time    2.2732
    STRESS:  cpu time  103.6625: real time  103.7797
    FORCOR:  cpu time    0.3219: real time    0.3223
    FORHAR:  cpu time    0.0166: real time    0.0166
    MIXING:  cpu time    0.0180: real time    0.0180
    OFIELD:  cpu time    0.0010: real time    0.0001

  FORCE on cell =-STRESS in cart. coord.  units (eV):
  Direction    XX          YY          ZZ          XY          YZ          ZX
  --------------------------------------------------------------------------------------
  Alpha Z    63.49827    63.49827    63.49827
  Ewald    -573.41473  -573.41473  -573.41473    -0.00000    -0.00000    -0.00000
  Hartree   228.47844   228.48442   228.48592    -0.00518    -0.00212    -0.00367
  E(xc)    -112.61644  -112.61724  -112.61744     0.00069     0.00028     0.00049
  Local    -179.28192  -179.26617  -179.26224    -0.01364    -0.00557    -0.00964
  n-local    96.43033    96.40448    96.39802     0.02238     0.00914     0.01583
  augment    71.03563    71.04092    71.04224    -0.00458    -0.00187    -0.00324
  Kinetic   400.04603   400.02604   400.02104     0.01732     0.00707     0.01225
  Fock        0.00000     0.00000     0.00000     0.00000     0.00000     0.00000
  -------------------------------------------------------------------------------------
  Total      -5.82438    -5.84400    -5.84892     0.01699     0.00693     0.01201
  in kB    -155.30978  -155.83271  -155.96391     0.45293     0.18490     0.32030
  external pressure =     -155.70 kB  Pullay stress =        0.00 kB


 VOLUME and BASIS-vectors are now :
 -----------------------------------------------------------------------------
  energy-cutoff  :      300.00
  volume of cell :       60.08
      direct lattice vectors                 reciprocal lattice vectors
     4.396350177  0.000000000  0.000000000     0.227461408 -0.131324905 -0.092860731
     2.198175089  3.807350937 -0.000000000     0.000000000  0.262649810 -0.092860731
     2.198175089  1.269116979  3.589604888    -0.000000000  0.000000000  0.278582192

  length of vectors
     4.396350177  4.396350177  4.396350177     0.278582193  0.278582193  0.278582192


 FORCES acting on ions
    electron-ion (+dipol)            ewald-force                    non-local-force                 convergence-correction
 -----------------------------------------------------------------------------------------------
   0.501E-07 -.211E-06 -.620E-06   0.481E-14 0.658E-15 -.418E-15   0.880E-06 -.111E-05 -.234E-06   0.596E-07 0.211E-06 0.366E-06
 -----------------------------------------------------------------------------------------------
   0.806E-07 -.249E-06 -.617E-06   0.481E-14 0.658E-15 -.418E-15   0.880E-06 -.111E-05 -.234E-06   0.596E-07 0.211E-06 0.366E-06
 
 
 POSITION                                       TOTAL-FORCE (eV/Angst)
 -----------------------------------------------------------------------------------
      0.00000      0.00000      0.00000         0.000001     -0.000001     -0.000000
 -----------------------------------------------------------------------------------
    total drift:                                0.000001     -0.000001     -0.000000


--------------------------------------------------------------------------------------------------------



  FREE ENERGIE OF THE ION-ELECTRON SYSTEM (eV)
  ---------------------------------------------------
  free  energy   TOTEN  =      -149.70729900 eV

  energy  without entropy=     -149.70729882  energy(sigma->0) =     -149.70729891
 


--------------------------------------------------------------------------------------------------------


    POTLOK:  cpu time    0.7442: real time    0.7552


--------------------------------------------------------------------------------------------------------


 writing wavefunctions
     LOOP+:  cpu time  850.3244: real time  852.1006
    4ORBIT:  cpu time    0.0000: real time    0.0000

 Spin-Orbit-Coupling matrix elements

 Ion:    1  E_soc:    -32.5420120
 l=   1
     0.0000000    -5.0042082    -5.0037878
    -5.0042082     0.0000000    -5.0038718
    -5.0037878    -5.0038718     0.0000000
 l=   2
     0.0000000    -0.0839462     0.0000000    -0.0839470    -0.3357620
    -0.0839462     0.0000000    -0.2518161    -0.0839530    -0.0839462
     0.0000000    -0.2518161     0.0000000    -0.2518198     0.0000000
    -0.0839470    -0.0839530    -0.2518198     0.0000000    -0.0839479
    -0.3357620    -0.0839462     0.0000000    -0.0839479     0.0000000
 l=   3
     0.0000000     0.0000000     0.0000000     0.0000000     0.0000000     0.0000000     0.0000000
     0.0000000     0.0000000     0.0000000     0.0000000     0.0000000     0.0000000     0.0000000
     0.0000000     0.0000000     0.0000000     0.0000000     0.0000000     0.0000000     0.0000000
     0.0000000     0.0000000     0.0000000     0.0000000     0.0000000     0.0000000     0.0000000
     0.0000000     0.0000000     0.0000000     0.0000000     0.0000000     0.0000000     0.0000000
     0.0000000     0.0000000     0.0000000     0.0000000     0.0000000     0.0000000     0.0000000
     0.0000000     0.0000000     0.0000000     0.0000000     0.0000000     0.0000000     0.0000000

 total amount of memory used by VASP MPI-rank0   172772. kBytes
=======================================================================

   base      :      30000. kBytes
   nonl-proj :       7007. kBytes
   fftplans  :      12955. kBytes
   grid      :      13697. kBytes
   one-center:         62. kBytes
   wavefun   :     109051. kBytes
 
  
  
 General timing and accounting informations for this job:
 ========================================================
  
                  Total CPU time used (sec):      862.855
                            User time (sec):      855.805
                          System time (sec):        7.050
                         Elapsed time (sec):      862.327
  
                   Maximum memory used (kb):      255880.
                   Average memory used (kb):           0.
  
                          Minor page faults:       228428
                          Major page faults:            0
                 Voluntary context switches:         8862
