<?xml version="1.0" encoding="ISO-8859-1"?>
<modeling>
 <generator>
  <i name="program" type="string">vasp </i>
  <i name="version" type="string">5.4.4.18Apr17-6-g9f103f2a35  </i>
  <i name="subversion" type="string">(build Nov 03 2018 10:20:46) complex            parallel </i>
  <i name="platform" type="string">LinuxIFC </i>
  <i name="date" type="string">2018 12 21 </i>
  <i name="time" type="string">13:04:23 </i>
 </generator>
 <incar>
  <i type="string" name="SYSTEM">   Og_FCC</i>
  <i type="string" name="PREC">accurate</i>
  <i type="string" name="ALGO">   Normal</i>
  <i type="logical" name="ADDGRID"> T  </i>
  <i type="logical" name="LSORBIT"> T  </i>
  <i type="int" name="ISPIN">     1</i>
  <i type="int" name="MAXMIX">    50</i>
  <i type="int" name="NELM">    50</i>
  <i type="int" name="NELMDL">    -5</i>
  <i type="int" name="NELMIN">     2</i>
  <i type="int" name="IBRION">    -1</i>
  <i type="int" name="NFREE">     5</i>
  <i name="EDIFF">      0.00000001</i>
  <i name="EDIFFG">      0.00001000</i>
  <i type="int" name="NSW">     1</i>
  <i type="int" name="ISIF">     3</i>
  <i type="int" name="ISYM">     0</i>
  <i name="SYMPREC">      0.00000010</i>
  <i name="ENCUT">    300.00000000</i>
  <i type="int" name="NBANDS">    64</i>
  <i name="POTIM">      0.10000000</i>
  <i type="logical" name="LREAL"> F  </i>
  <i type="int" name="ISMEAR">     0</i>
  <i name="SIGMA">      0.05000000</i>
  <i type="int" name="NWRITE">     2</i>
  <i type="logical" name="LWAVE"> T  </i>
  <i type="logical" name="LCHARG"> T  </i>
  <i type="logical" name="LVTOT"> F  </i>
  <i type="logical" name="GGA_COMPAT"> F  </i>
  <v type="int" name="KPOINT_BSE">    -1     0     0     0</v>
  <i type="int" name="NELM">    50</i>
  <i type="string" name="METAGGA"> SCAN</i>
 </incar>
 <structure name="primitive_cell" >
  <crystal>
   <varray name="basis" >
    <v>       4.39635018       0.00000000       0.00000000 </v>
    <v>       2.19817509       3.80735094      -0.00000000 </v>
    <v>       2.19817509       1.26911698       3.58960489 </v>
   </varray>
   <i name="volume">     60.08441465 </i>
   <varray name="rec_basis" >
    <v>       0.22746141      -0.13132490      -0.09286073 </v>
    <v>       0.00000000       0.26264981      -0.09286073 </v>
    <v>      -0.00000000       0.00000000       0.27858219 </v>
   </varray>
  </crystal>
  <varray name="positions" >
   <v>       0.00000000       0.00000000       0.00000000 </v>
  </varray>
 </structure>
 <varray name="primitive_index" >
  <v type="int" >        1 </v>
 </varray>
 <kpoints>
  <varray name="kpointlist" >
   <v>       0.50000000       0.50000000       0.50000000 </v>
   <v>       0.47500000       0.47500000       0.47500000 </v>
   <v>       0.45000000       0.45000000       0.45000000 </v>
   <v>       0.42500000       0.42500000       0.42500000 </v>
   <v>       0.40000000       0.40000000       0.40000000 </v>
   <v>       0.37500000       0.37500000       0.37500000 </v>
   <v>       0.35000000       0.35000000       0.35000000 </v>
   <v>       0.32500000       0.32500000       0.32500000 </v>
   <v>       0.30000000       0.30000000       0.30000000 </v>
   <v>       0.27500000       0.27500000       0.27500000 </v>
   <v>       0.25000000       0.25000000       0.25000000 </v>
   <v>       0.22500000       0.22500000       0.22500000 </v>
   <v>       0.20000000       0.20000000       0.20000000 </v>
   <v>       0.17500000       0.17500000       0.17500000 </v>
   <v>       0.15000000       0.15000000       0.15000000 </v>
   <v>       0.12500000       0.12500000       0.12500000 </v>
   <v>       0.10000000       0.10000000       0.10000000 </v>
   <v>       0.07500000       0.07500000       0.07500000 </v>
   <v>       0.05000000       0.05000000       0.05000000 </v>
   <v>       0.02500000       0.02500000       0.02500000 </v>
   <v>       0.00000000       0.00000000       0.00000000 </v>
   <v>       0.00000000       0.02500000       0.02500000 </v>
   <v>       0.00000000       0.05000000       0.05000000 </v>
   <v>       0.00000000       0.07500000       0.07500000 </v>
   <v>       0.00000000       0.10000000       0.10000000 </v>
   <v>       0.00000000       0.12500000       0.12500000 </v>
   <v>       0.00000000       0.15000000       0.15000000 </v>
   <v>       0.00000000       0.17500000       0.17500000 </v>
   <v>       0.00000000       0.20000000       0.20000000 </v>
   <v>       0.00000000       0.22500000       0.22500000 </v>
   <v>       0.00000000       0.25000000       0.25000000 </v>
   <v>       0.00000000       0.27500000       0.27500000 </v>
   <v>       0.00000000       0.30000000       0.30000000 </v>
   <v>       0.00000000       0.32500000       0.32500000 </v>
   <v>       0.00000000       0.35000000       0.35000000 </v>
   <v>       0.00000000       0.37500000       0.37500000 </v>
   <v>       0.00000000       0.40000000       0.40000000 </v>
   <v>       0.00000000       0.42500000       0.42500000 </v>
   <v>       0.00000000       0.45000000       0.45000000 </v>
   <v>       0.00000000       0.47500000       0.47500000 </v>
   <v>       0.00000000       0.50000000       0.50000000 </v>
   <v>       0.00000000       0.00000000       0.00000000 </v>
   <v>       0.16666667       0.00000000       0.00000000 </v>
   <v>       0.33333333       0.00000000       0.00000000 </v>
   <v>       0.50000000       0.00000000       0.00000000 </v>
   <v>      -0.33333333       0.00000000       0.00000000 </v>
   <v>      -0.16666667       0.00000000       0.00000000 </v>
   <v>       0.00000000       0.16666667       0.00000000 </v>
   <v>       0.16666667       0.16666667       0.00000000 </v>
   <v>       0.33333333       0.16666667       0.00000000 </v>
   <v>       0.50000000       0.16666667       0.00000000 </v>
   <v>      -0.33333333       0.16666667       0.00000000 </v>
   <v>      -0.16666667       0.16666667       0.00000000 </v>
   <v>       0.00000000       0.33333333       0.00000000 </v>
   <v>       0.16666667       0.33333333       0.00000000 </v>
   <v>       0.33333333       0.33333333       0.00000000 </v>
   <v>       0.50000000       0.33333333       0.00000000 </v>
   <v>      -0.33333333       0.33333333       0.00000000 </v>
   <v>      -0.16666667       0.33333333       0.00000000 </v>
   <v>       0.00000000       0.50000000       0.00000000 </v>
   <v>       0.16666667       0.50000000       0.00000000 </v>
   <v>       0.33333333       0.50000000       0.00000000 </v>
   <v>       0.50000000       0.50000000       0.00000000 </v>
   <v>      -0.33333333       0.50000000       0.00000000 </v>
   <v>      -0.16666667       0.50000000       0.00000000 </v>
   <v>       0.00000000      -0.33333333       0.00000000 </v>
   <v>       0.16666667      -0.33333333       0.00000000 </v>
   <v>       0.33333333      -0.33333333       0.00000000 </v>
   <v>       0.50000000      -0.33333333       0.00000000 </v>
   <v>      -0.33333333      -0.33333333       0.00000000 </v>
   <v>      -0.16666667      -0.33333333       0.00000000 </v>
   <v>       0.00000000      -0.16666667       0.00000000 </v>
   <v>       0.16666667      -0.16666667       0.00000000 </v>
   <v>       0.33333333      -0.16666667       0.00000000 </v>
   <v>       0.50000000      -0.16666667       0.00000000 </v>
   <v>      -0.33333333      -0.16666667       0.00000000 </v>
   <v>      -0.16666667      -0.16666667       0.00000000 </v>
   <v>       0.00000000       0.00000000       0.16666667 </v>
   <v>       0.16666667       0.00000000       0.16666667 </v>
   <v>       0.33333333       0.00000000       0.16666667 </v>
   <v>       0.50000000       0.00000000       0.16666667 </v>
   <v>      -0.33333333       0.00000000       0.16666667 </v>
   <v>      -0.16666667       0.00000000       0.16666667 </v>
   <v>       0.00000000       0.16666667       0.16666667 </v>
   <v>       0.16666667       0.16666667       0.16666667 </v>
   <v>       0.33333333       0.16666667       0.16666667 </v>
   <v>       0.50000000       0.16666667       0.16666667 </v>
   <v>      -0.33333333       0.16666667       0.16666667 </v>
   <v>      -0.16666667       0.16666667       0.16666667 </v>
   <v>       0.00000000       0.33333333       0.16666667 </v>
   <v>       0.16666667       0.33333333       0.16666667 </v>
   <v>       0.33333333       0.33333333       0.16666667 </v>
   <v>       0.50000000       0.33333333       0.16666667 </v>
   <v>      -0.33333333       0.33333333       0.16666667 </v>
   <v>      -0.16666667       0.33333333       0.16666667 </v>
   <v>       0.00000000       0.50000000       0.16666667 </v>
   <v>       0.16666667       0.50000000       0.16666667 </v>
   <v>       0.33333333       0.50000000       0.16666667 </v>
   <v>       0.50000000       0.50000000       0.16666667 </v>
   <v>      -0.33333333       0.50000000       0.16666667 </v>
   <v>      -0.16666667       0.50000000       0.16666667 </v>
   <v>       0.00000000      -0.33333333       0.16666667 </v>
   <v>       0.16666667      -0.33333333       0.16666667 </v>
   <v>       0.33333333      -0.33333333       0.16666667 </v>
   <v>       0.50000000      -0.33333333       0.16666667 </v>
   <v>      -0.33333333      -0.33333333       0.16666667 </v>
   <v>      -0.16666667      -0.33333333       0.16666667 </v>
   <v>       0.00000000      -0.16666667       0.16666667 </v>
   <v>       0.16666667      -0.16666667       0.16666667 </v>
   <v>       0.33333333      -0.16666667       0.16666667 </v>
   <v>       0.50000000      -0.16666667       0.16666667 </v>
   <v>      -0.33333333      -0.16666667       0.16666667 </v>
   <v>      -0.16666667      -0.16666667       0.16666667 </v>
   <v>       0.00000000       0.00000000       0.33333333 </v>
   <v>       0.16666667       0.00000000       0.33333333 </v>
   <v>       0.33333333       0.00000000       0.33333333 </v>
   <v>       0.50000000       0.00000000       0.33333333 </v>
   <v>      -0.33333333       0.00000000       0.33333333 </v>
   <v>      -0.16666667       0.00000000       0.33333333 </v>
   <v>       0.00000000       0.16666667       0.33333333 </v>
   <v>       0.16666667       0.16666667       0.33333333 </v>
   <v>       0.33333333       0.16666667       0.33333333 </v>
   <v>       0.50000000       0.16666667       0.33333333 </v>
   <v>      -0.33333333       0.16666667       0.33333333 </v>
   <v>      -0.16666667       0.16666667       0.33333333 </v>
   <v>       0.00000000       0.33333333       0.33333333 </v>
   <v>       0.16666667       0.33333333       0.33333333 </v>
   <v>       0.33333333       0.33333333       0.33333333 </v>
   <v>       0.50000000       0.33333333       0.33333333 </v>
   <v>      -0.33333333       0.33333333       0.33333333 </v>
   <v>      -0.16666667       0.33333333       0.33333333 </v>
   <v>       0.00000000       0.50000000       0.33333333 </v>
   <v>       0.16666667       0.50000000       0.33333333 </v>
   <v>       0.33333333       0.50000000       0.33333333 </v>
   <v>       0.50000000       0.50000000       0.33333333 </v>
   <v>      -0.33333333       0.50000000       0.33333333 </v>
   <v>      -0.16666667       0.50000000       0.33333333 </v>
   <v>       0.00000000      -0.33333333       0.33333333 </v>
   <v>       0.16666667      -0.33333333       0.33333333 </v>
   <v>       0.33333333      -0.33333333       0.33333333 </v>
   <v>       0.50000000      -0.33333333       0.33333333 </v>
   <v>      -0.33333333      -0.33333333       0.33333333 </v>
   <v>      -0.16666667      -0.33333333       0.33333333 </v>
   <v>       0.00000000      -0.16666667       0.33333333 </v>
   <v>       0.16666667      -0.16666667       0.33333333 </v>
   <v>       0.33333333      -0.16666667       0.33333333 </v>
   <v>       0.50000000      -0.16666667       0.33333333 </v>
   <v>      -0.33333333      -0.16666667       0.33333333 </v>
   <v>      -0.16666667      -0.16666667       0.33333333 </v>
   <v>       0.00000000       0.00000000       0.50000000 </v>
   <v>       0.16666667       0.00000000       0.50000000 </v>
   <v>       0.33333333       0.00000000       0.50000000 </v>
   <v>       0.50000000       0.00000000       0.50000000 </v>
   <v>      -0.33333333       0.00000000       0.50000000 </v>
   <v>      -0.16666667       0.00000000       0.50000000 </v>
   <v>       0.00000000       0.16666667       0.50000000 </v>
   <v>       0.16666667       0.16666667       0.50000000 </v>
   <v>       0.33333333       0.16666667       0.50000000 </v>
   <v>       0.50000000       0.16666667       0.50000000 </v>
   <v>      -0.33333333       0.16666667       0.50000000 </v>
   <v>      -0.16666667       0.16666667       0.50000000 </v>
   <v>       0.00000000       0.33333333       0.50000000 </v>
   <v>       0.16666667       0.33333333       0.50000000 </v>
   <v>       0.33333333       0.33333333       0.50000000 </v>
   <v>       0.50000000       0.33333333       0.50000000 </v>
   <v>      -0.33333333       0.33333333       0.50000000 </v>
   <v>      -0.16666667       0.33333333       0.50000000 </v>
   <v>       0.00000000       0.50000000       0.50000000 </v>
   <v>       0.16666667       0.50000000       0.50000000 </v>
   <v>       0.33333333       0.50000000       0.50000000 </v>
   <v>       0.50000000       0.50000000       0.50000000 </v>
   <v>      -0.33333333       0.50000000       0.50000000 </v>
   <v>      -0.16666667       0.50000000       0.50000000 </v>
   <v>       0.00000000      -0.33333333       0.50000000 </v>
   <v>       0.16666667      -0.33333333       0.50000000 </v>
   <v>       0.33333333      -0.33333333       0.50000000 </v>
   <v>       0.50000000      -0.33333333       0.50000000 </v>
   <v>      -0.33333333      -0.33333333       0.50000000 </v>
   <v>      -0.16666667      -0.33333333       0.50000000 </v>
   <v>       0.00000000      -0.16666667       0.50000000 </v>
   <v>       0.16666667      -0.16666667       0.50000000 </v>
   <v>       0.33333333      -0.16666667       0.50000000 </v>
   <v>       0.50000000      -0.16666667       0.50000000 </v>
   <v>      -0.33333333      -0.16666667       0.50000000 </v>
   <v>      -0.16666667      -0.16666667       0.50000000 </v>
   <v>       0.00000000       0.00000000      -0.33333333 </v>
   <v>       0.16666667       0.00000000      -0.33333333 </v>
   <v>       0.33333333       0.00000000      -0.33333333 </v>
   <v>       0.50000000       0.00000000      -0.33333333 </v>
   <v>      -0.33333333       0.00000000      -0.33333333 </v>
   <v>      -0.16666667       0.00000000      -0.33333333 </v>
   <v>       0.00000000       0.16666667      -0.33333333 </v>
   <v>       0.16666667       0.16666667      -0.33333333 </v>
   <v>       0.33333333       0.16666667      -0.33333333 </v>
   <v>       0.50000000       0.16666667      -0.33333333 </v>
   <v>      -0.33333333       0.16666667      -0.33333333 </v>
   <v>      -0.16666667       0.16666667      -0.33333333 </v>
   <v>       0.00000000       0.33333333      -0.33333333 </v>
   <v>       0.16666667       0.33333333      -0.33333333 </v>
   <v>       0.33333333       0.33333333      -0.33333333 </v>
   <v>       0.50000000       0.33333333      -0.33333333 </v>
   <v>      -0.33333333       0.33333333      -0.33333333 </v>
   <v>      -0.16666667       0.33333333      -0.33333333 </v>
   <v>       0.00000000       0.50000000      -0.33333333 </v>
   <v>       0.16666667       0.50000000      -0.33333333 </v>
   <v>       0.33333333       0.50000000      -0.33333333 </v>
   <v>       0.50000000       0.50000000      -0.33333333 </v>
   <v>      -0.33333333       0.50000000      -0.33333333 </v>
   <v>      -0.16666667       0.50000000      -0.33333333 </v>
   <v>       0.00000000      -0.33333333      -0.33333333 </v>
   <v>       0.16666667      -0.33333333      -0.33333333 </v>
   <v>       0.33333333      -0.33333333      -0.33333333 </v>
   <v>       0.50000000      -0.33333333      -0.33333333 </v>
   <v>      -0.33333333      -0.33333333      -0.33333333 </v>
   <v>      -0.16666667      -0.33333333      -0.33333333 </v>
   <v>       0.00000000      -0.16666667      -0.33333333 </v>
   <v>       0.16666667      -0.16666667      -0.33333333 </v>
   <v>       0.33333333      -0.16666667      -0.33333333 </v>
   <v>       0.50000000      -0.16666667      -0.33333333 </v>
   <v>      -0.33333333      -0.16666667      -0.33333333 </v>
   <v>      -0.16666667      -0.16666667      -0.33333333 </v>
   <v>       0.00000000       0.00000000      -0.16666667 </v>
   <v>       0.16666667       0.00000000      -0.16666667 </v>
   <v>       0.33333333       0.00000000      -0.16666667 </v>
   <v>       0.50000000       0.00000000      -0.16666667 </v>
   <v>      -0.33333333       0.00000000      -0.16666667 </v>
   <v>      -0.16666667       0.00000000      -0.16666667 </v>
   <v>       0.00000000       0.16666667      -0.16666667 </v>
   <v>       0.16666667       0.16666667      -0.16666667 </v>
   <v>       0.33333333       0.16666667      -0.16666667 </v>
   <v>       0.50000000       0.16666667      -0.16666667 </v>
   <v>      -0.33333333       0.16666667      -0.16666667 </v>
   <v>      -0.16666667       0.16666667      -0.16666667 </v>
   <v>       0.00000000       0.33333333      -0.16666667 </v>
   <v>       0.16666667       0.33333333      -0.16666667 </v>
   <v>       0.33333333       0.33333333      -0.16666667 </v>
   <v>       0.50000000       0.33333333      -0.16666667 </v>
   <v>      -0.33333333       0.33333333      -0.16666667 </v>
   <v>      -0.16666667       0.33333333      -0.16666667 </v>
   <v>       0.00000000       0.50000000      -0.16666667 </v>
   <v>       0.16666667       0.50000000      -0.16666667 </v>
   <v>       0.33333333       0.50000000      -0.16666667 </v>
   <v>       0.50000000       0.50000000      -0.16666667 </v>
   <v>      -0.33333333       0.50000000      -0.16666667 </v>
   <v>      -0.16666667       0.50000000      -0.16666667 </v>
   <v>       0.00000000      -0.33333333      -0.16666667 </v>
   <v>       0.16666667      -0.33333333      -0.16666667 </v>
   <v>       0.33333333      -0.33333333      -0.16666667 </v>
   <v>       0.50000000      -0.33333333      -0.16666667 </v>
   <v>      -0.33333333      -0.33333333      -0.16666667 </v>
   <v>      -0.16666667      -0.33333333      -0.16666667 </v>
   <v>       0.00000000      -0.16666667      -0.16666667 </v>
   <v>       0.16666667      -0.16666667      -0.16666667 </v>
   <v>       0.33333333      -0.16666667      -0.16666667 </v>
   <v>       0.50000000      -0.16666667      -0.16666667 </v>
   <v>      -0.33333333      -0.16666667      -0.16666667 </v>
  </varray>
  <varray name="weights" >
   <v>       0.00000000 </v>
   <v>       0.00000000 </v>
   <v>       0.00000000 </v>
   <v>       0.00000000 </v>
   <v>       0.00000000 </v>
   <v>       0.00000000 </v>
   <v>       0.00000000 </v>
   <v>       0.00000000 </v>
   <v>       0.00000000 </v>
   <v>       0.00000000 </v>
   <v>       0.00000000 </v>
   <v>       0.00000000 </v>
   <v>       0.00000000 </v>
   <v>       0.00000000 </v>
   <v>       0.00000000 </v>
   <v>       0.00000000 </v>
   <v>       0.00000000 </v>
   <v>       0.00000000 </v>
   <v>       0.00000000 </v>
   <v>       0.00000000 </v>
   <v>       0.00000000 </v>
   <v>       0.00000000 </v>
   <v>       0.00000000 </v>
   <v>       0.00000000 </v>
   <v>       0.00000000 </v>
   <v>       0.00000000 </v>
   <v>       0.00000000 </v>
   <v>       0.00000000 </v>
   <v>       0.00000000 </v>
   <v>       0.00000000 </v>
   <v>       0.00000000 </v>
   <v>       0.00000000 </v>
   <v>       0.00000000 </v>
   <v>       0.00000000 </v>
   <v>       0.00000000 </v>
   <v>       0.00000000 </v>
   <v>       0.00000000 </v>
   <v>       0.00000000 </v>
   <v>       0.00000000 </v>
   <v>       0.00000000 </v>
   <v>       0.00000000 </v>
   <v>       0.00465116 </v>
   <v>       0.00465116 </v>
   <v>       0.00465116 </v>
   <v>       0.00465116 </v>
   <v>       0.00465116 </v>
   <v>       0.00465116 </v>
   <v>       0.00465116 </v>
   <v>       0.00465116 </v>
   <v>       0.00465116 </v>
   <v>       0.00465116 </v>
   <v>       0.00465116 </v>
   <v>       0.00465116 </v>
   <v>       0.00465116 </v>
   <v>       0.00465116 </v>
   <v>       0.00465116 </v>
   <v>       0.00465116 </v>
   <v>       0.00465116 </v>
   <v>       0.00465116 </v>
   <v>       0.00465116 </v>
   <v>       0.00465116 </v>
   <v>       0.00465116 </v>
   <v>       0.00465116 </v>
   <v>       0.00465116 </v>
   <v>       0.00465116 </v>
   <v>       0.00465116 </v>
   <v>       0.00465116 </v>
   <v>       0.00465116 </v>
   <v>       0.00465116 </v>
   <v>       0.00465116 </v>
   <v>       0.00465116 </v>
   <v>       0.00465116 </v>
   <v>       0.00465116 </v>
   <v>       0.00465116 </v>
   <v>       0.00465116 </v>
   <v>       0.00465116 </v>
   <v>       0.00465116 </v>
   <v>       0.00465116 </v>
   <v>       0.00465116 </v>
   <v>       0.00465116 </v>
   <v>       0.00465116 </v>
   <v>       0.00465116 </v>
   <v>       0.00465116 </v>
   <v>       0.00465116 </v>
   <v>       0.00465116 </v>
   <v>       0.00465116 </v>
   <v>       0.00465116 </v>
   <v>       0.00465116 </v>
   <v>       0.00465116 </v>
   <v>       0.00465116 </v>
   <v>       0.00465116 </v>
   <v>       0.00465116 </v>
   <v>       0.00465116 </v>
   <v>       0.00465116 </v>
   <v>       0.00465116 </v>
   <v>       0.00465116 </v>
   <v>       0.00465116 </v>
   <v>       0.00465116 </v>
   <v>       0.00465116 </v>
   <v>       0.00465116 </v>
   <v>       0.00465116 </v>
   <v>       0.00465116 </v>
   <v>       0.00465116 </v>
   <v>       0.00465116 </v>
   <v>       0.00465116 </v>
   <v>       0.00465116 </v>
   <v>       0.00465116 </v>
   <v>       0.00465116 </v>
   <v>       0.00465116 </v>
   <v>       0.00465116 </v>
   <v>       0.00465116 </v>
   <v>       0.00465116 </v>
   <v>       0.00465116 </v>
   <v>       0.00465116 </v>
   <v>       0.00465116 </v>
   <v>       0.00465116 </v>
   <v>       0.00465116 </v>
   <v>       0.00465116 </v>
   <v>       0.00465116 </v>
   <v>       0.00465116 </v>
   <v>       0.00465116 </v>
   <v>       0.00465116 </v>
   <v>       0.00465116 </v>
   <v>       0.00465116 </v>
   <v>       0.00465116 </v>
   <v>       0.00465116 </v>
   <v>       0.00465116 </v>
   <v>       0.00465116 </v>
   <v>       0.00465116 </v>
   <v>       0.00465116 </v>
   <v>       0.00465116 </v>
   <v>       0.00465116 </v>
   <v>       0.00465116 </v>
   <v>       0.00465116 </v>
   <v>       0.00465116 </v>
   <v>       0.00465116 </v>
   <v>       0.00465116 </v>
   <v>       0.00465116 </v>
   <v>       0.00465116 </v>
   <v>       0.00465116 </v>
   <v>       0.00465116 </v>
   <v>       0.00465116 </v>
   <v>       0.00465116 </v>
   <v>       0.00465116 </v>
   <v>       0.00465116 </v>
   <v>       0.00465116 </v>
   <v>       0.00465116 </v>
   <v>       0.00465116 </v>
   <v>       0.00465116 </v>
   <v>       0.00465116 </v>
   <v>       0.00465116 </v>
   <v>       0.00465116 </v>
   <v>       0.00465116 </v>
   <v>       0.00465116 </v>
   <v>       0.00465116 </v>
   <v>       0.00465116 </v>
   <v>       0.00465116 </v>
   <v>       0.00465116 </v>
   <v>       0.00465116 </v>
   <v>       0.00465116 </v>
   <v>       0.00465116 </v>
   <v>       0.00465116 </v>
   <v>       0.00465116 </v>
   <v>       0.00465116 </v>
   <v>       0.00465116 </v>
   <v>       0.00465116 </v>
   <v>       0.00465116 </v>
   <v>       0.00465116 </v>
   <v>       0.00465116 </v>
   <v>       0.00465116 </v>
   <v>       0.00465116 </v>
   <v>       0.00465116 </v>
   <v>       0.00465116 </v>
   <v>       0.00465116 </v>
   <v>       0.00465116 </v>
   <v>       0.00465116 </v>
   <v>       0.00465116 </v>
   <v>       0.00465116 </v>
   <v>       0.00465116 </v>
   <v>       0.00465116 </v>
   <v>       0.00465116 </v>
   <v>       0.00465116 </v>
   <v>       0.00465116 </v>
   <v>       0.00465116 </v>
   <v>       0.00465116 </v>
   <v>       0.00465116 </v>
   <v>       0.00465116 </v>
   <v>       0.00465116 </v>
   <v>       0.00465116 </v>
   <v>       0.00465116 </v>
   <v>       0.00465116 </v>
   <v>       0.00465116 </v>
   <v>       0.00465116 </v>
   <v>       0.00465116 </v>
   <v>       0.00465116 </v>
   <v>       0.00465116 </v>
   <v>       0.00465116 </v>
   <v>       0.00465116 </v>
   <v>       0.00465116 </v>
   <v>       0.00465116 </v>
   <v>       0.00465116 </v>
   <v>       0.00465116 </v>
   <v>       0.00465116 </v>
   <v>       0.00465116 </v>
   <v>       0.00465116 </v>
   <v>       0.00465116 </v>
   <v>       0.00465116 </v>
   <v>       0.00465116 </v>
   <v>       0.00465116 </v>
   <v>       0.00465116 </v>
   <v>       0.00465116 </v>
   <v>       0.00465116 </v>
   <v>       0.00465116 </v>
   <v>       0.00465116 </v>
   <v>       0.00465116 </v>
   <v>       0.00465116 </v>
   <v>       0.00465116 </v>
   <v>       0.00465116 </v>
   <v>       0.00465116 </v>
   <v>       0.00465116 </v>
   <v>       0.00465116 </v>
   <v>       0.00465116 </v>
   <v>       0.00465116 </v>
   <v>       0.00465116 </v>
   <v>       0.00465116 </v>
   <v>       0.00465116 </v>
   <v>       0.00465116 </v>
   <v>       0.00465116 </v>
   <v>       0.00465116 </v>
   <v>       0.00465116 </v>
   <v>       0.00465116 </v>
   <v>       0.00465116 </v>
   <v>       0.00465116 </v>
   <v>       0.00465116 </v>
   <v>       0.00465116 </v>
   <v>       0.00465116 </v>
   <v>       0.00465116 </v>
   <v>       0.00465116 </v>
   <v>       0.00465116 </v>
   <v>       0.00465116 </v>
   <v>       0.00465116 </v>
   <v>       0.00465116 </v>
   <v>       0.00465116 </v>
   <v>       0.00465116 </v>
   <v>       0.00465116 </v>
   <v>       0.00465116 </v>
   <v>       0.00465116 </v>
   <v>       0.00465116 </v>
   <v>       0.00465116 </v>
   <v>       0.00465116 </v>
   <v>       0.00465116 </v>
   <v>       0.00465116 </v>
   <v>       0.00465116 </v>
   <v>       0.00465116 </v>
   <v>       0.00465116 </v>
   <v>       0.00465116 </v>
  </varray>
 </kpoints>
 <parameters>
  <separator name="general" >
   <i type="string" name="SYSTEM">Og_FCC</i>
   <i type="logical" name="LCOMPAT"> F  </i>
  </separator>
  <separator name="electronic" >
   <i type="string" name="PREC">accura</i>
   <i name="ENMAX">    300.00000000</i>
   <i name="ENAUG">    361.02500000</i>
   <i name="EDIFF">      0.00000001</i>
   <i type="int" name="IALGO">    38</i>
   <i type="int" name="IWAVPR">    10</i>
   <i type="int" name="NBANDS">    64</i>
   <i name="NELECT">     18.00000000</i>
   <i type="int" name="TURBO">     0</i>
   <i type="int" name="IRESTART">     0</i>
   <i type="int" name="NREBOOT">     0</i>
   <i type="int" name="NMIN">     0</i>
   <i name="EREF">      0.00000000</i>
   <separator name="electronic smearing" >
    <i type="int" name="ISMEAR">     0</i>
    <i name="SIGMA">      0.05000000</i>
    <i name="KSPACING">      0.50000000</i>
    <i type="logical" name="KGAMMA"> T  </i>
   </separator>
   <separator name="electronic projectors" >
    <i type="logical" name="LREAL"> F  </i>
    <v name="ROPT">      0.00000000</v>
    <i type="int" name="LMAXPAW">  -100</i>
    <i type="int" name="LMAXMIX">     2</i>
    <i type="logical" name="NLSPLINE"> F  </i>
   </separator>
   <separator name="electronic startup" >
    <i type="int" name="ISTART">     1</i>
    <i type="int" name="ICHARG">     0</i>
    <i type="int" name="INIWAV">     1</i>
   </separator>
   <separator name="electronic spin" >
    <i type="int" name="ISPIN">     1</i>
    <i type="logical" name="LNONCOLLINEAR"> T  </i>
    <v name="MAGMOM">      1.00000000      1.00000000      1.00000000</v>
    <i name="NUPDOWN">     -1.00000000</i>
    <i type="logical" name="LSORBIT"> T  </i>
    <v name="SAXIS">      0.00000000      0.00000000      1.00000000</v>
    <i type="logical" name="LSPIRAL"> F  </i>
    <v name="QSPIRAL">      0.00000000      0.00000000      0.00000000</v>
    <i type="logical" name="LZEROZ"> F  </i>
   </separator>
   <separator name="electronic exchange-correlation" >
    <i type="logical" name="LASPH"> F  </i>
    <i type="logical" name="LMETAGGA"> F  </i>
   </separator>
   <separator name="electronic convergence" >
    <i type="int" name="NELM">    50</i>
    <i type="int" name="NELMDL">    -5</i>
    <i type="int" name="NELMIN">     2</i>
    <i name="ENINI">    300.00000000</i>
    <separator name="electronic convergence detail" >
     <i type="logical" name="LDIAG"> T  </i>
     <i type="logical" name="LSUBROT"> F  </i>
     <i name="WEIMIN">      0.00000000</i>
     <i name="EBREAK">      0.00000000</i>
     <i name="DEPER">      0.30000000</i>
     <i type="int" name="NRMM">     4</i>
     <i name="TIME">      0.40000000</i>
    </separator>
   </separator>
   <separator name="electronic mixer" >
    <i name="AMIX">      0.40000000</i>
    <i name="BMIX">      1.00000000</i>
    <i name="AMIN">      0.10000000</i>
    <i name="AMIX_MAG">      1.60000000</i>
    <i name="BMIX_MAG">      1.00000000</i>
    <separator name="electronic mixer details" >
     <i type="int" name="IMIX">     4</i>
     <i type="logical" name="MIXFIRST"> F  </i>
     <i type="int" name="MAXMIX">    50</i>
     <i name="WC">    100.00000000</i>
     <i type="int" name="INIMIX">     1</i>
     <i type="int" name="MIXPRE">     1</i>
     <i type="int" name="MREMOVE">     5</i>
    </separator>
   </separator>
   <separator name="electronic dipolcorrection" >
    <i type="logical" name="LDIPOL"> F  </i>
    <i type="logical" name="LMONO"> F  </i>
    <i type="int" name="IDIPOL">     0</i>
    <i name="EPSILON">      1.00000000</i>
    <v name="DIPOL">   -100.00000000   -100.00000000   -100.00000000</v>
    <i name="EFIELD">      0.00000000</i>
   </separator>
  </separator>
  <separator name="grids" >
   <i type="int" name="NGX">    28</i>
   <i type="int" name="NGY">    28</i>
   <i type="int" name="NGZ">    28</i>
   <i type="int" name="NGXF">    56</i>
   <i type="int" name="NGYF">    56</i>
   <i type="int" name="NGZF">    56</i>
   <i type="logical" name="ADDGRID"> T  </i>
  </separator>
  <separator name="ionic" >
   <i type="int" name="NSW">     1</i>
   <i type="int" name="IBRION">    -1</i>
   <i type="int" name="MDALGO">     0</i>
   <i type="int" name="ISIF">     3</i>
   <i name="PSTRESS">      0.00000000</i>
   <i name="EDIFFG">      0.00001000</i>
   <i type="int" name="NFREE">     5</i>
   <i name="POTIM">      0.10000000</i>
   <i name="SMASS">     -3.00000000</i>
   <i name="SCALEE">      1.00000000</i>
  </separator>
  <separator name="ionic md" >
   <i name="TEBEG">      0.00010000</i>
   <i name="TEEND">      0.00010000</i>
   <i type="int" name="NBLOCK">     1</i>
   <i type="int" name="KBLOCK">     1</i>
   <i type="int" name="NPACO">   256</i>
   <i name="APACO">     16.00000000</i>
  </separator>
  <separator name="symmetry" >
   <i type="int" name="ISYM">     0</i>
   <i name="SYMPREC">      0.00000010</i>
  </separator>
  <separator name="dos" >
   <i type="int" name="LORBIT">     0</i>
   <v name="RWIGS">     -1.00000000</v>
   <i type="int" name="NEDOS">   301</i>
   <i name="EMIN">     10.00000000</i>
   <i name="EMAX">    -10.00000000</i>
   <i name="EFERMI">      0.00000000</i>
  </separator>
  <separator name="writing" >
   <i type="int" name="NWRITE">     2</i>
   <i type="logical" name="LWAVE"> T  </i>
   <i type="logical" name="LDOWNSAMPLE"> F  </i>
   <i type="logical" name="LCHARG"> T  </i>
   <i type="logical" name="LPARD"> F  </i>
   <i type="logical" name="LVTOT"> F  </i>
   <i type="logical" name="LVHAR"> F  </i>
   <i type="logical" name="LELF"> F  </i>
   <i type="logical" name="LOPTICS"> F  </i>
   <v name="STM">      0.00000000      0.00000000      0.00000000      0.00000000      0.00000000      0.00000000      0.00000000</v>
  </separator>
  <separator name="performance" >
   <i type="int" name="NPAR">     1</i>
   <i type="int" name="NSIM">     4</i>
   <i type="int" name="NBLK">    -1</i>
   <i type="logical" name="LPLANE"> T  </i>
   <i type="logical" name="LSCALAPACK"> T  </i>
   <i type="logical" name="LSCAAWARE"> F  </i>
   <i type="logical" name="LSCALU"> F  </i>
   <i type="logical" name="LASYNC"> F  </i>
   <i type="logical" name="LORBITALREAL"> F  </i>
  </separator>
  <separator name="miscellaneous" >
   <i type="int" name="IDIOT">     3</i>
   <i type="int" name="ISPECIAL">     0</i>
   <i type="logical" name="LMUSIC"> F  </i>
   <v name="POMASS">      0.01000000</v>
   <v name="DARWINR">      0.00000000</v>
   <v name="DARWINV">      1.00000000</v>
   <i type="logical" name="LCORR"> T  </i>
  </separator>
  <i type="logical" name="GGA_COMPAT"> F  </i>
  <i type="logical" name="LBERRY"> F  </i>
  <i type="int" name="ICORELEVEL">     0</i>
  <i type="logical" name="LDAU"> F  </i>
  <i type="int" name="I_CONSTRAINED_M">     0</i>
  <separator name="electronic exchange-correlation" >
   <i type="string" name="GGA">--</i>
   <i type="int" name="VOSKOWN">     0</i>
   <i type="logical" name="LHFCALC"> F  </i>
   <i type="string" name="PRECFOCK"></i>
   <i type="logical" name="LSYMGRAD"> F  </i>
   <i type="logical" name="LHFONE"> F  </i>
   <i type="logical" name="LRHFCALC"> F  </i>
   <i type="logical" name="LTHOMAS"> F  </i>
   <i type="logical" name="LMODELHF"> F  </i>
   <i name="ENCUT4O">     -1.00000000</i>
   <i type="int" name="EXXOEP">     0</i>
   <i type="int" name="FOURORBIT">     0</i>
   <i name="AEXX">      0.00000000</i>
   <i name="HFALPHA">      0.00000000</i>
   <i name="MCALPHA">      0.00000000</i>
   <i name="ALDAX">      1.00000000</i>
   <i name="AGGAX">      1.00000000</i>
   <i name="ALDAC">      1.00000000</i>
   <i name="AGGAC">      1.00000000</i>
   <i type="int" name="NKREDX">     1</i>
   <i type="int" name="NKREDY">     1</i>
   <i type="int" name="NKREDZ">     1</i>
   <i type="logical" name="SHIFTRED"> F  </i>
   <i type="logical" name="ODDONLY"> F  </i>
   <i type="logical" name="EVENONLY"> F  </i>
   <i type="int" name="LMAXFOCK">     0</i>
   <i type="int" name="NMAXFOCKAE">     0</i>
   <i type="logical" name="LFOCKAEDFT"> F  </i>
   <i name="HFSCREEN">      0.00000000</i>
   <i name="HFSCREENC">      0.00000000</i>
   <i type="int" name="NBANDSGWLOW">     0</i>
  </separator>
  <separator name="vdW DFT" >
   <i type="logical" name="LUSE_VDW"> F  </i>
   <i name="Zab_VDW">     -0.84910000</i>
   <i name="PARAM1">      0.12340000</i>
   <i name="PARAM2">      1.00000000</i>
   <i name="PARAM3">      0.00000000</i>
  </separator>
  <separator name="model GW" >
   <i type="int" name="MODEL_GW">     0</i>
   <i name="MODEL_EPS0">     36.05064879</i>
   <i name="MODEL_ALPHA">      1.00000000</i>
  </separator>
  <separator name="linear response parameters" >
   <i type="logical" name="LEPSILON"> F  </i>
   <i type="logical" name="LRPA"> F  </i>
   <i type="logical" name="LNABLA"> F  </i>
   <i type="logical" name="LVEL"> F  </i>
   <i type="int" name="KINTER">     0</i>
   <i name="CSHIFT">      0.10000000</i>
   <i name="OMEGAMAX">     -1.00000000</i>
   <i name="DEG_THRESHOLD">      0.00200000</i>
   <i name="RTIME">     -0.10000000</i>
   <i name="WPLASMAI">      0.00000000</i>
   <v name="DFIELD">      0.00000000      0.00000000      0.00000000</v>
   <v name="WPLASMA">      0.00000000      0.00000000      0.00000000      0.00000000      0.00000000      0.00000000      0.00000000      0.00000000      0.00000000</v>
  </separator>
  <separator name="orbital magnetization" >
   <i type="logical" name="NUCIND"> F  </i>
   <v name="MAGPOS">      0.00000000      0.00000000      0.00000000</v>
   <i type="logical" name="LNICSALL"> T  </i>
   <i type="logical" name="ORBITALMAG"> F  </i>
   <i type="logical" name="LMAGBLOCH"> F  </i>
   <i type="logical" name="LCHIMAG"> F  </i>
   <i type="logical" name="LGAUGE"> T  </i>
   <i type="int" name="MAGATOM">     0</i>
   <v name="MAGDIPOL">      0.00000000      0.00000000      0.00000000</v>
   <v name="AVECCONST">      0.00000000      0.00000000      0.00000000</v>
  </separator>
  <separator name="response functions" >
   <i type="logical" name="LADDER"> F  </i>
   <i type="logical" name="LRPAFORCE"> F  </i>
   <i type="logical" name="LFXC"> F  </i>
   <i type="logical" name="LHARTREE"> T  </i>
   <i type="int" name="IBSE">     0</i>
   <v type="int" name="KPOINT">    -1     0     0     0</v>
   <i type="logical" name="LTCTE"> F  </i>
   <i type="logical" name="LTETE"> F  </i>
   <i type="logical" name="LTRIPLET"> F  </i>
   <i type="logical" name="LFXCEPS"> F  </i>
   <i type="logical" name="LFXHEG"> F  </i>
   <i type="int" name="NATURALO">     2</i>
   <i type="logical" name="L2ORDER"> F  </i>
   <i type="logical" name="LMP2LT"> F  </i>
   <i type="logical" name="LUSEW"> F  </i>
   <i name="ENCUTGW">     -2.00000000</i>
   <i name="ENCUTGWSOFT">     -2.00000000</i>
   <i name="ENCUTLF">     -1.00000000</i>
   <i type="int" name="LMAXMP2">    -1</i>
   <i name="SCISSOR">      0.00000000</i>
   <i type="int" name="NOMEGA">     0</i>
   <i type="int" name="NOMEGAR">     0</i>
   <i type="int" name="NBANDSGW">    -1</i>
   <i type="int" name="NBANDSO">    -1</i>
   <i type="int" name="NBANDSV">    -1</i>
   <i type="int" name="NELM">    50</i>
   <i type="int" name="NELMHF">     1</i>
   <i type="int" name="DIM">     3</i>
   <i type="int" name="ANTIRES">     0</i>
   <i name="OMEGAMAX">    -30.00000000</i>
   <i name="OMEGAMIN">    -30.00000000</i>
   <i name="OMEGATL">   -200.00000000</i>
   <i type="int" name="OMEGAGRID">   140</i>
   <i name="CSHIFT">     -0.10000000</i>
   <i type="logical" name="SELFENERGY"> F  </i>
   <i type="logical" name="LSPECTRAL"> F  </i>
   <i type="logical" name="LSPECTRALGW"> F  </i>
   <i type="logical" name="LSINGLES"> F  </i>
   <i type="logical" name="LFERMIGW"> F  </i>
   <i type="logical" name="ODDONLYGW"> F  </i>
   <i type="logical" name="EVENONLYGW"> F  </i>
   <i type="int" name="NKREDLFX">     1</i>
   <i type="int" name="NKREDLFY">     1</i>
   <i type="int" name="NKREDLFZ">     1</i>
   <i type="int" name="MAXMEM">  2800</i>
   <i type="int" name="TELESCOPE">     0</i>
   <i type="int" name="TAUPAR">     1</i>
   <i type="int" name="OMEGAPAR">    -1</i>
   <i name="LAMBDA">      1.00000000</i>
  </separator>
  <separator name="External order field" >
   <i name="OFIELD_KAPPA">      0.00000000</i>
   <v name="OFIELD_K">      0.00000000      0.00000000      0.00000000</v>
   <i name="OFIELD_Q6_NEAR">      0.00000000</i>
   <i name="OFIELD_Q6_FAR">      0.00000000</i>
   <i name="OFIELD_A">      0.00000000</i>
  </separator>
 </parameters>
 <atominfo>
  <atoms>       1 </atoms>
  <types>       1 </types>
  <array name="atoms" >
   <dimension dim="1">ion</dimension>
   <field type="string">element</field>
   <field type="int">atomtype</field>
   <set>
    <rc><c>Og</c><c>   1</c></rc>
   </set>
  </array>
  <array name="atomtypes" >
   <dimension dim="1">type</dimension>
   <field type="int">atomspertype</field>
   <field type="string">element</field>
   <field>mass</field>
   <field>valence</field>
   <field type="string">pseudopotential</field>
   <set>
    <rc><c>   1</c><c>Og</c><c>      0.01000000</c><c>     18.00000000</c><c>  PAW Og, JanMewes Oct 18               </c></rc>
   </set>
  </array>
 </atominfo>
 <structure name="initialpos" >
  <crystal>
   <varray name="basis" >
    <v>       4.39635018       0.00000000       0.00000000 </v>
    <v>       2.19817509       3.80735094      -0.00000000 </v>
    <v>       2.19817509       1.26911698       3.58960489 </v>
   </varray>
   <i name="volume">     60.08441465 </i>
   <varray name="rec_basis" >
    <v>       0.22746141      -0.13132490      -0.09286073 </v>
    <v>       0.00000000       0.26264981      -0.09286073 </v>
    <v>      -0.00000000       0.00000000       0.27858219 </v>
   </varray>
  </crystal>
  <varray name="positions" >
   <v>       0.00000000       0.00000000       0.00000000 </v>
  </varray>
  <varray name="velocities" >
   <v>       0.00000000       0.00000000       0.00000000 </v>
  </varray>
 </structure>
 <calculation>
  <scstep>
   <time name="dav">   22.96   22.99</time>
   <time name="total">   23.73   23.78</time>
   <energy>
    <i name="alphaZ">     63.49827359 </i>
    <i name="ewald">  -1720.24414233 </i>
    <i name="hartreedc">   -656.84301177 </i>
    <i name="XCdc">    -51.49778814 </i>
    <i name="pawpsdc">   2361.87958540 </i>
    <i name="pawaedc">  -2435.91380396 </i>
    <i name="eentropy">     -0.00000000 </i>
    <i name="bandstr">   -351.56931767 </i>
    <i name="atom">   2639.90492407 </i>
    <i name="e_fr_energy">   -150.78528080 </i>
    <i name="e_wo_entrp">   -150.78528080 </i>
    <i name="e_0_energy">   -150.78528080 </i>
   </energy>
  </scstep>
  <scstep>
   <time name="dav">   24.70   24.74</time>
   <time name="total">   24.70   24.74</time>
   <energy>
    <i name="e_fr_energy">   -150.79833143 </i>
    <i name="e_wo_entrp">   -150.79833143 </i>
    <i name="e_0_energy">   -150.79833143 </i>
   </energy>
  </scstep>
  <scstep>
   <time name="dav">   26.84   26.88</time>
   <time name="total">   26.84   26.88</time>
   <energy>
    <i name="e_fr_energy">   -150.79883174 </i>
    <i name="e_wo_entrp">   -150.79883174 </i>
    <i name="e_0_energy">   -150.79883174 </i>
   </energy>
  </scstep>
  <scstep>
   <time name="dav">   26.09   26.13</time>
   <time name="total">   26.09   26.13</time>
   <energy>
    <i name="e_fr_energy">   -150.79884198 </i>
    <i name="e_wo_entrp">   -150.79884198 </i>
    <i name="e_0_energy">   -150.79884198 </i>
   </energy>
  </scstep>
  <scstep>
   <time name="dav">   27.08   27.12</time>
   <time name="total">   32.74   32.79</time>
   <energy>
    <i name="e_fr_energy">   -150.79884244 </i>
    <i name="e_wo_entrp">   -150.79884244 </i>
    <i name="e_0_energy">   -150.79884244 </i>
   </energy>
  </scstep>
  <scstep>
   <time name="dav">   24.32   24.35</time>
   <time name="total">   30.68   30.72</time>
   <energy>
    <i name="e_fr_energy">   -149.77855944 </i>
    <i name="e_wo_entrp">   -149.77855944 </i>
    <i name="e_0_energy">   -149.77855944 </i>
   </energy>
  </scstep>
  <scstep>
   <time name="dav">   24.22   24.26</time>
   <time name="total">   30.59   30.65</time>
   <energy>
    <i name="e_fr_energy">   -149.70949371 </i>
    <i name="e_wo_entrp">   -149.70949355 </i>
    <i name="e_0_energy">   -149.70949363 </i>
   </energy>
  </scstep>
  <scstep>
   <time name="dav">   25.53   25.57</time>
   <time name="total">   31.90   31.95</time>
   <energy>
    <i name="e_fr_energy">   -149.70828169 </i>
    <i name="e_wo_entrp">   -149.70828160 </i>
    <i name="e_0_energy">   -149.70828165 </i>
   </energy>
  </scstep>
  <scstep>
   <time name="dav">   25.85   25.89</time>
   <time name="total">   32.22   32.28</time>
   <energy>
    <i name="e_fr_energy">   -149.70750794 </i>
    <i name="e_wo_entrp">   -149.70750782 </i>
    <i name="e_0_energy">   -149.70750788 </i>
   </energy>
  </scstep>
  <scstep>
   <time name="dav">   22.23   22.26</time>
   <time name="total">   28.60   28.64</time>
   <energy>
    <i name="e_fr_energy">   -149.70732521 </i>
    <i name="e_wo_entrp">   -149.70732503 </i>
    <i name="e_0_energy">   -149.70732512 </i>
   </energy>
  </scstep>
  <scstep>
   <time name="dav">   26.72   26.76</time>
   <time name="total">   33.05   33.10</time>
   <energy>
    <i name="e_fr_energy">   -149.70731168 </i>
    <i name="e_wo_entrp">   -149.70731150 </i>
    <i name="e_0_energy">   -149.70731159 </i>
   </energy>
  </scstep>
  <scstep>
   <time name="dav">   22.67   22.70</time>
   <time name="total">   29.01   29.06</time>
   <energy>
    <i name="e_fr_energy">   -149.70730114 </i>
    <i name="e_wo_entrp">   -149.70730097 </i>
    <i name="e_0_energy">   -149.70730106 </i>
   </energy>
  </scstep>
  <scstep>
   <time name="dav">   24.39   24.43</time>
   <time name="total">   30.75   30.80</time>
   <energy>
    <i name="e_fr_energy">   -149.70729876 </i>
    <i name="e_wo_entrp">   -149.70729858 </i>
    <i name="e_0_energy">   -149.70729867 </i>
   </energy>
  </scstep>
  <scstep>
   <time name="dav">   23.09   23.12</time>
   <time name="total">   29.43   29.47</time>
   <energy>
    <i name="e_fr_energy">   -149.70729839 </i>
    <i name="e_wo_entrp">   -149.70729821 </i>
    <i name="e_0_energy">   -149.70729830 </i>
   </energy>
  </scstep>
  <scstep>
   <time name="dav">   23.17   23.20</time>
   <time name="total">   29.50   29.55</time>
   <energy>
    <i name="e_fr_energy">   -149.70729839 </i>
    <i name="e_wo_entrp">   -149.70729821 </i>
    <i name="e_0_energy">   -149.70729830 </i>
   </energy>
  </scstep>
  <scstep>
   <time name="dav">   22.19   22.22</time>
   <time name="total">   28.52   28.56</time>
   <energy>
    <i name="e_fr_energy">   -149.70729844 </i>
    <i name="e_wo_entrp">   -149.70729826 </i>
    <i name="e_0_energy">   -149.70729835 </i>
   </energy>
  </scstep>
  <scstep>
   <time name="dav">   22.11   22.14</time>
   <time name="total">   28.43   28.47</time>
   <energy>
    <i name="e_fr_energy">   -149.70729848 </i>
    <i name="e_wo_entrp">   -149.70729830 </i>
    <i name="e_0_energy">   -149.70729839 </i>
   </energy>
  </scstep>
  <scstep>
   <time name="dav">   22.05   22.08</time>
   <time name="total">   28.38   28.42</time>
   <energy>
    <i name="e_fr_energy">   -149.70729861 </i>
    <i name="e_wo_entrp">   -149.70729843 </i>
    <i name="e_0_energy">   -149.70729852 </i>
   </energy>
  </scstep>
  <scstep>
   <time name="dav">   21.73   21.76</time>
   <time name="total">   28.05   28.09</time>
   <energy>
    <i name="e_fr_energy">   -149.70729874 </i>
    <i name="e_wo_entrp">   -149.70729857 </i>
    <i name="e_0_energy">   -149.70729866 </i>
   </energy>
  </scstep>
  <scstep>
   <time name="dav">   21.85   21.88</time>
   <time name="total">   28.18   28.22</time>
   <energy>
    <i name="e_fr_energy">   -149.70729883 </i>
    <i name="e_wo_entrp">   -149.70729865 </i>
    <i name="e_0_energy">   -149.70729874 </i>
   </energy>
  </scstep>
  <scstep>
   <time name="dav">   21.96   21.99</time>
   <time name="total">   28.29   28.34</time>
   <energy>
    <i name="e_fr_energy">   -149.70729890 </i>
    <i name="e_wo_entrp">   -149.70729872 </i>
    <i name="e_0_energy">   -149.70729881 </i>
   </energy>
  </scstep>
  <scstep>
   <time name="dav">   21.84   21.87</time>
   <time name="total">   28.12   28.26</time>
   <energy>
    <i name="e_fr_energy">   -149.70729894 </i>
    <i name="e_wo_entrp">   -149.70729876 </i>
    <i name="e_0_energy">   -149.70729885 </i>
   </energy>
  </scstep>
  <scstep>
   <time name="dav">   21.14   21.18</time>
   <time name="total">   27.45   27.50</time>
   <energy>
    <i name="e_fr_energy">   -149.70729897 </i>
    <i name="e_wo_entrp">   -149.70729879 </i>
    <i name="e_0_energy">   -149.70729888 </i>
   </energy>
  </scstep>
  <scstep>
   <time name="dav">   20.91   20.95</time>
   <time name="total">   27.24   27.30</time>
   <energy>
    <i name="e_fr_energy">   -149.70729899 </i>
    <i name="e_wo_entrp">   -149.70729881 </i>
    <i name="e_0_energy">   -149.70729890 </i>
   </energy>
  </scstep>
  <scstep>
   <time name="dav">   20.82   20.86</time>
   <time name="total">   27.22   27.27</time>
   <energy>
    <i name="e_fr_energy">   -149.70729900 </i>
    <i name="e_wo_entrp">   -149.70729882 </i>
    <i name="e_0_energy">   -149.70729891 </i>
   </energy>
  </scstep>
  <scstep>
   <time name="dav">   20.42   20.45</time>
   <time name="total">   21.18   21.23</time>
   <energy>
    <i name="alphaZ">     63.49827359 </i>
    <i name="ewald">  -1720.24414233 </i>
    <i name="hartreedc">   -685.44877964 </i>
    <i name="XCdc">    -50.76305216 </i>
    <i name="pawpsdc">   2404.90751887 </i>
    <i name="pawaedc">  -2481.15744160 </i>
    <i name="eentropy">     -0.00000018 </i>
    <i name="bandstr">   -320.40459963 </i>
    <i name="atom">   2639.90492407 </i>
    <i name="e_fr_energy">   -149.70729900 </i>
    <i name="e_wo_entrp">   -149.70729882 </i>
    <i name="e_0_energy">   -149.70729891 </i>
   </energy>
  </scstep>
  <structure>
   <crystal>
    <varray name="basis" >
     <v>       4.39635018       0.00000000       0.00000000 </v>
     <v>       2.19817509       3.80735094      -0.00000000 </v>
     <v>       2.19817509       1.26911698       3.58960489 </v>
    </varray>
    <i name="volume">     60.08441465 </i>
    <varray name="rec_basis" >
     <v>       0.22746141      -0.13132490      -0.09286073 </v>
     <v>       0.00000000       0.26264981      -0.09286073 </v>
     <v>      -0.00000000       0.00000000       0.27858219 </v>
    </varray>
   </crystal>
   <varray name="positions" >
    <v>       0.00000000       0.00000000       0.00000000 </v>
   </varray>
  </structure>
  <varray name="forces" >
   <v>       0.00000102      -0.00000114      -0.00000048 </v>
  </varray>
  <varray name="stress" >
   <v>    -155.30977556       0.45292942       0.32029601 </v>
   <v>       0.45292861    -155.83271338       0.18489824 </v>
   <v>       0.32029607       0.18489872    -155.96390600 </v>
  </varray>
  <energy>
   <i name="e_fr_energy">   -149.70729900 </i>
   <i name="e_wo_entrp">   -149.70729891 </i>
   <i name="e_0_energy">     -0.00000018 </i>
  </energy>
  <time name="totalsc">  850.32  852.10</time>
  <eigenvalues>
   <array>
    <dimension dim="1">band</dimension>
    <dimension dim="2">kpoint</dimension>
    <dimension dim="3">spin</dimension>
    <field>eigene</field>
    <field>occ</field>
    <set>
     <set comment="spin 1">
      <set comment="kpoint 1">
       <r>  -30.9657    1.0000 </r>
       <r>  -30.9657    1.0000 </r>
       <r>  -30.9647    1.0000 </r>
       <r>  -30.9647    1.0000 </r>
       <r>  -24.3031    1.0000 </r>
       <r>  -24.3031    1.0000 </r>
       <r>  -24.2978    1.0000 </r>
       <r>  -24.2978    1.0000 </r>
       <r>  -24.2956    1.0000 </r>
       <r>  -24.2956    1.0000 </r>
       <r>  -20.5023    1.0000 </r>
       <r>  -20.5023    1.0000 </r>
       <r>   -7.3196    1.0000 </r>
       <r>   -7.3196    1.0000 </r>
       <r>    0.1597    1.0000 </r>
       <r>    0.1597    1.0000 </r>
       <r>    2.6360    1.0000 </r>
       <r>    2.6360    1.0000 </r>
       <r>    5.9436    0.0000 </r>
       <r>    5.9436    0.0000 </r>
       <r>   10.0030    0.0000 </r>
       <r>   10.0030    0.0000 </r>
       <r>   10.3632    0.0000 </r>
       <r>   10.3632    0.0000 </r>
       <r>   10.4146    0.0000 </r>
       <r>   10.4146    0.0000 </r>
       <r>   11.9430    0.0000 </r>
       <r>   11.9430    0.0000 </r>
       <r>   14.6138    0.0000 </r>
       <r>   14.6138    0.0000 </r>
       <r>   14.7495    0.0000 </r>
       <r>   14.7495    0.0000 </r>
       <r>   15.6289    0.0000 </r>
       <r>   15.6289    0.0000 </r>
       <r>   16.5880    0.0000 </r>
       <r>   16.5880    0.0000 </r>
       <r>   16.7517    0.0000 </r>
       <r>   16.7517    0.0000 </r>
       <r>   18.5011    0.0000 </r>
       <r>   18.5011    0.0000 </r>
       <r>   19.1008    0.0000 </r>
       <r>   19.1008    0.0000 </r>
       <r>   19.1379    0.0000 </r>
       <r>   19.1379    0.0000 </r>
       <r>   20.8520    0.0000 </r>
       <r>   20.8520    0.0000 </r>
       <r>   23.1180    0.0000 </r>
       <r>   23.1181    0.0000 </r>
       <r>   23.7774    0.0000 </r>
       <r>   23.7774    0.0000 </r>
       <r>   25.2056    0.0000 </r>
       <r>   25.2056    0.0000 </r>
       <r>   25.3945    0.0000 </r>
       <r>   25.3945    0.0000 </r>
       <r>   25.4363    0.0000 </r>
       <r>   25.4363    0.0000 </r>
       <r>   26.9745    0.0000 </r>
       <r>   26.9745    0.0000 </r>
       <r>   27.3891    0.0000 </r>
       <r>   27.3892    0.0000 </r>
       <r>   28.6366    0.0000 </r>
       <r>   28.6366    0.0000 </r>
       <r>   29.6207    0.0000 </r>
       <r>   29.6207    0.0000 </r>
      </set>
      <set comment="kpoint 2">
       <r>  -30.9654    1.0000 </r>
       <r>  -30.9654    1.0000 </r>
       <r>  -30.9646    1.0000 </r>
       <r>  -30.9646    1.0000 </r>
       <r>  -24.3030    1.0000 </r>
       <r>  -24.3029    1.0000 </r>
       <r>  -24.2977    1.0000 </r>
       <r>  -24.2976    1.0000 </r>
       <r>  -24.2955    1.0000 </r>
       <r>  -24.2955    1.0000 </r>
       <r>  -20.5030    1.0000 </r>
       <r>  -20.5030    1.0000 </r>
       <r>   -7.3172    1.0000 </r>
       <r>   -7.3172    1.0000 </r>
       <r>    0.1682    1.0000 </r>
       <r>    0.1682    1.0000 </r>
       <r>    2.6389    1.0000 </r>
       <r>    2.6389    1.0000 </r>
       <r>    5.9440    0.0000 </r>
       <r>    5.9440    0.0000 </r>
       <r>   10.0099    0.0000 </r>
       <r>   10.0099    0.0000 </r>
       <r>   10.3614    0.0000 </r>
       <r>   10.3614    0.0000 </r>
       <r>   10.4259    0.0000 </r>
       <r>   10.4259    0.0000 </r>
       <r>   11.9006    0.0000 </r>
       <r>   11.9007    0.0000 </r>
       <r>   14.5286    0.0000 </r>
       <r>   14.5286    0.0000 </r>
       <r>   14.6894    0.0000 </r>
       <r>   14.6894    0.0000 </r>
       <r>   15.7081    0.0000 </r>
       <r>   15.7081    0.0000 </r>
       <r>   16.6665    0.0000 </r>
       <r>   16.6665    0.0000 </r>
       <r>   16.8167    0.0000 </r>
       <r>   16.8167    0.0000 </r>
       <r>   18.4505    0.0000 </r>
       <r>   18.4505    0.0000 </r>
       <r>   19.0741    0.0000 </r>
       <r>   19.0741    0.0000 </r>
       <r>   19.1039    0.0000 </r>
       <r>   19.1039    0.0000 </r>
       <r>   20.8501    0.0000 </r>
       <r>   20.8501    0.0000 </r>
       <r>   23.0530    0.0000 </r>
       <r>   23.0530    0.0000 </r>
       <r>   23.7980    0.0000 </r>
       <r>   23.7980    0.0000 </r>
       <r>   25.1016    0.0000 </r>
       <r>   25.1016    0.0000 </r>
       <r>   25.4339    0.0000 </r>
       <r>   25.4339    0.0000 </r>
       <r>   25.5103    0.0000 </r>
       <r>   25.5103    0.0000 </r>
       <r>   26.9960    0.0000 </r>
       <r>   26.9960    0.0000 </r>
       <r>   27.3965    0.0000 </r>
       <r>   27.3965    0.0000 </r>
       <r>   28.6694    0.0000 </r>
       <r>   28.6695    0.0000 </r>
       <r>   29.6557    0.0000 </r>
       <r>   29.6557    0.0000 </r>
      </set>
      <set comment="kpoint 3">
       <r>  -30.9624    1.0000 </r>
       <r>  -30.9624    1.0000 </r>
       <r>  -30.9602    1.0000 </r>
       <r>  -30.9602    1.0000 </r>
       <r>  -24.2990    1.0000 </r>
       <r>  -24.2990    1.0000 </r>
       <r>  -24.2967    1.0000 </r>
       <r>  -24.2967    1.0000 </r>
       <r>  -24.2931    1.0000 </r>
       <r>  -24.2930    1.0000 </r>
       <r>  -20.5050    1.0000 </r>
       <r>  -20.5050    1.0000 </r>
       <r>   -7.3101    1.0000 </r>
       <r>   -7.3101    1.0000 </r>
       <r>    0.1938    1.0000 </r>
       <r>    0.1938    1.0000 </r>
       <r>    2.6474    1.0000 </r>
       <r>    2.6474    1.0000 </r>
       <r>    5.9447    0.0000 </r>
       <r>    5.9447    0.0000 </r>
       <r>   10.0307    0.0000 </r>
       <r>   10.0307    0.0000 </r>
       <r>   10.3581    0.0000 </r>
       <r>   10.3581    0.0000 </r>
       <r>   10.4565    0.0000 </r>
       <r>   10.4565    0.0000 </r>
       <r>   11.7845    0.0000 </r>
       <r>   11.7845    0.0000 </r>
       <r>   14.3238    0.0000 </r>
       <r>   14.3238    0.0000 </r>
       <r>   14.5298    0.0000 </r>
       <r>   14.5298    0.0000 </r>
       <r>   15.9053    0.0000 </r>
       <r>   15.9053    0.0000 </r>
       <r>   16.8824    0.0000 </r>
       <r>   16.8824    0.0000 </r>
       <r>   16.9915    0.0000 </r>
       <r>   16.9915    0.0000 </r>
       <r>   18.3029    0.0000 </r>
       <r>   18.3029    0.0000 </r>
       <r>   18.9958    0.0000 </r>
       <r>   18.9958    0.0000 </r>
       <r>   19.0065    0.0000 </r>
       <r>   19.0065    0.0000 </r>
       <r>   20.8444    0.0000 </r>
       <r>   20.8444    0.0000 </r>
       <r>   22.8751    0.0000 </r>
       <r>   22.8751    0.0000 </r>
       <r>   23.8352    0.0000 </r>
       <r>   23.8352    0.0000 </r>
       <r>   24.9867    0.0000 </r>
       <r>   24.9867    0.0000 </r>
       <r>   25.4267    0.0000 </r>
       <r>   25.4267    0.0000 </r>
       <r>   25.6781    0.0000 </r>
       <r>   25.6781    0.0000 </r>
       <r>   27.0580    0.0000 </r>
       <r>   27.0580    0.0000 </r>
       <r>   27.4203    0.0000 </r>
       <r>   27.4203    0.0000 </r>
       <r>   28.7685    0.0000 </r>
       <r>   28.7685    0.0000 </r>
       <r>   29.7649    0.0000 </r>
       <r>   29.7649    0.0000 </r>
      </set>
      <set comment="kpoint 4">
       <r>  -30.9662    1.0000 </r>
       <r>  -30.9662    1.0000 </r>
       <r>  -30.9549    1.0000 </r>
       <r>  -30.9549    1.0000 </r>
       <r>  -24.2978    1.0000 </r>
       <r>  -24.2977    1.0000 </r>
       <r>  -24.2970    1.0000 </r>
       <r>  -24.2969    1.0000 </r>
       <r>  -24.2928    1.0000 </r>
       <r>  -24.2928    1.0000 </r>
       <r>  -20.5084    1.0000 </r>
       <r>  -20.5084    1.0000 </r>
       <r>   -7.2985    1.0000 </r>
       <r>   -7.2985    1.0000 </r>
       <r>    0.2365    1.0000 </r>
       <r>    0.2365    1.0000 </r>
       <r>    2.6615    1.0000 </r>
       <r>    2.6615    1.0000 </r>
       <r>    5.9447    0.0000 </r>
       <r>    5.9447    0.0000 </r>
       <r>   10.0650    0.0000 </r>
       <r>   10.0650    0.0000 </r>
       <r>   10.3527    0.0000 </r>
       <r>   10.3527    0.0000 </r>
       <r>   10.5008    0.0000 </r>
       <r>   10.5008    0.0000 </r>
       <r>   11.6211    0.0000 </r>
       <r>   11.6211    0.0000 </r>
       <r>   14.0673    0.0000 </r>
       <r>   14.0673    0.0000 </r>
       <r>   14.3090    0.0000 </r>
       <r>   14.3090    0.0000 </r>
       <r>   16.1684    0.0000 </r>
       <r>   16.1684    0.0000 </r>
       <r>   17.1945    0.0000 </r>
       <r>   17.1945    0.0000 </r>
       <r>   17.2355    0.0000 </r>
       <r>   17.2355    0.0000 </r>
       <r>   18.0696    0.0000 </r>
       <r>   18.0696    0.0000 </r>
       <r>   18.8492    0.0000 </r>
       <r>   18.8492    0.0000 </r>
       <r>   18.8624    0.0000 </r>
       <r>   18.8625    0.0000 </r>
       <r>   20.8462    0.0000 </r>
       <r>   20.8462    0.0000 </r>
       <r>   22.5997    0.0000 </r>
       <r>   22.5997    0.0000 </r>
       <r>   23.8486    0.0000 </r>
       <r>   23.8486    0.0000 </r>
       <r>   24.9487    0.0000 </r>
       <r>   24.9488    0.0000 </r>
       <r>   25.4158    0.0000 </r>
       <r>   25.4158    0.0000 </r>
       <r>   25.8374    0.0000 </r>
       <r>   25.8374    0.0000 </r>
       <r>   27.1421    0.0000 </r>
       <r>   27.1421    0.0000 </r>
       <r>   27.4583    0.0000 </r>
       <r>   27.4583    0.0000 </r>
       <r>   28.9220    0.0000 </r>
       <r>   28.9220    0.0000 </r>
       <r>   29.9478    0.0000 </r>
       <r>   29.9478    0.0000 </r>
      </set>
      <set comment="kpoint 5">
       <r>  -30.9652    1.0000 </r>
       <r>  -30.9652    1.0000 </r>
       <r>  -30.9548    1.0000 </r>
       <r>  -30.9548    1.0000 </r>
       <r>  -24.2972    1.0000 </r>
       <r>  -24.2972    1.0000 </r>
       <r>  -24.2969    1.0000 </r>
       <r>  -24.2969    1.0000 </r>
       <r>  -24.2928    1.0000 </r>
       <r>  -24.2928    1.0000 </r>
       <r>  -20.5130    1.0000 </r>
       <r>  -20.5130    1.0000 </r>
       <r>   -7.2828    1.0000 </r>
       <r>   -7.2827    1.0000 </r>
       <r>    0.2961    1.0000 </r>
       <r>    0.2961    1.0000 </r>
       <r>    2.6808    1.0000 </r>
       <r>    2.6808    1.0000 </r>
       <r>    5.9418    0.0000 </r>
       <r>    5.9418    0.0000 </r>
       <r>   10.1121    0.0000 </r>
       <r>   10.1121    0.0000 </r>
       <r>   10.3361    0.0000 </r>
       <r>   10.3361    0.0000 </r>
       <r>   10.5558    0.0000 </r>
       <r>   10.5558    0.0000 </r>
       <r>   11.4467    0.0000 </r>
       <r>   11.4467    0.0000 </r>
       <r>   13.7942    0.0000 </r>
       <r>   13.7942    0.0000 </r>
       <r>   14.0574    0.0000 </r>
       <r>   14.0574    0.0000 </r>
       <r>   16.4633    0.0000 </r>
       <r>   16.4633    0.0000 </r>
       <r>   17.5145    0.0000 </r>
       <r>   17.5146    0.0000 </r>
       <r>   17.5628    0.0000 </r>
       <r>   17.5628    0.0000 </r>
       <r>   17.7790    0.0000 </r>
       <r>   17.7790    0.0000 </r>
       <r>   18.6552    0.0000 </r>
       <r>   18.6552    0.0000 </r>
       <r>   18.6950    0.0000 </r>
       <r>   18.6950    0.0000 </r>
       <r>   20.8331    0.0000 </r>
       <r>   20.8331    0.0000 </r>
       <r>   22.2476    0.0000 </r>
       <r>   22.2476    0.0000 </r>
       <r>   23.8275    0.0000 </r>
       <r>   23.8275    0.0000 </r>
       <r>   24.9992    0.0000 </r>
       <r>   24.9992    0.0000 </r>
       <r>   25.4018    0.0000 </r>
       <r>   25.4018    0.0000 </r>
       <r>   25.9897    0.0000 </r>
       <r>   25.9897    0.0000 </r>
       <r>   27.2262    0.0000 </r>
       <r>   27.2262    0.0000 </r>
       <r>   27.5115    0.0000 </r>
       <r>   27.5115    0.0000 </r>
       <r>   29.1148    0.0000 </r>
       <r>   29.1148    0.0000 </r>
       <r>   30.2134    0.0000 </r>
       <r>   30.2134    0.0000 </r>
      </set>
      <set comment="kpoint 6">
       <r>  -30.9638    1.0000 </r>
       <r>  -30.9638    1.0000 </r>
       <r>  -30.9545    1.0000 </r>
       <r>  -30.9545    1.0000 </r>
       <r>  -24.2966    1.0000 </r>
       <r>  -24.2966    1.0000 </r>
       <r>  -24.2963    1.0000 </r>
       <r>  -24.2962    1.0000 </r>
       <r>  -24.2926    1.0000 </r>
       <r>  -24.2926    1.0000 </r>
       <r>  -20.5187    1.0000 </r>
       <r>  -20.5187    1.0000 </r>
       <r>   -7.2631    1.0000 </r>
       <r>   -7.2631    1.0000 </r>
       <r>    0.3726    1.0000 </r>
       <r>    0.3726    1.0000 </r>
       <r>    2.7051    1.0000 </r>
       <r>    2.7051    1.0000 </r>
       <r>    5.9334    0.0000 </r>
       <r>    5.9334    0.0000 </r>
       <r>   10.1714    0.0000 </r>
       <r>   10.1714    0.0000 </r>
       <r>   10.2909    0.0000 </r>
       <r>   10.2909    0.0000 </r>
       <r>   10.6191    0.0000 </r>
       <r>   10.6191    0.0000 </r>
       <r>   11.3025    0.0000 </r>
       <r>   11.3025    0.0000 </r>
       <r>   13.5218    0.0000 </r>
       <r>   13.5218    0.0000 </r>
       <r>   13.7953    0.0000 </r>
       <r>   13.7953    0.0000 </r>
       <r>   16.7357    0.0000 </r>
       <r>   16.7357    0.0000 </r>
       <r>   17.4586    0.0000 </r>
       <r>   17.4586    0.0000 </r>
       <r>   17.7968    0.0000 </r>
       <r>   17.7968    0.0000 </r>
       <r>   17.9833    0.0000 </r>
       <r>   17.9833    0.0000 </r>
       <r>   18.4368    0.0000 </r>
       <r>   18.4368    0.0000 </r>
       <r>   18.5043    0.0000 </r>
       <r>   18.5043    0.0000 </r>
       <r>   20.8171    0.0000 </r>
       <r>   20.8171    0.0000 </r>
       <r>   21.8385    0.0000 </r>
       <r>   21.8385    0.0000 </r>
       <r>   23.7910    0.0000 </r>
       <r>   23.7910    0.0000 </r>
       <r>   25.1117    0.0000 </r>
       <r>   25.1117    0.0000 </r>
       <r>   25.3879    0.0000 </r>
       <r>   25.3879    0.0000 </r>
       <r>   26.1421    0.0000 </r>
       <r>   26.1421    0.0000 </r>
       <r>   27.3020    0.0000 </r>
       <r>   27.3020    0.0000 </r>
       <r>   27.5806    0.0000 </r>
       <r>   27.5806    0.0000 </r>
       <r>   29.3300    0.0000 </r>
       <r>   29.3300    0.0000 </r>
       <r>   30.5651    0.0000 </r>
       <r>   30.5651    0.0000 </r>
      </set>
      <set comment="kpoint 7">
       <r>  -30.9554    1.0000 </r>
       <r>  -30.9554    1.0000 </r>
       <r>  -30.9484    1.0000 </r>
       <r>  -30.9484    1.0000 </r>
       <r>  -24.2926    1.0000 </r>
       <r>  -24.2926    1.0000 </r>
       <r>  -24.2911    1.0000 </r>
       <r>  -24.2910    1.0000 </r>
       <r>  -24.2877    1.0000 </r>
       <r>  -24.2877    1.0000 </r>
       <r>  -20.5254    1.0000 </r>
       <r>  -20.5254    1.0000 </r>
       <r>   -7.2402    1.0000 </r>
       <r>   -7.2402    1.0000 </r>
       <r>    0.4659    1.0000 </r>
       <r>    0.4659    1.0000 </r>
       <r>    2.7339    1.0000 </r>
       <r>    2.7340    1.0000 </r>
       <r>    5.9157    0.0000 </r>
       <r>    5.9157    0.0000 </r>
       <r>   10.1995    0.0000 </r>
       <r>   10.1995    0.0000 </r>
       <r>   10.2415    0.0000 </r>
       <r>   10.2415    0.0000 </r>
       <r>   10.6885    0.0000 </r>
       <r>   10.6885    0.0000 </r>
       <r>   11.2253    0.0000 </r>
       <r>   11.2253    0.0000 </r>
       <r>   13.2599    0.0000 </r>
       <r>   13.2599    0.0000 </r>
       <r>   13.5359    0.0000 </r>
       <r>   13.5359    0.0000 </r>
       <r>   16.7560    0.0000 </r>
       <r>   16.7560    0.0000 </r>
       <r>   17.3548    0.0000 </r>
       <r>   17.3548    0.0000 </r>
       <r>   17.9840    0.0000 </r>
       <r>   17.9840    0.0000 </r>
       <r>   18.1868    0.0000 </r>
       <r>   18.1868    0.0000 </r>
       <r>   18.3826    0.0000 </r>
       <r>   18.3826    0.0000 </r>
       <r>   18.4459    0.0000 </r>
       <r>   18.4459    0.0000 </r>
       <r>   20.8026    0.0000 </r>
       <r>   20.8026    0.0000 </r>
       <r>   21.3919    0.0000 </r>
       <r>   21.3920    0.0000 </r>
       <r>   23.7636    0.0000 </r>
       <r>   23.7636    0.0000 </r>
       <r>   25.2633    0.0000 </r>
       <r>   25.2634    0.0000 </r>
       <r>   25.3789    0.0000 </r>
       <r>   25.3789    0.0000 </r>
       <r>   26.3067    0.0000 </r>
       <r>   26.3067    0.0000 </r>
       <r>   27.3690    0.0000 </r>
       <r>   27.3690    0.0000 </r>
       <r>   27.6726    0.0000 </r>
       <r>   27.6726    0.0000 </r>
       <r>   29.5558    0.0000 </r>
       <r>   29.5558    0.0000 </r>
       <r>   30.9953    0.0000 </r>
       <r>   30.9961    0.0000 </r>
      </set>
      <set comment="kpoint 8">
       <r>  -30.9438    1.0000 </r>
       <r>  -30.9438    1.0000 </r>
       <r>  -30.9353    1.0000 </r>
       <r>  -30.9353    1.0000 </r>
       <r>  -24.2868    1.0000 </r>
       <r>  -24.2868    1.0000 </r>
       <r>  -24.2805    1.0000 </r>
       <r>  -24.2805    1.0000 </r>
       <r>  -24.2799    1.0000 </r>
       <r>  -24.2799    1.0000 </r>
       <r>  -20.5328    1.0000 </r>
       <r>  -20.5328    1.0000 </r>
       <r>   -7.2144    1.0000 </r>
       <r>   -7.2144    1.0000 </r>
       <r>    0.5757    1.0000 </r>
       <r>    0.5757    1.0000 </r>
       <r>    2.7668    1.0000 </r>
       <r>    2.7668    1.0000 </r>
       <r>    5.8839    0.0000 </r>
       <r>    5.8839    0.0000 </r>
       <r>   10.0652    0.0000 </r>
       <r>   10.0652    0.0000 </r>
       <r>   10.3207    0.0000 </r>
       <r>   10.3207    0.0000 </r>
       <r>   10.7624    0.0000 </r>
       <r>   10.7624    0.0000 </r>
       <r>   11.2268    0.0000 </r>
       <r>   11.2268    0.0000 </r>
       <r>   13.0140    0.0000 </r>
       <r>   13.0140    0.0000 </r>
       <r>   13.2867    0.0000 </r>
       <r>   13.2867    0.0000 </r>
       <r>   16.4206    0.0000 </r>
       <r>   16.4206    0.0000 </r>
       <r>   17.4623    0.0000 </r>
       <r>   17.4623    0.0000 </r>
       <r>   17.8538    0.0000 </r>
       <r>   17.8538    0.0000 </r>
       <r>   18.0784    0.0000 </r>
       <r>   18.0785    0.0000 </r>
       <r>   18.5526    0.0000 </r>
       <r>   18.5526    0.0000 </r>
       <r>   18.8846    0.0000 </r>
       <r>   18.8846    0.0000 </r>
       <r>   20.7851    0.0000 </r>
       <r>   20.7851    0.0000 </r>
       <r>   20.9220    0.0000 </r>
       <r>   20.9220    0.0000 </r>
       <r>   23.7616    0.0000 </r>
       <r>   23.7617    0.0000 </r>
       <r>   25.3809    0.0000 </r>
       <r>   25.3809    0.0000 </r>
       <r>   25.4272    0.0000 </r>
       <r>   25.4272    0.0000 </r>
       <r>   26.4816    0.0000 </r>
       <r>   26.4816    0.0000 </r>
       <r>   27.4386    0.0000 </r>
       <r>   27.4386    0.0000 </r>
       <r>   27.7835    0.0000 </r>
       <r>   27.7835    0.0000 </r>
       <r>   29.7786    0.0000 </r>
       <r>   29.7786    0.0000 </r>
       <r>   30.9741    0.0000 </r>
       <r>   30.9741    0.0000 </r>
      </set>
      <set comment="kpoint 9">
       <r>  -30.9603    1.0000 </r>
       <r>  -30.9603    1.0000 </r>
       <r>  -30.9515    1.0000 </r>
       <r>  -30.9515    1.0000 </r>
       <r>  -24.2994    1.0000 </r>
       <r>  -24.2994    1.0000 </r>
       <r>  -24.2910    1.0000 </r>
       <r>  -24.2910    1.0000 </r>
       <r>  -24.2904    1.0000 </r>
       <r>  -24.2904    1.0000 </r>
       <r>  -20.5409    1.0000 </r>
       <r>  -20.5409    1.0000 </r>
       <r>   -7.1867    1.0000 </r>
       <r>   -7.1867    1.0000 </r>
       <r>    0.7018    1.0000 </r>
       <r>    0.7018    1.0000 </r>
       <r>    2.8028    1.0000 </r>
       <r>    2.8028    1.0000 </r>
       <r>    5.8324    0.0000 </r>
       <r>    5.8324    0.0000 </r>
       <r>    9.9124    0.0000 </r>
       <r>    9.9124    0.0000 </r>
       <r>   10.4055    0.0000 </r>
       <r>   10.4055    0.0000 </r>
       <r>   10.8394    0.0000 </r>
       <r>   10.8394    0.0000 </r>
       <r>   11.2907    0.0000 </r>
       <r>   11.2907    0.0000 </r>
       <r>   12.7877    0.0000 </r>
       <r>   12.7878    0.0000 </r>
       <r>   13.0533    0.0000 </r>
       <r>   13.0533    0.0000 </r>
       <r>   15.9891    0.0000 </r>
       <r>   15.9891    0.0000 </r>
       <r>   17.3404    0.0000 </r>
       <r>   17.3404    0.0000 </r>
       <r>   17.5795    0.0000 </r>
       <r>   17.5796    0.0000 </r>
       <r>   18.2381    0.0000 </r>
       <r>   18.2381    0.0000 </r>
       <r>   18.8242    0.0000 </r>
       <r>   18.8242    0.0000 </r>
       <r>   19.3301    0.0000 </r>
       <r>   19.3301    0.0000 </r>
       <r>   20.4343    0.0000 </r>
       <r>   20.4343    0.0000 </r>
       <r>   20.7427    0.0000 </r>
       <r>   20.7427    0.0000 </r>
       <r>   23.7920    0.0000 </r>
       <r>   23.7920    0.0000 </r>
       <r>   25.3872    0.0000 </r>
       <r>   25.3872    0.0000 </r>
       <r>   25.5728    0.0000 </r>
       <r>   25.5728    0.0000 </r>
       <r>   26.6463    0.0000 </r>
       <r>   26.6463    0.0000 </r>
       <r>   27.4862    0.0000 </r>
       <r>   27.4862    0.0000 </r>
       <r>   27.8901    0.0000 </r>
       <r>   27.8901    0.0000 </r>
       <r>   29.9754    0.0000 </r>
       <r>   29.9754    0.0000 </r>
       <r>   30.8996    0.0000 </r>
       <r>   30.8996    0.0000 </r>
      </set>
      <set comment="kpoint 10">
       <r>  -30.9568    1.0000 </r>
       <r>  -30.9567    1.0000 </r>
       <r>  -30.9499    1.0000 </r>
       <r>  -30.9499    1.0000 </r>
       <r>  -24.2972    1.0000 </r>
       <r>  -24.2972    1.0000 </r>
       <r>  -24.2915    1.0000 </r>
       <r>  -24.2915    1.0000 </r>
       <r>  -24.2879    1.0000 </r>
       <r>  -24.2878    1.0000 </r>
       <r>  -20.5493    1.0000 </r>
       <r>  -20.5493    1.0000 </r>
       <r>   -7.1575    1.0000 </r>
       <r>   -7.1575    1.0000 </r>
       <r>    0.8438    1.0000 </r>
       <r>    0.8438    1.0000 </r>
       <r>    2.8415    1.0000 </r>
       <r>    2.8415    1.0000 </r>
       <r>    5.7562    0.0000 </r>
       <r>    5.7562    0.0000 </r>
       <r>    9.7702    0.0000 </r>
       <r>    9.7702    0.0000 </r>
       <r>   10.4929    0.0000 </r>
       <r>   10.4929    0.0000 </r>
       <r>   10.9183    0.0000 </r>
       <r>   10.9183    0.0000 </r>
       <r>   11.3979    0.0000 </r>
       <r>   11.3979    0.0000 </r>
       <r>   12.5890    0.0000 </r>
       <r>   12.5890    0.0000 </r>
       <r>   12.8451    0.0000 </r>
       <r>   12.8451    0.0000 </r>
       <r>   15.5391    0.0000 </r>
       <r>   15.5391    0.0000 </r>
       <r>   17.0696    0.0000 </r>
       <r>   17.0696    0.0000 </r>
       <r>   17.2747    0.0000 </r>
       <r>   17.2747    0.0000 </r>
       <r>   18.5483    0.0000 </r>
       <r>   18.5483    0.0000 </r>
       <r>   19.1020    0.0000 </r>
       <r>   19.1020    0.0000 </r>
       <r>   19.7633    0.0000 </r>
       <r>   19.7633    0.0000 </r>
       <r>   19.9522    0.0000 </r>
       <r>   19.9522    0.0000 </r>
       <r>   20.7186    0.0000 </r>
       <r>   20.7186    0.0000 </r>
       <r>   23.8751    0.0000 </r>
       <r>   23.8751    0.0000 </r>
       <r>   25.4203    0.0000 </r>
       <r>   25.4203    0.0000 </r>
       <r>   25.7221    0.0000 </r>
       <r>   25.7221    0.0000 </r>
       <r>   26.8239    0.0000 </r>
       <r>   26.8239    0.0000 </r>
       <r>   27.5389    0.0000 </r>
       <r>   27.5389    0.0000 </r>
       <r>   28.0209    0.0000 </r>
       <r>   28.0209    0.0000 </r>
       <r>   30.1577    0.0000 </r>
       <r>   30.1577    0.0000 </r>
       <r>   30.8002    0.0000 </r>
       <r>   30.8002    0.0000 </r>
      </set>
      <set comment="kpoint 11">
       <r>  -30.9484    1.0000 </r>
       <r>  -30.9484    1.0000 </r>
       <r>  -30.9460    1.0000 </r>
       <r>  -30.9460    1.0000 </r>
       <r>  -24.2929    1.0000 </r>
       <r>  -24.2929    1.0000 </r>
       <r>  -24.2884    1.0000 </r>
       <r>  -24.2884    1.0000 </r>
       <r>  -24.2836    1.0000 </r>
       <r>  -24.2836    1.0000 </r>
       <r>  -20.5579    1.0000 </r>
       <r>  -20.5579    1.0000 </r>
       <r>   -7.1275    1.0000 </r>
       <r>   -7.1275    1.0000 </r>
       <r>    1.0015    1.0000 </r>
       <r>    1.0015    1.0000 </r>
       <r>    2.8819    1.0000 </r>
       <r>    2.8819    1.0000 </r>
       <r>    5.6505    0.0000 </r>
       <r>    5.6505    0.0000 </r>
       <r>    9.6579    0.0000 </r>
       <r>    9.6579    0.0000 </r>
       <r>   10.5768    0.0000 </r>
       <r>   10.5768    0.0000 </r>
       <r>   10.9934    0.0000 </r>
       <r>   10.9934    0.0000 </r>
       <r>   11.5339    0.0000 </r>
       <r>   11.5339    0.0000 </r>
       <r>   12.4254    0.0000 </r>
       <r>   12.4254    0.0000 </r>
       <r>   12.6700    0.0000 </r>
       <r>   12.6700    0.0000 </r>
       <r>   15.0850    0.0000 </r>
       <r>   15.0850    0.0000 </r>
       <r>   16.7576    0.0000 </r>
       <r>   16.7576    0.0000 </r>
       <r>   16.9527    0.0000 </r>
       <r>   16.9527    0.0000 </r>
       <r>   18.8804    0.0000 </r>
       <r>   18.8804    0.0000 </r>
       <r>   19.3672    0.0000 </r>
       <r>   19.3673    0.0000 </r>
       <r>   19.4728    0.0000 </r>
       <r>   19.4728    0.0000 </r>
       <r>   20.1795    0.0000 </r>
       <r>   20.1795    0.0000 </r>
       <r>   20.6945    0.0000 </r>
       <r>   20.6945    0.0000 </r>
       <r>   24.0190    0.0000 </r>
       <r>   24.0191    0.0000 </r>
       <r>   25.4796    0.0000 </r>
       <r>   25.4796    0.0000 </r>
       <r>   25.8713    0.0000 </r>
       <r>   25.8714    0.0000 </r>
       <r>   27.0019    0.0000 </r>
       <r>   27.0019    0.0000 </r>
       <r>   27.5947    0.0000 </r>
       <r>   27.5948    0.0000 </r>
       <r>   28.1668    0.0000 </r>
       <r>   28.1668    0.0000 </r>
       <r>   30.3068    0.0000 </r>
       <r>   30.3068    0.0000 </r>
       <r>   30.6827    0.0000 </r>
       <r>   30.6827    0.0000 </r>
      </set>
      <set comment="kpoint 12">
       <r>  -30.9586    1.0000 </r>
       <r>  -30.9586    1.0000 </r>
       <r>  -30.9498    1.0000 </r>
       <r>  -30.9498    1.0000 </r>
       <r>  -24.3007    1.0000 </r>
       <r>  -24.3007    1.0000 </r>
       <r>  -24.2924    1.0000 </r>
       <r>  -24.2924    1.0000 </r>
       <r>  -24.2867    1.0000 </r>
       <r>  -24.2867    1.0000 </r>
       <r>  -20.5665    1.0000 </r>
       <r>  -20.5665    1.0000 </r>
       <r>   -7.0977    1.0000 </r>
       <r>   -7.0977    1.0000 </r>
       <r>    1.1742    1.0000 </r>
       <r>    1.1742    1.0000 </r>
       <r>    2.9231    1.0000 </r>
       <r>    2.9231    1.0000 </r>
       <r>    5.5122    0.0000 </r>
       <r>    5.5122    0.0000 </r>
       <r>    9.5871    0.0000 </r>
       <r>    9.5871    0.0000 </r>
       <r>   10.6488    0.0000 </r>
       <r>   10.6488    0.0000 </r>
       <r>   11.0550    0.0000 </r>
       <r>   11.0550    0.0000 </r>
       <r>   11.6892    0.0000 </r>
       <r>   11.6892    0.0000 </r>
       <r>   12.3067    0.0000 </r>
       <r>   12.3067    0.0000 </r>
       <r>   12.5370    0.0000 </r>
       <r>   12.5370    0.0000 </r>
       <r>   14.6349    0.0000 </r>
       <r>   14.6349    0.0000 </r>
       <r>   16.4283    0.0000 </r>
       <r>   16.4283    0.0000 </r>
       <r>   16.6169    0.0000 </r>
       <r>   16.6169    0.0000 </r>
       <r>   18.9644    0.0000 </r>
       <r>   18.9644    0.0000 </r>
       <r>   19.2445    0.0000 </r>
       <r>   19.2445    0.0000 </r>
       <r>   19.6074    0.0000 </r>
       <r>   19.6074    0.0000 </r>
       <r>   20.5546    0.0000 </r>
       <r>   20.5546    0.0000 </r>
       <r>   20.6581    0.0000 </r>
       <r>   20.6581    0.0000 </r>
       <r>   24.2208    0.0000 </r>
       <r>   24.2208    0.0000 </r>
       <r>   25.5463    0.0000 </r>
       <r>   25.5463    0.0000 </r>
       <r>   26.0067    0.0000 </r>
       <r>   26.0067    0.0000 </r>
       <r>   27.1638    0.0000 </r>
       <r>   27.1638    0.0000 </r>
       <r>   27.6612    0.0000 </r>
       <r>   27.6612    0.0000 </r>
       <r>   28.3251    0.0000 </r>
       <r>   28.3251    0.0000 </r>
       <r>   30.4003    0.0000 </r>
       <r>   30.4003    0.0000 </r>
       <r>   30.5517    0.0000 </r>
       <r>   30.5517    0.0000 </r>
      </set>
      <set comment="kpoint 13">
       <r>  -30.9612    1.0000 </r>
       <r>  -30.9612    1.0000 </r>
       <r>  -30.9477    1.0000 </r>
       <r>  -30.9476    1.0000 </r>
       <r>  -24.3020    1.0000 </r>
       <r>  -24.3020    1.0000 </r>
       <r>  -24.2904    1.0000 </r>
       <r>  -24.2904    1.0000 </r>
       <r>  -24.2887    1.0000 </r>
       <r>  -24.2887    1.0000 </r>
       <r>  -20.5748    1.0000 </r>
       <r>  -20.5748    1.0000 </r>
       <r>   -7.0686    1.0000 </r>
       <r>   -7.0686    1.0000 </r>
       <r>    1.3616    1.0000 </r>
       <r>    1.3616    1.0000 </r>
       <r>    2.9641    1.0000 </r>
       <r>    2.9642    1.0000 </r>
       <r>    5.3417    0.0000 </r>
       <r>    5.3417    0.0000 </r>
       <r>    9.5636    0.0000 </r>
       <r>    9.5636    0.0000 </r>
       <r>   10.7009    0.0000 </r>
       <r>   10.7009    0.0000 </r>
       <r>   11.0919    0.0000 </r>
       <r>   11.0919    0.0000 </r>
       <r>   11.8563    0.0000 </r>
       <r>   11.8564    0.0000 </r>
       <r>   12.2461    0.0000 </r>
       <r>   12.2461    0.0000 </r>
       <r>   12.4570    0.0000 </r>
       <r>   12.4570    0.0000 </r>
       <r>   14.1997    0.0000 </r>
       <r>   14.1997    0.0000 </r>
       <r>   16.0949    0.0000 </r>
       <r>   16.0949    0.0000 </r>
       <r>   16.2764    0.0000 </r>
       <r>   16.2764    0.0000 </r>
       <r>   18.5223    0.0000 </r>
       <r>   18.5223    0.0000 </r>
       <r>   19.5316    0.0000 </r>
       <r>   19.5316    0.0000 </r>
       <r>   19.8206    0.0000 </r>
       <r>   19.8206    0.0000 </r>
       <r>   20.6349    0.0000 </r>
       <r>   20.6349    0.0000 </r>
       <r>   20.8897    0.0000 </r>
       <r>   20.8897    0.0000 </r>
       <r>   24.4893    0.0000 </r>
       <r>   24.4893    0.0000 </r>
       <r>   25.6367    0.0000 </r>
       <r>   25.6367    0.0000 </r>
       <r>   26.1625    0.0000 </r>
       <r>   26.1625    0.0000 </r>
       <r>   27.3104    0.0000 </r>
       <r>   27.3104    0.0000 </r>
[...]
       <r>    14.5790     0.0000     0.0000 </r>
       <r>    14.8075     0.0000     0.0000 </r>
       <r>    15.0360     0.0000     0.0000 </r>
       <r>    15.2645     0.0000     0.0000 </r>
       <r>    15.4931     0.0000     0.0000 </r>
       <r>    15.7216     0.0000     0.0000 </r>
       <r>    15.9501     0.0000     0.0000 </r>
       <r>    16.1786     0.0000     0.0000 </r>
       <r>    16.4071     0.0000     0.0000 </r>
       <r>    16.6356     0.0000     0.0000 </r>
       <r>    16.8642     0.0000     0.0000 </r>
       <r>    17.0927     0.0000     0.0000 </r>
       <r>    17.3212     0.0000     0.0000 </r>
       <r>    17.5497     0.0000     0.0000 </r>
       <r>    17.7782     0.0000     0.0000 </r>
       <r>    18.0068     0.0000     0.0000 </r>
       <r>    18.2353     0.0000     0.0000 </r>
       <r>    18.4638     0.0000     0.0000 </r>
       <r>    18.6923     0.0000     0.0000 </r>
       <r>    18.9208     0.0000     0.0000 </r>
       <r>    19.1494     0.0000     0.0000 </r>
       <r>    19.3779     0.0000     0.0000 </r>
       <r>    19.6064     0.0000     0.0000 </r>
       <r>    19.8349     0.0000     0.0000 </r>
       <r>    20.0634     0.0000     0.0000 </r>
       <r>    20.2920     0.0000     0.0000 </r>
       <r>    20.5205     0.0000     0.0000 </r>
       <r>    20.7490     0.0000     0.0000 </r>
       <r>    20.9775     0.0000     0.0000 </r>
       <r>    21.2060     0.0000     0.0000 </r>
       <r>    21.4346     0.0000     0.0000 </r>
       <r>    21.6631     0.0000     0.0000 </r>
       <r>    21.8916     0.0000     0.0000 </r>
       <r>    22.1201     0.0000     0.0000 </r>
       <r>    22.3486     0.0000     0.0000 </r>
       <r>    22.5771     0.0000     0.0000 </r>
       <r>    22.8057     0.0000     0.0000 </r>
       <r>    23.0342     0.0000     0.0000 </r>
       <r>    23.2627     0.0000     0.0000 </r>
       <r>    23.4912     0.0000     0.0000 </r>
       <r>    23.7197     0.0000     0.0000 </r>
       <r>    23.9483     0.0000     0.0000 </r>
       <r>    24.1768     0.0000     0.0000 </r>
       <r>    24.4053     0.0000     0.0000 </r>
       <r>    24.6338     0.0000     0.0000 </r>
       <r>    24.8623     0.0000     0.0000 </r>
       <r>    25.0909     0.0000     0.0000 </r>
       <r>    25.3194     0.0000     0.0000 </r>
       <r>    25.5479     0.0000     0.0000 </r>
       <r>    25.7764     0.0000     0.0000 </r>
       <r>    26.0049     0.0000     0.0000 </r>
       <r>    26.2335     0.0000     0.0000 </r>
       <r>    26.4620     0.0000     0.0000 </r>
       <r>    26.6905     0.0000     0.0000 </r>
       <r>    26.9190     0.0000     0.0000 </r>
       <r>    27.1475     0.0000     0.0000 </r>
       <r>    27.3761     0.0000     0.0000 </r>
       <r>    27.6046     0.0000     0.0000 </r>
       <r>    27.8331     0.0000     0.0000 </r>
       <r>    28.0616     0.0000     0.0000 </r>
       <r>    28.2901     0.0000     0.0000 </r>
       <r>    28.5186     0.0000     0.0000 </r>
       <r>    28.7472     0.0000     0.0000 </r>
       <r>    28.9757     0.0000     0.0000 </r>
       <r>    29.2042     0.0000     0.0000 </r>
       <r>    29.4327     0.0000     0.0000 </r>
       <r>    29.6612     0.0000     0.0000 </r>
       <r>    29.8898     0.0000     0.0000 </r>
       <r>    30.1183     0.0000     0.0000 </r>
       <r>    30.3468     0.0000     0.0000 </r>
       <r>    30.5753     0.0000     0.0000 </r>
       <r>    30.8038     0.0000     0.0000 </r>
       <r>    31.0324     0.0000     0.0000 </r>
       <r>    31.2609     0.0000     0.0000 </r>
       <r>    31.4894     0.0000     0.0000 </r>
       <r>    31.7179     0.0000     0.0000 </r>
       <r>    31.9464     0.0000     0.0000 </r>
       <r>    32.1750     0.0000     0.0000 </r>
       <r>    32.4035     0.0000     0.0000 </r>
       <r>    32.6320     0.0000     0.0000 </r>
       <r>    32.8605     0.0000     0.0000 </r>
       <r>    33.0890     0.0000     0.0000 </r>
       <r>    33.3176     0.0000     0.0000 </r>
       <r>    33.5461     0.0000     0.0000 </r>
       <r>    33.7746     0.0000     0.0000 </r>
       <r>    34.0031     0.0000     0.0000 </r>
       <r>    34.2316     0.0000     0.0000 </r>
       <r>    34.4602     0.0000     0.0000 </r>
      </set>
      <set comment="spin 4">
       <r>   -34.0956     0.0000     0.0000 </r>
       <r>   -33.8671     0.0000     0.0000 </r>
       <r>   -33.6386     0.0000     0.0000 </r>
       <r>   -33.4101     0.0000     0.0000 </r>
       <r>   -33.1816     0.0000     0.0000 </r>
       <r>   -32.9530     0.0000     0.0000 </r>
       <r>   -32.7245     0.0000     0.0000 </r>
       <r>   -32.4960     0.0000     0.0000 </r>
       <r>   -32.2675     0.0000     0.0000 </r>
       <r>   -32.0390     0.0000     0.0000 </r>
       <r>   -31.8104     0.0000     0.0000 </r>
       <r>   -31.5819     0.0000     0.0000 </r>
       <r>   -31.3534     0.0000     0.0000 </r>
       <r>   -31.1249     0.0000     0.0000 </r>
       <r>   -30.8964     0.0000     0.0000 </r>
       <r>   -30.6678     0.0000     0.0000 </r>
       <r>   -30.4393     0.0000     0.0000 </r>
       <r>   -30.2108     0.0000     0.0000 </r>
       <r>   -29.9823     0.0000     0.0000 </r>
       <r>   -29.7538     0.0000     0.0000 </r>
       <r>   -29.5252     0.0000     0.0000 </r>
       <r>   -29.2967     0.0000     0.0000 </r>
       <r>   -29.0682     0.0000     0.0000 </r>
       <r>   -28.8397     0.0000     0.0000 </r>
       <r>   -28.6112     0.0000     0.0000 </r>
       <r>   -28.3827     0.0000     0.0000 </r>
       <r>   -28.1541     0.0000     0.0000 </r>
       <r>   -27.9256     0.0000     0.0000 </r>
       <r>   -27.6971     0.0000     0.0000 </r>
       <r>   -27.4686     0.0000     0.0000 </r>
       <r>   -27.2401     0.0000     0.0000 </r>
       <r>   -27.0115     0.0000     0.0000 </r>
       <r>   -26.7830     0.0000     0.0000 </r>
       <r>   -26.5545     0.0000     0.0000 </r>
       <r>   -26.3260     0.0000     0.0000 </r>
       <r>   -26.0975     0.0000     0.0000 </r>
       <r>   -25.8689     0.0000     0.0000 </r>
       <r>   -25.6404     0.0000     0.0000 </r>
       <r>   -25.4119     0.0000     0.0000 </r>
       <r>   -25.1834     0.0000     0.0000 </r>
       <r>   -24.9549     0.0000     0.0000 </r>
       <r>   -24.7263     0.0000     0.0000 </r>
       <r>   -24.4978     0.0000     0.0000 </r>
       <r>   -24.2693     0.0000     0.0000 </r>
       <r>   -24.0408     0.0000     0.0000 </r>
       <r>   -23.8123     0.0000     0.0000 </r>
       <r>   -23.5837     0.0000     0.0000 </r>
       <r>   -23.3552     0.0000     0.0000 </r>
       <r>   -23.1267     0.0000     0.0000 </r>
       <r>   -22.8982     0.0000     0.0000 </r>
       <r>   -22.6697     0.0000     0.0000 </r>
       <r>   -22.4411     0.0000     0.0000 </r>
       <r>   -22.2126     0.0000     0.0000 </r>
       <r>   -21.9841     0.0000     0.0000 </r>
       <r>   -21.7556     0.0000     0.0000 </r>
       <r>   -21.5271     0.0000     0.0000 </r>
       <r>   -21.2986     0.0000     0.0000 </r>
       <r>   -21.0700     0.0000     0.0000 </r>
       <r>   -20.8415     0.0000     0.0000 </r>
       <r>   -20.6130     0.0000     0.0000 </r>
       <r>   -20.3845     0.0000     0.0000 </r>
       <r>   -20.1560     0.0000     0.0000 </r>
       <r>   -19.9274     0.0000     0.0000 </r>
       <r>   -19.6989     0.0000     0.0000 </r>
       <r>   -19.4704     0.0000     0.0000 </r>
       <r>   -19.2419     0.0000     0.0000 </r>
       <r>   -19.0134     0.0000     0.0000 </r>
       <r>   -18.7848     0.0000     0.0000 </r>
       <r>   -18.5563     0.0000     0.0000 </r>
       <r>   -18.3278     0.0000     0.0000 </r>
       <r>   -18.0993     0.0000     0.0000 </r>
       <r>   -17.8708     0.0000     0.0000 </r>
       <r>   -17.6422     0.0000     0.0000 </r>
       <r>   -17.4137     0.0000     0.0000 </r>
       <r>   -17.1852     0.0000     0.0000 </r>
       <r>   -16.9567     0.0000     0.0000 </r>
       <r>   -16.7282     0.0000     0.0000 </r>
       <r>   -16.4996     0.0000     0.0000 </r>
       <r>   -16.2711     0.0000     0.0000 </r>
       <r>   -16.0426     0.0000     0.0000 </r>
       <r>   -15.8141     0.0000     0.0000 </r>
       <r>   -15.5856     0.0000     0.0000 </r>
       <r>   -15.3571     0.0000     0.0000 </r>
       <r>   -15.1285     0.0000     0.0000 </r>
       <r>   -14.9000     0.0000     0.0000 </r>
       <r>   -14.6715     0.0000     0.0000 </r>
       <r>   -14.4430     0.0000     0.0000 </r>
       <r>   -14.2145     0.0000     0.0000 </r>
       <r>   -13.9859     0.0000     0.0000 </r>
       <r>   -13.7574     0.0000     0.0000 </r>
       <r>   -13.5289     0.0000     0.0000 </r>
       <r>   -13.3004     0.0000     0.0000 </r>
       <r>   -13.0719     0.0000     0.0000 </r>
       <r>   -12.8433     0.0000     0.0000 </r>
       <r>   -12.6148     0.0000     0.0000 </r>
       <r>   -12.3863     0.0000     0.0000 </r>
       <r>   -12.1578     0.0000     0.0000 </r>
       <r>   -11.9293     0.0000     0.0000 </r>
       <r>   -11.7007     0.0000     0.0000 </r>
       <r>   -11.4722     0.0000     0.0000 </r>
       <r>   -11.2437     0.0000     0.0000 </r>
       <r>   -11.0152     0.0000     0.0000 </r>
       <r>   -10.7867     0.0000     0.0000 </r>
       <r>   -10.5581     0.0000     0.0000 </r>
       <r>   -10.3296     0.0000     0.0000 </r>
       <r>   -10.1011     0.0000     0.0000 </r>
       <r>    -9.8726     0.0000     0.0000 </r>
       <r>    -9.6441     0.0000     0.0000 </r>
       <r>    -9.4156     0.0000     0.0000 </r>
       <r>    -9.1870     0.0000     0.0000 </r>
       <r>    -8.9585     0.0000     0.0000 </r>
       <r>    -8.7300     0.0000     0.0000 </r>
       <r>    -8.5015     0.0000     0.0000 </r>
       <r>    -8.2730     0.0000     0.0000 </r>
       <r>    -8.0444     0.0000     0.0000 </r>
       <r>    -7.8159     0.0000     0.0000 </r>
       <r>    -7.5874     0.0000     0.0000 </r>
       <r>    -7.3589     0.0000     0.0000 </r>
       <r>    -7.1304     0.0000     0.0000 </r>
       <r>    -6.9018     0.0000     0.0000 </r>
       <r>    -6.6733     0.0000     0.0000 </r>
       <r>    -6.4448     0.0000     0.0000 </r>
       <r>    -6.2163     0.0000     0.0000 </r>
       <r>    -5.9878     0.0000     0.0000 </r>
       <r>    -5.7592     0.0000     0.0000 </r>
       <r>    -5.5307     0.0000     0.0000 </r>
       <r>    -5.3022     0.0000     0.0000 </r>
       <r>    -5.0737     0.0000     0.0000 </r>
       <r>    -4.8452     0.0000     0.0000 </r>
       <r>    -4.6166     0.0000     0.0000 </r>
       <r>    -4.3881     0.0000     0.0000 </r>
       <r>    -4.1596     0.0000     0.0000 </r>
       <r>    -3.9311     0.0000     0.0000 </r>
       <r>    -3.7026     0.0000     0.0000 </r>
       <r>    -3.4740     0.0000     0.0000 </r>
       <r>    -3.2455     0.0000     0.0000 </r>
       <r>    -3.0170     0.0000     0.0000 </r>
       <r>    -2.7885     0.0000     0.0000 </r>
       <r>    -2.5600     0.0000     0.0000 </r>
       <r>    -2.3315     0.0000     0.0000 </r>
       <r>    -2.1029     0.0000     0.0000 </r>
       <r>    -1.8744     0.0000     0.0000 </r>
       <r>    -1.6459     0.0000     0.0000 </r>
       <r>    -1.4174     0.0000     0.0000 </r>
       <r>    -1.1889     0.0000     0.0000 </r>
       <r>    -0.9603     0.0000     0.0000 </r>
       <r>    -0.7318     0.0000     0.0000 </r>
       <r>    -0.5033     0.0000     0.0000 </r>
       <r>    -0.2748     0.0000     0.0000 </r>
       <r>    -0.0463     0.0000     0.0000 </r>
       <r>     0.1823     0.0000     0.0000 </r>
       <r>     0.4108     0.0000     0.0000 </r>
       <r>     0.6393     0.0000     0.0000 </r>
       <r>     0.8678     0.0000     0.0000 </r>
       <r>     1.0963     0.0000     0.0000 </r>
       <r>     1.3249     0.0000     0.0000 </r>
       <r>     1.5534     0.0000     0.0000 </r>
       <r>     1.7819     0.0000     0.0000 </r>
       <r>     2.0104     0.0000     0.0000 </r>
       <r>     2.2389     0.0000     0.0000 </r>
       <r>     2.4675     0.0000     0.0000 </r>
       <r>     2.6960     0.0000     0.0000 </r>
       <r>     2.9245     0.0000     0.0000 </r>
       <r>     3.1530     0.0000     0.0000 </r>
       <r>     3.3815     0.0000     0.0000 </r>
       <r>     3.6100     0.0000     0.0000 </r>
       <r>     3.8386     0.0000     0.0000 </r>
       <r>     4.0671     0.0000     0.0000 </r>
       <r>     4.2956     0.0000     0.0000 </r>
       <r>     4.5241     0.0000     0.0000 </r>
       <r>     4.7526     0.0000     0.0000 </r>
       <r>     4.9812     0.0000     0.0000 </r>
       <r>     5.2097     0.0000     0.0000 </r>
       <r>     5.4382     0.0000     0.0000 </r>
       <r>     5.6667     0.0000     0.0000 </r>
       <r>     5.8952     0.0000     0.0000 </r>
       <r>     6.1238     0.0000     0.0000 </r>
       <r>     6.3523     0.0000     0.0000 </r>
       <r>     6.5808     0.0000     0.0000 </r>
       <r>     6.8093     0.0000     0.0000 </r>
       <r>     7.0378     0.0000     0.0000 </r>
       <r>     7.2664     0.0000     0.0000 </r>
       <r>     7.4949     0.0000     0.0000 </r>
       <r>     7.7234     0.0000     0.0000 </r>
       <r>     7.9519     0.0000     0.0000 </r>
       <r>     8.1804     0.0000     0.0000 </r>
       <r>     8.4090     0.0000     0.0000 </r>
       <r>     8.6375     0.0000     0.0000 </r>
       <r>     8.8660     0.0000     0.0000 </r>
       <r>     9.0945     0.0000     0.0000 </r>
       <r>     9.3230     0.0000     0.0000 </r>
       <r>     9.5515     0.0000     0.0000 </r>
       <r>     9.7801     0.0000     0.0000 </r>
       <r>    10.0086     0.0000     0.0000 </r>
       <r>    10.2371     0.0000     0.0000 </r>
       <r>    10.4656     0.0000     0.0000 </r>
       <r>    10.6941     0.0000     0.0000 </r>
       <r>    10.9227     0.0000     0.0000 </r>
       <r>    11.1512     0.0000     0.0000 </r>
       <r>    11.3797     0.0000     0.0000 </r>
       <r>    11.6082     0.0000     0.0000 </r>
       <r>    11.8367     0.0000     0.0000 </r>
       <r>    12.0653     0.0000     0.0000 </r>
       <r>    12.2938     0.0000     0.0000 </r>
       <r>    12.5223     0.0000     0.0000 </r>
       <r>    12.7508     0.0000     0.0000 </r>
       <r>    12.9793     0.0000     0.0000 </r>
       <r>    13.2079     0.0000     0.0000 </r>
       <r>    13.4364     0.0000     0.0000 </r>
       <r>    13.6649     0.0000     0.0000 </r>
       <r>    13.8934     0.0000     0.0000 </r>
       <r>    14.1219     0.0000     0.0000 </r>
       <r>    14.3505     0.0000     0.0000 </r>
       <r>    14.5790     0.0000     0.0000 </r>
       <r>    14.8075     0.0000     0.0000 </r>
       <r>    15.0360     0.0000     0.0000 </r>
       <r>    15.2645     0.0000     0.0000 </r>
       <r>    15.4931     0.0000     0.0000 </r>
       <r>    15.7216     0.0000     0.0000 </r>
       <r>    15.9501     0.0000     0.0000 </r>
       <r>    16.1786     0.0000     0.0000 </r>
       <r>    16.4071     0.0000     0.0000 </r>
       <r>    16.6356     0.0000     0.0000 </r>
       <r>    16.8642     0.0000     0.0000 </r>
       <r>    17.0927     0.0000     0.0000 </r>
       <r>    17.3212     0.0000     0.0000 </r>
       <r>    17.5497     0.0000     0.0000 </r>
       <r>    17.7782     0.0000     0.0000 </r>
       <r>    18.0068     0.0000     0.0000 </r>
       <r>    18.2353     0.0000     0.0000 </r>
       <r>    18.4638     0.0000     0.0000 </r>
       <r>    18.6923     0.0000     0.0000 </r>
       <r>    18.9208     0.0000     0.0000 </r>
       <r>    19.1494     0.0000     0.0000 </r>
       <r>    19.3779     0.0000     0.0000 </r>
       <r>    19.6064     0.0000     0.0000 </r>
       <r>    19.8349     0.0000     0.0000 </r>
       <r>    20.0634     0.0000     0.0000 </r>
       <r>    20.2920     0.0000     0.0000 </r>
       <r>    20.5205     0.0000     0.0000 </r>
       <r>    20.7490     0.0000     0.0000 </r>
       <r>    20.9775     0.0000     0.0000 </r>
       <r>    21.2060     0.0000     0.0000 </r>
       <r>    21.4346     0.0000     0.0000 </r>
       <r>    21.6631     0.0000     0.0000 </r>
       <r>    21.8916     0.0000     0.0000 </r>
       <r>    22.1201     0.0000     0.0000 </r>
       <r>    22.3486     0.0000     0.0000 </r>
       <r>    22.5771     0.0000     0.0000 </r>
       <r>    22.8057     0.0000     0.0000 </r>
       <r>    23.0342     0.0000     0.0000 </r>
       <r>    23.2627     0.0000     0.0000 </r>
       <r>    23.4912     0.0000     0.0000 </r>
       <r>    23.7197     0.0000     0.0000 </r>
       <r>    23.9483     0.0000     0.0000 </r>
       <r>    24.1768     0.0000     0.0000 </r>
       <r>    24.4053     0.0000     0.0000 </r>
       <r>    24.6338     0.0000     0.0000 </r>
       <r>    24.8623     0.0000     0.0000 </r>
       <r>    25.0909     0.0000     0.0000 </r>
       <r>    25.3194     0.0000     0.0000 </r>
       <r>    25.5479     0.0000     0.0000 </r>
       <r>    25.7764     0.0000     0.0000 </r>
       <r>    26.0049     0.0000     0.0000 </r>
       <r>    26.2335     0.0000     0.0000 </r>
       <r>    26.4620     0.0000     0.0000 </r>
       <r>    26.6905     0.0000     0.0000 </r>
       <r>    26.9190     0.0000     0.0000 </r>
       <r>    27.1475     0.0000     0.0000 </r>
       <r>    27.3761     0.0000     0.0000 </r>
       <r>    27.6046     0.0000     0.0000 </r>
       <r>    27.8331     0.0000     0.0000 </r>
       <r>    28.0616     0.0000     0.0000 </r>
       <r>    28.2901     0.0000     0.0000 </r>
       <r>    28.5186     0.0000     0.0000 </r>
       <r>    28.7472     0.0000     0.0000 </r>
       <r>    28.9757     0.0000     0.0000 </r>
       <r>    29.2042     0.0000     0.0000 </r>
       <r>    29.4327     0.0000     0.0000 </r>
       <r>    29.6612     0.0000     0.0000 </r>
       <r>    29.8898     0.0000     0.0000 </r>
       <r>    30.1183     0.0000     0.0000 </r>
       <r>    30.3468     0.0000     0.0000 </r>
       <r>    30.5753     0.0000     0.0000 </r>
       <r>    30.8038     0.0000     0.0000 </r>
       <r>    31.0324     0.0000     0.0000 </r>
       <r>    31.2609     0.0000     0.0000 </r>
       <r>    31.4894     0.0000     0.0000 </r>
       <r>    31.7179     0.0000     0.0000 </r>
       <r>    31.9464     0.0000     0.0000 </r>
       <r>    32.1750     0.0000     0.0000 </r>
       <r>    32.4035     0.0000     0.0000 </r>
       <r>    32.6320     0.0000     0.0000 </r>
       <r>    32.8605     0.0000     0.0000 </r>
       <r>    33.0890     0.0000     0.0000 </r>
       <r>    33.3176     0.0000     0.0000 </r>
       <r>    33.5461     0.0000     0.0000 </r>
       <r>    33.7746     0.0000     0.0000 </r>
       <r>    34.0031     0.0000     0.0000 </r>
       <r>    34.2316     0.0000     0.0000 </r>
       <r>    34.4602     0.0000     0.0000 </r>
      </set>
     </set>
    </array>
   </total>
  </dos>
 </calculation>
 <structure name="finalpos" >
  <crystal>
   <varray name="basis" >
    <v>       4.39635018       0.00000000       0.00000000 </v>
    <v>       2.19817509       3.80735094      -0.00000000 </v>
    <v>       2.19817509       1.26911698       3.58960489 </v>
   </varray>
   <i name="volume">     60.08441465 </i>
   <varray name="rec_basis" >
    <v>       0.22746141      -0.13132490      -0.09286073 </v>
    <v>       0.00000000       0.26264981      -0.09286073 </v>
    <v>      -0.00000000       0.00000000       0.27858219 </v>
   </varray>
  </crystal>
  <varray name="positions" >
   <v>       0.00000000       0.00000000       0.00000000 </v>
  </varray>
  <varray name="velocities" >
   <v>       0.00000000       0.00000000       0.00000000 </v>
  </varray>
 </structure>
</modeling>
