 vasp.5.4.4.18Apr17-6-g9f103f2a35 (build Nov 03 2018 10:20:46) complex          
  
 executed on             LinuxIFC date 2018.11.14  13:03:30
 running on   28 total cores
 distrk:  each k-point on    4 cores,    7 groups
 distr:  one band on NCORES_PER_BAND=   1 cores,    4 groups


--------------------------------------------------------------------------------------------------------


 INCAR:
 POTCAR:    PAW Og, JanMewes Oct 18               

 ----------------------------------------------------------------------------- 
|                                                                             |
|           W    W    AA    RRRRR   N    N  II  N    N   GGGG   !!!           |
|           W    W   A  A   R    R  NN   N  II  NN   N  G    G  !!!           |
|           W    W  A    A  R    R  N N  N  II  N N  N  G       !!!           |
|           W WW W  AAAAAA  RRRRR   N  N N  II  N  N N  G  GGG   !            |
|           WW  WW  A    A  R   R   N   NN  II  N   NN  G    G                |
|           W    W  A    A  R    R  N    N  II  N    N   GGGG   !!!           |
|                                                                             |
|      For optimal performance we recommend to set                            |
|        NCORE= 4 - approx SQRT( number of cores)                             |
|      NCORE specifies how many cores store one orbital (NPAR=cpu/NCORE).     |
|      This setting can  greatly improve the performance of VASP for DFT.     |
|      The default,   NCORE=1            might be grossly inefficient         |
|      on modern multi-core architectures or massively parallel machines.     |
|      Do your own testing !!!!                                               |
|      Unfortunately you need to use the default for GW and RPA calculations. |
|      (for HF NCORE is supported but not extensively tested yet)             |
|                                                                             |
 ----------------------------------------------------------------------------- 


 ----------------------------------------------------------------------------- 
|                                                                             |
|           W    W    AA    RRRRR   N    N  II  N    N   GGGG   !!!           |
|           W    W   A  A   R    R  NN   N  II  NN   N  G    G  !!!           |
|           W    W  A    A  R    R  N N  N  II  N N  N  G       !!!           |
|           W WW W  AAAAAA  RRRRR   N  N N  II  N  N N  G  GGG   !            |
|           WW  WW  A    A  R   R   N   NN  II  N   NN  G    G                |
|           W    W  A    A  R    R  N    N  II  N    N   GGGG   !!!           |
|                                                                             |
|      You have enabled k-point parallelism (KPAR>1).                         |
|      This developmental code was originally  written by Paul Kent at ORNL,  |
|      and carefully double checked in Vienna.                                |
|      GW as well as linear response parallelism added by Martijn Marsman     |
|      and Georg Kresse.                                                      |
|      Carefully verify results versus KPAR=1.                                |
|      Report problems to Paul Kent and Vienna.                               |
|                                                                             |
 ----------------------------------------------------------------------------- 

 POTCAR:    PAW Og, JanMewes Oct 18               
  local pseudopotential read in
  partial core-charges read in
  partial kinetic energy density read in
  kinetic energy density of atom read in
  atomic valenz-charges read in
  non local Contribution for L=           2  read in
    real space projection operators read in
  non local Contribution for L=           2  read in
    real space projection operators read in
  non local Contribution for L=           0  read in
    real space projection operators read in
  non local Contribution for L=           0  read in
    real space projection operators read in
  non local Contribution for L=           1  read in
    real space projection operators read in
  non local Contribution for L=           1  read in
    real space projection operators read in
    PAW grid and wavefunctions read in
 
   number of l-projection  operators is LMAX  =           6
   number of lm-projection operators is LMMAX =          18
 
  PAW Og, JanMewes Oct 18               :
 energy of atom  1       EATOM=-2640.5573
 kinetic energy error for atom=    0.6524 (will be added to EATOM!!)
 
 
 POSCAR: Og_FCC                                  
  positions in direct lattice
  velocities in cartesian coordinates
 exchange correlation table for  LEXCH =        8
   RHO(1)=    0.500       N(1)  =     2000
   RHO(2)=  100.500       N(2)  =     4000
 


--------------------------------------------------------------------------------------------------------


 ion  position               nearest neighbor table
   1  0.000  0.000  0.000-
 

IMPORTANT INFORMATION: All symmetrisations will be switched off!
NOSYMM: (Re-)initialisation of all symmetry stuff for point group C_1.

 
 
 KPOINTS: k-points                                

Automatic generation of k-mesh.
Space group operators:
 irot       det(A)        alpha          n_x          n_y          n_z        tau_x        tau_y        tau_z
    1     1.000000     0.000000     1.000000     0.000000     0.000000     0.000000     0.000000     0.000000
 
 Subroutine IBZKPT returns following result:
 ===========================================
 
 Found     64 irreducible k-points:
 
 Following reciprocal coordinates:
            Coordinates               Weight
  0.000000  0.000000  0.000000      1.000000
  0.250000  0.000000  0.000000      1.000000
  0.500000  0.000000  0.000000      1.000000
 -0.250000 -0.000000 -0.000000      1.000000
  0.000000  0.250000 -0.000000      1.000000
  0.250000  0.250000  0.000000      1.000000
  0.500000  0.250000  0.000000      1.000000
 -0.250000  0.250000 -0.000000      1.000000
  0.000000  0.500000 -0.000000      1.000000
  0.250000  0.500000  0.000000      1.000000
  0.500000  0.500000  0.000000      1.000000
 -0.250000  0.500000 -0.000000      1.000000
 -0.000000 -0.250000  0.000000      1.000000
  0.250000 -0.250000  0.000000      1.000000
  0.500000 -0.250000  0.000000      1.000000
 -0.250000 -0.250000 -0.000000      1.000000
  0.000000  0.000000  0.250000      1.000000
  0.250000 -0.000000  0.250000      1.000000
  0.500000 -0.000000  0.250000      1.000000
 -0.250000 -0.000000  0.250000      1.000000
 -0.000000  0.250000  0.250000      1.000000
  0.250000  0.250000  0.250000      1.000000
  0.500000  0.250000  0.250000      1.000000
 -0.250000  0.250000  0.250000      1.000000
 -0.000000  0.500000  0.250000      1.000000
  0.250000  0.500000  0.250000      1.000000
  0.500000  0.500000  0.250000      1.000000
 -0.250000  0.500000  0.250000      1.000000
  0.000000 -0.250000  0.250000      1.000000
  0.250000 -0.250000  0.250000      1.000000
  0.500000 -0.250000  0.250000      1.000000
 -0.250000 -0.250000  0.250000      1.000000
  0.000000  0.000000  0.500000      1.000000
  0.250000  0.000000  0.500000      1.000000
  0.500000 -0.000000  0.500000      1.000000
 -0.250000  0.000000  0.500000      1.000000
 -0.000000  0.250000  0.500000      1.000000
  0.250000  0.250000  0.500000      1.000000
  0.500000  0.250000  0.500000      1.000000
 -0.250000  0.250000  0.500000      1.000000
 -0.000000  0.500000  0.500000      1.000000
  0.250000  0.500000  0.500000      1.000000
  0.500000  0.500000  0.500000      1.000000
 -0.250000  0.500000  0.500000      1.000000
  0.000000 -0.250000  0.500000      1.000000
  0.250000 -0.250000  0.500000      1.000000
  0.500000 -0.250000  0.500000      1.000000
 -0.250000 -0.250000  0.500000      1.000000
  0.000000  0.000000 -0.250000      1.000000
  0.250000  0.000000 -0.250000      1.000000
  0.500000  0.000000 -0.250000      1.000000
 -0.250000  0.000000 -0.250000      1.000000
  0.000000  0.250000 -0.250000      1.000000
  0.250000  0.250000 -0.250000      1.000000
  0.500000  0.250000 -0.250000      1.000000
 -0.250000  0.250000 -0.250000      1.000000
  0.000000  0.500000 -0.250000      1.000000
  0.250000  0.500000 -0.250000      1.000000
  0.500000  0.500000 -0.250000      1.000000
 -0.250000  0.500000 -0.250000      1.000000
  0.000000 -0.250000 -0.250000      1.000000
  0.250000 -0.250000 -0.250000      1.000000
  0.500000 -0.250000 -0.250000      1.000000
 -0.250000 -0.250000 -0.250000      1.000000
 
 Following cartesian coordinates:
            Coordinates               Weight
  0.000000  0.000000  0.000000      1.000000
  0.057573 -0.033240 -0.023504      1.000000
  0.115145 -0.066479 -0.047008      1.000000
 -0.057573  0.033240  0.023504      1.000000
  0.000000  0.066479 -0.023504      1.000000
  0.057573  0.033240 -0.047008      1.000000
  0.115145  0.000000 -0.070512      1.000000
 -0.057573  0.099719  0.000000      1.000000
  0.000000  0.132958 -0.047008      1.000000
  0.057573  0.099719 -0.070512      1.000000
  0.115145  0.066479 -0.094016      1.000000
 -0.057573  0.166198 -0.023504      1.000000
 -0.000000 -0.066479  0.023504      1.000000
  0.057573 -0.099719 -0.000000      1.000000
  0.115145 -0.132958 -0.023504      1.000000
 -0.057573 -0.033240  0.047008      1.000000
 -0.000000  0.000000  0.070512      1.000000
  0.057573 -0.033240  0.047008      1.000000
  0.115145 -0.066479  0.023504      1.000000
 -0.057573  0.033240  0.094016      1.000000
 -0.000000  0.066479  0.047008      1.000000
  0.057573  0.033240  0.023504      1.000000
  0.115145  0.000000 -0.000000      1.000000
 -0.057573  0.099719  0.070512      1.000000
 -0.000000  0.132958  0.023504      1.000000
  0.057573  0.099719  0.000000      1.000000
  0.115145  0.066479 -0.023504      1.000000
 -0.057573  0.166198  0.047008      1.000000
 -0.000000 -0.066479  0.094016      1.000000
  0.057573 -0.099719  0.070512      1.000000
  0.115145 -0.132958  0.047008      1.000000
 -0.057573 -0.033240  0.117520      1.000000
 -0.000000  0.000000  0.141023      1.000000
  0.057573 -0.033240  0.117520      1.000000
  0.115145 -0.066479  0.094016      1.000000
 -0.057573  0.033240  0.164527      1.000000
 -0.000000  0.066479  0.117520      1.000000
  0.057573  0.033240  0.094016      1.000000
  0.115145  0.000000  0.070512      1.000000
 -0.057573  0.099719  0.141023      1.000000
 -0.000000  0.132958  0.094016      1.000000
  0.057573  0.099719  0.070512      1.000000
  0.115145  0.066479  0.047008      1.000000
 -0.057573  0.166198  0.117520      1.000000
 -0.000000 -0.066479  0.164527      1.000000
  0.057573 -0.099719  0.141023      1.000000
  0.115145 -0.132958  0.117520      1.000000
 -0.057573 -0.033240  0.188031      1.000000
  0.000000 -0.000000 -0.070512      1.000000
  0.057573 -0.033240 -0.094016      1.000000
  0.115145 -0.066479 -0.117520      1.000000
 -0.057573  0.033240 -0.047008      1.000000
  0.000000  0.066479 -0.094016      1.000000
  0.057573  0.033240 -0.117520      1.000000
  0.115145 -0.000000 -0.141023      1.000000
 -0.057573  0.099719 -0.070512      1.000000
  0.000000  0.132958 -0.117520      1.000000
  0.057573  0.099719 -0.141023      1.000000
  0.115145  0.066479 -0.164527      1.000000
 -0.057573  0.166198 -0.094016      1.000000
  0.000000 -0.066479 -0.047008      1.000000
  0.057573 -0.099719 -0.070512      1.000000
  0.115145 -0.132958 -0.094016      1.000000
 -0.057573 -0.033240 -0.023504      1.000000
 
 
 Subroutine IBZKPT_HF returns following result:
 ==============================================
 
 Found     64 k-points in 1st BZ
 the following     64 k-points will be used (e.g. in the exchange kernel)
 Following reciprocal coordinates:   # in IRBZ
  0.000000  0.000000  0.000000    0.01562500   1 t-inv F
  0.250000  0.000000  0.000000    0.01562500   2 t-inv F
  0.500000  0.000000  0.000000    0.01562500   3 t-inv F
 -0.250000 -0.000000 -0.000000    0.01562500   4 t-inv F
  0.000000  0.250000 -0.000000    0.01562500   5 t-inv F
  0.250000  0.250000  0.000000    0.01562500   6 t-inv F
  0.500000  0.250000  0.000000    0.01562500   7 t-inv F
 -0.250000  0.250000 -0.000000    0.01562500   8 t-inv F
  0.000000  0.500000 -0.000000    0.01562500   9 t-inv F
  0.250000  0.500000  0.000000    0.01562500  10 t-inv F
  0.500000  0.500000  0.000000    0.01562500  11 t-inv F
 -0.250000  0.500000 -0.000000    0.01562500  12 t-inv F
 -0.000000 -0.250000  0.000000    0.01562500  13 t-inv F
  0.250000 -0.250000  0.000000    0.01562500  14 t-inv F
  0.500000 -0.250000  0.000000    0.01562500  15 t-inv F
 -0.250000 -0.250000 -0.000000    0.01562500  16 t-inv F
  0.000000  0.000000  0.250000    0.01562500  17 t-inv F
  0.250000 -0.000000  0.250000    0.01562500  18 t-inv F
  0.500000 -0.000000  0.250000    0.01562500  19 t-inv F
 -0.250000 -0.000000  0.250000    0.01562500  20 t-inv F
 -0.000000  0.250000  0.250000    0.01562500  21 t-inv F
  0.250000  0.250000  0.250000    0.01562500  22 t-inv F
  0.500000  0.250000  0.250000    0.01562500  23 t-inv F
 -0.250000  0.250000  0.250000    0.01562500  24 t-inv F
 -0.000000  0.500000  0.250000    0.01562500  25 t-inv F
  0.250000  0.500000  0.250000    0.01562500  26 t-inv F
  0.500000  0.500000  0.250000    0.01562500  27 t-inv F
 -0.250000  0.500000  0.250000    0.01562500  28 t-inv F
  0.000000 -0.250000  0.250000    0.01562500  29 t-inv F
  0.250000 -0.250000  0.250000    0.01562500  30 t-inv F
  0.500000 -0.250000  0.250000    0.01562500  31 t-inv F
 -0.250000 -0.250000  0.250000    0.01562500  32 t-inv F
  0.000000  0.000000  0.500000    0.01562500  33 t-inv F
  0.250000  0.000000  0.500000    0.01562500  34 t-inv F
  0.500000 -0.000000  0.500000    0.01562500  35 t-inv F
 -0.250000  0.000000  0.500000    0.01562500  36 t-inv F
 -0.000000  0.250000  0.500000    0.01562500  37 t-inv F
  0.250000  0.250000  0.500000    0.01562500  38 t-inv F
  0.500000  0.250000  0.500000    0.01562500  39 t-inv F
 -0.250000  0.250000  0.500000    0.01562500  40 t-inv F
 -0.000000  0.500000  0.500000    0.01562500  41 t-inv F
  0.250000  0.500000  0.500000    0.01562500  42 t-inv F
  0.500000  0.500000  0.500000    0.01562500  43 t-inv F
 -0.250000  0.500000  0.500000    0.01562500  44 t-inv F
  0.000000 -0.250000  0.500000    0.01562500  45 t-inv F
  0.250000 -0.250000  0.500000    0.01562500  46 t-inv F
  0.500000 -0.250000  0.500000    0.01562500  47 t-inv F
 -0.250000 -0.250000  0.500000    0.01562500  48 t-inv F
  0.000000  0.000000 -0.250000    0.01562500  49 t-inv F
  0.250000  0.000000 -0.250000    0.01562500  50 t-inv F
  0.500000  0.000000 -0.250000    0.01562500  51 t-inv F
 -0.250000  0.000000 -0.250000    0.01562500  52 t-inv F
  0.000000  0.250000 -0.250000    0.01562500  53 t-inv F
  0.250000  0.250000 -0.250000    0.01562500  54 t-inv F
  0.500000  0.250000 -0.250000    0.01562500  55 t-inv F
 -0.250000  0.250000 -0.250000    0.01562500  56 t-inv F
  0.000000  0.500000 -0.250000    0.01562500  57 t-inv F
  0.250000  0.500000 -0.250000    0.01562500  58 t-inv F
  0.500000  0.500000 -0.250000    0.01562500  59 t-inv F
 -0.250000  0.500000 -0.250000    0.01562500  60 t-inv F
  0.000000 -0.250000 -0.250000    0.01562500  61 t-inv F
  0.250000 -0.250000 -0.250000    0.01562500  62 t-inv F
  0.500000 -0.250000 -0.250000    0.01562500  63 t-inv F
 -0.250000 -0.250000 -0.250000    0.01562500  64 t-inv F


--------------------------------------------------------------------------------------------------------




 Dimension of arrays:
   k-points           NKPTS =     64   k-points in BZ     NKDIM =     64   number of bands    NBANDS=     96
   number of dos      NEDOS =    301   number of ions     NIONS =      1
   non local maximal  LDIM  =      6   non local SUM 2l+1 LMDIM =     18
   total plane-waves  NPLWV =  21952
   max r-space proj   IRMAX =      1   max aug-charges    IRDMAX= 182324
   dimension x,y,z NGX =    28 NGY =   28 NGZ =   28
   dimension x,y,z NGXF=    56 NGYF=   56 NGZF=   56
   support grid    NGXF=   112 NGYF=  112 NGZF=  112
   ions per type =               1
   NGX,Y,Z   is equivalent  to a cutoff of  10.72, 10.72, 10.72 a.u.
   NGXF,Y,Z  is equivalent  to a cutoff of  21.44, 21.44, 21.44 a.u.

 SYSTEM =  Og_FCC                                  
 POSCAR =  Og_FCC                                  

 Startparameter for this run:
   NWRITE =      1    write-flag & timer
   PREC   = accura    normal or accurate (medium, high low for compatibility)
   ISTART =      1    job   : 0-new  1-cont  2-samecut
   ICHARG =      0    charge: 1-file 2-atom 10-const
   ISPIN  =      1    spin polarized calculation?
   LNONCOLLINEAR =      T non collinear calculations
   LSORBIT =      T    spin-orbit coupling
   INIWAV =      1    electr: 0-lowe 1-rand  2-diag
   LASPH  =      F    aspherical Exc in radial PAW
   METAGGA=      F    non-selfconsistent MetaGGA calc.

 Electronic Relaxation 1
   ENCUT  =  300.0 eV  22.05 Ry    4.70 a.u.   6.13  6.13  6.13*2*pi/ulx,y,z
   ENINI  =  300.0     initial cutoff
   ENAUG  =  361.0 eV  augmentation charge cutoff
   NELM   =      1;   NELMIN=  2; NELMDL=  0     # of ELM steps 
   EDIFF  = 0.1E-07   stopping-criterion for ELM
   LREAL  =      F    real-space projection
   NLSPLINE    = F    spline interpolate recip. space projectors
   LCOMPAT=      F    compatible to vasp.4.4
   GGA_COMPAT  = F    GGA compatible to vasp.4.4-vasp.4.6
   LMAXPAW     = -100 max onsite density
   LMAXMIX     =    2 max onsite mixed and CHGCAR
   VOSKOWN=      0    Vosko Wilk Nusair interpolation
   ROPT   =    0.00000
 Ionic relaxation
   EDIFFG = 0.1E-04   stopping-criterion for IOM
   NSW    =      1    number of steps for IOM
   NBLOCK =      1;   KBLOCK =      1    inner block; outer block 
   IBRION =     -1    ionic relax: 0-MD 1-quasi-New 2-CG
   NFREE  =      5    steps in history (QN), initial steepest desc. (CG)
   ISIF   =      3    stress and relaxation
   IWAVPR =     10    prediction:  0-non 1-charg 2-wave 3-comb
   ISYM   =      0    0-nonsym 1-usesym 2-fastsym
   LCORR  =      T    Harris-Foulkes like correction to forces

   POTIM  = 0.1000    time-step for ionic-motion
   TEIN   =    0.0    initial temperature
   TEBEG  =    0.0;   TEEND  =   0.0 temperature during run
   SMASS  =  -3.00    Nose mass-parameter (am)
   estimated Nose-frequenzy (Omega)   =  0.10E-29 period in steps =****** mass=  -0.431E-27a.u.
   SCALEE = 1.0000    scale energy and forces
   NPACO  =    256;   APACO  = 16.0  distance and # of slots for P.C.
   PSTRESS=    0.0 pullay stress

  Mass of Ions in am
   POMASS =   0.01
  Ionic Valenz
   ZVAL   =  18.00
  Atomic Wigner-Seitz radii
   RWIGS  =  -1.00
  virtual crystal weights 
   VCA    =   1.00
   NELECT =      18.0000    total number of electrons
   NUPDOWN=      -1.0000    fix difference up-down

 DOS related values:
   EMIN   =  10.00;   EMAX   =-10.00  energy-range for DOS
   EFERMI =   0.00
   ISMEAR =     0;   SIGMA  =   0.00  broadening in eV -4-tet -1-fermi 0-gaus

 Electronic relaxation 2 (details)
   IALGO  =     38    algorithm
   LDIAG  =      T    sub-space diagonalisation (order eigenvalues)
   LSUBROT=      F    optimize rotation matrix (better conditioning)
   TURBO    =      0    0=normal 1=particle mesh
   IRESTART =      0    0=no restart 2=restart with 2 vectors
   NREBOOT  =      0    no. of reboots
   NMIN     =      0    reboot dimension
   EREF     =   0.00    reference energy to select bands
   IMIX   =      1    mixing-type and parameters
     AMIX     =   0.40;   BMIX     =  1.00
     AMIX_MAG =   1.60;   BMIX_MAG =  1.00
     AMIN     =   0.10
     WC   =   100.;   INIMIX=   1;  MIXPRE=   1;  MAXMIX=  50

 Intra band minimization:
   WEIMIN = 0.0000     energy-eigenvalue tresh-hold
   EBREAK =  0.26E-10  absolut break condition
   DEPER  =   0.30     relativ break condition  

   TIME   =   0.40     timestep for ELM

  volume/ion in A,a.u.               =      57.90       390.71
  Fermi-wavevector in a.u.,A,eV,Ry     =   1.109038  2.095777 16.734680  1.229964
  Thomas-Fermi vector in A             =   2.245572
 
 Write flags
   LWAVE        =      T    write WAVECAR
   LDOWNSAMPLE  =      F    k-point downsampling of WAVECAR
   LCHARG       =      F    write CHGCAR
   LVTOT        =      F    write LOCPOT, total local potential
   LVHAR        =      F    write LOCPOT, Hartree potential only
   LELF         =      F    write electronic localiz. function (ELF)
   LORBIT       =      0    0 simple, 1 ext, 2 COOP (PROOUT), +10 PAW based schemes


 Dipole corrections
   LMONO  =      F    monopole corrections only (constant potential shift)
   LDIPOL =      F    correct potential (dipole corrections)
   IDIPOL =      0    1-x, 2-y, 3-z, 4-all directions 
   EPSILON=  1.0000000 bulk dielectric constant

 Exchange correlation treatment:
   GGA     =    PE    GGA type
   LEXCH   =     8    internal setting for exchange type
   VOSKOWN=      0    Vosko Wilk Nusair interpolation
   EXXOEP  =     0    0=HF, 1=EXX-LHF (local Hartree Fock) 2=EXX OEP
   LHFCALC =     T    Hartree Fock is set to
   LSYMGRAD=     F    symmetrize gradient (conserves proper symmetry)
   PRECFOCK=normal    Normal, Fast or Accurate (Low or Medium for compatibility)
   LRHFCALC=     F    long range Hartree Fock
   LRSCOR  =     F    long range correlation only (use DFT for short range part)
   LTHOMAS =     F    Thomas Fermi screening in HF
   LMODELHF=     F    short range full HF, long range fraction AEXX
   ENCUT4O =  -1.0   cutoff for four orbital integrals eV
   LMAXFOCK=     4    L truncation for augmentation on plane wave grid
   LMAXFOCKAE=   4    L truncation for all-electron charge restoration on plane wave grid
   NMAXFOCKAE=   1    number of basis functions for all-electron charge restoration
   LFOCKAEDFT=     F  apply the AE augmentation even for DFT
   NKREDX  =     1    reduce k-point grid by
   NKREDY  =     1    reduce k-point grid by
   NKREDZ  =     1    reduce k-point grid by
   SHIFTRED=     F    shift reduced grid of Gamma
   HFKIDENT=     F    idential grid for each k-point
   ODDONLY =     F    use only odd q-grid points
   EVENONLY=     F    use only even q-grid points
   HFALPHA =   -1.0000 decay constant for conv. correction
   MCALPHA =    0.0000 extent of test-charge in conv. correction in multipole expansion
   AEXX    =    1.0000 exact exchange contribution
   HFSCREEN=    0.0000 screening length (either q_TF or 0.3 A-1)
   HFSCREENC=   0.0000 screening length for correlation (either q_TF or 0.3 A-1)
   HFRCUT  =    0.0000 spherical cutoff for potential kernel
   ALDAX   =    0.0000 LDA exchange part
   AGGAX   =    0.0000 GGA exchange part
   ALDAC   =    0.0000 LDA correlation
   AGGAC   =    0.0000 GGA correlation
   ENCUTFOCK=  -1.0 apply spherical cutoff to Coloumb kernel
   NBANDSGWLOW=     1    first orbital included in HF term
   NBLOCK_FOCK=    64    blocking factor in FOCK_ACC
 Linear response parameters
   LEPSILON=     F    determine dielectric tensor
   LRPA    =     F    only Hartree local field effects (RPA)
   LNABLA  =     F    use nabla operator in PAW spheres
   LVEL    =     F    velocity operator in full k-point grid
   LINTERFAST=   F  fast interpolation
   KINTER  =     0    interpolate to denser k-point grid
   CSHIFT  =0.1000    complex shift for real part using Kramers Kronig
   OMEGAMAX=  -1.0    maximum frequency
   DEG_THRESHOLD= 0.2000000E-02 threshold for treating states as degnerate
   RTIME   =   -0.100 relaxation time in fs
  (WPLASMAI=    0.000 imaginary part of plasma frequency in eV, 0.658/RTIME)
   DFIELD  = 0.0000000 0.0000000 0.0000000 field for delta impulse in time
 
 Orbital magnetization related:
   ORBITALMAG=     F  switch on orbital magnetization
   LCHIMAG   =     F  perturbation theory with respect to B field
   DQ        =  0.001000  dq finite difference perturbation B field
   LLRAUG    =     F  two centre corrections for induced B field

 Response functions by sum over occupied states:
   ALGO    =QPGW       execute GW part
   LFXC    =     F    include DFT xc kernel in TD-HF and W
   LADDER  =     F    particle hole ladder diagrams for BSE/TD-HF and W (Nano-quanta)
   LRPAFORCE=     F   calculate RPA forces
   LHARTREE=     T    include Hartree terms (bubbles-RPA) in BSE/TD-HF
   IBSE    =     0    BSE modus: 0 exact, 1 time-evolution (store matrix), 10 time-evolution (implicit)
   KPOINT  =    -1   0   0   0    k-point index at which BSE equation is solved (and G at which response is eval.)
   LTRIPLET=     F    triplet instead of singlet excitation (BSE only)
   LRSRPA  =     F    range separated RPA (total - short) in ACFDT
   LTCTE   =     F    use test-charge test-electron dielectric function
   LTETE   =     F    use test-electron test-electron dielectric function
   LFXCEPS =     F    determine f_xc=epsilon-1/Xi Sharma and Gross kernel
   LFXHEG  =     F    model exchange using f_x(G,k_F) from free electron gas
   NATURALO=     2    0 natural orbitals, 1 only virtual, 2 only occupied-virtual rotation
   L2ORDER =     F    2nd order terms only
   LMP2LT   =     F    use LT MP2
   LUSEW   =     F    use screened W from WXXXX.tmp files instead of (screened) HF kernel
   ENCUTGW = 200.0    cutoff for response function in eV
   ENCUTGWSOFT = 200.0 soft cutoff for Coulomb kernel in GW response function in eV
   ENCUTLF =  -1.0    cutoff for local field effects
   LMAXMP2 =    -1    maximum L for one center terms
   SCISSOR =   0.0    scissor correction
   NOMEGA  =    50    number of frequencies
   NOMEGAR =    50    number of frequencies along real axis
   NBANDSGW=    -1    number of bands for which selfenergy shift is calculated
   NBANDSGWLOW=     1 lowest band included in GW (to exclude core correlation)
   NBANDSO =    -1    number of bands for electron-hole treatment (occupied)
   NBANDSV =    -1    number of bands for electron-hole treatment (virtual)
   NELM    =     1    number of iterations in solving QP/BSE equation
   NELMHF  =     1    number of iterations in the inner HF iteration
   DIM     =     3    dimensionality of system (0=0D molecules, 3=3D)
   ANTIRES =     0    antiresonant part (0) no TDA (1) w=0 exact (2) accurate
   OMEGAMAX= -30.0    maximum frequency
   OMEGAMIN= -30.000    minimum frequency
   OMEGATL =-200.0    maximum frequency of tail
   OMEGAGRID=     0    grid type (0 default)
   CSHIFT  =-0.100    complex shift used in evaluation of response functions
   SELFENERGY=   F    calculate selfenergy instead of QP shifts
   LSPECTRAL =   T    use spectral functions                   
   LSPECTRALGW=   F   use spectral functions to calculate int dz G(w-z) W(z) (more accurate)
   LSINGLES  =   F   calculate the singles contribution to the correlation energy
   LFERMIGW  =   F   update Fermi-energy in the Greens function

   ODDONLYGW =   F    avoid all even points for polarizability 
   EVENONLYGW=   F    avoid all odd  points for polarizability 
   NKREDLFX  =   1   NKREDLFY  =   1   NKREDLFZ  =   1

   TELESCOPE =   0   use telescope k-point sampling
   TAUPAR    =   1   number of TAU groups used in imaginary time calculation
   OMEGAPAR  =  -1   number of OMEGA groups used in imaginary frequency calculation



--------------------------------------------------------------------------------------------------------


 Static calculation
 charge density and potential will be updated during run
 non collinear spin polarized calculation
 Variant of blocked Davidson
 Davidson routine will perform the subspace rotation
 perform sub-space diagonalisation
    after iterative eigenvector-optimisation
 Kerker-like  mixing scheme
 using additional bands           87
 reciprocal scheme for non local part
 use partial core corrections
 calculate Harris-corrections to forces 
   (improved forces if not selfconsistent)
 use gradient corrections 
 use of overlap-Matrix (Vanderbilt PP)
 Gauss-broadening in eV      SIGMA  =   0.00


--------------------------------------------------------------------------------------------------------


  energy-cutoff  :      300.00
  volume of cell :       57.90
      direct lattice vectors                 reciprocal lattice vectors
     4.342345876  0.000000000  0.000000000     0.230290269 -0.132958149 -0.094015609
     2.171172938  3.760581840 -0.000000000     0.000000000  0.265916298 -0.094015609
     2.171172938  1.253527280  3.545510561    -0.000000000  0.000000000  0.282046826

  length of vectors
     4.342345876  4.342345876  4.342345876     0.282046826  0.282046826  0.282046826


 
 old parameters found on file WAVECAR:
  energy-cutoff  :      300.00
  volume of cell :       57.90
      direct lattice vectors                 reciprocal lattice vectors
     4.342345876  0.000000000  0.000000000     0.230290269 -0.132958149 -0.094015609
     2.171172938  3.760581840 -0.000000000     0.000000000  0.265916298 -0.094015609
     2.171172938  1.253527280  3.545510561    -0.000000000  0.000000000  0.282046826

  length of vectors

 
 k-points in units of 2pi/SCALE and weight: k-points                                
   0.00000000  0.00000000  0.00000000       0.016
   0.05757257 -0.03323954 -0.02350390       0.016
   0.11514513 -0.06647907 -0.04700780       0.016
  -0.05757257  0.03323954  0.02350390       0.016
   0.00000000  0.06647907 -0.02350390       0.016
   0.05757257  0.03323954 -0.04700780       0.016
   0.11514513  0.00000000 -0.07051171       0.016
  -0.05757257  0.09971861  0.00000000       0.016
   0.00000000  0.13295815 -0.04700780       0.016
   0.05757257  0.09971861 -0.07051171       0.016
   0.11514513  0.06647907 -0.09401561       0.016
  -0.05757257  0.16619769 -0.02350390       0.016
  -0.00000000 -0.06647907  0.02350390       0.016
   0.05757257 -0.09971861 -0.00000000       0.016
   0.11514513 -0.13295815 -0.02350390       0.016
  -0.05757257 -0.03323954  0.04700780       0.016
  -0.00000000  0.00000000  0.07051171       0.016
   0.05757257 -0.03323954  0.04700780       0.016
   0.11514513 -0.06647907  0.02350390       0.016
  -0.05757257  0.03323954  0.09401561       0.016
  -0.00000000  0.06647907  0.04700780       0.016
   0.05757257  0.03323954  0.02350390       0.016
   0.11514513  0.00000000 -0.00000000       0.016
  -0.05757257  0.09971861  0.07051171       0.016
  -0.00000000  0.13295815  0.02350390       0.016
   0.05757257  0.09971861  0.00000000       0.016
   0.11514513  0.06647907 -0.02350390       0.016
  -0.05757257  0.16619769  0.04700780       0.016
  -0.00000000 -0.06647907  0.09401561       0.016
   0.05757257 -0.09971861  0.07051171       0.016
   0.11514513 -0.13295815  0.04700780       0.016
  -0.05757257 -0.03323954  0.11751951       0.016
  -0.00000000  0.00000000  0.14102341       0.016
   0.05757257 -0.03323954  0.11751951       0.016
   0.11514513 -0.06647907  0.09401561       0.016
  -0.05757257  0.03323954  0.16452732       0.016
  -0.00000000  0.06647907  0.11751951       0.016
   0.05757257  0.03323954  0.09401561       0.016
   0.11514513  0.00000000  0.07051171       0.016
  -0.05757257  0.09971861  0.14102341       0.016
  -0.00000000  0.13295815  0.09401561       0.016
   0.05757257  0.09971861  0.07051171       0.016
   0.11514513  0.06647907  0.04700780       0.016
  -0.05757257  0.16619769  0.11751951       0.016
  -0.00000000 -0.06647907  0.16452732       0.016
   0.05757257 -0.09971861  0.14102341       0.016
   0.11514513 -0.13295815  0.11751951       0.016
  -0.05757257 -0.03323954  0.18803122       0.016
   0.00000000 -0.00000000 -0.07051171       0.016
   0.05757257 -0.03323954 -0.09401561       0.016
   0.11514513 -0.06647907 -0.11751951       0.016
  -0.05757257  0.03323954 -0.04700780       0.016
   0.00000000  0.06647907 -0.09401561       0.016
   0.05757257  0.03323954 -0.11751951       0.016
   0.11514513 -0.00000000 -0.14102341       0.016
  -0.05757257  0.09971861 -0.07051171       0.016
   0.00000000  0.13295815 -0.11751951       0.016
   0.05757257  0.09971861 -0.14102341       0.016
   0.11514513  0.06647907 -0.16452732       0.016
  -0.05757257  0.16619769 -0.09401561       0.016
   0.00000000 -0.06647907 -0.04700780       0.016
   0.05757257 -0.09971861 -0.07051171       0.016
   0.11514513 -0.13295815 -0.09401561       0.016
  -0.05757257 -0.03323954 -0.02350390       0.016
 
 k-points in reciprocal lattice and weights: k-points                                
   0.00000000  0.00000000  0.00000000       0.016
   0.25000000  0.00000000  0.00000000       0.016
   0.50000000  0.00000000  0.00000000       0.016
  -0.25000000 -0.00000000 -0.00000000       0.016
   0.00000000  0.25000000 -0.00000000       0.016
   0.25000000  0.25000000  0.00000000       0.016
   0.50000000  0.25000000  0.00000000       0.016
  -0.25000000  0.25000000 -0.00000000       0.016
   0.00000000  0.50000000 -0.00000000       0.016
   0.25000000  0.50000000  0.00000000       0.016
   0.50000000  0.50000000  0.00000000       0.016
  -0.25000000  0.50000000 -0.00000000       0.016
  -0.00000000 -0.25000000  0.00000000       0.016
   0.25000000 -0.25000000  0.00000000       0.016
   0.50000000 -0.25000000  0.00000000       0.016
  -0.25000000 -0.25000000 -0.00000000       0.016
   0.00000000  0.00000000  0.25000000       0.016
   0.25000000 -0.00000000  0.25000000       0.016
   0.50000000 -0.00000000  0.25000000       0.016
  -0.25000000 -0.00000000  0.25000000       0.016
  -0.00000000  0.25000000  0.25000000       0.016
   0.25000000  0.25000000  0.25000000       0.016
   0.50000000  0.25000000  0.25000000       0.016
  -0.25000000  0.25000000  0.25000000       0.016
  -0.00000000  0.50000000  0.25000000       0.016
   0.25000000  0.50000000  0.25000000       0.016
   0.50000000  0.50000000  0.25000000       0.016
  -0.25000000  0.50000000  0.25000000       0.016
   0.00000000 -0.25000000  0.25000000       0.016
   0.25000000 -0.25000000  0.25000000       0.016
   0.50000000 -0.25000000  0.25000000       0.016
  -0.25000000 -0.25000000  0.25000000       0.016
   0.00000000  0.00000000  0.50000000       0.016
   0.25000000  0.00000000  0.50000000       0.016
   0.50000000 -0.00000000  0.50000000       0.016
  -0.25000000  0.00000000  0.50000000       0.016
  -0.00000000  0.25000000  0.50000000       0.016
   0.25000000  0.25000000  0.50000000       0.016
   0.50000000  0.25000000  0.50000000       0.016
  -0.25000000  0.25000000  0.50000000       0.016
  -0.00000000  0.50000000  0.50000000       0.016
   0.25000000  0.50000000  0.50000000       0.016
   0.50000000  0.50000000  0.50000000       0.016
  -0.25000000  0.50000000  0.50000000       0.016
   0.00000000 -0.25000000  0.50000000       0.016
   0.25000000 -0.25000000  0.50000000       0.016
   0.50000000 -0.25000000  0.50000000       0.016
  -0.25000000 -0.25000000  0.50000000       0.016
   0.00000000  0.00000000 -0.25000000       0.016
   0.25000000  0.00000000 -0.25000000       0.016
   0.50000000  0.00000000 -0.25000000       0.016
  -0.25000000  0.00000000 -0.25000000       0.016
   0.00000000  0.25000000 -0.25000000       0.016
   0.25000000  0.25000000 -0.25000000       0.016
   0.50000000  0.25000000 -0.25000000       0.016
  -0.25000000  0.25000000 -0.25000000       0.016
   0.00000000  0.50000000 -0.25000000       0.016
   0.25000000  0.50000000 -0.25000000       0.016
   0.50000000  0.50000000 -0.25000000       0.016
  -0.25000000  0.50000000 -0.25000000       0.016
   0.00000000 -0.25000000 -0.25000000       0.016
   0.25000000 -0.25000000 -0.25000000       0.016
   0.50000000 -0.25000000 -0.25000000       0.016
  -0.25000000 -0.25000000 -0.25000000       0.016
 
 position of ions in fractional coordinates (direct lattice) 
   0.00000000  0.00000000  0.00000000
 
 position of ions in cartesian coordinates  (Angst):
   0.00000000  0.00000000  0.00000000
 
 Euler angles ALPHA=     0.0000000  BETA=     0.0000000

 transformation matrix from SAXIS to cartesian coordinates
 ---------------------------------------------------------
     1.0000000 m_x     0.0000000 m_y     0.0000000 m_z
     0.0000000 m_x     1.0000000 m_y     0.0000000 m_z
     0.0000000 m_x     0.0000000 m_y     1.0000000 m_z

 transformation matrix from cartesian coordinates to SAXIS
 ---------------------------------------------------------
     1.0000000 m_x     0.0000000 m_y     0.0000000 m_z
     0.0000000 m_x     1.0000000 m_y     0.0000000 m_z
     0.0000000 m_x     0.0000000 m_y     1.0000000 m_z




--------------------------------------------------------------------------------------------------------


 k-point  1 :   0.0000 0.0000 0.0000  plane waves:    1402
 k-point  2 :   0.2500 0.0000 0.0000  plane waves:    1358
 k-point  3 :   0.5000 0.0000 0.0000  plane waves:    1400
 k-point  4 :  -0.2500-0.0000-0.0000  plane waves:    1358
 k-point  5 :   0.0000 0.2500-0.0000  plane waves:    1358
 k-point  6 :   0.2500 0.2500 0.0000  plane waves:    1362
 k-point  7 :   0.5000 0.2500 0.0000  plane waves:    1374
 k-point  8 :  -0.2500 0.2500-0.0000  plane waves:    1352
 k-point  9 :   0.0000 0.5000-0.0000  plane waves:    1400
 k-point 10 :   0.2500 0.5000 0.0000  plane waves:    1374
 k-point 11 :   0.5000 0.5000 0.0000  plane waves:    1384
 k-point 12 :  -0.2500 0.5000-0.0000  plane waves:    1374
 k-point 13 :  -0.0000-0.2500 0.0000  plane waves:    1358
 k-point 14 :   0.2500-0.2500 0.0000  plane waves:    1352
 k-point 15 :   0.5000-0.2500 0.0000  plane waves:    1374
 k-point 16 :  -0.2500-0.2500-0.0000  plane waves:    1362
 k-point 17 :   0.0000 0.0000 0.2500  plane waves:    1358
 k-point 18 :   0.2500-0.0000 0.2500  plane waves:    1362
 k-point 19 :   0.5000-0.0000 0.2500  plane waves:    1374
 k-point 20 :  -0.2500-0.0000 0.2500  plane waves:    1352
 k-point 21 :  -0.0000 0.2500 0.2500  plane waves:    1362
 k-point 22 :   0.2500 0.2500 0.2500  plane waves:    1358
 k-point 23 :   0.5000 0.2500 0.2500  plane waves:    1352
 k-point 24 :  -0.2500 0.2500 0.2500  plane waves:    1374
 k-point 25 :  -0.0000 0.5000 0.2500  plane waves:    1374
 k-point 26 :   0.2500 0.5000 0.2500  plane waves:    1352
 k-point 27 :   0.5000 0.5000 0.2500  plane waves:    1374
 k-point 28 :  -0.2500 0.5000 0.2500  plane waves:    1368
 k-point 29 :   0.0000-0.2500 0.2500  plane waves:    1352
 k-point 30 :   0.2500-0.2500 0.2500  plane waves:    1374
 k-point 31 :   0.5000-0.2500 0.2500  plane waves:    1368
 k-point 32 :  -0.2500-0.2500 0.2500  plane waves:    1374
 k-point 33 :   0.0000 0.0000 0.5000  plane waves:    1400
 k-point 34 :   0.2500 0.0000 0.5000  plane waves:    1374
 k-point 35 :   0.5000-0.0000 0.5000  plane waves:    1384
 k-point 36 :  -0.2500 0.0000 0.5000  plane waves:    1374
 k-point 37 :  -0.0000 0.2500 0.5000  plane waves:    1374
 k-point 38 :   0.2500 0.2500 0.5000  plane waves:    1352
 k-point 39 :   0.5000 0.2500 0.5000  plane waves:    1374
 k-point 40 :  -0.2500 0.2500 0.5000  plane waves:    1368
 k-point 41 :  -0.0000 0.5000 0.5000  plane waves:    1384
 k-point 42 :   0.2500 0.5000 0.5000  plane waves:    1374
 k-point 43 :   0.5000 0.5000 0.5000  plane waves:    1400
 k-point 44 :  -0.2500 0.5000 0.5000  plane waves:    1374
 k-point 45 :   0.0000-0.2500 0.5000  plane waves:    1374
 k-point 46 :   0.2500-0.2500 0.5000  plane waves:    1368
 k-point 47 :   0.5000-0.2500 0.5000  plane waves:    1374
 k-point 48 :  -0.2500-0.2500 0.5000  plane waves:    1352
 k-point 49 :   0.0000 0.0000-0.2500  plane waves:    1358
 k-point 50 :   0.2500 0.0000-0.2500  plane waves:    1352
 k-point 51 :   0.5000 0.0000-0.2500  plane waves:    1374
 k-point 52 :  -0.2500 0.0000-0.2500  plane waves:    1362
 k-point 53 :   0.0000 0.2500-0.2500  plane waves:    1352
 k-point 54 :   0.2500 0.2500-0.2500  plane waves:    1374
 k-point 55 :   0.5000 0.2500-0.2500  plane waves:    1368
 k-point 56 :  -0.2500 0.2500-0.2500  plane waves:    1374
 k-point 57 :   0.0000 0.5000-0.2500  plane waves:    1374
 k-point 58 :   0.2500 0.5000-0.2500  plane waves:    1368
 k-point 59 :   0.5000 0.5000-0.2500  plane waves:    1374
 k-point 60 :  -0.2500 0.5000-0.2500  plane waves:    1352
 k-point 61 :   0.0000-0.2500-0.2500  plane waves:    1362
 k-point 62 :   0.2500-0.2500-0.2500  plane waves:    1374
 k-point 63 :   0.5000-0.2500-0.2500  plane waves:    1352
 k-point 64 :  -0.2500-0.2500-0.2500  plane waves:    1358

 maximum and minimum number of plane-waves per node :      1402     1352

 maximum number of plane-waves:      1402
 maximum index in each direction: 
   IXMAX=    6   IYMAX=    6   IZMAX=    6
   IXMIN=   -6   IYMIN=   -6   IZMIN=   -6


 serial   3D FFT for wavefunctions
 parallel 3D FFT for charge:
    minimum data exchange during FFTs selected (reduces bandwidth)


 FFT grid for exact exchange (Hartree Fock) 
  NGX = 20; NGY = 20; NGZ = 20

 
 Radii for the augmentation spheres in the non-local exchange
 for species   1 augmentation radius   1.202 (default was   1.202)
 error exchange integrals (PW-AE in eV) (mean, max) 0.801 3.766 density error[0,qmax] 0.0260
 Maximum index for augmentation-charges in exchange          959
  SETUP_FOCK is finished

 total amount of memory used by VASP MPI-rank0    98304. kBytes
=======================================================================

   base      :      30000. kBytes
   nonl-proj :       6499. kBytes
   fftplans  :      12947. kBytes
   grid      :      12644. kBytes
   one-center:         62. kBytes
   HF        :        129. kBytes
   nonlr-proj:        437. kBytes
   wavefun   :      35586. kBytes
 
     INWAV:  cpu time    0.4672: real time    0.4683
 charge density for first step will be calculated from the start-wavefunctions


--------------------------------------------------------------------------------------------------------


 Maximum index for augmentation-charges        44167 (set IRDMAX)


--------------------------------------------------------------------------------------------------------


 initial charge from wavefunction
    FEWALD:  cpu time    0.0009: real time    0.0009

 The Fermi energy was updated, please check that it is located mid-gap
 values below the HOMO (VB) or above the LUMO (CB) will cause erroneous energies
 E-fermi :   3.1636

 Response functions by sum over occupied states:
 ===============================================
   NOMEGA  =    50    number of frequencies
   NOMEGAR =    50    number of frequencies along real axis
   OMEGAMAX=  32.67   maximum frequency
   OMEGAMIN=   0.25   minimum frequency
   OMEGATL = 183.21   maximum frequency of tail
   CSHIFT  =  0.849   complex shift used in evaluation of response functions


 Energies iw= 
 ============
   0.000   0.000   0.606   0.000   1.210   0.000   1.810   0.000   2.403   0.000
   2.988   0.000   3.564   0.000   4.131   0.000   4.687   0.000   5.234   0.000
   5.771   0.000   6.299   0.000   6.820   0.000   7.334   0.000   7.842   0.000
   8.347   0.000   8.850   0.000   9.353   0.000   9.858   0.000  10.366   0.000
  10.880   0.000  11.403   0.000  11.936   0.000  12.484   0.000  13.048   0.000
  13.634   0.000  14.245   0.000  14.885   0.000  15.560   0.000  16.277   0.000
  17.044   0.000  17.869   0.000  18.764   0.000  19.743   0.000  20.822   0.000
  22.023   0.000  23.373   0.000  24.907   0.000  26.673   0.000  28.731   0.000
  31.169   0.000  34.107   0.000  37.725   0.000  42.290   0.000  48.233   0.000
  56.284   0.000  67.790   0.000  85.543   0.000 116.422   0.000 183.206   0.000
 

IMPORTANT INFORMATION: All symmetrisations will be switched off!
NOSYMM: (Re-)initialisation of all symmetry stuff for point group C_1.

 
 KPOINTS: k-points                                

Automatic generation of k-mesh.
Space group operators:
 irot       det(A)        alpha          n_x          n_y          n_z        tau_x        tau_y        tau_z
    1     1.000000     0.000000     1.000000     0.000000     0.000000     0.000000     0.000000     0.000000
 
 Subroutine IBZKPT returns following result:
 ===========================================
 
 Found     64 irreducible k-points:
 
 Following reciprocal coordinates:
            Coordinates               Weight
  0.000000  0.000000  0.000000      1.000000
  0.250000  0.000000  0.000000      1.000000
  0.500000  0.000000  0.000000      1.000000
 -0.250000 -0.000000 -0.000000      1.000000
  0.000000  0.250000 -0.000000      1.000000
  0.250000  0.250000  0.000000      1.000000
  0.500000  0.250000  0.000000      1.000000
 -0.250000  0.250000 -0.000000      1.000000
  0.000000  0.500000 -0.000000      1.000000
  0.250000  0.500000  0.000000      1.000000
  0.500000  0.500000  0.000000      1.000000
 -0.250000  0.500000 -0.000000      1.000000
 -0.000000 -0.250000  0.000000      1.000000
  0.250000 -0.250000  0.000000      1.000000
  0.500000 -0.250000  0.000000      1.000000
 -0.250000 -0.250000 -0.000000      1.000000
  0.000000  0.000000  0.250000      1.000000
  0.250000 -0.000000  0.250000      1.000000
  0.500000 -0.000000  0.250000      1.000000
 -0.250000 -0.000000  0.250000      1.000000
 -0.000000  0.250000  0.250000      1.000000
  0.250000  0.250000  0.250000      1.000000
  0.500000  0.250000  0.250000      1.000000
 -0.250000  0.250000  0.250000      1.000000
 -0.000000  0.500000  0.250000      1.000000
  0.250000  0.500000  0.250000      1.000000
  0.500000  0.500000  0.250000      1.000000
 -0.250000  0.500000  0.250000      1.000000
  0.000000 -0.250000  0.250000      1.000000
  0.250000 -0.250000  0.250000      1.000000
  0.500000 -0.250000  0.250000      1.000000
 -0.250000 -0.250000  0.250000      1.000000
  0.000000  0.000000  0.500000      1.000000
  0.250000  0.000000  0.500000      1.000000
  0.500000 -0.000000  0.500000      1.000000
 -0.250000  0.000000  0.500000      1.000000
 -0.000000  0.250000  0.500000      1.000000
  0.250000  0.250000  0.500000      1.000000
  0.500000  0.250000  0.500000      1.000000
 -0.250000  0.250000  0.500000      1.000000
 -0.000000  0.500000  0.500000      1.000000
  0.250000  0.500000  0.500000      1.000000
  0.500000  0.500000  0.500000      1.000000
 -0.250000  0.500000  0.500000      1.000000
  0.000000 -0.250000  0.500000      1.000000
  0.250000 -0.250000  0.500000      1.000000
  0.500000 -0.250000  0.500000      1.000000
 -0.250000 -0.250000  0.500000      1.000000
  0.000000  0.000000 -0.250000      1.000000
  0.250000  0.000000 -0.250000      1.000000
  0.500000  0.000000 -0.250000      1.000000
 -0.250000  0.000000 -0.250000      1.000000
  0.000000  0.250000 -0.250000      1.000000
  0.250000  0.250000 -0.250000      1.000000
  0.500000  0.250000 -0.250000      1.000000
 -0.250000  0.250000 -0.250000      1.000000
  0.000000  0.500000 -0.250000      1.000000
  0.250000  0.500000 -0.250000      1.000000
  0.500000  0.500000 -0.250000      1.000000
 -0.250000  0.500000 -0.250000      1.000000
  0.000000 -0.250000 -0.250000      1.000000
  0.250000 -0.250000 -0.250000      1.000000
  0.500000 -0.250000 -0.250000      1.000000
 -0.250000 -0.250000 -0.250000      1.000000
 
 Following cartesian coordinates:
            Coordinates               Weight
  0.000000  0.000000  0.000000      1.000000
  0.057573 -0.033240 -0.023504      1.000000
  0.115145 -0.066479 -0.047008      1.000000
 -0.057573  0.033240  0.023504      1.000000
  0.000000  0.066479 -0.023504      1.000000
  0.057573  0.033240 -0.047008      1.000000
  0.115145  0.000000 -0.070512      1.000000
 -0.057573  0.099719  0.000000      1.000000
  0.000000  0.132958 -0.047008      1.000000
  0.057573  0.099719 -0.070512      1.000000
  0.115145  0.066479 -0.094016      1.000000
 -0.057573  0.166198 -0.023504      1.000000
 -0.000000 -0.066479  0.023504      1.000000
  0.057573 -0.099719 -0.000000      1.000000
  0.115145 -0.132958 -0.023504      1.000000
 -0.057573 -0.033240  0.047008      1.000000
 -0.000000  0.000000  0.070512      1.000000
  0.057573 -0.033240  0.047008      1.000000
  0.115145 -0.066479  0.023504      1.000000
 -0.057573  0.033240  0.094016      1.000000
 -0.000000  0.066479  0.047008      1.000000
  0.057573  0.033240  0.023504      1.000000
  0.115145  0.000000 -0.000000      1.000000
 -0.057573  0.099719  0.070512      1.000000
 -0.000000  0.132958  0.023504      1.000000
  0.057573  0.099719  0.000000      1.000000
  0.115145  0.066479 -0.023504      1.000000
 -0.057573  0.166198  0.047008      1.000000
 -0.000000 -0.066479  0.094016      1.000000
  0.057573 -0.099719  0.070512      1.000000
  0.115145 -0.132958  0.047008      1.000000
 -0.057573 -0.033240  0.117520      1.000000
 -0.000000  0.000000  0.141023      1.000000
  0.057573 -0.033240  0.117520      1.000000
  0.115145 -0.066479  0.094016      1.000000
 -0.057573  0.033240  0.164527      1.000000
 -0.000000  0.066479  0.117520      1.000000
  0.057573  0.033240  0.094016      1.000000
  0.115145  0.000000  0.070512      1.000000
 -0.057573  0.099719  0.141023      1.000000
 -0.000000  0.132958  0.094016      1.000000
  0.057573  0.099719  0.070512      1.000000
  0.115145  0.066479  0.047008      1.000000
 -0.057573  0.166198  0.117520      1.000000
 -0.000000 -0.066479  0.164527      1.000000
  0.057573 -0.099719  0.141023      1.000000
  0.115145 -0.132958  0.117520      1.000000
 -0.057573 -0.033240  0.188031      1.000000
  0.000000 -0.000000 -0.070512      1.000000
  0.057573 -0.033240 -0.094016      1.000000
  0.115145 -0.066479 -0.117520      1.000000
 -0.057573  0.033240 -0.047008      1.000000
  0.000000  0.066479 -0.094016      1.000000
  0.057573  0.033240 -0.117520      1.000000
  0.115145 -0.000000 -0.141023      1.000000
 -0.057573  0.099719 -0.070512      1.000000
  0.000000  0.132958 -0.117520      1.000000
  0.057573  0.099719 -0.141023      1.000000
  0.115145  0.066479 -0.164527      1.000000
 -0.057573  0.166198 -0.094016      1.000000
  0.000000 -0.066479 -0.047008      1.000000
  0.057573 -0.099719 -0.070512      1.000000
  0.115145 -0.132958 -0.094016      1.000000
 -0.057573 -0.033240 -0.023504      1.000000
 
 files read and symmetry switched off, memory is now:
 total amount of memory used by VASP MPI-rank0    98304. kBytes
=======================================================================

   base      :      30000. kBytes
   nonl-proj :       6499. kBytes
   fftplans  :      12947. kBytes
   grid      :      12644. kBytes
   one-center:         62. kBytes
   HF        :        129. kBytes
   nonlr-proj:        437. kBytes
   wavefun   :      35586. kBytes
 
 Basis sets for responsefunctions:
 =================================
 k-point  1 :   0.0000 0.0000 0.0000  plane waves:     678
 k-point  2 :   0.2500 0.0000 0.0000  plane waves:     718
 k-point  3 :   0.5000 0.0000 0.0000  plane waves:     736
 k-point  4 :  -0.2500-0.0000-0.0000  plane waves:     718
 k-point  5 :   0.0000 0.2500-0.0000  plane waves:     718
 k-point  6 :   0.2500 0.2500 0.0000  plane waves:     702
 k-point  7 :   0.5000 0.2500 0.0000  plane waves:     740
 k-point  8 :  -0.2500 0.2500-0.0000  plane waves:     746
 k-point  9 :   0.0000 0.5000-0.0000  plane waves:     736
 k-point 10 :   0.2500 0.5000 0.0000  plane waves:     740
 k-point 11 :   0.5000 0.5000 0.0000  plane waves:     776
 k-point 12 :  -0.2500 0.5000-0.0000  plane waves:     740
 k-point 13 :  -0.0000-0.2500 0.0000  plane waves:     718
 k-point 14 :   0.2500-0.2500 0.0000  plane waves:     746
 k-point 15 :   0.5000-0.2500 0.0000  plane waves:     740
 k-point 16 :  -0.2500-0.2500-0.0000  plane waves:     702
 k-point 17 :   0.0000 0.0000 0.2500  plane waves:     718
 k-point 18 :   0.2500-0.0000 0.2500  plane waves:     702
 k-point 19 :   0.5000-0.0000 0.2500  plane waves:     740
 k-point 20 :  -0.2500-0.0000 0.2500  plane waves:     746
 k-point 21 :  -0.0000 0.2500 0.2500  plane waves:     702
 k-point 22 :   0.2500 0.2500 0.2500  plane waves:     718
 k-point 23 :   0.5000 0.2500 0.2500  plane waves:     746
 k-point 24 :  -0.2500 0.2500 0.2500  plane waves:     740
 k-point 25 :  -0.0000 0.5000 0.2500  plane waves:     740
 k-point 26 :   0.2500 0.5000 0.2500  plane waves:     746
 k-point 27 :   0.5000 0.5000 0.2500  plane waves:     740
 k-point 28 :  -0.2500 0.5000 0.2500  plane waves:     760
 k-point 29 :   0.0000-0.2500 0.2500  plane waves:     746
 k-point 30 :   0.2500-0.2500 0.2500  plane waves:     740
 k-point 31 :   0.5000-0.2500 0.2500  plane waves:     760
 k-point 32 :  -0.2500-0.2500 0.2500  plane waves:     740
 k-point 33 :   0.0000 0.0000 0.5000  plane waves:     736
 k-point 34 :   0.2500 0.0000 0.5000  plane waves:     740
 k-point 35 :   0.5000-0.0000 0.5000  plane waves:     776
 k-point 36 :  -0.2500 0.0000 0.5000  plane waves:     740
 k-point 37 :  -0.0000 0.2500 0.5000  plane waves:     740
 k-point 38 :   0.2500 0.2500 0.5000  plane waves:     746
 k-point 39 :   0.5000 0.2500 0.5000  plane waves:     740
 k-point 40 :  -0.2500 0.2500 0.5000  plane waves:     760
 k-point 41 :  -0.0000 0.5000 0.5000  plane waves:     776
 k-point 42 :   0.2500 0.5000 0.5000  plane waves:     740
 k-point 43 :   0.5000 0.5000 0.5000  plane waves:     736
 k-point 44 :  -0.2500 0.5000 0.5000  plane waves:     740
 k-point 45 :   0.0000-0.2500 0.5000  plane waves:     740
 k-point 46 :   0.2500-0.2500 0.5000  plane waves:     760
 k-point 47 :   0.5000-0.2500 0.5000  plane waves:     740
 k-point 48 :  -0.2500-0.2500 0.5000  plane waves:     746
 k-point 49 :   0.0000 0.0000-0.2500  plane waves:     718
 k-point 50 :   0.2500 0.0000-0.2500  plane waves:     746
 k-point 51 :   0.5000 0.0000-0.2500  plane waves:     740
 k-point 52 :  -0.2500 0.0000-0.2500  plane waves:     702
 k-point 53 :   0.0000 0.2500-0.2500  plane waves:     746
 k-point 54 :   0.2500 0.2500-0.2500  plane waves:     740
 k-point 55 :   0.5000 0.2500-0.2500  plane waves:     760
 k-point 56 :  -0.2500 0.2500-0.2500  plane waves:     740
 k-point 57 :   0.0000 0.5000-0.2500  plane waves:     740
 k-point 58 :   0.2500 0.5000-0.2500  plane waves:     760
 k-point 59 :   0.5000 0.5000-0.2500  plane waves:     740
 k-point 60 :  -0.2500 0.5000-0.2500  plane waves:     746
 k-point 61 :   0.0000-0.2500-0.2500  plane waves:     702
 k-point 62 :   0.2500-0.2500-0.2500  plane waves:     740
 k-point 63 :   0.5000-0.2500-0.2500  plane waves:     746
 k-point 64 :  -0.2500-0.2500-0.2500  plane waves:     718

 maximum and minimum number of plane-waves per node :       776      678

 maximum number of plane-waves:       776
 maximum index in each direction: 
   IXMAX=    5   IYMAX=    5   IZMAX=    5
   IXMIN=   -5   IYMIN=   -5   IZMIN=   -5

 exchange correlation table for  LEXCH =        8
   RHO(1)=    0.500       N(1)  =     2000
   RHO(2)=  100.500       N(2)  =     4000
 shmem allocating  50 responsefunctions rank=   388
 response function shared by NCSHMEM nodes    1
 all allocation done, memory is now:
 total amount of memory used by VASP MPI-rank0   375367. kBytes
=======================================================================

   base      :      30000. kBytes
   nonl-proj :       6499. kBytes
   fftplans  :      12947. kBytes
   grid      :      12644. kBytes
   one-center:         62. kBytes
   HF        :        129. kBytes
   nonlr-proj:        437. kBytes
   wavefun   :     106758. kBytes
   2eintegral:      62914. kBytes
   fockhandle:      10276. kBytes
   response  :     132701. kBytes
 


--------------------------------------------------------------------------------------------------------


NQ=   1    0.0000    0.0000    0.0000, 
       CHI:  cpu time    2.2886: real time    2.2924
   KRAMKRO:  cpu time    0.2279: real time    0.2283
    LFIELD:  cpu time    0.0000: real time    0.0000

 HEAD OF MICROSCOPIC DIELECTRIC TENSOR (INDEPENDENT PARTICLE)
 -------------------------------------
 w=     0.000     0.000
        31.8316    0.0000      0.0502   -3.3088      0.0488    5.4397
         0.0502    3.3088     31.7213   -0.0000     -0.0387   -5.1245
         0.0488   -5.4397     -0.0387    5.1245     31.7372    0.0000

        0.000        31.763    -0.000 dielectric  constant
 
 w=     0.606     0.000
        19.7967   17.8496      2.2743   -1.7305     -3.6678    2.9342
        -2.2197    1.7987     19.7368   17.7747      3.4597   -2.7593
         3.7205   -2.8679     -3.5004    2.7068     19.7452   17.7855

        0.606        19.760    17.803 dielectric  constant
 
 w=     1.210     0.000
         4.7796   15.0541      1.8476    0.2061     -3.0442   -0.2645
        -1.8527   -0.1491      4.7852   14.9916      2.8676    0.2536
         3.0391    0.3196     -2.8633   -0.2964      4.7843   15.0004

        1.210         4.783    15.015 dielectric  constant
 
 w=     1.810     0.000
         1.9739    8.0926      0.8866    0.5926     -1.4807   -0.9382
        -0.9043   -0.5650      1.9933    8.0623      1.3937    0.8860
         1.4635    0.9650     -1.3803   -0.9066      1.9906    8.0666

        1.810         1.986     8.074 dielectric  constant
 
 w=     2.403     0.000
         3.0697    5.4518      0.4270    0.4858     -0.7213   -0.7812
        -0.4417   -0.4724      3.0858    5.4371      0.6787    0.7369
         0.7070    0.7941     -0.6676   -0.7470      3.0835    5.4391

        2.403         3.080     5.443 dielectric  constant
 
 w=     2.988     0.000
         3.7092    5.3448      0.2308    0.3609     -0.3937   -0.5838
        -0.2418   -0.3536      3.7212    5.3368      0.3705    0.5509
         0.3831    0.5908     -0.3622   -0.5563      3.7195    5.3379

        2.988         3.717     5.340 dielectric  constant
 
 w=     3.564     0.000
         3.0563    5.6037      0.1385    0.2719     -0.2384   -0.4412
        -0.1468   -0.2675      3.0654    5.5989      0.2241    0.4167
         0.2304    0.4455     -0.2178   -0.4200      3.0642    5.5996

        3.564         3.062     5.601 dielectric  constant
 
 w=     4.131     0.000
         2.2552    4.9819      0.0893    0.2114     -0.1552   -0.3439
        -0.0957   -0.2087      2.2622    4.9789      0.1453    0.3248
         0.1489    0.3466     -0.1405   -0.3269      2.2612    4.9793

        4.131         2.260     4.980 dielectric  constant
 
 w=     4.687     0.000
         2.2901    4.2876      0.0603    0.1686     -0.1059   -0.2747
        -0.0654   -0.1667      2.2957    4.2855      0.0988    0.2591
         0.1010    0.2765     -0.0950   -0.2606      2.2949    4.2858

        4.687         2.294     4.286 dielectric  constant
 
 w=     5.234     0.000
         2.6188    4.2866      0.0431    0.1372     -0.0763   -0.2237
        -0.0472   -0.1358      2.6234    4.2850      0.0711    0.2107
         0.0722    0.2251     -0.0680   -0.2118      2.6227    4.2853

        5.234         2.622     4.286 dielectric  constant
 
 w=     5.771     0.000
         2.5601    4.8784      0.0327    0.1146     -0.0583   -0.1871
        -0.0361   -0.1136      2.5639    4.8773      0.0546    0.1762
         0.0549    0.1881     -0.0519   -0.1770      2.5633    4.8774

        5.771         2.562     4.878 dielectric  constant
 
 w=     6.299     0.000
         1.6371    5.4176      0.0252    0.0989     -0.0452   -0.1614
        -0.0281   -0.0980      1.6403    5.4167      0.0424    0.1524
         0.0423    0.1622     -0.0402   -0.1530      1.6398    5.4168

        6.299         1.639     5.417 dielectric  constant
 
 w=     6.820     0.000
         0.5215    5.0294      0.0181    0.0869     -0.0332   -0.1420
        -0.0207   -0.0863      0.5242    5.0287      0.0307    0.1344
         0.0307    0.1426     -0.0288   -0.1349      0.5238    5.0288

        6.820         0.523     5.029 dielectric  constant
 
 w=     7.334     0.000
         0.0520    4.3232      0.0112    0.0765     -0.0215   -0.1250
        -0.0134   -0.0760      0.0544    4.3226      0.0191    0.1183
         0.0193    0.1255     -0.0173   -0.1187      0.0540    4.3227

        7.334         0.053     4.323 dielectric  constant
 
 w=     7.842     0.000
        -0.1558    3.8399      0.0045    0.0653     -0.0103   -0.1070
        -0.0065   -0.0649     -0.1537    3.8394      0.0077    0.1004
         0.0084    0.1073     -0.0062   -0.1007     -0.1540    3.8395

        7.842        -0.154     3.840 dielectric  constant
 
 w=     8.347     0.000
        -0.3127    3.4259      0.0022    0.0516     -0.0061   -0.0848
        -0.0040   -0.0513     -0.3108    3.4255      0.0043    0.0776
         0.0044    0.0851     -0.0030   -0.0778     -0.3111    3.4256

        8.347        -0.312     3.426 dielectric  constant
 
 w=     8.850     0.000
        -0.4383    3.1031      0.0070    0.0432     -0.0133   -0.0711
        -0.0085   -0.0430     -0.4366    3.1028      0.0137    0.0646
         0.0118    0.0713     -0.0125   -0.0647     -0.4368    3.1028

        8.850        -0.437     3.103 dielectric  constant
 
 w=     9.353     0.000
        -0.6210    2.7394      0.0087    0.0419     -0.0157   -0.0687
        -0.0100   -0.0417     -0.6195    2.7392      0.0168    0.0643
         0.0144    0.0689     -0.0157   -0.0644     -0.6197    2.7392

        9.353        -0.620     2.739 dielectric  constant
 
 w=     9.858     0.000
        -0.6630    2.2713      0.0068    0.0398     -0.0125   -0.0652
        -0.0080   -0.0396     -0.6617    2.2711      0.0129    0.0621
         0.0113    0.0653     -0.0120   -0.0621     -0.6618    2.2711

        9.858        -0.662     2.271 dielectric  constant
 
 w=    10.366     0.000
        -0.5319    1.9368      0.0050    0.0368     -0.0096   -0.0602
        -0.0061   -0.0366     -0.5308    1.9367      0.0095    0.0575
         0.0085    0.0603     -0.0087   -0.0576     -0.5309    1.9367

       10.366        -0.531     1.937 dielectric  constant
 
 w=    10.880     0.000
        -0.4665    1.7594      0.0033    0.0340     -0.0068   -0.0555
        -0.0043   -0.0338     -0.4654    1.7593      0.0064    0.0530
         0.0058    0.0557     -0.0057   -0.0531     -0.4655    1.7593

       10.880        -0.466     1.759 dielectric  constant
 
 w=    11.403     0.000
        -0.4941    1.5321      0.0014    0.0308     -0.0036   -0.0503
        -0.0023   -0.0306     -0.4932    1.5320      0.0031    0.0479
         0.0027    0.0504     -0.0024   -0.0480     -0.4933    1.5320

       11.403        -0.494     1.532 dielectric  constant
 
 w=    11.936     0.000
        -0.4486    1.2234      0.0003    0.0267     -0.0016   -0.0437
        -0.0011   -0.0266     -0.4477    1.2232      0.0011    0.0415
         0.0007    0.0439     -0.0005   -0.0416     -0.4478    1.2233

       11.936        -0.448     1.223 dielectric  constant
 
 w=    12.484     0.000
        -0.2898    0.9638      0.0006    0.0232     -0.0021   -0.0379
        -0.0014   -0.0230     -0.2890    0.9637      0.0016    0.0358
         0.0013    0.0380     -0.0011   -0.0358     -0.2891    0.9637

       12.484        -0.289     0.964 dielectric  constant
 
 w=    13.048     0.000
        -0.1134    0.7991      0.0013    0.0209     -0.0031   -0.0343
        -0.0020   -0.0208     -0.1127    0.7990      0.0027    0.0323
         0.0023    0.0344     -0.0021   -0.0323     -0.1128    0.7990

       13.048        -0.113     0.799 dielectric  constant
 
 w=    13.634     0.000
         0.0522    0.6725      0.0015    0.0193     -0.0034   -0.0317
        -0.0021   -0.0192      0.0529    0.6724      0.0029    0.0298
         0.0026    0.0317     -0.0025   -0.0298      0.0528    0.6725

       13.634         0.053     0.672 dielectric  constant
 
 w=    14.245     0.000
         0.2308    0.5936      0.0015    0.0178     -0.0033   -0.0292
        -0.0021   -0.0177      0.2314    0.5935      0.0029    0.0274
         0.0026    0.0292     -0.0025   -0.0274      0.2314    0.5935

       14.245         0.231     0.594 dielectric  constant
 
 w=    14.885     0.000
         0.3856    0.5769      0.0014    0.0164     -0.0030   -0.0269
        -0.0019   -0.0163      0.3862    0.5768      0.0027    0.0252
         0.0024    0.0269     -0.0023   -0.0252      0.3862    0.5769

       14.885         0.386     0.577 dielectric  constant
 
 w=    15.560     0.000
         0.4958    0.5851      0.0012    0.0150     -0.0027   -0.0248
        -0.0018   -0.0150      0.4963    0.5850      0.0025    0.0231
         0.0021    0.0246     -0.0022   -0.0232      0.4963    0.5851

       15.560         0.496     0.585 dielectric  constant
 
 w=    16.277     0.000
         0.5842    0.6066      0.0012    0.0137     -0.0024   -0.0227
        -0.0016   -0.0137      0.5847    0.6065      0.0024    0.0212
         0.0020    0.0225     -0.0020   -0.0212      0.5846    0.6066

       16.277         0.584     0.607 dielectric  constant
 
 w=    17.044     0.000
         0.6227    0.6504      0.0011    0.0126     -0.0022   -0.0207
        -0.0015   -0.0126      0.6232    0.6504      0.0022    0.0195
         0.0020    0.0206     -0.0019   -0.0195      0.6230    0.6505

       17.044         0.623     0.650 dielectric  constant
 
 w=    17.869     0.000
         0.6323    0.6551      0.0010    0.0115     -0.0020   -0.0189
        -0.0013   -0.0115      0.6327    0.6551      0.0019    0.0179
         0.0017    0.0189     -0.0017   -0.0179      0.6326    0.6551

       17.869         0.632     0.655 dielectric  constant
 
 w=    18.764     0.000
         0.6426    0.6802      0.0008    0.0105     -0.0017   -0.0172
        -0.0011   -0.0105      0.6430    0.6801      0.0016    0.0162
         0.0015    0.0172     -0.0014   -0.0162      0.6429    0.6802

       18.764         0.643     0.680 dielectric  constant
 
 w=    19.743     0.000
         0.5768    0.7021      0.0007    0.0095     -0.0015   -0.0155
        -0.0010   -0.0094      0.5772    0.7021      0.0014    0.0146
         0.0013    0.0155     -0.0012   -0.0146      0.5771    0.7021

       19.743         0.577     0.702 dielectric  constant
 
 w=    20.822     0.000
         0.4627    0.6183      0.0006    0.0085     -0.0013   -0.0139
        -0.0009   -0.0085      0.4630    0.6183      0.0013    0.0131
         0.0011    0.0140     -0.0011   -0.0132      0.4630    0.6183

       20.822         0.463     0.618 dielectric  constant
 
 w=    22.023     0.000
         0.4476    0.4181      0.0005    0.0076     -0.0012   -0.0124
        -0.0008   -0.0076      0.4479    0.4181      0.0011    0.0117
         0.0009    0.0125     -0.0009   -0.0117      0.4478    0.4181

       22.023         0.448     0.418 dielectric  constant
 
 w=    23.373     0.000
         0.5673    0.2754      0.0004    0.0067     -0.0010   -0.0110
        -0.0007   -0.0067      0.5675    0.2754      0.0009    0.0103
         0.0008    0.0110     -0.0008   -0.0104      0.5675    0.2754

       23.373         0.567     0.275 dielectric  constant
 
 w=    24.907     0.000
         0.7002    0.2348      0.0005    0.0058     -0.0010   -0.0095
        -0.0006   -0.0058      0.7004    0.2347      0.0009    0.0089
         0.0008    0.0095     -0.0008   -0.0089      0.7003    0.2347

       24.907         0.700     0.235 dielectric  constant
 
 w=    26.673     0.000
         0.7824    0.2535      0.0007    0.0050     -0.0013   -0.0082
        -0.0008   -0.0050      0.7826    0.2535      0.0013    0.0077
         0.0012    0.0082     -0.0011   -0.0078      0.7825    0.2535

       26.673         0.783     0.254 dielectric  constant
 
 w=    28.731     0.000
         0.7957    0.2674      0.0008    0.0047     -0.0015   -0.0078
        -0.0010   -0.0047      0.7959    0.2674      0.0014    0.0073
         0.0014    0.0078     -0.0013   -0.0073      0.7958    0.2674

       28.731         0.796     0.267 dielectric  constant
 
 w=    31.169     0.000
         0.8028    0.2137      0.0003    0.0043     -0.0006   -0.0071
        -0.0004   -0.0043      0.8030    0.2137      0.0006    0.0067
         0.0005    0.0071     -0.0005   -0.0067      0.8029    0.2137

       31.169         0.803     0.214 dielectric  constant
 
 w=    34.107     0.000
         0.8573    0.1587      0.0000    0.0035     -0.0002   -0.0057
        -0.0001   -0.0035      0.8574    0.1587      0.0001    0.0054
         0.0001    0.0057     -0.0001   -0.0054      0.8574    0.1587

       34.107         0.857     0.159 dielectric  constant
 
 w=    37.725     0.000
         0.9388    0.1285     -0.0000    0.0027     -0.0001   -0.0044
        -0.0001   -0.0027      0.9389    0.1285      0.0001    0.0042
         0.0000    0.0044     -0.0000   -0.0042      0.9389    0.1285

       37.725         0.939     0.129 dielectric  constant
 
 w=    42.290     0.000
         1.0373    0.1546      0.0001    0.0021     -0.0002   -0.0034
        -0.0001   -0.0021      1.0374    0.1546      0.0002    0.0032
         0.0001    0.0034     -0.0001   -0.0032      1.0374    0.1546

       42.290         1.037     0.155 dielectric  constant
 
 w=    48.233     0.000
         1.0528    0.2900      0.0001    0.0016     -0.0002   -0.0027
        -0.0001   -0.0016      1.0529    0.2900      0.0002    0.0025
         0.0001    0.0027     -0.0001   -0.0025      1.0529    0.2900

       48.233         1.053     0.290 dielectric  constant
 
 w=    56.284     0.000
         0.9004    0.3572      0.0000    0.0012     -0.0001   -0.0020
        -0.0001   -0.0012      0.9004    0.3572      0.0001    0.0019
         0.0000    0.0020     -0.0001   -0.0019      0.9004    0.3572

       56.284         0.900     0.357 dielectric  constant
 
 w=    67.790     0.000
         0.7843    0.1666      0.0000    0.0008     -0.0001   -0.0014
        -0.0000   -0.0008      0.7843    0.1666      0.0000    0.0013
         0.0000    0.0014     -0.0000   -0.0013      0.7843    0.1666

       67.790         0.784     0.167 dielectric  constant
 
 w=    85.543     0.000
         0.8494    0.0226      0.0000    0.0005     -0.0000   -0.0009
        -0.0000   -0.0005      0.8495    0.0226      0.0000    0.0008
         0.0000    0.0009     -0.0000   -0.0008      0.8495    0.0226

       85.543         0.849     0.023 dielectric  constant
 
 w=   116.422     0.000
         0.9382    0.0015     -0.0000    0.0003     -0.0000   -0.0005
        -0.0000   -0.0003      0.9382    0.0015      0.0000    0.0004
         0.0000    0.0005     -0.0000   -0.0004      0.9382    0.0015

      116.422         0.938     0.001 dielectric  constant
 
 w=   183.206     0.000
         0.9788    0.0002     -0.0000    0.0001     -0.0000   -0.0002
        -0.0000   -0.0001      0.9789    0.0002      0.0000    0.0002
         0.0000    0.0002     -0.0000   -0.0002      0.9789    0.0002

      183.206         0.979     0.000 dielectric  constant
 
  XI_LOCAL:  cpu time    0.2836: real time    0.2840

 1 + v P,  with REDUCIBLE POLARIZABILTY P=P_0 (1 -(v+f) P_0)^-1
 -------------------------------------
 w=     0.000     0.000
        31.7987   -0.0000     -0.0502    3.3088     -0.0488   -5.4397
        -0.0502   -3.3088     31.6793   -0.0000      0.0387    5.1245
        -0.0488    5.4397      0.0387   -5.1245     31.6971   -0.0000

        0.000        31.725    -0.000 dielectric  constant
 
 w=     0.606     0.000
        19.8058   17.8285     -2.2743    1.7305      3.6678   -2.9342
         2.2197   -1.7987     19.7384   17.7460     -3.4597    2.7593
        -3.7205    2.8679      3.5004   -2.7068     19.7355   17.7619

        0.606        19.760    17.779 dielectric  constant
 
 w=     1.210     0.000
         4.7857   15.0629     -1.8476   -0.2061      3.0442    0.2645
         1.8527    0.1491      4.7937   14.9909     -2.8676   -0.2536
        -3.0391   -0.3196      2.8633    0.2964      4.7820   14.9939

        1.210         4.787    15.016 dielectric  constant
 
 w=     1.810     0.000
         1.9667    8.0972     -0.8866   -0.5926      1.4807    0.9382
         0.9043    0.5650      1.9926    8.0633     -1.3937   -0.8860
        -1.4635   -0.9650      1.3803    0.9066      1.9823    8.0601

        1.810         1.981     8.074 dielectric  constant
 
 w=     2.403     0.000
         3.0614    5.4488     -0.4270   -0.4858      0.7213    0.7812
         0.4417    0.4724      3.0836    5.4352     -0.6787   -0.7369
        -0.7070   -0.7941      0.6676    0.7470      3.0749    5.4260

        2.403         3.073     5.437 dielectric  constant
 
 w=     2.988     0.000
         3.7055    5.3373     -0.2308   -0.3609      0.3937    0.5838
         0.2418    0.3536      3.7208    5.3336     -0.3705   -0.5509
        -0.3831   -0.5908      0.3622    0.5563      3.7198    5.3187

        2.988         3.715     5.330 dielectric  constant
 
 w=     3.564     0.000
         3.0577    5.5981     -0.1385   -0.2719      0.2384    0.4412
         0.1468    0.2675      3.0661    5.5974     -0.2241   -0.4167
        -0.2304   -0.4455      0.2178    0.4200      3.0758    5.5874

        3.564         3.067     5.594 dielectric  constant
 
 w=     4.131     0.000
         2.2566    4.9793     -0.0893   -0.2114      0.1552    0.3439
         0.0957    0.2087      2.2615    4.9779     -0.1453   -0.3248
        -0.1489   -0.3466      0.1405    0.3269      2.2706    4.9773

        4.131         2.263     4.978 dielectric  constant
 
 w=     4.687     0.000
         2.2903    4.2857     -0.0603   -0.1686      0.1059    0.2747
         0.0654    0.1667      2.2945    4.2834     -0.0988   -0.2591
        -0.1010   -0.2765      0.0950    0.2606      2.2989    4.2849

        4.687         2.295     4.285 dielectric  constant
 
 w=     5.234     0.000
         2.6182    4.2838     -0.0431   -0.1372      0.0763    0.2237
         0.0472    0.1358      2.6230    4.2824     -0.0711   -0.2107
        -0.0722   -0.2251      0.0680    0.2118      2.6248    4.2818

        5.234         2.622     4.283 dielectric  constant
 
 w=     5.771     0.000
         2.5609    4.8733     -0.0327   -0.1146      0.0583    0.1871
         0.0361    0.1136      2.5641    4.8741     -0.0546   -0.1762
        -0.0549   -0.1881      0.0519    0.1770      2.5687    4.8704

        5.771         2.565     4.873 dielectric  constant
 
 w=     6.299     0.000
         1.6418    5.4145     -0.0252   -0.0989      0.0452    0.1614
         0.0281    0.0980      1.6422    5.4141     -0.0424   -0.1524
        -0.0423   -0.1622      0.0402    0.1530      1.6523    5.4149

        6.299         1.645     5.414 dielectric  constant
 
 w=     6.820     0.000
         0.5246    5.0300     -0.0181   -0.0869      0.0332    0.1420
         0.0207    0.0863      0.5262    5.0272     -0.0307   -0.1344
        -0.0307   -0.1426      0.0288    0.1349      0.5320    5.0354

        6.820         0.528     5.031 dielectric  constant
 
 w=     7.334     0.000
         0.0531    4.3225     -0.0112   -0.0765      0.0215    0.1250
         0.0134    0.0760      0.0567    4.3219     -0.0191   -0.1183
        -0.0193   -0.1255      0.0173    0.1187      0.0559    4.3285

        7.334         0.055     4.324 dielectric  constant
 
 w=     7.842     0.000
        -0.1530    3.8386     -0.0045   -0.0653      0.0103    0.1070
         0.0065    0.0649     -0.1521    3.8405     -0.0077   -0.1004
        -0.0084   -0.1073      0.0062    0.1007     -0.1535    3.8428

        7.842        -0.153     3.841 dielectric  constant
 
 w=     8.347     0.000
        -0.3095    3.4265     -0.0022   -0.0516      0.0061    0.0848
         0.0040    0.0513     -0.3117    3.4255     -0.0043   -0.0776
        -0.0044   -0.0851      0.0030    0.0778     -0.3109    3.4275

        8.347        -0.311     3.427 dielectric  constant
 
 w=     8.850     0.000
        -0.4362    3.1050     -0.0070   -0.0432      0.0133    0.0711
         0.0085    0.0430     -0.4364    3.1008     -0.0137   -0.0646
        -0.0118   -0.0713      0.0125    0.0647     -0.4358    3.1043

        8.850        -0.436     3.103 dielectric  constant
 
 w=     9.353     0.000
        -0.6205    2.7415     -0.0087   -0.0419      0.0157    0.0687
         0.0100    0.0417     -0.6179    2.7378     -0.0168   -0.0643
        -0.0144   -0.0689      0.0157    0.0644     -0.6188    2.7416

        9.353        -0.619     2.740 dielectric  constant
 
 w=     9.858     0.000
        -0.6638    2.2725     -0.0068   -0.0398      0.0125    0.0652
         0.0080    0.0396     -0.6602    2.2704     -0.0129   -0.0621
        -0.0113   -0.0653      0.0120    0.0621     -0.6626    2.2737

        9.858        -0.662     2.272 dielectric  constant
 
 w=    10.366     0.000
        -0.5329    1.9364     -0.0050   -0.0368      0.0096    0.0602
         0.0061    0.0366     -0.5290    1.9355     -0.0095   -0.0575
        -0.0085   -0.0603      0.0087    0.0576     -0.5325    1.9375

       10.366        -0.531     1.936 dielectric  constant
 
 w=    10.880     0.000
        -0.4659    1.7581     -0.0033   -0.0340      0.0068    0.0555
         0.0043    0.0338     -0.4624    1.7589     -0.0064   -0.0530
        -0.0058   -0.0557      0.0057    0.0531     -0.4660    1.7589

       10.880        -0.465     1.759 dielectric  constant
 
 w=    11.403     0.000
        -0.4923    1.5318     -0.0014   -0.0308      0.0036    0.0503
         0.0023    0.0306     -0.4904    1.5337     -0.0031   -0.0479
        -0.0027   -0.0504      0.0024    0.0480     -0.4927    1.5321

       11.403        -0.492     1.533 dielectric  constant
 
 w=    11.936     0.000
        -0.4473    1.2243     -0.0003   -0.0267      0.0016    0.0437
         0.0011    0.0266     -0.4467    1.2258     -0.0011   -0.0415
        -0.0007   -0.0439      0.0005    0.0416     -0.4475    1.2242

       11.936        -0.447     1.225 dielectric  constant
 
 w=    12.484     0.000
        -0.2892    0.9646     -0.0006   -0.0232      0.0021    0.0379
         0.0014    0.0230     -0.2893    0.9655     -0.0016   -0.0358
        -0.0013   -0.0380      0.0011    0.0358     -0.2894    0.9643

       12.484        -0.289     0.965 dielectric  constant
 
 w=    13.048     0.000
        -0.1128    0.8001     -0.0013   -0.0209      0.0031    0.0343
         0.0020    0.0208     -0.1132    0.8001     -0.0027   -0.0323
        -0.0023   -0.0344      0.0021    0.0323     -0.1128    0.7994

       13.048        -0.113     0.800 dielectric  constant
 
 w=    13.634     0.000
         0.0522    0.6738     -0.0015   -0.0193      0.0034    0.0317
         0.0021    0.0192      0.0522    0.6732     -0.0029   -0.0298
        -0.0026   -0.0317      0.0025    0.0298      0.0527    0.6729

       13.634         0.052     0.673 dielectric  constant
 
 w=    14.245     0.000
         0.2302    0.5944     -0.0015   -0.0178      0.0033    0.0292
         0.0021    0.0177      0.2306    0.5938     -0.0029   -0.0274
        -0.0026   -0.0292      0.0025    0.0274      0.2310    0.5938

       14.245         0.231     0.594 dielectric  constant
 
 w=    14.885     0.000
         0.3851    0.5773     -0.0014   -0.0164      0.0030    0.0269
         0.0019    0.0163      0.3856    0.5768     -0.0027   -0.0252
        -0.0024   -0.0269      0.0023    0.0252      0.3860    0.5769

       14.885         0.386     0.577 dielectric  constant
 
 w=    15.560     0.000
         0.4953    0.5853     -0.0012   -0.0150      0.0027    0.0248
         0.0018    0.0150      0.4957    0.5849     -0.0025   -0.0231
        -0.0021   -0.0246      0.0022    0.0232      0.4961    0.5851

       15.560         0.496     0.585 dielectric  constant
 
 w=    16.277     0.000
         0.5837    0.6066     -0.0012   -0.0137      0.0024    0.0227
         0.0016    0.0137      0.5842    0.6060     -0.0024   -0.0212
        -0.0020   -0.0225      0.0020    0.0212      0.5847    0.6064

       16.277         0.584     0.606 dielectric  constant
 
 w=    17.044     0.000
         0.6225    0.6503     -0.0011   -0.0126      0.0022    0.0207
         0.0015    0.0126      0.6231    0.6497     -0.0022   -0.0195
        -0.0020   -0.0206      0.0019    0.0195      0.6235    0.6507

       17.044         0.623     0.650 dielectric  constant
 
 w=    17.869     0.000
         0.6317    0.6551     -0.0010   -0.0115      0.0020    0.0189
[...]
     10     -32.1241     -32.6764     -32.6799     -32.8692       0.7459       1.0000
     11     -24.4617     -24.7671     -24.7618     -24.8617       0.7502       1.0000
     12     -24.4587     -24.7669     -24.7616     -24.8617       0.7516       1.0000
     13      -9.5876      -9.7080      -9.7079      -9.7465       0.7569       1.0000
     14      -9.5859      -9.7063      -9.7061      -9.7450       0.7558       1.0000
     15      -0.3711      -0.4303      -0.4303      -0.4475       0.7752       1.0000
     16      -0.3666      -0.4285      -0.4286      -0.4465       0.7753       1.0000
     17       1.3863       1.3534       1.3534       1.3448       0.7923       1.0000
     18       1.3919       1.3557       1.3557       1.3462       0.7923       1.0000
     19       7.7493       7.7814       7.7771       7.7840       0.8025       0.0000
     20       7.7503       7.7817       7.7775       7.7842       0.8025       0.0000
     21       8.9865       9.0284       9.0282       9.0389       0.7960       0.0000
     22       8.9874       9.0287       9.0285       9.0391       0.7957       0.0000
     23      10.5658      10.6208      10.6202      10.6345       0.7918       0.0000
     24      10.5676      10.6216      10.6210      10.6350       0.7917       0.0000
     25      11.8732      11.9310      11.9308      11.9460       0.7908       0.0000
     26      11.8746      11.9316      11.9314      11.9465       0.7908       0.0000
     27      13.0532      13.1228      13.1227      13.1413       0.7882       0.0000
     28      13.0537      13.1231      13.1229      13.1415       0.7881       0.0000
     29      14.6510      14.7294      14.7285      14.7495       0.7869       0.0000
     30      14.6518      14.7298      14.7288      14.7496       0.7869       0.0000
     31      16.0151      16.0950      16.0945      16.1154       0.7920       0.0000
     32      16.0154      16.0951      16.0946      16.1154       0.7920       0.0000
     33      16.4363      16.5148      16.5145      16.5346       0.7958       0.0000
     34      16.4366      16.5150      16.5144      16.5343       0.7958       0.0000
     35      18.7976      18.8706      18.8693      18.8868       0.8041       0.0000
     36      18.7997      18.8717      18.8705      18.8877       0.8041       0.0000
     37      20.1237      20.2349      20.2349      20.2651       0.7863       0.0000
     38      20.1251      20.2355      20.2353      20.2652       0.7862       0.0000
     39      21.6963      21.8173      21.8172      21.8517       0.7782       0.0000
     40      21.6976      21.8183      21.8181      21.8524       0.7782       0.0000
 

 k-point  61 :       0.0000   -0.2500   -0.2500
  band No. DFT-energies  QP-energies  QP-e(diag)   sigma(DFT)    Z            occupation

      1     -39.5391     -40.1852     -40.1777     -40.4155       0.7288       1.0000
      2     -39.5332     -40.1843     -40.1794     -40.4174       0.7308       1.0000
      3     -39.5321     -40.1754     -40.1821     -40.4220       0.7305       1.0000
      4     -39.5291     -40.1736     -40.1772     -40.4142       0.7322       1.0000
      5     -32.1521     -32.6918     -32.6893     -32.8807       0.7373       1.0000
      6     -32.1472     -32.6914     -32.6906     -32.8834       0.7381       1.0000
      7     -32.1334     -32.6830     -32.6826     -32.8722       0.7434       1.0000
      8     -32.1299     -32.6822     -32.6816     -32.8712       0.7442       1.0000
      9     -32.1266     -32.6782     -32.6805     -32.8700       0.7451       1.0000
     10     -32.1251     -32.6779     -32.6794     -32.8690       0.7451       1.0000
     11     -24.5065     -24.8141     -24.8060     -24.9052       0.7513       1.0000
     12     -24.5041     -24.8136     -24.8055     -24.9050       0.7518       1.0000
     13      -9.4767      -9.5950      -9.5952      -9.6332       0.7570       1.0000
     14      -9.4745      -9.5932      -9.5934      -9.6317       0.7565       1.0000
     15       0.2419       0.1980       0.1937       0.1805       0.7842       1.0000
     16       0.2516       0.2018       0.1975       0.1827       0.7843       1.0000
     17       1.8414       1.8153       1.8157       1.8092       0.7960       1.0000
     18       1.8560       1.8207       1.8211       1.8122       0.7959       1.0000
     19       6.7999       6.8216       6.8163       6.8202       0.8073       0.0000
     20       6.8031       6.8230       6.8177       6.8212       0.8072       0.0000
     21       8.8041       8.8468       8.8468       8.8576       0.7986       0.0000
     22       8.8044       8.8470       8.8468       8.8575       0.7985       0.0000
     23      10.0824      10.1349      10.1341      10.1477       0.7919       0.0000
     24      10.0846      10.1358      10.1351      10.1484       0.7919       0.0000
     25      12.3566      12.4216      12.4210      12.4382       0.7885       0.0000
     26      12.3584      12.4225      12.4218      12.4388       0.7885       0.0000
     27      13.4626      13.5301      13.5296      13.5473       0.7906       0.0000
     28      13.4646      13.5310      13.5304      13.5478       0.7906       0.0000
     29      15.4887      15.5677      15.5677      15.5887       0.7905       0.0000
     30      15.4912      15.5691      15.5692      15.5899       0.7905       0.0000
     31      16.1839      16.2700      16.2699      16.2926       0.7912       0.0000
     32      16.1845      16.2704      16.2702      16.2928       0.7910       0.0000
     33      16.2923      16.3765      16.3765      16.3987       0.7910       0.0000
     34      16.2941      16.3774      16.3773      16.3993       0.7910       0.0000
     35      16.3521      16.4372      16.4373      16.4597       0.7916       0.0000
     36      16.3530      16.4374      16.4373      16.4595       0.7915       0.0000
     37      17.1452      17.2112      17.2111      17.2271       0.8037       0.0000
     38      17.1459      17.2117      17.2107      17.2265       0.8038       0.0000
     39      21.3453      21.4413      21.4410      21.4680       0.7801       0.0000
     40      21.3492      21.4446      21.4442      21.4710       0.7800       0.0000
 

 k-point  62 :       0.2500   -0.2500   -0.2500
  band No. DFT-energies  QP-energies  QP-e(diag)   sigma(DFT)    Z            occupation

      1     -39.5587     -40.1852     -40.1803     -40.4174       0.7239       1.0000
      2     -39.5539     -40.1844     -40.1804     -40.4173       0.7256       1.0000
      3     -39.5453     -40.1797     -40.1822     -40.4206       0.7277       1.0000
      4     -39.5364     -40.1786     -40.1826     -40.4217       0.7300       1.0000
      5     -32.1498     -32.6879     -32.6807     -32.8695       0.7377       1.0000
      6     -32.1470     -32.6867     -32.6822     -32.8719       0.7383       1.0000
      7     -32.1457     -32.6811     -32.6811     -32.8708       0.7383       1.0000
      8     -32.1433     -32.6804     -32.6819     -32.8716       0.7395       1.0000
      9     -32.1351     -32.6790     -32.6844     -32.8749       0.7424       1.0000
     10     -32.1335     -32.6787     -32.6829     -32.8736       0.7422       1.0000
     11     -24.4422     -24.7455     -24.7415     -24.8396       0.7531       1.0000
     12     -24.4395     -24.7448     -24.7408     -24.8396       0.7531       1.0000
     13      -9.6357      -9.7582      -9.7579      -9.7979       0.7537       1.0000
     14      -9.6340      -9.7565      -9.7562      -9.7963       0.7526       1.0000
     15      -0.5015      -0.5636      -0.5621      -0.5800       0.7721       1.0000
     16      -0.4952      -0.5609      -0.5594      -0.5782       0.7728       1.0000
     17       1.1036       1.0667       1.0672       1.0574       0.7892       1.0000
     18       1.1110       1.0697       1.0702       1.0593       0.7895       1.0000
     19       7.3355       7.3637       7.3614       7.3677       0.8043       0.0000
     20       7.3359       7.3641       7.3616       7.3678       0.8037       0.0000
     21       8.8965       8.9391       8.9388       8.9497       0.7960       0.0000
     22       8.8966       8.9392       8.9389       8.9497       0.7960       0.0000
     23      10.5861      10.6413      10.6401      10.6543       0.7923       0.0000
     24      10.5873      10.6419      10.6407      10.6547       0.7920       0.0000
     25      12.3212      12.3842      12.3838      12.4005       0.7891       0.0000
     26      12.3216      12.3844      12.3839      12.4005       0.7891       0.0000
     27      14.0380      14.1071      14.1055      14.1233       0.7909       0.0000
     28      14.0397      14.1085      14.1068      14.1246       0.7908       0.0000
     29      15.7279      15.8081      15.8079      15.8290       0.7911       0.0000
     30      15.7284      15.8088      15.8086      15.8297       0.7910       0.0000
     31      16.2820      16.3684      16.3678      16.3910       0.7869       0.0000
     32      16.2830      16.3690      16.3683      16.3914       0.7866       0.0000
     33      17.6713      17.7397      17.7382      17.7545       0.8046       0.0000
     34      17.6726      17.7407      17.7392      17.7554       0.8045       0.0000
     35      18.5854      18.6638      18.6633      18.6830       0.7982       0.0000
     36      18.5912      18.6688      18.6683      18.6879       0.7978       0.0000
     37      20.2769      20.3874      20.3873      20.4172       0.7867       0.0000
     38      20.2796      20.3899      20.3898      20.4196       0.7867       0.0000
     39      20.6213      20.7309      20.7306      20.7605       0.7850       0.0000
     40      20.6318      20.7414      20.7411      20.7711       0.7844       0.0000
 

 k-point  63 :       0.5000   -0.2500   -0.2500
  band No. DFT-energies  QP-energies  QP-e(diag)   sigma(DFT)    Z            occupation

      1     -39.5423     -40.1795     -40.1747     -40.4110       0.7279       1.0000
      2     -39.5366     -40.1790     -40.1770     -40.4138       0.7301       1.0000
      3     -39.5314     -40.1745     -40.1770     -40.4145       0.7310       1.0000
      4     -39.5270     -40.1727     -40.1750     -40.4115       0.7326       1.0000
      5     -32.1441     -32.6838     -32.6805     -32.8693       0.7397       1.0000
      6     -32.1391     -32.6833     -32.6819     -32.8709       0.7418       1.0000
      7     -32.1314     -32.6804     -32.6773     -32.8654       0.7437       1.0000
      8     -32.1261     -32.6793     -32.6812     -32.8707       0.7455       1.0000
      9     -32.1253     -32.6775     -32.6803     -32.8697       0.7455       1.0000
     10     -32.1243     -32.6767     -32.6793     -32.8686       0.7457       1.0000
     11     -24.4598     -24.7673     -24.7614     -24.8616       0.7506       1.0000
     12     -24.4597     -24.7666     -24.7618     -24.8620       0.7509       1.0000
     13      -9.5879      -9.7080      -9.7079      -9.7465       0.7565       1.0000
     14      -9.5856      -9.7063      -9.7062      -9.7450       0.7563       1.0000
     15      -0.3722      -0.4307      -0.4307      -0.4477       0.7750       1.0000
     16      -0.3656      -0.4281      -0.4282      -0.4463       0.7754       1.0000
     17       1.3849       1.3528       1.3528       1.3444       0.7922       1.0000
     18       1.3934       1.3562       1.3563       1.3466       0.7925       1.0000
     19       7.7490       7.7813       7.7771       7.7840       0.8026       0.0000
     20       7.7505       7.7818       7.7776       7.7842       0.8024       0.0000
     21       8.9866       9.0284       9.0282       9.0389       0.7959       0.0000
     22       8.9873       9.0287       9.0285       9.0391       0.7958       0.0000
     23      10.5657      10.6208      10.6202      10.6345       0.7918       0.0000
     24      10.5676      10.6216      10.6210      10.6350       0.7917       0.0000
     25      11.8728      11.9308      11.9307      11.9459       0.7909       0.0000
     26      11.8750      11.9318      11.9316      11.9466       0.7908       0.0000
     27      13.0532      13.1227      13.1226      13.1412       0.7882       0.0000
     28      13.0537      13.1232      13.1230      13.1416       0.7881       0.0000
     29      14.6508      14.7294      14.7285      14.7495       0.7870       0.0000
     30      14.6521      14.7298      14.7289      14.7497       0.7869       0.0000
     31      16.0150      16.0949      16.0945      16.1153       0.7920       0.0000
     32      16.0155      16.0952      16.0947      16.1155       0.7920       0.0000
     33      16.4362      16.5148      16.5145      16.5346       0.7958       0.0000
     34      16.4366      16.5149      16.5144      16.5344       0.7958       0.0000
     35      18.7974      18.8705      18.8693      18.8868       0.8041       0.0000
     36      18.7999      18.8718      18.8706      18.8878       0.8041       0.0000
     37      20.1238      20.2347      20.2347      20.2649       0.7863       0.0000
     38      20.1252      20.2357      20.2354      20.2654       0.7861       0.0000
     39      21.6966      21.8174      21.8176      21.8521       0.7781       0.0000
     40      21.6973      21.8183      21.8177      21.8521       0.7783       0.0000
 

 k-point  64 :      -0.2500   -0.2500   -0.2500
  band No. DFT-energies  QP-energies  QP-e(diag)   sigma(DFT)    Z            occupation

      1     -39.5339     -40.1817     -40.1768     -40.4147       0.7299       1.0000
      2     -39.5323     -40.1811     -40.1775     -40.4157       0.7304       1.0000
      3     -39.5297     -40.1774     -40.1797     -40.4181       0.7317       1.0000
      4     -39.5291     -40.1768     -40.1804     -40.4192       0.7317       1.0000
      5     -32.1419     -32.6864     -32.6836     -32.8739       0.7401       1.0000
      6     -32.1394     -32.6859     -32.6844     -32.8749       0.7410       1.0000
      7     -32.1352     -32.6815     -32.6809     -32.8701       0.7425       1.0000
      8     -32.1308     -32.6813     -32.6819     -32.8721       0.7435       1.0000
      9     -32.1293     -32.6808     -32.6827     -32.8727       0.7444       1.0000
     10     -32.1284     -32.6802     -32.6822     -32.8721       0.7446       1.0000
     11     -24.5262     -24.8349     -24.8262     -24.9262       0.7501       1.0000
     12     -24.5259     -24.8339     -24.8254     -24.9256       0.7492       1.0000
     13      -9.4293      -9.5462      -9.5460      -9.5833       0.7579       1.0000
     14      -9.4271      -9.5444      -9.5442      -9.5818       0.7573       1.0000
     15       0.3310       0.2891       0.2853       0.2728       0.7856       1.0000
     16       0.3412       0.2925       0.2887       0.2745       0.7859       1.0000
     17       2.5419       2.5247       2.5250       2.5208       0.8018       1.0000
     18       2.5584       2.5306       2.5309       2.5242       0.8021       1.0000
     19       5.9369       5.9519       5.9445       5.9463       0.8123       0.0000
     20       5.9394       5.9528       5.9454       5.9468       0.8120       0.0000
     21      10.1922      10.2453      10.2448      10.2586       0.7919       0.0000
     22      10.1943      10.2460      10.2455      10.2589       0.7918       0.0000
     23      11.3193      11.3825      11.3821      11.3990       0.7880       0.0000
     24      11.3199      11.3829      11.3825      11.3994       0.7879       0.0000
     25      11.5303      11.5826      11.5823      11.5958       0.7940       0.0000
     26      11.5305      11.5827      11.5824      11.5959       0.7940       0.0000
     27      12.1497      12.2155      12.2154      12.2333       0.7859       0.0000
     28      12.1502      12.2158      12.2157      12.2336       0.7858       0.0000
     29      13.2468      13.3160      13.3160      13.3345       0.7892       0.0000
     30      13.2469      13.3162      13.3159      13.3344       0.7891       0.0000
     31      13.4923      13.5615      13.5614      13.5798       0.7895       0.0000
     32      13.4945      13.5628      13.5626      13.5808       0.7894       0.0000
     33      16.2291      16.3150      16.3149      16.3375       0.7915       0.0000
     34      16.2302      16.3152      16.3148      16.3371       0.7916       0.0000
     35      18.3816      18.4706      18.4704      18.4936       0.7928       0.0000
     36      18.3832      18.4714      18.4711      18.4941       0.7929       0.0000
     37      18.7157      18.8085      18.8083      18.8326       0.7923       0.0000
     38      18.7174      18.8087      18.8083      18.8321       0.7920       0.0000
     39      21.0257      21.1122      21.1113      21.1342       0.7894       0.0000
     40      21.0283      21.1142      21.1133      21.1360       0.7894       0.0000
 


--------------------------------------------------------------------------------------------------------



IMPORTANT INFORMATION: All symmetrisations will be switched off!
NOSYMM: (Re-)initialisation of all symmetry stuff for point group C_1.

   GW_DIAG:  cpu time    0.5790: real time    0.5977
    GWLOOP:  cpu time 1752.3941: real time 1756.0835
 writing wavefunctions
    --------------------------------------------
   GWTOTAL:  cpu time 1752.9187: real time 1756.7148
    4ORBIT:  cpu time    0.0000: real time    0.0000

 Spin-Orbit-Coupling matrix elements

 Ion:    1  E_soc:    -33.0644307
 l=   1
     0.0000000    -5.0969532    -5.0969529
    -5.0969532     0.0000000    -5.0969532
    -5.0969529    -5.0969532     0.0000000
 l=   2
     0.0000000    -0.0827831     0.0000000    -0.0827832    -0.3309584
    -0.0827831     0.0000000    -0.2482188    -0.0828268    -0.0827834
     0.0000000    -0.2482188     0.0000000    -0.2482195     0.0000000
    -0.0827832    -0.0828268    -0.2482195     0.0000000    -0.0827828
    -0.3309584    -0.0827834     0.0000000    -0.0827828     0.0000000
 l=   3
     0.0000000     0.0000000     0.0000000     0.0000000     0.0000000     0.0000000     0.0000000
     0.0000000     0.0000000     0.0000000     0.0000000     0.0000000     0.0000000     0.0000000
     0.0000000     0.0000000     0.0000000     0.0000000     0.0000000     0.0000000     0.0000000
     0.0000000     0.0000000     0.0000000     0.0000000     0.0000000     0.0000000     0.0000000
     0.0000000     0.0000000     0.0000000     0.0000000     0.0000000     0.0000000     0.0000000
     0.0000000     0.0000000     0.0000000     0.0000000     0.0000000     0.0000000     0.0000000
     0.0000000     0.0000000     0.0000000     0.0000000     0.0000000     0.0000000     0.0000000

 total amount of memory used by VASP MPI-rank0    98304. kBytes
=======================================================================

   base      :      30000. kBytes
   nonl-proj :       6499. kBytes
   fftplans  :      12947. kBytes
   grid      :      12644. kBytes
   one-center:         62. kBytes
   HF        :        129. kBytes
   nonlr-proj:        437. kBytes
   wavefun   :      35586. kBytes
   2eintegral:          0. kBytes
   fockhandle:          0. kBytes
   response  :          0. kBytes
   cacher    :          0. kBytes
 
  
  
 General timing and accounting informations for this job:
 ========================================================
  
                  Total CPU time used (sec):     1758.813
                            User time (sec):     1751.659
                          System time (sec):        7.154
                         Elapsed time (sec):     1761.574
  
                   Maximum memory used (kb):      546264.
                   Average memory used (kb):           0.
  
                          Minor page faults:       241963
                          Major page faults:            0
                 Voluntary context switches:        10788
