   1   1   0   0
  0.6532254E+02  0.4520565E-09  0.4520565E-09  0.4520565E-09  0.1000000E-15
  1.000000000000000E-004
  CAR 
 Og_FCC                                  
     16.41012927    -46.99379861  301     -1.29013393      1.00000000
    -46.994  0.0000E+00  0.0000E+00
    -46.782  0.0000E+00  0.0000E+00
    -46.571  0.0000E+00  0.0000E+00
    -46.360  0.0000E+00  0.0000E+00
    -46.148  0.0000E+00  0.0000E+00
    -45.937  0.0000E+00  0.0000E+00
    -45.726  0.0000E+00  0.0000E+00
    -45.514  0.0000E+00  0.0000E+00
    -45.303  0.0000E+00  0.0000E+00
    -45.092  0.0000E+00  0.0000E+00
    -44.880  0.0000E+00  0.0000E+00
    -44.669  0.0000E+00  0.0000E+00
    -44.458  0.0000E+00  0.0000E+00
    -44.246  0.0000E+00  0.0000E+00
    -44.035  0.0000E+00  0.4000E+01
    -43.824  0.0000E+00  0.4000E+01
    -43.612  0.0000E+00  0.4000E+01
    -43.401  0.0000E+00  0.4000E+01
    -43.190  0.0000E+00  0.4000E+01
    -42.978  0.0000E+00  0.4000E+01
    -42.767  0.0000E+00  0.4000E+01
    -42.556  0.0000E+00  0.4000E+01
    -42.344  0.0000E+00  0.4000E+01
    -42.133  0.0000E+00  0.4000E+01
    -41.921  0.0000E+00  0.4000E+01
    -41.710  0.0000E+00  0.4000E+01
    -41.499  0.0000E+00  0.4000E+01
    -41.287  0.0000E+00  0.4000E+01
    -41.076  0.0000E+00  0.4000E+01
    -40.865  0.0000E+00  0.4000E+01
    -40.653  0.0000E+00  0.4000E+01
    -40.442  0.0000E+00  0.4000E+01
    -40.231  0.0000E+00  0.4000E+01
    -40.019  0.0000E+00  0.4000E+01
    -39.808  0.0000E+00  0.4000E+01
    -39.597  0.0000E+00  0.1000E+02
    -39.385  0.0000E+00  0.1000E+02
    -39.174  0.0000E+00  0.1000E+02
    -38.963  0.0000E+00  0.1000E+02
    -38.751  0.0000E+00  0.1000E+02
    -38.540  0.0000E+00  0.1000E+02
    -38.329  0.0000E+00  0.1000E+02
    -38.117  0.0000E+00  0.1000E+02
    -37.906  0.0000E+00  0.1000E+02
    -37.695  0.0000E+00  0.1000E+02
    -37.483  0.0000E+00  0.1000E+02
    -37.272  0.0000E+00  0.1000E+02
    -37.061  0.0000E+00  0.1000E+02
    -36.849  0.0000E+00  0.1000E+02
    -36.638  0.0000E+00  0.1000E+02
    -36.426  0.0000E+00  0.1000E+02
    -36.215  0.0000E+00  0.1000E+02
    -36.004  0.0000E+00  0.1000E+02
    -35.792  0.0000E+00  0.1000E+02
    -35.581  0.0000E+00  0.1000E+02
    -35.370  0.0000E+00  0.1000E+02
    -35.158  0.0000E+00  0.1000E+02
    -34.947  0.0000E+00  0.1000E+02
    -34.736  0.0000E+00  0.1000E+02
    -34.524  0.0000E+00  0.1000E+02
    -34.313  0.0000E+00  0.1000E+02
    -34.102  0.0000E+00  0.1000E+02
    -33.890  0.0000E+00  0.1000E+02
    -33.679  0.0000E+00  0.1000E+02
    -33.468  0.0000E+00  0.1000E+02
    -33.256  0.0000E+00  0.1000E+02
    -33.045  0.0000E+00  0.1000E+02
    -32.834  0.0000E+00  0.1000E+02
    -32.622  0.0000E+00  0.1000E+02
    -32.411  0.0000E+00  0.1000E+02
    -32.200  0.0000E+00  0.1000E+02
    -31.988  0.0000E+00  0.1000E+02
    -31.777  0.0000E+00  0.1000E+02
    -31.566  0.0000E+00  0.1000E+02
    -31.354  0.0000E+00  0.1000E+02
    -31.143  0.0000E+00  0.1000E+02
    -30.931  0.0000E+00  0.1000E+02
    -30.720  0.0000E+00  0.1000E+02
    -30.509  0.0000E+00  0.1000E+02
    -30.297  0.0000E+00  0.1000E+02
    -30.086  0.0000E+00  0.1000E+02
    -29.875  0.0000E+00  0.1000E+02
    -29.663  0.0000E+00  0.1000E+02
    -29.452  0.0000E+00  0.1000E+02
    -29.241  0.0000E+00  0.1000E+02
    -29.029  0.0000E+00  0.1000E+02
    -28.818  0.0000E+00  0.1000E+02
    -28.607  0.0000E+00  0.1000E+02
    -28.395  0.0000E+00  0.1000E+02
    -28.184  0.0000E+00  0.1000E+02
    -27.973  0.0000E+00  0.1000E+02
    -27.761  0.0000E+00  0.1000E+02
    -27.550  0.0000E+00  0.1000E+02
    -27.339  0.0000E+00  0.1000E+02
    -27.127  0.0000E+00  0.1000E+02
    -26.916  0.0000E+00  0.1000E+02
    -26.705  0.0000E+00  0.1000E+02
    -26.493  0.0000E+00  0.1000E+02
    -26.282  0.0000E+00  0.1000E+02
    -26.071  0.0000E+00  0.1000E+02
    -25.859  0.0000E+00  0.1000E+02
    -25.648  0.0000E+00  0.1000E+02
    -25.436  0.0000E+00  0.1000E+02
    -25.225  0.0000E+00  0.1000E+02
    -25.014  0.0000E+00  0.1000E+02
    -24.802  0.0000E+00  0.1000E+02
    -24.591  0.0000E+00  0.1000E+02
    -24.380  0.0000E+00  0.1000E+02
    -24.168  0.0000E+00  0.1000E+02
    -23.957  0.0000E+00  0.1000E+02
    -23.746  0.0000E+00  0.1000E+02
    -23.534  0.0000E+00  0.1000E+02
    -23.323  0.0000E+00  0.1000E+02
    -23.112  0.0000E+00  0.1000E+02
    -22.900  0.0000E+00  0.1000E+02
    -22.689  0.0000E+00  0.1000E+02
    -22.478  0.0000E+00  0.1000E+02
    -22.266  0.0000E+00  0.1000E+02
    -22.055  0.0000E+00  0.1000E+02
    -21.844  0.0000E+00  0.1000E+02
    -21.632  0.0000E+00  0.1000E+02
    -21.421  0.0000E+00  0.1000E+02
    -21.210  0.0000E+00  0.1000E+02
    -20.998  0.0000E+00  0.1000E+02
    -20.787  0.0000E+00  0.1000E+02
    -20.575  0.0000E+00  0.1000E+02
    -20.364  0.0000E+00  0.1000E+02
    -20.153  0.0000E+00  0.1000E+02
    -19.941  0.0000E+00  0.1000E+02
    -19.730  0.0000E+00  0.1000E+02
    -19.519  0.0000E+00  0.1000E+02
    -19.307  0.0000E+00  0.1000E+02
    -19.096  0.0000E+00  0.1000E+02
    -18.885  0.0000E+00  0.1000E+02
    -18.673  0.0000E+00  0.1000E+02
    -18.462  0.0000E+00  0.1000E+02
    -18.251  0.0000E+00  0.1000E+02
    -18.039  0.0000E+00  0.1000E+02
    -17.828  0.0000E+00  0.1000E+02
    -17.617  0.0000E+00  0.1000E+02
    -17.405  0.0000E+00  0.1000E+02
    -17.194  0.8252E+00  0.1165E+02
    -16.983  0.0000E+00  0.1200E+02
    -16.771  0.0000E+00  0.1200E+02
    -16.560  0.0000E+00  0.1200E+02
    -16.349  0.0000E+00  0.1200E+02
    -16.137  0.0000E+00  0.1200E+02
    -15.926  0.0000E+00  0.1200E+02
    -15.715  0.0000E+00  0.1200E+02
    -15.503  0.0000E+00  0.1200E+02
    -15.292  0.0000E+00  0.1200E+02
    -15.080  0.0000E+00  0.1200E+02
    -14.869  0.0000E+00  0.1200E+02
    -14.658  0.0000E+00  0.1200E+02
    -14.446  0.0000E+00  0.1200E+02
    -14.235  0.0000E+00  0.1200E+02
    -14.024  0.0000E+00  0.1200E+02
    -13.812  0.0000E+00  0.1200E+02
    -13.601  0.0000E+00  0.1200E+02
    -13.390  0.0000E+00  0.1200E+02
    -13.178  0.0000E+00  0.1200E+02
    -12.967  0.0000E+00  0.1200E+02
    -12.756  0.0000E+00  0.1200E+02
    -12.544  0.0000E+00  0.1200E+02
    -12.333  0.0000E+00  0.1200E+02
    -12.122  0.0000E+00  0.1200E+02
    -11.910  0.0000E+00  0.1200E+02
    -11.699  0.0000E+00  0.1200E+02
    -11.488  0.0000E+00  0.1200E+02
    -11.276  0.0000E+00  0.1200E+02
    -11.065  0.0000E+00  0.1200E+02
    -10.854  0.0000E+00  0.1200E+02
    -10.642  0.0000E+00  0.1200E+02
    -10.431  0.0000E+00  0.1200E+02
    -10.220  0.0000E+00  0.1200E+02
    -10.008  0.0000E+00  0.1200E+02
     -9.797  0.0000E+00  0.1200E+02
     -9.585  0.0000E+00  0.1200E+02
     -9.374  0.0000E+00  0.1200E+02
     -9.163  0.0000E+00  0.1200E+02
     -8.951  0.0000E+00  0.1200E+02
     -8.740  0.0000E+00  0.1200E+02
     -8.529  0.0000E+00  0.1200E+02
     -8.317  0.0000E+00  0.1200E+02
     -8.106  0.0000E+00  0.1200E+02
     -7.895  0.0000E+00  0.1200E+02
     -7.683  0.0000E+00  0.1200E+02
     -7.472  0.0000E+00  0.1200E+02
     -7.261  0.0000E+00  0.1200E+02
     -7.049  0.0000E+00  0.1200E+02
     -6.838  0.0000E+00  0.1200E+02
     -6.627  0.0000E+00  0.1200E+02
     -6.415  0.0000E+00  0.1200E+02
     -6.204  0.0000E+00  0.1200E+02
     -5.993  0.0000E+00  0.1200E+02
     -5.781  0.0000E+00  0.1200E+02
     -5.570  0.0000E+00  0.1334E+02
     -5.359  0.0000E+00  0.1384E+02
     -5.147  0.0000E+00  0.1399E+02
     -4.936  0.0000E+00  0.1400E+02
     -4.725  0.0000E+00  0.1400E+02
     -4.513  0.0000E+00  0.1400E+02
     -4.302  0.0000E+00  0.1400E+02
     -4.090  0.0000E+00  0.1400E+02
     -3.879  0.0000E+00  0.1400E+02
     -3.668  0.0000E+00  0.1400E+02
     -3.456  0.0000E+00  0.1400E+02
     -3.245  0.0000E+00  0.1400E+02
     -3.034  0.0000E+00  0.1400E+02
     -2.822  0.6621E+00  0.1421E+02
     -2.611  0.0000E+00  0.1534E+02
     -2.400  0.0000E+00  0.1566E+02
     -2.188  0.3311E+00  0.1619E+02
     -1.977  0.0000E+00  0.1693E+02
     -1.766  0.2207E+00  0.1746E+02
     -1.554  0.0000E+00  0.1786E+02
     -1.343  0.0000E+00  0.1800E+02
     -1.132  0.0000E+00  0.1800E+02
     -0.920  0.0000E+00  0.1800E+02
     -0.709  0.0000E+00  0.1800E+02
     -0.498  0.0000E+00  0.1800E+02
     -0.286  0.0000E+00  0.1800E+02
     -0.075  0.0000E+00  0.1800E+02
      0.136  0.0000E+00  0.1800E+02
      0.348  0.0000E+00  0.1800E+02
      0.559  0.0000E+00  0.1800E+02
      0.770  0.0000E+00  0.1800E+02
      0.982  0.0000E+00  0.1800E+02
      1.193  0.0000E+00  0.1800E+02
      1.405  0.0000E+00  0.1800E+02
      1.616  0.0000E+00  0.1800E+02
      1.827  0.0000E+00  0.1800E+02
      2.039  0.0000E+00  0.1800E+02
      2.250  0.0000E+00  0.1800E+02
      2.461  0.0000E+00  0.1801E+02
      2.673  0.0000E+00  0.1801E+02
      2.884  0.0000E+00  0.1801E+02
      3.095  0.0000E+00  0.1805E+02
      3.307  0.0000E+00  0.1809E+02
      3.518  0.0000E+00  0.1809E+02
      3.729  0.0000E+00  0.1809E+02
      3.941  0.0000E+00  0.1816E+02
      4.152  0.0000E+00  0.1820E+02
      4.363  0.0000E+00  0.1843E+02
      4.575  0.0000E+00  0.1853E+02
      4.786  0.0000E+00  0.1909E+02
      4.997  0.0000E+00  0.1937E+02
      5.209  0.0000E+00  0.1955E+02
      5.420  0.0000E+00  0.1969E+02
      5.631  0.0000E+00  0.2010E+02
      5.843  0.0000E+00  0.2042E+02
      6.054  0.0000E+00  0.2070E+02
      6.266  0.0000E+00  0.2105E+02
      6.477  0.0000E+00  0.2147E+02
      6.688  0.0000E+00  0.2182E+02
      6.900  0.0000E+00  0.2199E+02
      7.111  0.0000E+00  0.2258E+02
      7.322  0.6592E+00  0.2322E+02
      7.534  0.0000E+00  0.2355E+02
      7.745  0.0000E+00  0.2386E+02
      7.956  0.6621E+00  0.2446E+02
      8.168  0.0000E+00  0.2460E+02
      8.379  0.0000E+00  0.2495E+02
      8.590  0.0000E+00  0.2541E+02
      8.802  0.0000E+00  0.2569E+02
      9.013  0.6621E+00  0.2583E+02
      9.224  0.0000E+00  0.2614E+02
      9.436  0.1295E-03  0.2650E+02
      9.647  0.0000E+00  0.2665E+02
      9.858  0.0000E+00  0.2695E+02
     10.070  0.3311E+00  0.2738E+02
     10.281  0.1655E+00  0.2760E+02
     10.492  0.0000E+00  0.2816E+02
     10.704  0.0000E+00  0.2834E+02
     10.915  0.0000E+00  0.2893E+02
     11.126  0.0000E+00  0.2928E+02
     11.338  0.2992E+00  0.3000E+02
     11.549  0.0000E+00  0.3001E+02
     11.761  0.0000E+00  0.3057E+02
     11.972  0.0000E+00  0.3067E+02
     12.183  0.0000E+00  0.3081E+02
     12.395  0.0000E+00  0.3109E+02
     12.606  0.0000E+00  0.3122E+02
     12.817  0.6621E+00  0.3137E+02
     13.029  0.0000E+00  0.3158E+02
     13.240  0.2759E-01  0.3182E+02
     13.451  0.0000E+00  0.3186E+02
     13.663  0.0000E+00  0.3200E+02
     13.874  0.0000E+00  0.3200E+02
     14.085  0.0000E+00  0.3200E+02
     14.297  0.0000E+00  0.3200E+02
     14.508  0.0000E+00  0.3200E+02
     14.719  0.0000E+00  0.3200E+02
     14.931  0.0000E+00  0.3200E+02
     15.142  0.0000E+00  0.3200E+02
     15.353  0.0000E+00  0.3200E+02
     15.565  0.0000E+00  0.3200E+02
     15.776  0.0000E+00  0.3200E+02
     15.987  0.0000E+00  0.3200E+02
     16.199  0.0000E+00  0.3200E+02
     16.410  0.0000E+00  0.3200E+02
