       N       E                     dE             d eps       ncg     rms          rms(c)
DAV:   1     0.220870904120E+03    0.22087E+03   -0.70994E+03 31128   0.426E+03
DAV:   2     0.760900657480E+02   -0.14478E+03   -0.13676E+03 26656   0.108E+03
DAV:   3     0.167914342492E+02   -0.59299E+02   -0.58811E+02 26864   0.242E+02
DAV:   4     0.300184694466E+01   -0.13790E+02   -0.13754E+02 31120   0.171E+02
DAV:   5    -0.143640535987E+01   -0.44383E+01   -0.44379E+01 40816   0.101E+02    0.775E+00
DAV:   6    -0.163891348894E+01   -0.20251E+00   -0.43433E-01 27288   0.451E+01    0.289E+00
DAV:   7    -0.179472379088E+01   -0.15581E+00   -0.28422E-01 29704   0.124E+01    0.350E-01
DAV:   8    -0.179689690284E+01   -0.21731E-02   -0.18316E-02 35960   0.157E+00    0.169E-01
DAV:   9    -0.179703803795E+01   -0.14114E-03   -0.63269E-04 35064   0.552E-01    0.663E-02
DAV:  10    -0.179714671311E+01   -0.10868E-03   -0.68594E-05 35200   0.217E-01    0.191E-02
DAV:  11    -0.179716348374E+01   -0.16771E-04   -0.21791E-05 31744   0.514E-02    0.640E-03
DAV:  12    -0.179716519110E+01   -0.17074E-05   -0.29492E-06 32976   0.237E-02    0.330E-03
DAV:  13    -0.179716591798E+01   -0.72688E-06   -0.51176E-07 29608   0.111E-02    0.125E-03
DAV:  14    -0.179716613354E+01   -0.21557E-06   -0.98534E-08 30072   0.642E-03    0.681E-04
DAV:  15    -0.179716619004E+01   -0.56496E-07   -0.22085E-08 26984   0.250E-03    0.242E-04
DAV:  16    -0.179716619404E+01   -0.40027E-08   -0.72862E-09 23968   0.110E-03
   1 F= -.20029361E+01 E0= -.20029361E+01  d E =0.000000E+00  mag=     0.0000    -0.0000    -0.0000
 imaginary and real dielectric function
