   1   1   0   0
  0.6390052E+02  0.4487521E-09  0.4487521E-09  0.4487521E-09  0.1000000E-15
  1.000000000000000E-004
  CAR 
 Og_FCC                                  
     16.19896128    -33.73765278  301      2.59167913      1.00000000
    -33.738  0.0000E+00  0.0000E+00
    -33.571  0.0000E+00  0.0000E+00
    -33.405  0.0000E+00  0.0000E+00
    -33.238  0.0000E+00  0.0000E+00
    -33.072  0.0000E+00  0.0000E+00
    -32.905  0.0000E+00  0.0000E+00
    -32.739  0.0000E+00  0.0000E+00
    -32.572  0.0000E+00  0.0000E+00
    -32.406 -0.2927E-36 -0.4873E-37
    -32.240 -0.5784E-24 -0.9627E-25
    -32.073 -0.4274E-14 -0.7115E-15
    -31.907 -0.1088E-06 -0.1811E-07
    -31.740 -0.9024E-02 -0.1502E-02
    -31.574 -0.7391E+00 -0.1245E+00
    -31.407  0.2276E+02  0.3665E+01
    -31.241  0.2092E+01  0.4013E+01
    -31.074 -0.7715E-01  0.4000E+01
    -30.908 -0.5261E-05  0.4000E+01
    -30.741 -0.1042E-11  0.4000E+01
    -30.575  0.0000E+00  0.4000E+01
    -30.409  0.0000E+00  0.4000E+01
    -30.242  0.0000E+00  0.4000E+01
    -30.076  0.0000E+00  0.4000E+01
    -29.909  0.0000E+00  0.4000E+01
    -29.743  0.0000E+00  0.4000E+01
    -29.576  0.0000E+00  0.4000E+01
    -29.410  0.0000E+00  0.4000E+01
    -29.243  0.0000E+00  0.4000E+01
    -29.077  0.0000E+00  0.4000E+01
    -28.910  0.0000E+00  0.4000E+01
    -28.744  0.0000E+00  0.4000E+01
    -28.578  0.0000E+00  0.4000E+01
    -28.411  0.0000E+00  0.4000E+01
    -28.245  0.0000E+00  0.4000E+01
    -28.078  0.0000E+00  0.4000E+01
    -27.912  0.0000E+00  0.4000E+01
    -27.745  0.0000E+00  0.4000E+01
    -27.579  0.0000E+00  0.4000E+01
    -27.412  0.0000E+00  0.4000E+01
    -27.246  0.0000E+00  0.4000E+01
    -27.079  0.0000E+00  0.4000E+01
    -26.913  0.0000E+00  0.4000E+01
    -26.747  0.0000E+00  0.4000E+01
    -26.580  0.0000E+00  0.4000E+01
    -26.414  0.0000E+00  0.4000E+01
    -26.247  0.0000E+00  0.4000E+01
    -26.081  0.0000E+00  0.4000E+01
    -25.914  0.0000E+00  0.4000E+01
    -25.748  0.0000E+00  0.4000E+01
    -25.581 -0.3298E-26  0.4000E+01
    -25.415 -0.7952E-16  0.4000E+01
    -25.248 -0.6751E-08  0.4000E+01
    -25.082 -0.1953E-02  0.4000E+01
    -24.916 -0.1097E+01  0.3817E+01
    -24.749  0.2598E+02  0.8141E+01
    -24.583  0.1156E+02  0.1007E+02
    -24.416 -0.3976E+00  0.1000E+02
    -24.250 -0.1056E-03  0.1000E+02
    -24.083 -0.7335E-10  0.1000E+02
    -23.917  0.0000E+00  0.1000E+02
    -23.750  0.0000E+00  0.1000E+02
    -23.584  0.0000E+00  0.1000E+02
    -23.417  0.0000E+00  0.1000E+02
    -23.251  0.0000E+00  0.1000E+02
    -23.085  0.0000E+00  0.1000E+02
    -22.918  0.0000E+00  0.1000E+02
    -22.752  0.0000E+00  0.1000E+02
    -22.585  0.0000E+00  0.1000E+02
    -22.419  0.0000E+00  0.1000E+02
    -22.252  0.0000E+00  0.1000E+02
    -22.086  0.0000E+00  0.1000E+02
    -21.919 -0.1549E-28  0.1000E+02
    -21.753 -0.4483E-18  0.1000E+02
    -21.586 -0.5175E-10  0.1000E+02
    -21.420 -0.2667E-04  0.1000E+02
    -21.253 -0.6583E-01  0.9989E+01
    -21.087  0.1724E+01  0.1028E+02
    -20.921  0.1065E+02  0.1205E+02
    -20.754 -0.2885E+00  0.1200E+02
    -20.588 -0.5202E-02  0.1200E+02
    -20.421 -0.9382E-07  0.1200E+02
    -20.255 -0.5863E-14  0.1200E+02
    -20.088  0.0000E+00  0.1200E+02
    -19.922  0.0000E+00  0.1200E+02
    -19.755  0.0000E+00  0.1200E+02
    -19.589  0.0000E+00  0.1200E+02
    -19.422  0.0000E+00  0.1200E+02
    -19.256  0.0000E+00  0.1200E+02
    -19.090  0.0000E+00  0.1200E+02
    -18.923  0.0000E+00  0.1200E+02
    -18.757  0.0000E+00  0.1200E+02
    -18.590  0.0000E+00  0.1200E+02
    -18.424  0.0000E+00  0.1200E+02
    -18.257  0.0000E+00  0.1200E+02
    -18.091  0.0000E+00  0.1200E+02
    -17.924  0.0000E+00  0.1200E+02
    -17.758  0.0000E+00  0.1200E+02
    -17.591  0.0000E+00  0.1200E+02
    -17.425  0.0000E+00  0.1200E+02
    -17.259  0.0000E+00  0.1200E+02
    -17.092  0.0000E+00  0.1200E+02
    -16.926  0.0000E+00  0.1200E+02
    -16.759  0.0000E+00  0.1200E+02
    -16.593  0.0000E+00  0.1200E+02
    -16.426  0.0000E+00  0.1200E+02
    -16.260  0.0000E+00  0.1200E+02
    -16.093  0.0000E+00  0.1200E+02
    -15.927  0.0000E+00  0.1200E+02
    -15.760  0.0000E+00  0.1200E+02
    -15.594  0.0000E+00  0.1200E+02
    -15.428  0.0000E+00  0.1200E+02
    -15.261  0.0000E+00  0.1200E+02
    -15.095  0.0000E+00  0.1200E+02
    -14.928  0.0000E+00  0.1200E+02
    -14.762  0.0000E+00  0.1200E+02
    -14.595  0.0000E+00  0.1200E+02
    -14.429  0.0000E+00  0.1200E+02
    -14.262  0.0000E+00  0.1200E+02
    -14.096  0.0000E+00  0.1200E+02
    -13.929  0.0000E+00  0.1200E+02
    -13.763  0.0000E+00  0.1200E+02
    -13.597  0.0000E+00  0.1200E+02
    -13.430  0.0000E+00  0.1200E+02
    -13.264  0.0000E+00  0.1200E+02
    -13.097  0.0000E+00  0.1200E+02
    -12.931  0.0000E+00  0.1200E+02
    -12.764  0.0000E+00  0.1200E+02
    -12.598  0.0000E+00  0.1200E+02
    -12.431  0.0000E+00  0.1200E+02
    -12.265  0.0000E+00  0.1200E+02
    -12.098  0.0000E+00  0.1200E+02
    -11.932  0.0000E+00  0.1200E+02
    -11.766  0.0000E+00  0.1200E+02
    -11.599  0.0000E+00  0.1200E+02
    -11.433  0.0000E+00  0.1200E+02
    -11.266  0.0000E+00  0.1200E+02
    -11.100  0.0000E+00  0.1200E+02
    -10.933  0.0000E+00  0.1200E+02
    -10.767  0.0000E+00  0.1200E+02
    -10.600  0.0000E+00  0.1200E+02
    -10.434  0.0000E+00  0.1200E+02
    -10.267  0.0000E+00  0.1200E+02
    -10.101  0.0000E+00  0.1200E+02
     -9.935  0.0000E+00  0.1200E+02
     -9.768  0.0000E+00  0.1200E+02
     -9.602  0.0000E+00  0.1200E+02
     -9.435  0.0000E+00  0.1200E+02
     -9.269  0.0000E+00  0.1200E+02
     -9.102  0.0000E+00  0.1200E+02
     -8.936  0.0000E+00  0.1200E+02
     -8.769 -0.1386E-38  0.1200E+02
     -8.603 -0.4598E-26  0.1200E+02
     -8.436 -0.5742E-16  0.1200E+02
     -8.270 -0.2647E-08  0.1200E+02
     -8.104 -0.4571E-03  0.1200E+02
     -7.937 -0.1923E+00  0.1197E+02
     -7.771  0.4759E+01  0.1276E+02
     -7.604  0.6318E+01  0.1381E+02
     -7.438  0.1106E+01  0.1400E+02
     -7.271  0.2699E-01  0.1400E+02
     -7.105 -0.2435E-02  0.1400E+02
     -6.938 -0.6125E-06  0.1400E+02
     -6.772 -0.7144E-12  0.1400E+02
     -6.605  0.0000E+00  0.1400E+02
     -6.439  0.0000E+00  0.1400E+02
     -6.273  0.0000E+00  0.1400E+02
     -6.106  0.0000E+00  0.1400E+02
     -5.940  0.0000E+00  0.1400E+02
     -5.773  0.0000E+00  0.1400E+02
     -5.607  0.0000E+00  0.1400E+02
     -5.440  0.0000E+00  0.1400E+02
     -5.274  0.0000E+00  0.1400E+02
     -5.107  0.0000E+00  0.1400E+02
     -4.941  0.0000E+00  0.1400E+02
     -4.774  0.0000E+00  0.1400E+02
     -4.608  0.0000E+00  0.1400E+02
     -4.442  0.0000E+00  0.1400E+02
     -4.275  0.0000E+00  0.1400E+02
     -4.109  0.0000E+00  0.1400E+02
     -3.942  0.0000E+00  0.1400E+02
     -3.776  0.0000E+00  0.1400E+02
     -3.609  0.0000E+00  0.1400E+02
     -3.443  0.0000E+00  0.1400E+02
     -3.276  0.0000E+00  0.1400E+02
     -3.110  0.0000E+00  0.1400E+02
     -2.943  0.0000E+00  0.1400E+02
     -2.777  0.0000E+00  0.1400E+02
     -2.610  0.0000E+00  0.1400E+02
     -2.444  0.0000E+00  0.1400E+02
     -2.278  0.0000E+00  0.1400E+02
     -2.111  0.0000E+00  0.1400E+02
     -1.945  0.0000E+00  0.1400E+02
     -1.778  0.0000E+00  0.1400E+02
     -1.612  0.0000E+00  0.1400E+02
     -1.445  0.0000E+00  0.1400E+02
     -1.279  0.0000E+00  0.1400E+02
     -1.112 -0.5780E-40  0.1400E+02
     -0.946 -0.2550E-27  0.1400E+02
     -0.779 -0.4242E-17  0.1400E+02
     -0.613 -0.2560E-09  0.1400E+02
     -0.447 -0.5962E-04  0.1400E+02
     -0.280 -0.5140E-01  0.1399E+02
     -0.114  0.1245E+01  0.1420E+02
      0.053  0.6349E+01  0.1526E+02
      0.219  0.1791E+01  0.1555E+02
      0.386  0.7586E+00  0.1568E+02
      0.552  0.7737E+00  0.1581E+02
      0.719  0.3521E+00  0.1587E+02
      0.885  0.8603E+00  0.1601E+02
      1.052  0.2469E+01  0.1642E+02
      1.218  0.1423E+01  0.1666E+02
      1.384  0.1773E+01  0.1695E+02
      1.551  0.1235E+01  0.1716E+02
      1.717  0.1327E+01  0.1738E+02
      1.884  0.1301E+01  0.1760E+02
      2.050  0.9702E+00  0.1776E+02
      2.217  0.7848E+00  0.1789E+02
      2.383  0.4633E+00  0.1797E+02
      2.550  0.1844E+00  0.1800E+02
      2.716  0.2051E-01  0.1800E+02
      2.883 -0.5335E-03  0.1800E+02
      3.049  0.1635E-01  0.1800E+02
      3.215 -0.1680E-03  0.1800E+02
      3.382 -0.1436E-04  0.1800E+02
      3.548 -0.9386E-07  0.1800E+02
      3.715 -0.7616E-03  0.1800E+02
      3.881  0.2309E-01  0.1801E+02
      4.048  0.1108E+00  0.1802E+02
      4.214  0.7648E-01  0.1804E+02
      4.381  0.2186E-01  0.1804E+02
      4.547 -0.7667E-02  0.1804E+02
      4.714  0.1648E+00  0.1807E+02
      4.880  0.9378E-01  0.1808E+02
      5.046  0.3675E+00  0.1814E+02
      5.213  0.1045E+00  0.1816E+02
      5.379  0.1119E+00  0.1818E+02
      5.546  0.5531E+00  0.1827E+02
      5.712  0.5664E+00  0.1837E+02
      5.879  0.1323E+01  0.1859E+02
      6.045  0.9853E+00  0.1875E+02
      6.212  0.7264E+00  0.1887E+02
      6.378  0.1694E+01  0.1915E+02
      6.545  0.1512E+01  0.1941E+02
      6.711  0.1587E+01  0.1967E+02
      6.877  0.7281E+00  0.1979E+02
      7.044  0.1246E+01  0.2000E+02
      7.210  0.1224E+00  0.2002E+02
      7.377  0.2404E+00  0.2006E+02
      7.543  0.7166E+00  0.2018E+02
      7.710  0.5905E-01  0.2019E+02
      7.876  0.1931E+01  0.2051E+02
      8.043  0.3815E+01  0.2114E+02
      8.209  0.2413E+00  0.2118E+02
      8.376  0.1288E+01  0.2140E+02
      8.542  0.7106E+00  0.2152E+02
      8.708  0.1395E+01  0.2175E+02
      8.875  0.2087E+01  0.2210E+02
      9.041  0.2810E+01  0.2256E+02
      9.208  0.1019E+01  0.2273E+02
      9.374  0.5440E+00  0.2282E+02
      9.541  0.1286E+01  0.2304E+02
      9.707  0.3372E+01  0.2360E+02
      9.874  0.1503E+01  0.2385E+02
     10.040  0.9248E+00  0.2400E+02
     10.207  0.8128E+00  0.2414E+02
     10.373  0.1360E+01  0.2437E+02
     10.539  0.1401E+01  0.2460E+02
     10.706  0.4015E+01  0.2527E+02
     10.872  0.9796E+00  0.2543E+02
     11.039  0.1075E+01  0.2561E+02
     11.205  0.1728E+01  0.2590E+02
     11.372  0.1459E+01  0.2614E+02
     11.538  0.3799E+00  0.2620E+02
     11.705  0.7692E+00  0.2633E+02
     11.871  0.2809E+01  0.2680E+02
     12.038  0.1053E+01  0.2697E+02
     12.204  0.1530E+01  0.2723E+02
     12.370  0.5009E+00  0.2731E+02
     12.537  0.1600E+01  0.2758E+02
     12.703  0.1002E+01  0.2774E+02
     12.870  0.3587E+00  0.2780E+02
     13.036  0.4619E-01  0.2781E+02
     13.203  0.4301E+00  0.2788E+02
     13.369  0.5750E-01  0.2789E+02
     13.536  0.3626E+00  0.2795E+02
     13.702  0.1169E+00  0.2797E+02
     13.869  0.1137E+00  0.2799E+02
     14.035  0.4931E-01  0.2800E+02
     14.201 -0.1729E-02  0.2800E+02
     14.368 -0.1084E-04  0.2800E+02
     14.534 -0.1208E-09  0.2800E+02
     14.701 -0.3660E-17  0.2800E+02
     14.867  0.0000E+00  0.2800E+02
     15.034  0.0000E+00  0.2800E+02
     15.200  0.0000E+00  0.2800E+02
     15.367  0.0000E+00  0.2800E+02
     15.533  0.0000E+00  0.2800E+02
     15.700  0.0000E+00  0.2800E+02
     15.866  0.0000E+00  0.2800E+02
     16.033  0.0000E+00  0.2800E+02
     16.199  0.0000E+00  0.2800E+02
