   1   1   0   0
  0.6167203E+02  0.4434736E-09  0.4434736E-09  0.4434736E-09  0.1000000E-15
  1.000000000000000E-004
  CAR 
 Og_FCC                                  
     16.58590975    -33.22599202  301      3.29549552      1.00000000
    -33.226  0.0000E+00  0.0000E+00
    -33.060  0.0000E+00  0.0000E+00
    -32.894  0.0000E+00  0.0000E+00
    -32.728  0.0000E+00  0.0000E+00
    -32.562  0.0000E+00  0.0000E+00
    -32.396  0.0000E+00  0.0000E+00
    -32.230  0.0000E+00  0.0000E+00
    -32.064  0.0000E+00  0.0000E+00
    -31.898 -0.4498E-36 -0.7468E-37
    -31.732 -0.7723E-24 -0.1282E-24
    -31.566 -0.5099E-14 -0.8467E-15
    -31.400 -0.1192E-06 -0.1979E-07
    -31.234 -0.9332E-02 -0.1550E-02
    -31.067 -0.7376E+00 -0.1240E+00
    -30.901  0.2279E+02  0.3661E+01
    -30.735  0.2123E+01  0.4013E+01
    -30.569 -0.7925E-01  0.4000E+01
    -30.403 -0.5707E-05  0.4000E+01
    -30.237 -0.1227E-11  0.4000E+01
    -30.071  0.0000E+00  0.4000E+01
    -29.905  0.0000E+00  0.4000E+01
    -29.739  0.0000E+00  0.4000E+01
    -29.573  0.0000E+00  0.4000E+01
    -29.407  0.0000E+00  0.4000E+01
    -29.241  0.0000E+00  0.4000E+01
    -29.075  0.0000E+00  0.4000E+01
    -28.909  0.0000E+00  0.4000E+01
    -28.743  0.0000E+00  0.4000E+01
    -28.577  0.0000E+00  0.4000E+01
    -28.411  0.0000E+00  0.4000E+01
    -28.245  0.0000E+00  0.4000E+01
    -28.079  0.0000E+00  0.4000E+01
    -27.913  0.0000E+00  0.4000E+01
    -27.747  0.0000E+00  0.4000E+01
    -27.581  0.0000E+00  0.4000E+01
    -27.415  0.0000E+00  0.4000E+01
    -27.249  0.0000E+00  0.4000E+01
    -27.083  0.0000E+00  0.4000E+01
    -26.916  0.0000E+00  0.4000E+01
    -26.750  0.0000E+00  0.4000E+01
    -26.584  0.0000E+00  0.4000E+01
    -26.418  0.0000E+00  0.4000E+01
    -26.252  0.0000E+00  0.4000E+01
    -26.086  0.0000E+00  0.4000E+01
    -25.920  0.0000E+00  0.4000E+01
    -25.754  0.0000E+00  0.4000E+01
    -25.588  0.0000E+00  0.4000E+01
    -25.422  0.0000E+00  0.4000E+01
    -25.256  0.0000E+00  0.4000E+01
    -25.090 -0.3189E-27  0.4000E+01
    -24.924 -0.1181E-16  0.4000E+01
    -24.758 -0.1595E-08  0.4000E+01
    -24.592 -0.7656E-03  0.4000E+01
    -24.426 -0.8420E+00  0.3860E+01
    -24.260  0.2092E+02  0.7333E+01
    -24.094  0.1669E+02  0.1010E+02
    -23.928 -0.6297E+00  0.1000E+02
    -23.762 -0.3351E-03  0.1000E+02
    -23.596 -0.4433E-09  0.1000E+02
    -23.430  0.0000E+00  0.1000E+02
    -23.264  0.0000E+00  0.1000E+02
    -23.098  0.0000E+00  0.1000E+02
    -22.932  0.0000E+00  0.1000E+02
    -22.765  0.0000E+00  0.1000E+02
    -22.599  0.0000E+00  0.1000E+02
    -22.433  0.0000E+00  0.1000E+02
    -22.267  0.0000E+00  0.1000E+02
    -22.101  0.0000E+00  0.1000E+02
    -21.935  0.0000E+00  0.1000E+02
    -21.769  0.0000E+00  0.1000E+02
    -21.603 -0.8641E-39  0.1000E+02
    -21.437 -0.2061E-26  0.1000E+02
    -21.271 -0.2018E-16  0.1000E+02
    -21.105 -0.8118E-09  0.1000E+02
    -20.939 -0.1524E-03  0.1000E+02
    -20.773 -0.1377E+00  0.9977E+01
    -20.607  0.3722E+01  0.1060E+02
    -20.441  0.8816E+01  0.1206E+02
    -20.275 -0.3534E+00  0.1200E+02
    -20.109 -0.1438E-02  0.1200E+02
    -19.943 -0.1124E-07  0.1200E+02
    -19.777 -0.1321E-15  0.1200E+02
    -19.611  0.0000E+00  0.1200E+02
    -19.445  0.0000E+00  0.1200E+02
    -19.279  0.0000E+00  0.1200E+02
    -19.113  0.0000E+00  0.1200E+02
    -18.947  0.0000E+00  0.1200E+02
    -18.781  0.0000E+00  0.1200E+02
    -18.615  0.0000E+00  0.1200E+02
    -18.448  0.0000E+00  0.1200E+02
    -18.282  0.0000E+00  0.1200E+02
    -18.116  0.0000E+00  0.1200E+02
    -17.950  0.0000E+00  0.1200E+02
    -17.784  0.0000E+00  0.1200E+02
    -17.618  0.0000E+00  0.1200E+02
    -17.452  0.0000E+00  0.1200E+02
    -17.286  0.0000E+00  0.1200E+02
    -17.120  0.0000E+00  0.1200E+02
    -16.954  0.0000E+00  0.1200E+02
    -16.788  0.0000E+00  0.1200E+02
    -16.622  0.0000E+00  0.1200E+02
    -16.456  0.0000E+00  0.1200E+02
    -16.290  0.0000E+00  0.1200E+02
    -16.124  0.0000E+00  0.1200E+02
    -15.958  0.0000E+00  0.1200E+02
    -15.792  0.0000E+00  0.1200E+02
    -15.626  0.0000E+00  0.1200E+02
    -15.460  0.0000E+00  0.1200E+02
    -15.294  0.0000E+00  0.1200E+02
    -15.128  0.0000E+00  0.1200E+02
    -14.962  0.0000E+00  0.1200E+02
    -14.796  0.0000E+00  0.1200E+02
    -14.630  0.0000E+00  0.1200E+02
    -14.464  0.0000E+00  0.1200E+02
    -14.297  0.0000E+00  0.1200E+02
    -14.131  0.0000E+00  0.1200E+02
    -13.965  0.0000E+00  0.1200E+02
    -13.799  0.0000E+00  0.1200E+02
    -13.633  0.0000E+00  0.1200E+02
    -13.467  0.0000E+00  0.1200E+02
    -13.301  0.0000E+00  0.1200E+02
    -13.135  0.0000E+00  0.1200E+02
    -12.969  0.0000E+00  0.1200E+02
    -12.803  0.0000E+00  0.1200E+02
    -12.637  0.0000E+00  0.1200E+02
    -12.471  0.0000E+00  0.1200E+02
    -12.305  0.0000E+00  0.1200E+02
    -12.139  0.0000E+00  0.1200E+02
    -11.973  0.0000E+00  0.1200E+02
    -11.807  0.0000E+00  0.1200E+02
    -11.641  0.0000E+00  0.1200E+02
    -11.475  0.0000E+00  0.1200E+02
    -11.309  0.0000E+00  0.1200E+02
    -11.143  0.0000E+00  0.1200E+02
    -10.977  0.0000E+00  0.1200E+02
    -10.811  0.0000E+00  0.1200E+02
    -10.645  0.0000E+00  0.1200E+02
    -10.479  0.0000E+00  0.1200E+02
    -10.313  0.0000E+00  0.1200E+02
    -10.146  0.0000E+00  0.1200E+02
     -9.980  0.0000E+00  0.1200E+02
     -9.814  0.0000E+00  0.1200E+02
     -9.648  0.0000E+00  0.1200E+02
     -9.482  0.0000E+00  0.1200E+02
     -9.316  0.0000E+00  0.1200E+02
     -9.150  0.0000E+00  0.1200E+02
     -8.984  0.0000E+00  0.1200E+02
     -8.818  0.0000E+00  0.1200E+02
     -8.652 -0.3497E-31  0.1200E+02
     -8.486 -0.4583E-20  0.1200E+02
     -8.320 -0.2314E-11  0.1200E+02
     -8.154 -0.4605E-05  0.1200E+02
     -7.988 -0.3111E-01  0.1199E+02
     -7.822  0.7204E+00  0.1211E+02
     -7.656  0.8782E+01  0.1357E+02
     -7.490  0.2332E+01  0.1396E+02
     -7.324  0.2548E+00  0.1400E+02
     -7.158 -0.1275E-01  0.1400E+02
     -6.992 -0.2731E-04  0.1400E+02
     -6.826 -0.2353E-09  0.1400E+02
     -6.660 -0.7338E-17  0.1400E+02
     -6.494  0.0000E+00  0.1400E+02
     -6.328  0.0000E+00  0.1400E+02
     -6.162  0.0000E+00  0.1400E+02
     -5.995  0.0000E+00  0.1400E+02
     -5.829  0.0000E+00  0.1400E+02
     -5.663  0.0000E+00  0.1400E+02
     -5.497  0.0000E+00  0.1400E+02
     -5.331  0.0000E+00  0.1400E+02
     -5.165  0.0000E+00  0.1400E+02
     -4.999  0.0000E+00  0.1400E+02
     -4.833  0.0000E+00  0.1400E+02
     -4.667  0.0000E+00  0.1400E+02
     -4.501  0.0000E+00  0.1400E+02
     -4.335  0.0000E+00  0.1400E+02
     -4.169  0.0000E+00  0.1400E+02
     -4.003  0.0000E+00  0.1400E+02
     -3.837  0.0000E+00  0.1400E+02
     -3.671  0.0000E+00  0.1400E+02
     -3.505  0.0000E+00  0.1400E+02
     -3.339  0.0000E+00  0.1400E+02
     -3.173  0.0000E+00  0.1400E+02
     -3.007  0.0000E+00  0.1400E+02
     -2.841  0.0000E+00  0.1400E+02
     -2.675  0.0000E+00  0.1400E+02
     -2.509  0.0000E+00  0.1400E+02
     -2.343  0.0000E+00  0.1400E+02
     -2.177  0.0000E+00  0.1400E+02
     -2.011  0.0000E+00  0.1400E+02
     -1.844  0.0000E+00  0.1400E+02
     -1.678  0.0000E+00  0.1400E+02
     -1.512  0.0000E+00  0.1400E+02
     -1.346  0.0000E+00  0.1400E+02
     -1.180  0.0000E+00  0.1400E+02
     -1.014  0.0000E+00  0.1400E+02
     -0.848  0.0000E+00  0.1400E+02
     -0.682  0.0000E+00  0.1400E+02
     -0.516 -0.6125E-35  0.1400E+02
     -0.350 -0.3120E-23  0.1400E+02
     -0.184 -0.5977E-14  0.1400E+02
     -0.018 -0.4400E-07  0.1400E+02
      0.148 -0.1209E-02  0.1400E+02
      0.314 -0.9551E-01  0.1398E+02
      0.480  0.3310E+01  0.1453E+02
      0.646  0.5195E+01  0.1540E+02
      0.812  0.1139E+01  0.1559E+02
      0.978  0.7466E+00  0.1571E+02
      1.144  0.6894E+00  0.1582E+02
      1.310  0.3341E+00  0.1588E+02
      1.476  0.9162E+00  0.1603E+02
      1.642  0.2108E+01  0.1638E+02
      1.808  0.1430E+01  0.1662E+02
      1.974  0.1427E+01  0.1686E+02
      2.140  0.1634E+01  0.1713E+02
      2.306  0.1260E+01  0.1734E+02
      2.473  0.7398E+00  0.1746E+02
      2.639  0.1369E+01  0.1769E+02
      2.805  0.7281E+00  0.1781E+02
      2.971  0.6180E+00  0.1791E+02
      3.137  0.3851E+00  0.1797E+02
      3.303  0.1630E+00  0.1800E+02
      3.469  0.1262E-01  0.1800E+02
      3.635 -0.6114E-03  0.1800E+02
      3.801 -0.1237E-06  0.1800E+02
      3.967 -0.7563E-09  0.1800E+02
      4.133 -0.5576E-04  0.1800E+02
      4.299 -0.3890E-02  0.1800E+02
      4.465  0.1254E+00  0.1802E+02
      4.631  0.2811E-01  0.1803E+02
      4.797  0.8532E-01  0.1804E+02
      4.963 -0.6156E-02  0.1804E+02
      5.129  0.7218E-01  0.1805E+02
      5.295  0.1832E+00  0.1808E+02
      5.461  0.2004E+00  0.1812E+02
      5.627  0.2947E+00  0.1817E+02
      5.793  0.2226E+00  0.1820E+02
      5.959  0.4072E+00  0.1827E+02
      6.125  0.7443E+00  0.1839E+02
      6.291  0.1688E+01  0.1867E+02
      6.457  0.9897E+00  0.1884E+02
      6.624  0.4786E+00  0.1892E+02
      6.790  0.2174E+01  0.1928E+02
      6.956  0.1859E+01  0.1959E+02
      7.122  0.1054E+01  0.1976E+02
      7.288  0.1224E+01  0.1997E+02
      7.454  0.3277E+00  0.2002E+02
      7.620  0.2339E+00  0.2006E+02
      7.786  0.6741E+00  0.2017E+02
      7.952  0.1362E+00  0.2019E+02
      8.118  0.8272E+00  0.2033E+02
      8.284  0.4276E+01  0.2104E+02
      8.450  0.7854E+00  0.2117E+02
      8.616  0.1128E+01  0.2136E+02
      8.782  0.7378E+00  0.2148E+02
      8.948  0.1163E+01  0.2167E+02
      9.114  0.1980E+01  0.2200E+02
      9.280  0.2281E+01  0.2238E+02
      9.446  0.1986E+01  0.2271E+02
      9.612  0.5346E+00  0.2280E+02
      9.778  0.9322E+00  0.2295E+02
      9.944  0.1902E+01  0.2327E+02
     10.110  0.3114E+01  0.2379E+02
     10.276  0.7650E+00  0.2391E+02
     10.442  0.8825E+00  0.2406E+02
     10.608  0.1198E+01  0.2426E+02
     10.775  0.1373E+01  0.2449E+02
     10.941  0.2328E+01  0.2487E+02
     11.107  0.3108E+01  0.2539E+02
     11.273  0.8127E+00  0.2553E+02
     11.439  0.1687E+01  0.2581E+02
     11.605  0.1247E+01  0.2601E+02
     11.771  0.1177E+01  0.2621E+02
     11.937  0.8030E+00  0.2634E+02
     12.103  0.1649E+01  0.2661E+02
     12.269  0.2064E+01  0.2696E+02
     12.435  0.1256E+01  0.2717E+02
     12.601  0.6549E+00  0.2728E+02
     12.767  0.7784E+00  0.2740E+02
     12.933  0.1858E+01  0.2771E+02
     13.099  0.5015E+00  0.2780E+02
     13.265  0.7190E-02  0.2780E+02
     13.431  0.2840E+00  0.2784E+02
     13.597  0.2245E+00  0.2788E+02
     13.763  0.3183E+00  0.2793E+02
     13.929  0.2116E+00  0.2797E+02
     14.095  0.7726E-01  0.2798E+02
     14.261  0.7759E-01  0.2800E+02
     14.427  0.2904E-01  0.2800E+02
     14.593 -0.1117E-02  0.2800E+02
     14.759 -0.1027E-04  0.2800E+02
     14.926 -0.1203E-09  0.2800E+02
     15.092 -0.3669E-17  0.2800E+02
     15.258  0.0000E+00  0.2800E+02
     15.424  0.0000E+00  0.2800E+02
     15.590  0.0000E+00  0.2800E+02
     15.756  0.0000E+00  0.2800E+02
     15.922  0.0000E+00  0.2800E+02
     16.088  0.0000E+00  0.2800E+02
     16.254  0.0000E+00  0.2800E+02
     16.420  0.0000E+00  0.2800E+02
     16.586  0.0000E+00  0.2800E+02
