    1    1    1    1
  0.6390052E+02  0.4487521E-09  0.4487521E-09  0.4487521E-09  0.1000000E-15
  1.000000000000000E-004
  CAR 
 Og_FCC                                  
     18    365     28
 
  0.0000000E+00  0.0000000E+00  0.0000000E+00  0.1371742E-02
    1      -31.467807   1.000000
    2      -31.467767   1.000000
    3      -31.467730   1.000000
    4      -31.467696   1.000000
    5      -24.777302   1.000000
    6      -24.777258   1.000000
    7      -24.774676   1.000000
    8      -24.774652   1.000000
    9      -24.774612   1.000000
   10      -24.774590   1.000000
   11      -21.116883   1.000000
   12      -21.116582   1.000000
   13       -7.432093   1.000000
   14       -7.431995   1.000000
   15        2.542945   0.863064
   16        2.543016   0.862668
   17        2.543090   0.862252
   18        2.543159   0.861859
   19        2.959057  -0.000001
   20        2.959300  -0.000001
   21        9.935883   0.000000
   22        9.935949   0.000000
   23        9.936006   0.000000
   24        9.936073   0.000000
   25       10.338653   0.000000
   26       10.338723   0.000000
   27       10.627300   0.000000
   28       10.627384   0.000000
 
  0.1111111E+00  0.7969934E-17  0.1387779E-16  0.2743484E-02
    1      -31.467684   1.000000
    2      -31.467666   1.000000
    3      -31.467554   1.000000
    4      -31.467486   1.000000
    5      -24.776738   1.000000
    6      -24.776701   1.000000
    7      -24.774716   1.000000
    8      -24.774676   1.000000
    9      -24.773982   1.000000
   10      -24.773968   1.000000
   11      -21.107311   1.000000
   12      -21.107010   1.000000
   13       -7.468661   1.000000
   14       -7.468563   1.000000
   15        1.653686   1.000000
   16        1.653716   1.000000
   17        2.482200   1.032374
   18        2.482231   1.032358
   19        3.924427  -0.000000
   20        3.924535  -0.000000
   21        9.280389   0.000000
   22        9.280525   0.000000
   23       10.048178   0.000000
   24       10.048248   0.000000
   25       10.351443   0.000000
   26       10.351510   0.000000
   27       11.602705   0.000000
   28       11.894116   0.000000
 
  0.2222222E+00 -0.2569350E-16  0.1387779E-16  0.2743484E-02
    1      -31.467537   1.000000
    2      -31.467519   1.000000
    3      -31.466857   1.000000
    4      -31.466785   1.000000
    5      -24.775943   1.000000
    6      -24.775920   1.000000
    7      -24.774235   1.000000
    8      -24.774163   1.000000
    9      -24.772318   1.000000
   10      -24.772303   1.000000
   11      -21.082857   1.000000
   12      -21.082555   1.000000
   13       -7.561306   1.000000
   14       -7.561209   1.000000
   15        0.787060   1.000000
   16        0.787096   1.000000
   17        2.336501   1.000916
   18        2.336529   1.000917
   19        4.880519  -0.000000
   20        4.880662  -0.000000
   21        8.948143   0.000000
   22        8.948224   0.000000
   23       10.034844   0.000000
   24       10.034908   0.000000
   25       10.413483   0.000000
   26       10.413547   0.000000
   27       11.133692   0.000000
   28       11.284676   0.000000
 
  0.3333333E+00  0.3084870E-16  0.5551115E-16  0.2743484E-02
    1      -31.467395   1.000000
    2      -31.467378   1.000000
    3      -31.466214   1.000000
    4      -31.466141   1.000000
    5      -24.776167   1.000000
    6      -24.776143   1.000000
    7      -24.772650   1.000000
    8      -24.772579   1.000000
    9      -24.770443   1.000000
   10      -24.770429   1.000000
   11      -21.054757   1.000000
   12      -21.054453   1.000000
   13       -7.667007   1.000000
   14       -7.666910   1.000000
   15        0.180593   1.000000
   16        0.180632   1.000000
   17        2.183170   1.000000
   18        2.183196   1.000000
   19        5.339219   0.000000
   20        5.339422   0.000000
   21        9.356044   0.000000
   22        9.356061   0.000000
   23        9.696058   0.000000
   24        9.696124   0.000000
   25       10.101860   0.000000
   26       10.101926   0.000000
   27       10.665277   0.000000
   28       10.665356   0.000000
 
  0.4444444E+00 -0.5138699E-16  0.2775558E-16  0.2743484E-02
    1      -31.467227   1.000000
    2      -31.467210   1.000000
    3      -31.465655   1.000000
    4      -31.465583   1.000000
    5      -24.776422   1.000000
    6      -24.776399   1.000000
    7      -24.771426   1.000000
    8      -24.771356   1.000000
    9      -24.769167   1.000000
   10      -24.769153   1.000000
   11      -21.036225   1.000000
   12      -21.035921   1.000000
   13       -7.736040   1.000000
   14       -7.735944   1.000000
   15       -0.129392   1.000000
   16       -0.129352   1.000000
   17        2.089067   1.000000
   18        2.089092   1.000000
   19        5.426863   0.000000
   20        5.427097   0.000000
   21        9.453303   0.000000
   22        9.453370   0.000000
   23        9.675560   0.000000
   24        9.675601   0.000000
   25        9.847138   0.000000
   26        9.847204   0.000000
   27       11.016705   0.000000
   28       11.016730   0.000000
 
  0.3851860E-33  0.1111111E+00  0.0000000E+00  0.2743484E-02
    1      -31.467697   1.000000
    2      -31.467651   1.000000
    3      -31.467554   1.000000
    4      -31.467488   1.000000
    5      -24.776741   1.000000
    6      -24.776699   1.000000
    7      -24.774717   1.000000
    8      -24.774674   1.000000
    9      -24.773992   1.000000
   10      -24.773959   1.000000
   11      -21.107311   1.000000
   12      -21.107010   1.000000
   13       -7.468661   1.000000
   14       -7.468563   1.000000
   15        1.653681   1.000000
   16        1.653721   1.000000
   17        2.482172   1.032388
   18        2.482259   1.032343
   19        3.924423  -0.000000
   20        3.924539  -0.000000
   21        9.280389   0.000000
   22        9.280525   0.000000
   23       10.048171   0.000000
   24       10.048254   0.000000
   25       10.351435   0.000000
   26       10.351519   0.000000
   27       11.616197   0.000000
   28       11.674434   0.000000
 
  0.1111111E+00  0.1111111E+00  0.1387779E-16  0.2743484E-02
    1      -31.467649   1.000000
    2      -31.467624   1.000000
    3      -31.467559   1.000000
    4      -31.467495   1.000000
    5      -24.776662   1.000000
    6      -24.776607   1.000000
    7      -24.774382   1.000000
    8      -24.774309   1.000000
    9      -24.774098   1.000000
   10      -24.774046   1.000000
   11      -21.104129   1.000000
   12      -21.103828   1.000000
   13       -7.480454   1.000000
   14       -7.480357   1.000000
   15        1.560702   1.000000
   16        1.560731   1.000000
   17        2.341981   1.001174
   18        2.342032   1.001176
   19        4.177854  -0.000000
   20        4.177942  -0.000000
   21        9.017005   0.000000
   22        9.017169   0.000000
   23       10.070885   0.000000
   24       10.070901   0.000000
   25       10.600546   0.000000
   26       10.600562   0.000000
   27       10.856664   0.000000
   28       10.856793   0.000000
 
  0.2222222E+00  0.1111111E+00  0.1387779E-16  0.2743484E-02
    1      -31.467463   1.000000
    2      -31.467458   1.000000
    3      -31.466992   1.000000
    4      -31.466922   1.000000
    5      -24.775889   1.000000
    6      -24.775852   1.000000
    7      -24.774266   1.000000
    8      -24.774199   1.000000
    9      -24.772570   1.000000
   10      -24.772530   1.000000
   11      -21.084644   1.000000
   12      -21.084342   1.000000
   13       -7.553194   1.000000
   14       -7.553097   1.000000
   15        0.913664   1.000000
   16        0.913692   1.000000
   17        2.165836   1.000000
   18        2.165851   1.000000
   19        5.018675  -0.000000
   20        5.018773  -0.000000
   21        8.610339   0.000000
   22        8.610479   0.000000
   23        9.684238   0.000000
   24        9.684352   0.000000
   25       10.499398   0.000000
   26       10.499472   0.000000
   27       11.114564   0.000000
   28       11.114666   0.000000
 
  0.3333333E+00  0.1111111E+00  0.1110223E-15  0.2743484E-02
    1      -31.467299   1.000000
    2      -31.467290   1.000000
    3      -31.466394   1.000000
    4      -31.466321   1.000000
    5      -24.775646   1.000000
    6      -24.775627   1.000000
    7      -24.773231   1.000000
    8      -24.773141   1.000000
    9      -24.770734   1.000000
   10      -24.770693   1.000000
   11      -21.057757   1.000000
   12      -21.057454   1.000000
   13       -7.652876   1.000000
   14       -7.652779   1.000000
   15        0.315973   1.000000
   16        0.316005   1.000000
   17        1.972485   1.000000
   18        1.972504   1.000000
   19        5.646846   0.000000
   20        5.646999   0.000000
   21        8.774005   0.000000
   22        8.774052   0.000000
   23        9.113236   0.000000
   24        9.113380   0.000000
   25       10.371105   0.000000
   26       10.371230   0.000000
   27       11.764179   0.000000
   28       11.953741   0.000000
 
  0.4444444E+00  0.1111111E+00  0.5551115E-16  0.2743484E-02
    1      -31.467122   1.000000
    2      -31.467109   1.000000
    3      -31.465803   1.000000
    4      -31.465730   1.000000
    5      -24.775835   1.000000
    6      -24.775814   1.000000
    7      -24.771712   1.000000
    8      -24.771625   1.000000
    9      -24.769471   1.000000
   10      -24.769434   1.000000
   11      -21.036001   1.000000
   12      -21.035697   1.000000
   13       -7.732569   1.000000
   14       -7.732473   1.000000
   15       -0.053939   1.000000
   16       -0.053905   1.000000
   17        1.822127   1.000000
   18        1.822161   1.000000
   19        5.850643   0.000000
   20        5.850840   0.000000
   21        8.592896   0.000000
   22        8.592993   0.000000
   23        9.705080   0.000000
   24        9.705105   0.000000
   25       10.199113   0.000000
   26       10.199211   0.000000
   27       11.571476   0.000000
   28       11.571568   0.000000
 
 -0.4444444E+00  0.1111111E+00 -0.2775558E-16  0.2743484E-02
    1      -31.467041   1.000000
    2      -31.467023   1.000000
    3      -31.465651   1.000000
    4      -31.465575   1.000000
    5      -24.775878   1.000000
    6      -24.775855   1.000000
    7      -24.771146   1.000000
    8      -24.771077   1.000000
    9      -24.769230   1.000000
   10      -24.769214   1.000000
   11      -21.029798   1.000000
   12      -21.029494   1.000000
   13       -7.755182   1.000000
   14       -7.755086   1.000000
   15       -0.149486   1.000000
   16       -0.149451   1.000000
   17        1.778683   1.000000
   18        1.778733   1.000000
   19        5.887860   0.000000
   20        5.888067   0.000000
   21        8.526653   0.000000
   22        8.526753   0.000000
   23        9.780774   0.000000
   24        9.780901   0.000000
   25       10.455300   0.000000
   26       10.455340   0.000000
   27       11.721582   0.000000
   28       11.721665   0.000000
 
 -0.3333333E+00  0.1111111E+00 -0.4163336E-16  0.2743484E-02
    1      -31.467176   1.000000
    2      -31.467152   1.000000
    3      -31.465967   1.000000
    4      -31.465889   1.000000
    5      -24.775698   1.000000
    6      -24.775675   1.000000
    7      -24.772120   1.000000
    8      -24.772069   1.000000
    9      -24.769908   1.000000
   10      -24.769879   1.000000
   11      -21.042161   1.000000
   12      -21.041857   1.000000
   13       -7.710272   1.000000
   14       -7.710175   1.000000
   15        0.037595   1.000000
   16        0.037631   1.000000
   17        1.863434   1.000000
   18        1.863495   1.000000
   19        5.843462   0.000000
   20        5.843653   0.000000
   21        8.734210   0.000000
   22        8.734304   0.000000
   23        9.620556   0.000000
   24        9.620579   0.000000
   25       10.005058   0.000000
   26       10.005193   0.000000
   27       11.796577   0.000000
   28       11.838593   0.000000
 
 -0.2222222E+00  0.1111111E+00 -0.2081668E-16  0.2743484E-02
    1      -31.467372   1.000000
    2      -31.467342   1.000000
    3      -31.466568   1.000000
    4      -31.466487   1.000000
    5      -24.775400   1.000000
    6      -24.775375   1.000000
    7      -24.773906   1.000000
    8      -24.773854   1.000000
    9      -24.771347   1.000000
   10      -24.771309   1.000000
   11      -21.067095   1.000000
   12      -21.066792   1.000000
   13       -7.618783   1.000000
   14       -7.618686   1.000000
   15        0.484692   1.000000
   16        0.484728   1.000000
   17        2.055488   1.000000
   18        2.055555   1.000000
   19        5.490002   0.000000
   20        5.490149   0.000000
   21        8.775051   0.000000
   22        8.775136   0.000000
   23        9.448564   0.000000
   24        9.448661   0.000000
   25       10.268303   0.000000
   26       10.268458   0.000000
   27       11.187555   0.000000
   28       11.187712   0.000000
 
 -0.1111111E+00  0.1111111E+00 -0.1390154E-17  0.2743484E-02
    1      -31.467606   1.000000
    2      -31.467563   1.000000
    3      -31.467206   1.000000
    4      -31.467122   1.000000
    5      -24.775967   1.000000
    6      -24.775939   1.000000
    7      -24.774723   1.000000
    8      -24.774684   1.000000
    9      -24.773029   1.000000
   10      -24.772997   1.000000
   11      -21.092776   1.000000
   12      -21.092474   1.000000
   13       -7.523389   1.000000
   14       -7.523292   1.000000
   15        1.110172   1.000000
   16        1.110210   1.000000
   17        2.299974   1.000147
   18        2.300043   1.000148
   19        4.673356  -0.000000
   20        4.673471  -0.000000
   21        8.870714   0.000000
   22        8.870845   0.000000
   23        9.979111   0.000000
   24        9.979200   0.000000
   25       10.459328   0.000000
   26       10.459470   0.000000
   27       11.050316   0.000000
   28       11.050522   0.000000
 
  0.3851860E-33  0.2222222E+00 -0.1387779E-16  0.2743484E-02
    1      -31.467551   1.000000
    2      -31.467504   1.000000
    3      -31.466855   1.000000
    4      -31.466786   1.000000
    5      -24.775959   1.000000
    6      -24.775905   1.000000
    7      -24.774233   1.000000
    8      -24.774164   1.000000
    9      -24.772327   1.000000
   10      -24.772294   1.000000
   11      -21.082857   1.000000
   12      -21.082555   1.000000
   13       -7.561306   1.000000
   14       -7.561210   1.000000
   15        0.787051   1.000000
   16        0.787105   1.000000
   17        2.336473   1.000915
   18        2.336556   1.000918
   19        4.880515  -0.000000
   20        4.880667  -0.000000
   21        8.948146   0.000000
   22        8.948221   0.000000
   23       10.034837   0.000000
   24       10.034916   0.000000
   25       10.413474   0.000000
   26       10.413555   0.000000
   27       11.133980   0.000000
   28       11.139103   0.000000
 
  0.1111111E+00  0.2222222E+00  0.0000000E+00  0.2743484E-02
    1      -31.467482   1.000000
    2      -31.467439   1.000000
    3      -31.466990   1.000000
    4      -31.466924   1.000000
    5      -24.775896   1.000000
    6      -24.775845   1.000000
    7      -24.774266   1.000000
    8      -24.774200   1.000000
    9      -24.772570   1.000000
   10      -24.772530   1.000000
   11      -21.084645   1.000000
   12      -21.084342   1.000000
   13       -7.553193   1.000000
   14       -7.553097   1.000000
   15        0.913654   1.000000
   16        0.913703   1.000000
   17        2.165808   1.000000
   18        2.165880   1.000000
   19        5.018671  -0.000000
   20        5.018777  -0.000000
   21        8.610340   0.000000
   22        8.610478   0.000000
   23        9.684234   0.000000
   24        9.684357   0.000000
   25       10.499393   0.000000
   26       10.499477   0.000000
   27       11.114573   0.000000
   28       11.114656   0.000000
 
  0.2222222E+00  0.2222222E+00  0.0000000E+00  0.2743484E-02
    1      -31.467261   1.000000
    2      -31.467236   1.000000
    3      -31.466778   1.000000
    4      -31.466706   1.000000
    5      -24.775902   1.000000
    6      -24.775851   1.000000
    7      -24.773573   1.000000
    8      -24.773501   1.000000
    9      -24.771708   1.000000
   10      -24.771660   1.000000
   11      -21.071616   1.000000
   12      -21.071313   1.000000
   13       -7.599178   1.000000
   14       -7.599082   1.000000
   15        0.701466   1.000000
   16        0.701499   1.000000
   17        1.894777   1.000000
   18        1.894822   1.000000
   19        5.540437   0.000000
   20        5.540520   0.000000
   21        8.064059   0.000000
   22        8.064231   0.000000
   23        9.159078   0.000000
   24        9.159204   0.000000
   25       10.709900   0.000000
   26       10.709919   0.000000
   27       11.560762   0.000000
   28       11.560768   0.000000
 
  0.3333333E+00  0.2222222E+00  0.8326673E-16  0.2743484E-02
    1      -31.467031   1.000000
    2      -31.467022   1.000000
    3      -31.466303   1.000000
    4      -31.466229   1.000000
    5      -24.775458   1.000000
    6      -24.775425   1.000000
    7      -24.773145   1.000000
    8      -24.773067   1.000000
    9      -24.769980   1.000000
   10      -24.769933   1.000000
   11      -21.049730   1.000000
   12      -21.049426   1.000000
   13       -7.677065   1.000000
   14       -7.676970   1.000000
   15        0.320843   1.000000
   16        0.320868   1.000000
   17        1.646877   1.000000
   18        1.646908   1.000000
   19        6.047154   0.000000
   20        6.047266   0.000000
   21        7.907639   0.000000
   22        7.907784   0.000000
   23        8.751093   0.000000
   24        8.751200   0.000000
   25       10.995900   0.000000
   26       10.995953   0.000000
   27       12.093664   0.000000
   28       12.093701   0.000000
 
  0.4444444E+00  0.2222222E+00  0.0000000E+00  0.2743484E-02
    1      -31.466850   1.000000
    2      -31.466843   1.000000
    3      -31.465903   1.000000
    4      -31.465825   1.000000
    5      -24.775032   1.000000
    6      -24.775014   1.000000
    7      -24.772231   1.000000
    8      -24.772142   1.000000
    9      -24.768954   1.000000
   10      -24.768906   1.000000
   11      -21.029169   1.000000
   12      -21.028864   1.000000
   13       -7.749339   1.000000
   14       -7.749244   1.000000
   15        0.022252   1.000000
   16        0.022281   1.000000
   17        1.394596   1.000000
   18        1.394652   1.000000
   19        6.363439   0.000000
   20        6.363598   0.000000
   21        7.994071   0.000000
   22        7.994144   0.000000
   23        8.955491   0.000000
   24        8.955600   0.000000
   25       10.830924   0.000000
   26       10.831013   0.000000
   27       12.445740   0.000000
   28       12.445763   0.000000
 
 -0.4444444E+00  0.2222222E+00 -0.4163336E-16  0.2743484E-02
    1      -31.466714   1.000000
    2      -31.466693   1.000000
    3      -31.465713   1.000000
    4      -31.465629   1.000000
    5      -24.774808   1.000000
    6      -24.774786   1.000000
    7      -24.771048   1.000000
    8      -24.770957   1.000000
    9      -24.769239   1.000000
   10      -24.769190   1.000000
   11      -21.019672   1.000000
   12      -21.019367   1.000000
   13       -7.782372   1.000000
   14       -7.782277   1.000000
   15       -0.106039   1.000000
   16       -0.106003   1.000000
   17        1.258356   1.000000
   18        1.258446   1.000000
   19        6.580345   0.000000
   20        6.580535   0.000000
   21        7.884795   0.000000
   22        7.884857   0.000000
   23        9.874180   0.000000
   24        9.874221   0.000000
   25       10.664684   0.000000
   26       10.664772   0.000000
   27       11.833477   0.000000
   28       11.833526   0.000000
 
 -0.3333333E+00  0.2222222E+00 -0.4163336E-16  0.2743484E-02
    1      -31.466827   1.000000
    2      -31.466793   1.000000
    3      -31.465865   1.000000
    4      -31.465775   1.000000
    5      -24.774646   1.000000
    6      -24.774616   1.000000
    7      -24.771222   1.000000
    8      -24.771188   1.000000
    9      -24.769952   1.000000
   10      -24.769919   1.000000
   11      -21.025800   1.000000
   12      -21.025495   1.000000
   13       -7.761945   1.000000
   14       -7.761849   1.000000
   15       -0.048961   1.000000
   16       -0.048924   1.000000
   17        1.331742   1.000000
   18        1.331849   1.000000
   19        6.721148   0.000000
   20        6.721340   0.000000
   21        7.914153   0.000000
   22        7.914217   0.000000
   23        9.651258   0.000000
   24        9.651273   0.000000
   25       10.621273   0.000000
   26       10.621389   0.000000
   27       12.143119   0.000000
   28       12.223122   0.000000
 
 -0.2222222E+00  0.2222222E+00 -0.2703915E-16  0.2743484E-02
    1      -31.467025   1.000000
    2      -31.466981   1.000000
    3      -31.466127   1.000000
    4      -31.466039   1.000000
    5      -24.774574   1.000000
    6      -24.774531   1.000000
    7      -24.773066   1.000000
    8      -24.773044   1.000000
    9      -24.770306   1.000000
   10      -24.770252   1.000000
   11      -21.044567   1.000000
   12      -21.044263   1.000000
   13       -7.697694   1.000000
   14       -7.697598   1.000000
   15        0.169996   1.000000
   16        0.170031   1.000000
   17        1.625941   1.000000
   18        1.626039   1.000000
   19        6.355156   0.000000
   20        6.355312   0.000000
   21        8.305450   0.000000
   22        8.305539   0.000000
   23        9.102443   0.000000
   24        9.102492   0.000000
   25       10.464070   0.000000
   26       10.464206   0.000000
   27       11.261217   0.000000
   28       11.261395   0.000000
 
 -0.1111111E+00  0.2222222E+00 -0.6938894E-17  0.2743484E-02
    1      -31.467380   1.000000
    2      -31.467333   1.000000
    3      -31.466567   1.000000
    4      -31.466487   1.000000
    5      -24.775415   1.000000
    6      -24.775361   1.000000
    7      -24.773895   1.000000
    8      -24.773864   1.000000
    9      -24.771349   1.000000
   10      -24.771307   1.000000
   11      -21.067095   1.000000
   12      -21.066792   1.000000
   13       -7.618783   1.000000
   14       -7.618687   1.000000
   15        0.484688   1.000000
   16        0.484732   1.000000
   17        2.055484   1.000000
   18        2.055559   1.000000
   19        5.490000   0.000000
   20        5.490151   0.000000
   21        8.775054   0.000000
   22        8.775132   0.000000
   23        9.448563   0.000000
   24        9.448662   0.000000
   25       10.268295   0.000000
   26       10.268466   0.000000
   27       11.187565   0.000000
   28       11.187701   0.000000
 
  0.7703720E-33  0.3333333E+00 -0.1387779E-16  0.2743484E-02
    1      -31.467410   1.000000
    2      -31.467363   1.000000
    3      -31.466212   1.000000
    4      -31.466143   1.000000
    5      -24.776181   1.000000
    6      -24.776130   1.000000
    7      -24.772648   1.000000
    8      -24.772581   1.000000
    9      -24.770452   1.000000
   10      -24.770420   1.000000
   11      -21.054757   1.000000
   12      -21.054453   1.000000
   13       -7.667006   1.000000
   14       -7.666911   1.000000
   15        0.180582   1.000000
   16        0.180643   1.000000
   17        2.183144   1.000000
   18        2.183222   1.000000
   19        5.339214   0.000000
   20        5.339427   0.000000
   21        9.356038   0.000000
   22        9.356066   0.000000
   23        9.696049   0.000000
   24        9.696133   0.000000
   25       10.101852   0.000000
   26       10.101935   0.000000
   27       10.665270   0.000000
   28       10.665363   0.000000
 
  0.1111111E+00  0.3333333E+00  0.0000000E+00  0.2743484E-02
    1      -31.467317   1.000000
    2      -31.467272   1.000000
    3      -31.466392   1.000000
    4      -31.466323   1.000000
    5      -24.775662   1.000000
    6      -24.775611   1.000000
    7      -24.773230   1.000000
    8      -24.773142   1.000000
    9      -24.770734   1.000000
   10      -24.770693   1.000000
   11      -21.057757   1.000000
   12      -21.057453   1.000000
   13       -7.652875   1.000000
   14       -7.652780   1.000000
   15        0.315961   1.000000
   16        0.316017   1.000000
   17        1.972460   1.000000
   18        1.972528   1.000000
   19        5.646841   0.000000
   20        5.647004   0.000000
   21        8.774006   0.000000
   22        8.774051   0.000000
   23        9.113235   0.000000
   24        9.113380   0.000000
   25       10.371098   0.000000
   26       10.371238   0.000000
   27       11.770681   0.000000
   28       11.881611   0.000000
 
  0.2222222E+00  0.3333333E+00  0.2775558E-16  0.2743484E-02
    1      -31.467046   1.000000
    2      -31.467008   1.000000
    3      -31.466302   1.000000
    4      -31.466230   1.000000
    5      -24.775464   1.000000
    6      -24.775419   1.000000
    7      -24.773145   1.000000
    8      -24.773067   1.000000
    9      -24.769976   1.000000
   10      -24.769937   1.000000
   11      -21.049731   1.000000
   12      -21.049426   1.000000
   13       -7.677065   1.000000
   14       -7.676970   1.000000
   15        0.320834   1.000000
   16        0.320877   1.000000
   17        1.646865   1.000000
   18        1.646921   1.000000
   19        6.047152   0.000000
   20        6.047268   0.000000
   21        7.907639   0.000000
   22        7.907783   0.000000
   23        8.751089   0.000000
   24        8.751204   0.000000
   25       10.995897   0.000000
   26       10.995956   0.000000
   27       12.093669   0.000000
   28       12.093696   0.000000
 
  0.3333333E+00  0.3333333E+00  0.2775558E-16  0.2743484E-02
    1      -31.466855   1.000000
    2      -31.466830   1.000000
    3      -31.466039   1.000000
    4      -31.465966   1.000000
    5      -24.775623   1.000000
    6      -24.775579   1.000000
    7      -24.772724   1.000000
    8      -24.772651   1.000000
    9      -24.768444   1.000000
   10      -24.768405   1.000000
   11      -21.034373   1.000000
   12      -21.034068   1.000000
   13       -7.728558   1.000000
   14       -7.728463   1.000000
   15        0.149755   1.000000
   16        0.149785   1.000000
   17        1.462258   1.000000
   18        1.462299   1.000000
   19        5.995280   0.000000
   20        5.995415   0.000000
   21        7.419445   0.000000
   22        7.419623   0.000000
   23        9.006207   0.000000
   24        9.006271   0.000000
   25       11.646354   0.000000
   26       11.646400   0.000000
   27       12.747947   0.000000
   28       12.747953   0.000000
 
  0.4444444E+00  0.3333333E+00  0.0000000E+00  0.2743484E-02
    1      -31.466673   1.000000
    2      -31.466655   1.000000
    3      -31.465800   1.000000
    4      -31.465724   1.000000
    5      -24.775225   1.000000
    6      -24.775189   1.000000
    7      -24.772362   1.000000
    8      -24.772285   1.000000
    9      -24.767427   1.000000
   10      -24.767387   1.000000
   11      -21.018854   1.000000
   12      -21.018548   1.000000
   13       -7.780775   1.000000
   14       -7.780680   1.000000
   15       -0.015600   1.000000
   16       -0.015573   1.000000
   17        1.228319   1.000000
   18        1.228361   1.000000
   19        6.042030   0.000000
   20        6.042186   0.000000
   21        7.429820   0.000000
   22        7.429974   0.000000
   23        9.253255   0.000000
   24        9.253294   0.000000
   25       11.862860   0.000000
   26       11.862918   0.000000
   27       13.123994   0.000000
   28       13.124037   0.000000
 
 -0.4444444E+00  0.3333333E+00  0.0000000E+00  0.2743484E-02
    1      -31.466475   1.000000
    2      -31.466450   1.000000
    3      -31.465698   1.000000
    4      -31.465610   1.000000
    5      -24.774518   1.000000
    6      -24.774488   1.000000
    7      -24.771728   1.000000
    8      -24.771644   1.000000
    9      -24.767771   1.000000
   10      -24.767729   1.000000
   11      -21.010497   1.000000
   12      -21.010191   1.000000
   13       -7.808202   1.000000
   14       -7.808108   1.000000
   15       -0.071319   1.000000
   16       -0.071275   1.000000
   17        0.980862   1.000000
   18        0.980955   1.000000
   19        6.327244   0.000000
   20        6.327419   0.000000
   21        7.817742   0.000000
   22        7.817811   0.000000
   23        9.569198   0.000000
   24        9.569276   0.000000
   25       11.310890   0.000000
   26       11.310953   0.000000
   27       12.375871   0.000000
   28       12.375927   0.000000
 
 -0.3333333E+00  0.3333333E+00 -0.5872799E-16  0.2743484E-02
    1      -31.466461   1.000000
    2      -31.466414   1.000000
    3      -31.465710   1.000000
    4      -31.465610   1.000000
    5      -24.774180   1.000000
    6      -24.774142   1.000000
    7      -24.770783   1.000000
    8      -24.770693   1.000000
    9      -24.769327   1.000000
   10      -24.769279   1.000000
   11      -21.013258   1.000000
   12      -21.012953   1.000000
   13       -7.800009   1.000000
   14       -7.799915   1.000000
   15       -0.069970   1.000000
   16       -0.069918   1.000000
   17        0.980243   1.000000
   18        0.980369   1.000000
   19        6.736875   0.000000
   20        6.737077   0.000000
   21        7.920483   0.000000
   22        7.920503   0.000000
   23       10.240694   0.000000
   24       10.240698   0.000000
   25       10.625758   0.000000
   26       10.625916   0.000000
   27       11.456668   0.000000
   28       11.456748   0.000000
 
 -0.2222222E+00  0.3333333E+00 -0.3469447E-16  0.2743484E-02
    1      -31.466834   1.000000
    2      -31.466786   1.000000
    3      -31.465865   1.000000
    4      -31.465776   1.000000