    1    1    1    1
  0.6167203E+02  0.4434736E-09  0.4434736E-09  0.4434736E-09  0.1000000E-15
  1.000000000000000E-004
  CAR 
 Og_FCC                                  
     18    365     28
 
  0.0000000E+00  0.0000000E+00  0.0000000E+00  0.1371742E-02
    1      -30.961815   1.000000
    2      -30.961814   1.000000
    3      -30.961814   1.000000
    4      -30.961814   1.000000
    5      -24.271850   1.000000
    6      -24.271850   1.000000
    7      -24.268915   1.000000
    8      -24.268915   1.000000
    9      -24.268915   1.000000
   10      -24.268915   1.000000
   11      -20.665848   1.000000
   12      -20.665848   1.000000
   13       -7.423012   1.000000
   14       -7.423012   1.000000
   15        3.273732   0.679432
   16        3.273735   0.679406
   17        3.277403   0.650367
   18        3.277403   0.650366
   19        3.277403   0.650365
   20        3.277404   0.650363
   21       10.269805   0.000000
   22       10.269807   0.000000
   23       10.269809   0.000000
   24       10.269812   0.000000
   25       10.657126   0.000000
   26       10.657128   0.000000
   27       10.668717   0.000000
   28       10.668720   0.000000
 
  0.1111111E+00  0.1043312E-17 -0.1387779E-16  0.2743484E-02
    1      -30.961728   1.000000
    2      -30.961728   1.000000
    3      -30.961516   1.000000
    4      -30.961515   1.000000
    5      -24.271247   1.000000
    6      -24.271247   1.000000
    7      -24.268988   1.000000
    8      -24.268987   1.000000
    9      -24.268216   1.000000
   10      -24.268216   1.000000
   11      -20.655932   1.000000
   12      -20.655932   1.000000
   13       -7.458045   1.000000
   14       -7.458045   1.000000
   15        2.205273   1.000000
   16        2.205274   1.000000
   17        3.211790   0.998931
   18        3.211790   0.998930
   19        4.404354  -0.000000
   20        4.404356  -0.000000
   21        9.513146   0.000000
   22        9.513148   0.000000
   23       10.383456   0.000000
   24       10.383457   0.000000
   25       10.665532   0.000000
   26       10.665537   0.000000
   27       11.754796   0.000000
   28       11.934368   0.000000
 
  0.2222222E+00 -0.1179116E-16 -0.4163336E-16  0.2743484E-02
    1      -30.961565   1.000000
    2      -30.961565   1.000000
    3      -30.960845   1.000000
    4      -30.960845   1.000000
    5      -24.270375   1.000000
    6      -24.270374   1.000000
    7      -24.268549   1.000000
    8      -24.268548   1.000000
    9      -24.266460   1.000000
   10      -24.266460   1.000000
   11      -20.630766   1.000000
   12      -20.630766   1.000000
   13       -7.547021   1.000000
   14       -7.547020   1.000000
   15        1.329326   1.000000
   16        1.329328   1.000000
   17        3.055464   1.001787
   18        3.055464   1.001787
   19        5.306790  -0.000000
   20        5.306793  -0.000000
   21        9.224223   0.000000
   22        9.224224   0.000000
   23       10.364625   0.000000
   24       10.364626   0.000000
   25       10.721064   0.000000
   26       10.721122   0.000000
   27       11.264094   0.000000
   28       11.272910   0.000000
 
  0.3333333E+00  0.3088551E-16 -0.2775558E-16  0.2743484E-02
    1      -30.961355   1.000000
    2      -30.961355   1.000000
    3      -30.960043   1.000000
    4      -30.960043   1.000000
    5      -24.270558   1.000000
    6      -24.270558   1.000000
    7      -24.266868   1.000000
    8      -24.266868   1.000000
    9      -24.264456   1.000000
   10      -24.264456   1.000000
   11      -20.601741   1.000000
   12      -20.601741   1.000000
   13       -7.648348   1.000000
   14       -7.648348   1.000000
   15        0.716473   1.000000
   16        0.716474   1.000000
   17        2.892014   1.000000
   18        2.892014   1.000000
   19        5.684442  -0.000000
   20        5.684446  -0.000000
   21        9.701165   0.000000
   22        9.701167   0.000000
   23       10.020188   0.000000
   24       10.020189   0.000000
   25       10.423737   0.000000
   26       10.423739   0.000000
   27       10.775466   0.000000
   28       10.775468   0.000000
 
  0.4444444E+00 -0.2358233E-16 -0.8326673E-16  0.2743484E-02
    1      -30.961263   1.000000
    2      -30.961263   1.000000
    3      -30.959584   1.000000
    4      -30.959583   1.000000
    5      -24.270849   1.000000
    6      -24.270849   1.000000
    7      -24.265623   1.000000
    8      -24.265623   1.000000
    9      -24.263156   1.000000
   10      -24.263156   1.000000
   11      -20.582737   1.000000
   12      -20.582737   1.000000
   13       -7.714772   1.000000
   14       -7.714772   1.000000
   15        0.402483   1.000000
   16        0.402485   1.000000
   17        2.792155   1.000000
   18        2.792155   1.000000
   19        5.730841  -0.000000
   20        5.730846  -0.000000
   21        9.777013   0.000000
   22        9.777015   0.000000
   23        9.960000   0.000000
   24        9.960004   0.000000
   25       10.162814   0.000000
   26       10.162816   0.000000
   27       11.201229   0.000000
   28       11.201230   0.000000
 
  0.0000000E+00  0.1111111E+00 -0.1387779E-16  0.2743484E-02
    1      -30.961728   1.000000
    2      -30.961728   1.000000
    3      -30.961516   1.000000
    4      -30.961515   1.000000
    5      -24.271247   1.000000
    6      -24.271247   1.000000
    7      -24.268987   1.000000
    8      -24.268987   1.000000
    9      -24.268216   1.000000
   10      -24.268216   1.000000
   11      -20.655932   1.000000
   12      -20.655932   1.000000
   13       -7.458045   1.000000
   14       -7.458045   1.000000
   15        2.205273   1.000000
   16        2.205274   1.000000
   17        3.211790   0.998930
   18        3.211790   0.998930
   19        4.404354  -0.000000
   20        4.404356  -0.000000
   21        9.513146   0.000000
   22        9.513148   0.000000
   23       10.383455   0.000000
   24       10.383457   0.000000
   25       10.665532   0.000000
   26       10.665540   0.000000
   27       11.750181   0.000000
   28       12.086115   0.000000
 
  0.1111111E+00  0.1111111E+00  0.0000000E+00  0.2743484E-02
    1      -30.961627   1.000000
    2      -30.961627   1.000000
    3      -30.961478   1.000000
    4      -30.961478   1.000000
    5      -24.271138   1.000000
    6      -24.271138   1.000000
    7      -24.268584   1.000000
    8      -24.268583   1.000000
    9      -24.268318   1.000000
   10      -24.268318   1.000000
   11      -20.652608   1.000000
   12      -20.652607   1.000000
   13       -7.469305   1.000000
   14       -7.469305   1.000000
   15        2.105769   1.000000
   16        2.105770   1.000000
   17        3.057511   1.001948
   18        3.057511   1.001948
   19        4.674047  -0.000000
   20        4.674049  -0.000000
   21        9.241527   0.000000
   22        9.241530   0.000000
   23       10.399348   0.000000
   24       10.399351   0.000000
   25       10.940344   0.000000
   26       10.940355   0.000000
   27       11.091212   0.000000
   28       11.091272   0.000000
 
  0.2222222E+00  0.1111111E+00 -0.4163336E-16  0.2743484E-02
    1      -30.961486   1.000000
    2      -30.961486   1.000000
    3      -30.960985   1.000000
    4      -30.960984   1.000000
    5      -24.270337   1.000000
    6      -24.270337   1.000000
    7      -24.268528   1.000000
    8      -24.268528   1.000000
    9      -24.266734   1.000000
   10      -24.266734   1.000000
   11      -20.632589   1.000000
   12      -20.632589   1.000000
   13       -7.539307   1.000000
   14       -7.539307   1.000000
   15        1.455782   1.000000
   16        1.455784   1.000000
   17        2.864350   1.000000
   18        2.864350   1.000000
   19        5.485406  -0.000000
   20        5.485408  -0.000000
   21        8.851475   0.000000
   22        8.851477   0.000000
   23        9.956163   0.000000
   24        9.956167   0.000000
   25       10.808045   0.000000
   26       10.808049   0.000000
   27       11.436737   0.000000
   28       11.436751   0.000000
 
  0.3333333E+00  0.1111111E+00  0.0000000E+00  0.2743484E-02
    1      -30.961289   1.000000
    2      -30.961289   1.000000
    3      -30.960261   1.000000
    4      -30.960261   1.000000
    5      -24.270029   1.000000
    6      -24.270029   1.000000
    7      -24.267451   1.000000
    8      -24.267451   1.000000
    9      -24.264767   1.000000
   10      -24.264767   1.000000
   11      -20.604900   1.000000
   12      -20.604900   1.000000
   13       -7.635054   1.000000
   14       -7.635053   1.000000
   15        0.854478   1.000000
   16        0.854480   1.000000
   17        2.653623   1.000000
   18        2.653623   1.000000
   19        6.039208   0.000000
   20        6.039211   0.000000
   21        9.074235   0.000000
   22        9.074236   0.000000
   23        9.381299   0.000000
   24        9.381302   0.000000
   25       10.692539   0.000000
   26       10.692544   0.000000
   27       12.012088   0.000000
   28       12.083662   0.000000
 
  0.4444444E+00  0.1111111E+00 -0.8326673E-16  0.2743484E-02
    1      -30.961120   1.000000
    2      -30.961120   1.000000
    3      -30.959687   1.000000
    4      -30.959687   1.000000
    5      -24.270231   1.000000
    6      -24.270230   1.000000
    7      -24.265882   1.000000
    8      -24.265882   1.000000
    9      -24.263459   1.000000
   10      -24.263459   1.000000
   11      -20.582485   1.000000
   12      -20.582485   1.000000
   13       -7.711682   1.000000
   14       -7.711682   1.000000
   15        0.481039   1.000000
   16        0.481040   1.000000
   17        2.490511   1.000000
   18        2.490512   1.000000
   19        6.186693   0.000000
   20        6.186697   0.000000
   21        8.870484   0.000000
   22        8.870486   0.000000
   23       10.028175   0.000000
   24       10.028177   0.000000
   25       10.540589   0.000000
   26       10.540592   0.000000
   27       11.755615   0.000000
   28       11.755751   0.000000
 
 -0.4444444E+00  0.1111111E+00  0.4163336E-16  0.2743484E-02
    1      -30.961079   1.000000
    2      -30.961079   1.000000
    3      -30.959517   1.000000
    4      -30.959517   1.000000
    5      -24.270286   1.000000
    6      -24.270286   1.000000
    7      -24.265306   1.000000
    8      -24.265306   1.000000
    9      -24.263219   1.000000
   10      -24.263219   1.000000
   11      -20.576097   1.000000
   12      -20.576097   1.000000
   13       -7.733435   1.000000
   14       -7.733435   1.000000
   15        0.384383   1.000000
   16        0.384384   1.000000
   17        2.443017   1.000000
   18        2.443017   1.000000
   19        6.212830   0.000000
   20        6.212834   0.000000
   21        8.802524   0.000000
   22        8.802526   0.000000
   23       10.097039   0.000000
   24       10.097043   0.000000
   25       10.814211   0.000000
   26       10.814211   0.000000
   27       11.885863   0.000000
   28       11.885902   0.000000
 
 -0.3333333E+00  0.1111111E+00  0.1387779E-16  0.2743484E-02
    1      -30.961172   1.000000
    2      -30.961172   1.000000
    3      -30.959850   1.000000
    4      -30.959850   1.000000
    5      -24.270078   1.000000
    6      -24.270077   1.000000
    7      -24.266333   1.000000
    8      -24.266333   1.000000
    9      -24.263919   1.000000
   10      -24.263918   1.000000
   11      -20.588837   1.000000
   12      -20.588837   1.000000
   13       -7.690248   1.000000
   14       -7.690248   1.000000
   15        0.573424   1.000000
   16        0.573426   1.000000
   17        2.533848   1.000000
   18        2.533848   1.000000
   19        6.195914   0.000000
   20        6.195918   0.000000
   21        9.013397   0.000000
   22        9.013398   0.000000
   23        9.950068   0.000000
   24        9.950069   0.000000
   25       10.323123   0.000000
   26       10.323127   0.000000
   27       11.986009   0.000000
   28       12.150826   0.000000
 
 -0.2222222E+00  0.1111111E+00  0.3469447E-16  0.2743484E-02
    1      -30.961374   1.000000
    2      -30.961373   1.000000
    3      -30.960500   1.000000
    4      -30.960500   1.000000
    5      -24.269776   1.000000
    6      -24.269775   1.000000
    7      -24.268206   1.000000
    8      -24.268206   1.000000
    9      -24.265433   1.000000
   10      -24.265433   1.000000
   11      -20.614526   1.000000
   12      -20.614526   1.000000
   13       -7.602306   1.000000
   14       -7.602306   1.000000
   15        1.024351   1.000000
   16        1.024352   1.000000
   17        2.741883   1.000000
   18        2.741884   1.000000
   19        5.911099  -0.000000
   20        5.911102  -0.000000
   21        9.055006   0.000000
   22        9.055008   0.000000
   23        9.730298   0.000000
   24        9.730301   0.000000
   25       10.568390   0.000000
   26       10.568395   0.000000
   27       11.473443   0.000000
   28       11.473812   0.000000
 
 -0.1111111E+00  0.1111111E+00  0.3426119E-17  0.2743484E-02
    1      -30.961589   1.000000
    2      -30.961588   1.000000
    3      -30.961145   1.000000
    4      -30.961145   1.000000
    5      -24.270428   1.000000
    6      -24.270427   1.000000
    7      -24.268988   1.000000
    8      -24.268988   1.000000
    9      -24.267203   1.000000
   10      -24.267203   1.000000
   11      -20.640947   1.000000
   12      -20.640947   1.000000
   13       -7.510599   1.000000
   14       -7.510598   1.000000
   15        1.654336   1.000000
   16        1.654338   1.000000
   17        3.009718   1.000202
   18        3.009719   1.000202
   19        5.145853  -0.000000
   20        5.145855  -0.000000
   21        9.108888   0.000000
   22        9.108890   0.000000
   23       10.287350   0.000000
   24       10.287352   0.000000
   25       10.766921   0.000000
   26       10.766939   0.000000
   27       11.322348   0.000000
   28       11.331510   0.000000
 
  0.3851860E-33  0.2222222E+00  0.0000000E+00  0.2743484E-02
    1      -30.961565   1.000000
    2      -30.961565   1.000000
    3      -30.960845   1.000000
    4      -30.960845   1.000000
    5      -24.270375   1.000000
    6      -24.270374   1.000000
    7      -24.268548   1.000000
    8      -24.268548   1.000000
    9      -24.266460   1.000000
   10      -24.266460   1.000000
   11      -20.630766   1.000000
   12      -20.630766   1.000000
   13       -7.547021   1.000000
   14       -7.547020   1.000000
   15        1.329326   1.000000
   16        1.329328   1.000000
   17        3.055464   1.001787
   18        3.055464   1.001787
   19        5.306790  -0.000000
   20        5.306793  -0.000000
   21        9.224223   0.000000
   22        9.224224   0.000000
   23       10.364625   0.000000
   24       10.364626   0.000000
   25       10.721071   0.000000
   26       10.721096   0.000000
   27       11.262399   0.000000
   28       11.267505   0.000000
 
  0.1111111E+00  0.2222222E+00 -0.1387779E-16  0.2743484E-02
    1      -30.961486   1.000000
    2      -30.961486   1.000000
    3      -30.960985   1.000000
    4      -30.960984   1.000000
    5      -24.270337   1.000000
    6      -24.270337   1.000000
    7      -24.268528   1.000000
    8      -24.268528   1.000000
    9      -24.266734   1.000000
   10      -24.266734   1.000000
   11      -20.632589   1.000000
   12      -20.632589   1.000000
   13       -7.539307   1.000000
   14       -7.539307   1.000000
   15        1.455782   1.000000
   16        1.455784   1.000000
   17        2.864350   1.000000
   18        2.864350   1.000000
   19        5.485406  -0.000000
   20        5.485408  -0.000000
   21        8.851475   0.000000
   22        8.851477   0.000000
   23        9.956163   0.000000
   24        9.956166   0.000000
   25       10.808046   0.000000
   26       10.808048   0.000000
   27       11.436742   0.000000
   28       11.436751   0.000000
 
  0.2222222E+00  0.2222222E+00 -0.5551115E-16  0.2743484E-02
    1      -30.961240   1.000000
    2      -30.961240   1.000000
    3      -30.960741   1.000000
    4      -30.960741   1.000000
    5      -24.270331   1.000000
    6      -24.270331   1.000000
    7      -24.267781   1.000000
    8      -24.267780   1.000000
    9      -24.265837   1.000000
   10      -24.265837   1.000000
   11      -20.619117   1.000000
   12      -20.619117   1.000000
   13       -7.583593   1.000000
   14       -7.583592   1.000000
   15        1.241963   1.000000
   16        1.241965   1.000000
   17        2.575181   1.000000
   18        2.575181   1.000000
   19        6.001534  -0.000000
   20        6.001536  -0.000000
   21        8.291965   0.000000
   22        8.291967   0.000000
   23        9.419830   0.000000
   24        9.419832   0.000000
   25       11.027633   0.000000
   26       11.027636   0.000000
   27       11.911859   0.000000
   28       11.911862   0.000000
 
  0.3333333E+00  0.2222222E+00  0.0000000E+00  0.2743484E-02
    1      -30.961026   1.000000
    2      -30.961025   1.000000
    3      -30.960241   1.000000
    4      -30.960240   1.000000
    5      -24.269862   1.000000
    6      -24.269862   1.000000
    7      -24.267347   1.000000
    8      -24.267347   1.000000
    9      -24.264015   1.000000
   10      -24.264015   1.000000
   11      -20.596631   1.000000
   12      -20.596631   1.000000
   13       -7.658675   1.000000
   14       -7.658675   1.000000
   15        0.861698   1.000000
   16        0.861699   1.000000
   17        2.306579   1.000000
   18        2.306580   1.000000
   19        6.448708   0.000000
   20        6.448711   0.000000
   21        8.154356   0.000000
   22        8.154358   0.000000
   23        9.036839   0.000000
   24        9.036842   0.000000
   25       11.312213   0.000000
   26       11.312216   0.000000
   27       12.428786   0.000000
   28       12.428833   0.000000
 
  0.4444444E+00  0.2222222E+00 -0.1110223E-15  0.2743484E-02
    1      -30.960828   1.000000
    2      -30.960828   1.000000
    3      -30.959768   1.000000
    4      -30.959767   1.000000
    5      -24.269397   1.000000
    6      -24.269396   1.000000
    7      -24.266376   1.000000
    8      -24.266376   1.000000
    9      -24.262920   1.000000
   10      -24.262920   1.000000
   11      -20.575500   1.000000
   12      -20.575500   1.000000
   13       -7.728357   1.000000
   14       -7.728356   1.000000
   15        0.563057   1.000000
   16        0.563059   1.000000
   17        2.030700   1.000000
   18        2.030700   1.000000
   19        6.700493   0.000000
   20        6.700496   0.000000
   21        8.266591   0.000000
   22        8.266592   0.000000
   23        9.273884   0.000000
   24        9.273886   0.000000
   25       11.149409   0.000000
   26       11.149412   0.000000
   27       12.738708   0.000000
   28       12.738937   0.000000
 
 -0.4444444E+00  0.2222222E+00  0.8326673E-16  0.2743484E-02
    1      -30.960706   1.000000
    2      -30.960706   1.000000
    3      -30.959541   1.000000
    4      -30.959540   1.000000
    5      -24.269159   1.000000
    6      -24.269159   1.000000
    7      -24.265147   1.000000
    8      -24.265147   1.000000
    9      -24.263218   1.000000
   10      -24.263218   1.000000
   11      -20.565687   1.000000
   12      -20.565686   1.000000
   13       -7.760211   1.000000
   14       -7.760210   1.000000
   15        0.434564   1.000000
   16        0.434566   1.000000
   17        1.880870   1.000000
   18        1.880871   1.000000
   19        6.892923   0.000000
   20        6.892927   0.000000
   21        8.174910   0.000000
   22        8.174911   0.000000
   23       10.204147   0.000000
   24       10.204148   0.000000
   25       10.987528   0.000000
   26       10.987531   0.000000
   27       12.138686   0.000000
   28       12.138702   0.000000
 
 -0.3333333E+00  0.2222222E+00  0.2081668E-16  0.2743484E-02
    1      -30.960782   1.000000
    2      -30.960782   1.000000
    3      -30.959689   1.000000
    4      -30.959688   1.000000
    5      -24.268958   1.000000
    6      -24.268957   1.000000
    7      -24.265379   1.000000
    8      -24.265379   1.000000
    9      -24.263947   1.000000
   10      -24.263947   1.000000
   11      -20.572008   1.000000
   12      -20.572008   1.000000
   13       -7.740463   1.000000
   14       -7.740463   1.000000
   15        0.491006   1.000000
   16        0.491008   1.000000
   17        1.957455   1.000000
   18        1.957456   1.000000
   19        7.055589   0.000000
   20        7.055593   0.000000
   21        8.202704   0.000000
   22        8.202705   0.000000
   23        9.991202   0.000000
   24        9.991203   0.000000
   25       10.954636   0.000000
   26       10.954638   0.000000
   27       12.376949   0.000000
   28       12.420464   0.000000
 
 -0.2222222E+00  0.2222222E+00  0.4717050E-16  0.2743484E-02
    1      -30.961024   1.000000
    2      -30.961024   1.000000
    3      -30.960057   1.000000
    4      -30.960056   1.000000
    5      -24.268887   1.000000
    6      -24.268886   1.000000
    7      -24.267362   1.000000
    8      -24.267362   1.000000
    9      -24.264352   1.000000
   10      -24.264352   1.000000
   11      -20.591316   1.000000
   12      -20.591316   1.000000
   13       -7.678452   1.000000
   14       -7.678451   1.000000
   15        0.709076   1.000000
   16        0.709078   1.000000
   17        2.273332   1.000000
   18        2.273332   1.000000
   19        6.753359   0.000000
   20        6.753363   0.000000
   21        8.573861   0.000000
   22        8.573863   0.000000
   23        9.416237   0.000000
   24        9.416237   0.000000
   25       10.771973   0.000000
   26       10.771977   0.000000
   27       11.542660   0.000000
   28       11.542667   0.000000
 
 -0.1111111E+00  0.2222222E+00 -0.6938894E-17  0.2743484E-02
    1      -30.961374   1.000000
    2      -30.961373   1.000000
    3      -30.960500   1.000000
    4      -30.960500   1.000000
    5      -24.269776   1.000000
    6      -24.269775   1.000000
    7      -24.268206   1.000000
    8      -24.268206   1.000000
    9      -24.265433   1.000000
   10      -24.265433   1.000000
   11      -20.614526   1.000000
   12      -20.614526   1.000000
   13       -7.602306   1.000000
   14       -7.602306   1.000000
   15        1.024351   1.000000
   16        1.024352   1.000000
   17        2.741883   1.000000
   18        2.741884   1.000000
   19        5.911099  -0.000000
   20        5.911102  -0.000000
   21        9.055007   0.000000
   22        9.055008   0.000000
   23        9.730299   0.000000
   24        9.730301   0.000000
   25       10.568390   0.000000
   26       10.568395   0.000000
   27       11.473436   0.000000
   28       11.477178   0.000000
 
  0.3851860E-33  0.3333333E+00 -0.1387779E-16  0.2743484E-02
    1      -30.961355   1.000000
    2      -30.961355   1.000000
    3      -30.960043   1.000000
    4      -30.960043   1.000000
    5      -24.270558   1.000000
    6      -24.270558   1.000000
    7      -24.266868   1.000000
    8      -24.266868   1.000000
    9      -24.264456   1.000000
   10      -24.264456   1.000000
   11      -20.601741   1.000000
   12      -20.601741   1.000000
   13       -7.648348   1.000000
   14       -7.648348   1.000000
   15        0.716473   1.000000
   16        0.716474   1.000000
   17        2.892014   1.000000
   18        2.892014   1.000000
   19        5.684442  -0.000000
   20        5.684446  -0.000000
   21        9.701165   0.000000
   22        9.701167   0.000000
   23       10.020188   0.000000
   24       10.020190   0.000000
   25       10.423737   0.000000
   26       10.423739   0.000000
   27       10.775466   0.000000
   28       10.775468   0.000000
 
  0.1111111E+00  0.3333333E+00 -0.2775558E-16  0.2743484E-02
    1      -30.961289   1.000000
    2      -30.961289   1.000000
    3      -30.960261   1.000000
    4      -30.960261   1.000000
    5      -24.270029   1.000000
    6      -24.270029   1.000000
    7      -24.267451   1.000000
    8      -24.267451   1.000000
    9      -24.264767   1.000000
   10      -24.264767   1.000000
   11      -20.604900   1.000000
   12      -20.604900   1.000000
   13       -7.635054   1.000000
   14       -7.635053   1.000000
   15        0.854478   1.000000
   16        0.854480   1.000000
   17        2.653623   1.000000
   18        2.653623   1.000000
   19        6.039208   0.000000
   20        6.039211   0.000000
   21        9.074235   0.000000
   22        9.074236   0.000000
   23        9.381299   0.000000
   24        9.381301   0.000000
   25       10.692541   0.000000
   26       10.692549   0.000000
   27       12.006969   0.000000
   28       12.134405   0.000000
 
  0.2222222E+00  0.3333333E+00 -0.5551115E-16  0.2743484E-02
    1      -30.961026   1.000000
    2      -30.961025   1.000000
    3      -30.960241   1.000000
    4      -30.960240   1.000000
    5      -24.269862   1.000000
    6      -24.269862   1.000000
    7      -24.267347   1.000000
    8      -24.267347   1.000000
    9      -24.264015   1.000000
   10      -24.264015   1.000000
   11      -20.596631   1.000000
   12      -20.596631   1.000000
   13       -7.658675   1.000000
   14       -7.658675   1.000000
   15        0.861698   1.000000
   16        0.861699   1.000000
   17        2.306579   1.000000
   18        2.306580   1.000000
   19        6.448708   0.000000
   20        6.448711   0.000000
   21        8.154356   0.000000
   22        8.154358   0.000000
   23        9.036839   0.000000
   24        9.036842   0.000000
   25       11.312214   0.000000
   26       11.312216   0.000000
   27       12.428787   0.000000
   28       12.428798   0.000000
 
  0.3333333E+00  0.3333333E+00 -0.5551115E-16  0.2743484E-02
    1      -30.960822   1.000000
    2      -30.960822   1.000000
    3      -30.959951   1.000000
    4      -30.959951   1.000000
    5      -24.270034   1.000000
    6      -24.270034   1.000000
    7      -24.266892   1.000000
    8      -24.266892   1.000000
    9      -24.262386   1.000000
   10      -24.262386   1.000000
   11      -20.580858   1.000000
   12      -20.580857   1.000000
   13       -7.708452   1.000000
   14       -7.708452   1.000000
   15        0.692658   1.000000
   16        0.692659   1.000000
   17        2.115130   1.000000
   18        2.115131   1.000000
   19        6.343767   0.000000
   20        6.343769   0.000000
   21        7.654295   0.000000
   22        7.654298   0.000000
   23        9.306640   0.000000
   24        9.306641   0.000000
   25       11.986123   0.000000
   26       11.986126   0.000000
   27       13.066654   0.000000
   28       13.066723   0.000000
 
  0.4444444E+00  0.3333333E+00 -0.1110223E-15  0.2743484E-02
    1      -30.960613   1.000000
    2      -30.960613   1.000000
    3      -30.959616   1.000000
    4      -30.959616   1.000000
    5      -24.269610   1.000000
    6      -24.269610   1.000000
    7      -24.266476   1.000000
    8      -24.266475   1.000000
    9      -24.261305   1.000000
   10      -24.261305   1.000000
   11      -20.564862   1.000000
   12      -20.564861   1.000000
   13       -7.758857   1.000000
   14       -7.758857   1.000000
   15        0.529363   1.000000
   16        0.529365   1.000000
   17        1.861791   1.000000
   18        1.861792   1.000000
   19        6.354906   0.000000
   20        6.354908   0.000000
   21        7.676328   0.000000
   22        7.676330   0.000000
   23        9.552691   0.000000
   24        9.552692   0.000000
   25       12.199370   0.000000
   26       12.199371   0.000000
   27       13.429363   0.000000
   28       13.429487   0.000000
 
 -0.4444444E+00  0.3333333E+00  0.5551115E-16  0.2743484E-02
    1      -30.960440   1.000000
    2      -30.960440   1.000000
    3      -30.959514   1.000000
    4      -30.959514   1.000000
    5      -24.268862   1.000000
    6      -24.268862   1.000000
    7      -24.265812   1.000000
    8      -24.265812   1.000000
    9      -24.261695   1.000000
   10      -24.261695   1.000000
   11      -20.556289   1.000000
   12      -20.556289   1.000000
   13       -7.785499   1.000000
   14       -7.785498   1.000000
   15        0.476060   1.000000
   16        0.476061   1.000000
   17        1.590378   1.000000
   18        1.590378   1.000000
   19        6.618643   0.000000
   20        6.618646   0.000000
   21        8.090013   0.000000
   22        8.090015   0.000000
   23        9.870192   0.000000
   24        9.870195   0.000000
   25       11.658357   0.000000
   26       11.658357   0.000000
   27       12.714575   0.000000
   28       12.714729   0.000000
 
 -0.3333333E+00  0.3333333E+00  0.2286410E-16  0.2743484E-02
    1      -30.960470   1.000000
    2      -30.960470   1.000000
    3      -30.959601   1.000000
    4      -30.959600   1.000000
    5      -24.268504   1.000000
    6      -24.268503   1.000000
    7      -24.264855   1.000000
    8      -24.264855   1.000000
    9      -24.263371   1.000000
   10      -24.263371   1.000000
   11      -20.559159   1.000000
   12      -20.559159   1.000000
   13       -7.777642   1.000000
   14       -7.777642   1.000000
   15        0.475971   1.000000
   16        0.475972   1.000000
   17        1.584744   1.000000
   18        1.584745   1.000000
   19        7.018847   0.000000
   20        7.018851   0.000000
   21        8.225410   0.000000
   22        8.225411   0.000000
   23       10.622366   0.000000
   24       10.622367   0.000000
   25       10.896577   0.000000
   26       10.896580   0.000000
   27       11.799654   0.000000
   28       11.799680   0.000000
 
 -0.2222222E+00  0.3333333E+00  0.6938894E-17  0.2743484E-02
    1      -30.960782   1.000000
    2      -30.960782   1.000000
    3      -30.959689   1.000000
    4      -30.959688   1.000000