       N       E                     dE             d eps       ncg     rms          rms(c)
DAV:   1     0.156004950769E+03    0.15600E+03   -0.95817E+03 20728   0.127E+03
DAV:   2    -0.140579255363E+03   -0.29658E+03   -0.28847E+03 25988   0.446E+02
DAV:   3    -0.153579351718E+03   -0.13000E+02   -0.12961E+02 24468   0.114E+02
DAV:   4    -0.153925177708E+03   -0.34583E+00   -0.34569E+00 30964   0.223E+01
DAV:   5    -0.153936130684E+03   -0.10953E-01   -0.10952E-01 27200   0.331E+00    0.647E+00
RMM:   6    -0.150122735959E+03    0.38134E+01   -0.14897E+01 23792   0.523E+01    0.254E+00
RMM:   7    -0.150395038298E+03   -0.27230E+00   -0.89231E+00 22739   0.405E+01    0.184E+00
RMM:   8    -0.150214070107E+03    0.18097E+00   -0.70298E+00 21912   0.368E+01    0.138E+00
RMM:   9    -0.149960982748E+03    0.25309E+00   -0.23541E+00 21217   0.225E+01    0.799E-01
RMM:  10    -0.150013419201E+03   -0.52436E-01   -0.12451E+00 21626   0.146E+01    0.232E-01
RMM:  11    -0.150000673828E+03    0.12745E-01   -0.14652E+00 21454   0.154E+01    0.313E-01
RMM:  12    -0.149931201040E+03    0.69473E-01   -0.11965E-01 22253   0.499E+00    0.191E-01
RMM:  13    -0.149914247940E+03    0.16953E-01   -0.98027E-02 23883   0.376E+00    0.120E-01
RMM:  14    -0.149917805781E+03   -0.35578E-02   -0.22836E-02 25933   0.198E+00    0.102E-01
RMM:  15    -0.149912288274E+03    0.55175E-02   -0.47286E-02 22972   0.280E+00    0.850E-02
RMM:  16    -0.149912975232E+03   -0.68696E-03   -0.15257E-02 25494   0.161E+00    0.110E-01
RMM:  17    -0.149911570407E+03    0.14048E-02   -0.15940E-02 26072   0.155E+00    0.621E-02
RMM:  18    -0.149912485513E+03   -0.91511E-03   -0.57427E-03 26887   0.956E-01    0.734E-02
RMM:  19    -0.149911276320E+03    0.12092E-02   -0.45746E-03 23835   0.958E-01    0.106E-02
RMM:  20    -0.149911319290E+03   -0.42970E-04   -0.34807E-04 29328   0.207E-01    0.153E-02
RMM:  21    -0.149911357985E+03   -0.38694E-04   -0.19896E-04 29433   0.145E-01    0.211E-02
RMM:  22    -0.149911330583E+03    0.27401E-04   -0.71344E-05 28151   0.105E-01    0.958E-03
RMM:  23    -0.149911328427E+03    0.21558E-05   -0.57643E-05 29560   0.760E-02    0.618E-03
RMM:  24    -0.149911329207E+03   -0.77985E-06   -0.12491E-05 30628   0.338E-02    0.463E-03
RMM:  25    -0.149911329741E+03   -0.53348E-06   -0.61089E-06 31590   0.191E-02    0.402E-03
RMM:  26    -0.149911328788E+03    0.95292E-06   -0.22241E-06 30220   0.158E-02    0.276E-03
RMM:  27    -0.149911328384E+03    0.40407E-06   -0.12165E-06 29934   0.109E-02    0.219E-03
RMM:  28    -0.149911328269E+03    0.11490E-06   -0.42780E-07 25493   0.748E-03    0.167E-03
RMM:  29    -0.149911328301E+03   -0.31858E-07   -0.31072E-07 23735   0.612E-03
   1 F= -.14991133E+03 E0= -.14991137E+03  d E =0.110498E-03  mag=    -0.0000    -0.0000    -0.0000
