Og_FCC                                  
           1
     4.434736    0.000000    0.000000
     2.217368    3.840594   -0.000000
     2.217368    1.280198    3.620947
   Og
   1
Direct configuration=     1
   0.00000000  0.00000000  0.00000000
