   1   1   0   0
  0.5789729E+02  0.4342346E-09  0.4342346E-09  0.4342346E-09  0.1000000E-15
  1.000000000000000E-004
  CAR 
 Og_FCC                                  
     41.05667794    -37.92326577  301      3.27793819      1.00000000
    -37.923  0.0000E+00  0.0000E+00
    -37.660  0.0000E+00  0.0000E+00
    -37.397  0.0000E+00  0.0000E+00
    -37.133  0.0000E+00  0.0000E+00
    -36.870  0.0000E+00  0.0000E+00
    -36.607  0.0000E+00  0.0000E+00
    -36.344  0.0000E+00  0.0000E+00
    -36.080  0.0000E+00  0.0000E+00
    -35.817  0.0000E+00  0.0000E+00
    -35.554  0.0000E+00  0.0000E+00
    -35.291  0.0000E+00  0.0000E+00
    -35.027  0.0000E+00  0.0000E+00
    -34.764  0.0000E+00  0.0000E+00
    -34.501  0.0000E+00  0.0000E+00
    -34.238  0.0000E+00  0.4000E+01
    -33.974  0.0000E+00  0.4000E+01
    -33.711  0.0000E+00  0.4000E+01
    -33.448  0.0000E+00  0.4000E+01
    -33.184  0.0000E+00  0.4000E+01
    -32.921  0.0000E+00  0.4000E+01
    -32.658  0.0000E+00  0.4000E+01
    -32.395  0.0000E+00  0.4000E+01
    -32.131  0.0000E+00  0.4000E+01
    -31.868  0.0000E+00  0.4000E+01
    -31.605  0.0000E+00  0.4000E+01
    -31.342  0.0000E+00  0.4000E+01
    -31.078  0.0000E+00  0.4000E+01
    -30.815  0.0000E+00  0.4000E+01
    -30.552  0.0000E+00  0.4000E+01
    -30.289  0.0000E+00  0.4000E+01
    -30.025  0.0000E+00  0.4000E+01
    -29.762  0.0000E+00  0.4000E+01
    -29.499  0.0000E+00  0.4000E+01
    -29.235  0.0000E+00  0.4000E+01
    -28.972  0.0000E+00  0.4000E+01
    -28.709  0.0000E+00  0.4000E+01
    -28.446  0.0000E+00  0.4000E+01
    -28.182  0.0000E+00  0.4000E+01
    -27.919  0.0000E+00  0.4000E+01
    -27.656  0.0000E+00  0.4000E+01
    -27.393  0.0000E+00  0.4000E+01
    -27.129  0.0000E+00  0.1000E+02
    -26.866  0.0000E+00  0.1000E+02
    -26.603  0.0000E+00  0.1000E+02
    -26.340  0.0000E+00  0.1000E+02
    -26.076  0.0000E+00  0.1000E+02
    -25.813  0.0000E+00  0.1000E+02
    -25.550  0.0000E+00  0.1000E+02
    -25.286  0.0000E+00  0.1000E+02
    -25.023  0.0000E+00  0.1000E+02
    -24.760  0.0000E+00  0.1000E+02
    -24.497  0.0000E+00  0.1000E+02
    -24.233  0.0000E+00  0.1000E+02
    -23.970  0.0000E+00  0.1000E+02
    -23.707  0.0000E+00  0.1000E+02
    -23.444  0.0000E+00  0.1000E+02
    -23.180  0.0000E+00  0.1000E+02
    -22.917  0.0000E+00  0.1000E+02
    -22.654  0.0000E+00  0.1200E+02
    -22.391  0.0000E+00  0.1200E+02
    -22.127  0.0000E+00  0.1200E+02
    -21.864  0.0000E+00  0.1200E+02
    -21.601  0.0000E+00  0.1200E+02
    -21.337  0.0000E+00  0.1200E+02
    -21.074  0.0000E+00  0.1200E+02
    -20.811  0.0000E+00  0.1200E+02
    -20.548  0.0000E+00  0.1200E+02
    -20.284  0.0000E+00  0.1200E+02
    -20.021  0.0000E+00  0.1200E+02
    -19.758  0.0000E+00  0.1200E+02
    -19.495  0.0000E+00  0.1200E+02
    -19.231  0.0000E+00  0.1200E+02
    -18.968  0.0000E+00  0.1200E+02
    -18.705  0.0000E+00  0.1200E+02
    -18.442  0.0000E+00  0.1200E+02
    -18.178  0.0000E+00  0.1200E+02
    -17.915  0.0000E+00  0.1200E+02
    -17.652  0.0000E+00  0.1200E+02
    -17.388  0.0000E+00  0.1200E+02
    -17.125  0.0000E+00  0.1200E+02
    -16.862  0.0000E+00  0.1200E+02
    -16.599  0.0000E+00  0.1200E+02
    -16.335  0.0000E+00  0.1200E+02
    -16.072  0.0000E+00  0.1200E+02
    -15.809  0.0000E+00  0.1200E+02
    -15.546  0.0000E+00  0.1200E+02
    -15.282  0.0000E+00  0.1200E+02
    -15.019  0.0000E+00  0.1200E+02
    -14.756  0.0000E+00  0.1200E+02
    -14.493  0.0000E+00  0.1200E+02
    -14.229  0.0000E+00  0.1200E+02
    -13.966  0.0000E+00  0.1200E+02
    -13.703  0.0000E+00  0.1200E+02
    -13.439  0.0000E+00  0.1200E+02
    -13.176  0.0000E+00  0.1200E+02
    -12.913  0.0000E+00  0.1200E+02
    -12.650  0.0000E+00  0.1200E+02
    -12.386  0.0000E+00  0.1200E+02
    -12.123  0.0000E+00  0.1200E+02
    -11.860  0.0000E+00  0.1200E+02
    -11.597  0.0000E+00  0.1200E+02
    -11.333  0.0000E+00  0.1200E+02
    -11.070  0.0000E+00  0.1200E+02
    -10.807  0.0000E+00  0.1200E+02
    -10.544  0.0000E+00  0.1200E+02
    -10.280  0.0000E+00  0.1200E+02
    -10.017  0.0000E+00  0.1200E+02
     -9.754  0.0000E+00  0.1200E+02
     -9.490  0.0000E+00  0.1200E+02
     -9.227  0.0000E+00  0.1200E+02
     -8.964  0.0000E+00  0.1200E+02
     -8.701  0.3621E+00  0.1313E+02
     -8.437  0.0000E+00  0.1397E+02
     -8.174  0.0000E+00  0.1400E+02
     -7.911  0.0000E+00  0.1400E+02
     -7.648  0.0000E+00  0.1400E+02
     -7.384  0.0000E+00  0.1400E+02
     -7.121  0.0000E+00  0.1400E+02
     -6.858  0.0000E+00  0.1400E+02
     -6.595  0.0000E+00  0.1400E+02
     -6.331  0.0000E+00  0.1400E+02
     -6.068  0.0000E+00  0.1400E+02
     -5.805  0.0000E+00  0.1400E+02
     -5.541  0.0000E+00  0.1400E+02
     -5.278  0.0000E+00  0.1400E+02
     -5.015  0.0000E+00  0.1400E+02
     -4.752  0.0000E+00  0.1400E+02
     -4.488  0.0000E+00  0.1400E+02
     -4.225  0.0000E+00  0.1400E+02
     -3.962  0.0000E+00  0.1400E+02
     -3.699  0.0000E+00  0.1400E+02
     -3.435  0.0000E+00  0.1400E+02
     -3.172  0.0000E+00  0.1400E+02
     -2.909  0.0000E+00  0.1400E+02
     -2.646  0.0000E+00  0.1400E+02
     -2.382  0.0000E+00  0.1400E+02
     -2.119  0.0000E+00  0.1400E+02
     -1.856  0.0000E+00  0.1400E+02
     -1.592  0.0000E+00  0.1400E+02
     -1.329  0.0000E+00  0.1400E+02
     -1.066  0.0000E+00  0.1400E+02
     -0.803  0.0000E+00  0.1400E+02
     -0.539  0.0000E+00  0.1400E+02
     -0.276  0.0000E+00  0.1497E+02
     -0.013  0.0000E+00  0.1553E+02
      0.250  0.0000E+00  0.1553E+02
      0.514  0.5933E+00  0.1600E+02
      0.777  0.0000E+00  0.1616E+02
      1.040  0.0000E+00  0.1616E+02
      1.303  0.1782E+00  0.1625E+02
      1.567  0.0000E+00  0.1700E+02
      1.830  0.0000E+00  0.1738E+02
      2.093  0.0000E+00  0.1747E+02
      2.357  0.0000E+00  0.1756E+02
      2.620  0.0000E+00  0.1769E+02
      2.883  0.0000E+00  0.1794E+02
      3.146  0.0000E+00  0.1797E+02
      3.410  0.0000E+00  0.1800E+02
      3.673  0.0000E+00  0.1800E+02
      3.936  0.0000E+00  0.1803E+02
      4.199  0.0000E+00  0.1803E+02
      4.463  0.0000E+00  0.1803E+02
      4.726  0.0000E+00  0.1803E+02
      4.989  0.0000E+00  0.1803E+02
      5.252  0.0000E+00  0.1803E+02
      5.516  0.0000E+00  0.1803E+02
      5.779  0.0000E+00  0.1803E+02
      6.042  0.0000E+00  0.1803E+02
      6.306  0.0000E+00  0.1803E+02
      6.569  0.0000E+00  0.1828E+02
      6.832  0.0000E+00  0.1850E+02
      7.095  0.0000E+00  0.1850E+02
      7.359  0.0000E+00  0.1869E+02
      7.622  0.0000E+00  0.1869E+02
      7.885  0.0000E+00  0.1944E+02
      8.148  0.0000E+00  0.1944E+02
      8.412  0.0000E+00  0.2009E+02
      8.675  0.0000E+00  0.2009E+02
      8.938  0.0000E+00  0.2009E+02
      9.201  0.0000E+00  0.2028E+02
      9.465  0.0000E+00  0.2141E+02
      9.728  0.0000E+00  0.2141E+02
      9.991  0.0000E+00  0.2141E+02
     10.254  0.0000E+00  0.2141E+02
     10.518  0.0000E+00  0.2178E+02
     10.781  0.0000E+00  0.2222E+02
     11.044  0.0000E+00  0.2334E+02
     11.308  0.0000E+00  0.2359E+02
     11.571  0.0000E+00  0.2391E+02
     11.834  0.0000E+00  0.2431E+02
     12.097  0.0000E+00  0.2462E+02
     12.361  0.0000E+00  0.2500E+02
     12.624  0.0000E+00  0.2525E+02
     12.887  0.0000E+00  0.2619E+02
     13.150  0.0000E+00  0.2631E+02
     13.414  0.0000E+00  0.2669E+02
     13.677  0.0000E+00  0.2694E+02
     13.940  0.0000E+00  0.2738E+02
     14.203  0.0000E+00  0.2738E+02
     14.467  0.0000E+00  0.2816E+02
     14.730  0.0000E+00  0.2841E+02
     14.993  0.0000E+00  0.2878E+02
     15.257  0.0000E+00  0.2884E+02
     15.520  0.0000E+00  0.2884E+02
     15.783  0.2686E-10  0.2884E+02
     16.046  0.0000E+00  0.2991E+02
     16.310  0.2773E+00  0.3089E+02
     16.573  0.1704E+00  0.3228E+02
     16.836  0.0000E+00  0.3270E+02
     17.099  0.0000E+00  0.3303E+02
     17.363  0.5935E-01  0.3320E+02
     17.626  0.0000E+00  0.3325E+02
     17.889  0.3763E-01  0.3346E+02
     18.152  0.0000E+00  0.3431E+02
     18.416  0.0000E+00  0.3466E+02
     18.679  0.1154E+00  0.3498E+02
     18.942  0.1195E+00  0.3589E+02
     19.206  0.3295E-17  0.3634E+02
     19.469  0.0000E+00  0.3669E+02
     19.732  0.5935E-01  0.3702E+02
     19.995  0.5945E-01  0.3798E+02
     20.259  0.5935E-01  0.3883E+02
     20.522  0.8767E-01  0.3974E+02
     20.785  0.6127E-01  0.4034E+02
     21.048  0.0000E+00  0.4116E+02
     21.312  0.5989E-01  0.4180E+02
     21.575  0.0000E+00  0.4219E+02
     21.838  0.2925E-04  0.4261E+02
     22.101  0.5095E-02  0.4353E+02
     22.365  0.1039E-05  0.4422E+02
     22.628  0.1040E+00  0.4498E+02
     22.891  0.7435E-07  0.4555E+02
     23.155  0.5935E-01  0.4606E+02
     23.418  0.1010E-03  0.4661E+02
     23.681  0.5935E-01  0.4705E+02
     23.944  0.8969E-04  0.4750E+02
     24.208  0.2396E+00  0.4798E+02
     24.471  0.2010E-05  0.4866E+02
     24.734  0.5935E-01  0.4912E+02
     24.997  0.5935E-01  0.4942E+02
     25.261  0.0000E+00  0.4967E+02
     25.524  0.1811E-01  0.4988E+02
     25.787  0.5935E-01  0.5038E+02
     26.050  0.5931E-01  0.5095E+02
     26.314  0.9960E-08  0.5145E+02
     26.577  0.0000E+00  0.5208E+02
     26.840  0.1343E-08  0.5261E+02
     27.104  0.0000E+00  0.5294E+02
     27.367  0.1431E+00  0.5332E+02
     27.630  0.0000E+00  0.5361E+02
     27.893  0.1132E+00  0.5420E+02
     28.157  0.1240E+00  0.5488E+02
     28.420  0.5935E-01  0.5539E+02
     28.683  0.6617E-01  0.5597E+02
     28.946  0.1497E+00  0.5654E+02
     29.210  0.1783E+00  0.5734E+02
     29.473  0.0000E+00  0.5781E+02
     29.736  0.4332E-14  0.5811E+02
     29.999  0.1187E+00  0.5858E+02
     30.263  0.1757E-03  0.5895E+02
     30.526  0.5918E-01  0.5941E+02
     30.789  0.0000E+00  0.5964E+02
     31.053  0.5932E-01  0.6002E+02
     31.316  0.1187E+00  0.6023E+02
     31.579  0.5935E-01  0.6052E+02
     31.842  0.0000E+00  0.6073E+02
     32.106  0.5935E-01  0.6111E+02
     32.369  0.1647E-16  0.6142E+02
     32.632  0.0000E+00  0.6162E+02
     32.895  0.5928E-01  0.6200E+02
     33.159  0.9327E-04  0.6230E+02
     33.422  0.9894E-03  0.6253E+02
     33.685  0.5935E-01  0.6277E+02
     33.948  0.0000E+00  0.6298E+02
     34.212  0.3137E-11  0.6311E+02
     34.475  0.5935E-01  0.6333E+02
     34.738  0.5935E-01  0.6341E+02
     35.002  0.0000E+00  0.6352E+02
     35.265  0.4039E-01  0.6365E+02
     35.528  0.6683E-01  0.6374E+02
     35.791  0.0000E+00  0.6378E+02
     36.055  0.5935E-01  0.6384E+02
     36.318  0.0000E+00  0.6386E+02
     36.581  0.0000E+00  0.6391E+02
     36.844  0.0000E+00  0.6395E+02
     37.108  0.0000E+00  0.6398E+02
     37.371  0.0000E+00  0.6398E+02
     37.634  0.0000E+00  0.6400E+02
     37.897  0.0000E+00  0.6400E+02
     38.161  0.0000E+00  0.6400E+02
     38.424  0.0000E+00  0.6400E+02
     38.687  0.0000E+00  0.6400E+02
     38.951  0.0000E+00  0.6400E+02
     39.214  0.0000E+00  0.6400E+02
     39.477  0.0000E+00  0.6400E+02
     39.740  0.0000E+00  0.6400E+02
     40.004  0.0000E+00  0.6400E+02
     40.267  0.0000E+00  0.6400E+02
     40.530  0.0000E+00  0.6400E+02
     40.793  0.0000E+00  0.6400E+02
     41.057  0.0000E+00  0.6400E+02
