    1    1    1    1
  0.5789729E+02  0.4342346E-09  0.4342346E-09  0.4342346E-09  0.1000000E-15
  1.000000000000000E-004
  CAR 
 Og_FCC                                  
     18     64     64
 
  0.0000000E+00  0.0000000E+00  0.0000000E+00  0.1562500E-01
    1      -34.328001   1.000000
    2      -34.327733   1.000000
    3      -34.327083   1.000000
    4      -34.326817   1.000000
    5      -27.359037   1.000000
    6      -27.357220   1.000000
    7      -27.356827   1.000000
    8      -27.355800   1.000000
    9      -27.353736   1.000000
   10      -27.353517   1.000000
   11      -22.867358   1.000000
   12      -22.862151   1.000000
   13       -8.291127   1.000000
   14       -8.286375   1.000000
   15        3.073180   1.000000
   16        3.073265   1.000000
   17        3.180055   1.000000
   18        3.180330   1.000000
   19        3.769346   0.000000
   20        3.769433   0.000000
   21       11.633403   0.000000
   22       11.633873   0.000000
   23       11.636061   0.000000
   24       11.636525   0.000000
   25       11.942921   0.000000
   26       11.947519   0.000000
   27       11.971149   0.000000
   28       11.972253   0.000000
   29       14.258685   0.000000
   30       14.303718   0.000000
   31       14.614789   0.000000
   32       14.623004   0.000000
   33       14.655555   0.000000
   34       14.682661   0.000000
   35       15.171413   0.000000
   36       15.208841   0.000000
   37       15.212116   0.000000
   38       15.247479   0.000000
   39       16.855696   0.000000
   40       16.881338   0.000000
   41       22.770545   0.000000
   42       23.120622   0.000000
   43       23.267287   0.000000
   44       24.124436   0.000000
   45       24.208886   0.000000
   46       24.210655   0.000000
   47       24.522037   0.000000
   48       24.741708   0.000000
   49       30.003928   0.000000
   50       30.149898   0.000000
   51       30.334796   0.000000
   52       30.440485   0.000000
   53       30.508405   0.000000
   54       30.858600   0.000000
   55       30.930656   0.000000
   56       31.008133   0.000000
   57       31.322826   0.000000
   58       31.398502   0.000000
   59       31.644136   0.000000
   60       32.053085   0.000000
   61       32.282950   0.000000
   62       32.641382   0.000000
   63       34.083542   0.000000
   64       36.658171   0.000000
 
  0.2500000E+00  0.2350390E-17  0.8326673E-16  0.1562500E-01
    1      -34.311536   1.000000
    2      -34.310608   1.000000
    3      -34.309707   1.000000
    4      -34.309012   1.000000
    5      -27.347050   1.000000
    6      -27.346115   1.000000
    7      -27.343938   1.000000
    8      -27.342064   1.000000
    9      -27.340583   1.000000
   10      -27.339187   1.000000
   11      -22.804882   1.000000
   12      -22.798315   1.000000
   13       -8.496646   1.000000
   14       -8.492039   1.000000
   15        0.485974   1.000000
   16        0.525844   1.000000
   17        2.751168   1.000000
   18        2.817772   1.000000
   19        6.333227   0.000000
   20        6.345508   0.000000
   21       10.589201   0.000000
   22       10.601453   0.000000
   23       11.681136   0.000000
   24       11.682145   0.000000
   25       11.947011   0.000000
   26       11.948499   0.000000
   27       12.403491   0.000000
   28       12.405475   0.000000
   29       13.598566   0.000000
   30       13.645759   0.000000
   31       13.798848   0.000000
   32       13.860376   0.000000
   33       16.347483   0.000000
   34       16.394452   0.000000
   35       18.361502   0.000000
   36       18.472234   0.000000
   37       18.591832   0.000000
   38       18.659664   0.000000
   39       20.380882   0.000000
   40       20.460292   0.000000
   41       20.886832   0.000000
   42       20.999144   0.000000
   43       21.441682   0.000000
   44       21.677111   0.000000
   45       22.019021   0.000000
   46       22.111813   0.000000
   47       23.387393   0.000000
   48       26.082293   0.000000
   49       26.238976   0.000000
   50       26.351434   0.000000
   51       28.036256   0.000000
   52       28.234534   0.000000
   53       28.761318   0.000000
   54       29.126452   0.000000
   55       29.787303   0.000000
   56       30.149605   0.000000
   57       30.739674   0.000000
   58       31.884271   0.000000
   59       32.217107   0.000000
   60       33.068555   0.000000
   61       33.817782   0.000000
   62       34.442721   0.000000
   63       35.348127   0.000000
   64       35.908521   0.000000
 
  0.5000000E+00  0.4700780E-17  0.1665335E-15  0.1562500E-01
    1      -34.333268   1.000000
    2      -34.332541   1.000000
    3      -34.322409   1.000000
    4      -34.321453   1.000000
    5      -27.357866   1.000000
    6      -27.354898   1.000000
    7      -27.354103   1.000000
    8      -27.351011   1.000000
    9      -27.350550   1.000000
   10      -27.348746   1.000000
   11      -22.740608   1.000000
   12      -22.734027   1.000000
   13       -8.705275   1.000000
   14       -8.700823   1.000000
   15       -0.477676   1.000000
   16       -0.456165   1.000000
   17        2.457956   1.000000
   18        2.491059   1.000000
   19        6.612946   0.000000
   20        6.613782   0.000000
   21       11.051875   0.000000
   22       11.055269   0.000000
   23       11.227259   0.000000
   24       11.228206   0.000000
   25       11.328680   0.000000
   26       11.331498   0.000000
   27       12.980064   0.000000
   28       12.984151   0.000000
   29       15.915143   0.000000
   30       15.967706   0.000000
   31       16.178830   0.000000
   32       16.289663   0.000000
   33       16.987233   0.000000
   34       17.016231   0.000000
   35       18.068432   0.000000
   36       18.120937   0.000000
   37       18.257146   0.000000
   38       18.287884   0.000000
   39       20.550046   0.000000
   40       20.662888   0.000000
   41       21.152377   0.000000
   42       21.328255   0.000000
   43       21.546454   0.000000
   44       22.373556   0.000000
   45       24.606427   0.000000
   46       24.663314   0.000000
   47       25.030997   0.000000
   48       25.070714   0.000000
   49       26.061456   0.000000
   50       26.319906   0.000000
   51       26.452399   0.000000
   52       26.516675   0.000000
   53       26.829515   0.000000
   54       27.719928   0.000000
   55       27.756133   0.000000
   56       27.946888   0.000000
   57       28.976834   0.000000
   58       30.280634   0.000000
   59       30.824115   0.000000
   60       32.044463   0.000000
   61       32.912325   0.000000
   62       33.249787   0.000000
   63       33.250295   0.000000
   64       33.907279   0.000000
 
 -0.2500000E+00 -0.2350390E-17 -0.8326673E-16  0.1562500E-01
    1      -34.311536   1.000000
    2      -34.310607   1.000000
    3      -34.309706   1.000000
    4      -34.309011   1.000000
    5      -27.347049   1.000000
    6      -27.346115   1.000000
    7      -27.343937   1.000000
    8      -27.342064   1.000000
    9      -27.340583   1.000000
   10      -27.339187   1.000000
   11      -22.804882   1.000000
   12      -22.798315   1.000000
   13       -8.496646   1.000000
   14       -8.492039   1.000000
   15        0.485974   1.000000
   16        0.525844   1.000000
   17        2.751168   1.000000
   18        2.817772   1.000000
   19        6.333227   0.000000
   20        6.345508   0.000000
   21       10.589201   0.000000
   22       10.601453   0.000000
   23       11.681136   0.000000
   24       11.682145   0.000000
   25       11.947011   0.000000
   26       11.948499   0.000000
   27       12.403491   0.000000
   28       12.405475   0.000000
   29       13.592805   0.000000
   30       13.650446   0.000000
   31       13.814357   0.000000
   32       13.821235   0.000000
   33       16.306452   0.000000
   34       16.402804   0.000000
   35       18.311605   0.000000
   36       18.383319   0.000000
   37       18.594458   0.000000
   38       18.710393   0.000000
   39       20.415472   0.000000
   40       20.487971   0.000000
   41       20.914520   0.000000
   42       20.965703   0.000000
   43       21.462975   0.000000
   44       21.664011   0.000000
   45       21.928603   0.000000
   46       22.109341   0.000000
   47       23.644115   0.000000
   48       24.049948   0.000000
   49       26.135072   0.000000
   50       26.229236   0.000000
   51       28.134775   0.000000
   52       28.622656   0.000000
   53       29.002882   0.000000
   54       30.102456   0.000000
   55       30.671903   0.000000
   56       31.175070   0.000000
   57       31.510169   0.000000
   58       31.933896   0.000000
   59       32.523271   0.000000
   60       32.749658   0.000000
   61       33.160772   0.000000
   62       33.864412   0.000000
   63       34.305106   0.000000
   64       36.115612   0.000000
 
  0.7703720E-33  0.2500000E+00 -0.2775558E-16  0.1562500E-01
    1      -34.311166   1.000000
    2      -34.311124   1.000000
    3      -34.309532   1.000000
    4      -34.309041   1.000000
    5      -27.347183   1.000000
    6      -27.346455   1.000000
    7      -27.342608   1.000000
    8      -27.342505   1.000000
    9      -27.340792   1.000000
   10      -27.339395   1.000000
   11      -22.804115   1.000000
   12      -22.799082   1.000000
   13       -8.496728   1.000000
   14       -8.491956   1.000000
   15        0.502843   1.000000
   16        0.508456   1.000000
   17        2.780517   1.000000
   18        2.788832   1.000000
   19        6.339052   0.000000
   20        6.339790   0.000000
   21       10.594639   0.000000
   22       10.596024   0.000000
   23       11.681581   0.000000
   24       11.681692   0.000000
   25       11.946150   0.000000
   26       11.949358   0.000000
   27       12.403129   0.000000
   28       12.405832   0.000000
   29       13.584699   0.000000
   30       13.640188   0.000000
   31       13.813918   0.000000
   32       13.858046   0.000000
   33       16.333872   0.000000
   34       16.372067   0.000000
   35       18.323411   0.000000
   36       18.405605   0.000000
   37       18.685909   0.000000
   38       18.754669   0.000000
   39       20.395428   0.000000
   40       20.458196   0.000000
   41       20.839263   0.000000
   42       20.988712   0.000000
   43       21.474582   0.000000
   44       21.505250   0.000000
   45       21.930527   0.000000
   46       21.992286   0.000000
   47       23.378079   0.000000
   48       24.019038   0.000000
   49       26.285552   0.000000
   50       26.317363   0.000000
   51       27.735295   0.000000
   52       28.694223   0.000000
   53       28.794924   0.000000
   54       29.777078   0.000000
   55       29.981290   0.000000
   56       30.735061   0.000000
   57       31.230198   0.000000
   58       31.796962   0.000000
   59       32.262500   0.000000
   60       32.768854   0.000000
   61       33.125886   0.000000
   62       33.491148   0.000000
   63       34.376972   0.000000
   64       36.857851   0.000000
 
  0.2500000E+00  0.2500000E+00  0.2775558E-16  0.1562500E-01
    1      -34.317665   1.000000
    2      -34.316651   1.000000
    3      -34.311096   1.000000
    4      -34.310336   1.000000
    5      -27.351801   1.000000
    6      -27.348152   1.000000
    7      -27.344982   1.000000
    8      -27.343577   1.000000
    9      -27.341729   1.000000
   10      -27.340504   1.000000
   11      -22.783559   1.000000
   12      -22.778298   1.000000
   13       -8.552783   1.000000
   14       -8.548117   1.000000
   15        0.392748   1.000000
   16        0.430080   1.000000
   17        2.051593   1.000000
   18        2.110024   1.000000
   19        7.229390   0.000000
   20        7.240613   0.000000
   21        9.171209   0.000000
   22        9.174097   0.000000
   23       10.474714   0.000000
   24       10.485864   0.000000
   25       12.727083   0.000000
   26       12.736545   0.000000
   27       13.766687   0.000000
   28       13.778139   0.000000
   29       15.798257   0.000000
   30       15.846248   0.000000
   31       16.283714   0.000000
   32       16.299046   0.000000
   33       16.324607   0.000000
   34       16.403309   0.000000
   35       16.404998   0.000000
   36       16.589136   0.000000
   37       17.315104   0.000000
   38       17.374148   0.000000
   39       20.851095   0.000000
   40       20.935522   0.000000
   41       20.971230   0.000000
   42       21.271744   0.000000
   43       21.923383   0.000000
   44       22.005799   0.000000
   45       22.411282   0.000000
   46       22.570752   0.000000
   47       22.704253   0.000000
   48       23.057825   0.000000
   49       25.542980   0.000000
   50       25.947232   0.000000
   51       27.055965   0.000000
   52       28.018631   0.000000
   53       28.249690   0.000000
   54       28.477027   0.000000
   55       28.754794   0.000000
   56       29.619247   0.000000
   57       29.900294   0.000000
   58       30.206888   0.000000
   59       31.511876   0.000000
   60       32.035790   0.000000
   61       32.914593   0.000000
   62       34.175845   0.000000
   63       34.799803   0.000000
   64       36.471021   0.000000
 
  0.5000000E+00  0.2500000E+00  0.1110223E-15  0.1562500E-01
    1      -34.322641   1.000000
    2      -34.321942   1.000000
    3      -34.317958   1.000000
    4      -34.317121   1.000000
    5      -27.352070   1.000000
    6      -27.350313   1.000000
    7      -27.348600   1.000000
    8      -27.346617   1.000000
    9      -27.344827   1.000000
   10      -27.342368   1.000000
   11      -22.719645   1.000000
   12      -22.713754   1.000000
   13       -8.741827   1.000000
   14       -8.737257   1.000000
   15       -0.334331   1.000000
   16       -0.312507   1.000000
   17        1.306347   1.000000
   18        1.334182   1.000000
   19        7.756090   0.000000
   20        7.758681   0.000000
   21        9.365199   0.000000
   22        9.370510   0.000000
   23       10.940588   0.000000
   24       10.946178   0.000000
   25       12.696007   0.000000
   26       12.701106   0.000000
   27       14.342280   0.000000
   28       14.345825   0.000000
   29       15.862778   0.000000
   30       16.017270   0.000000
   31       16.285859   0.000000
   32       16.433196   0.000000
   33       17.954268   0.000000
   34       18.043727   0.000000
   35       18.695994   0.000000
   36       18.782373   0.000000
   37       19.997424   0.000000
   38       20.056219   0.000000
   39       20.269574   0.000000
   40       20.305738   0.000000
   41       20.584266   0.000000
   42       20.654265   0.000000
   43       21.931716   0.000000
   44       22.150552   0.000000
   45       22.825704   0.000000
   46       23.095582   0.000000
   47       23.116473   0.000000
   48       23.689177   0.000000
   49       24.070764   0.000000
   50       24.392662   0.000000
   51       25.512111   0.000000
   52       25.939672   0.000000
   53       26.136754   0.000000
   54       26.640670   0.000000
   55       27.450434   0.000000
   56       28.485602   0.000000
   57       28.606850   0.000000
   58       29.204342   0.000000
   59       29.459957   0.000000
   60       30.015422   0.000000
   61       30.607196   0.000000
   62       31.293184   0.000000
   63       31.900374   0.000000
   64       33.633126   0.000000
 
 -0.2500000E+00  0.2500000E+00 -0.7632356E-16  0.1562500E-01
    1      -34.313601   1.000000
    2      -34.312981   1.000000
    3      -34.306109   1.000000
    4      -34.305333   1.000000
    5      -27.345260   1.000000
    6      -27.343420   1.000000
    7      -27.342363   1.000000
    8      -27.340177   1.000000
    9      -27.338944   1.000000
   10      -27.336684   1.000000
   11      -22.740981   1.000000
   12      -22.735025   1.000000
   13       -8.683827   1.000000
   14       -8.679144   1.000000
   15       -0.208211   1.000000
   16       -0.189016   1.000000
   17        1.596069   1.000000
   18        1.621772   1.000000
   19        8.167072   0.000000
   20        8.172473   0.000000
   21        9.440169   0.000000
   22        9.442344   0.000000
   23       10.936757   0.000000
   24       10.943933   0.000000
   25       12.260113   0.000000
   26       12.269742   0.000000
   27       13.314996   0.000000
   28       13.317359   0.000000
   29       14.919881   0.000000
   30       14.957700   0.000000
   31       16.177620   0.000000
   32       16.237349   0.000000
   33       16.602681   0.000000
   34       16.698272   0.000000
   35       18.922273   0.000000
   36       18.964994   0.000000
   37       19.762356   0.000000
   38       19.787317   0.000000
   39       21.139766   0.000000
   40       21.147505   0.000000
   41       21.273407   0.000000
   42       21.966267   0.000000
   43       22.367684   0.000000
   44       22.387079   0.000000
   45       22.604985   0.000000
   46       23.146081   0.000000
   47       23.227268   0.000000
   48       23.307064   0.000000
   49       24.375895   0.000000
   50       24.455130   0.000000
   51       26.790848   0.000000
   52       26.816854   0.000000
   53       27.251283   0.000000
   54       27.744179   0.000000
   55       27.902094   0.000000
   56       28.243405   0.000000
   57       28.586755   0.000000
   58       28.678436   0.000000
   59       29.168322   0.000000
   60       29.549783   0.000000
   61       30.294147   0.000000
   62       31.668994   0.000000
   63       33.536124   0.000000
   64       34.814978   0.000000
 
  0.1540744E-32  0.5000000E+00 -0.5551115E-16  0.1562500E-01
    1      -34.333173   1.000000
    2      -34.332661   1.000000
    3      -34.321925   1.000000
    4      -34.321912   1.000000
    5      -27.357502   1.000000
    6      -27.355915   1.000000
    7      -27.352495   1.000000
    8      -27.352265   1.000000
    9      -27.350481   1.000000
   10      -27.348516   1.000000
   11      -22.739849   1.000000
   12      -22.734787   1.000000
   13       -8.705447   1.000000
   14       -8.700650   1.000000
   15       -0.468808   1.000000
   16       -0.465158   1.000000
   17        2.472468   1.000000
   18        2.476679   1.000000
   19        6.612699   0.000000
   20        6.614025   0.000000
   21       11.053473   0.000000
   22       11.053664   0.000000
   23       11.226704   0.000000
   24       11.228759   0.000000
   25       11.327096   0.000000
   26       11.333087   0.000000
   27       12.981409   0.000000
   28       12.982812   0.000000
   29       15.936499   0.000000
   30       15.991982   0.000000
   31       16.127937   0.000000
   32       16.279335   0.000000
   33       17.012907   0.000000
   34       17.051224   0.000000
   35       18.085988   0.000000
   36       18.123318   0.000000
   37       18.197556   0.000000
   38       18.229444   0.000000
   39       20.445771   0.000000
   40       20.575092   0.000000
   41       21.240925   0.000000
   42       21.295016   0.000000
   43       21.640726   0.000000
   44       21.905988   0.000000
   45       24.726140   0.000000
   46       24.914074   0.000000
   47       24.993438   0.000000
   48       25.036508   0.000000
   49       25.819106   0.000000
   50       25.855936   0.000000
   51       26.158868   0.000000
   52       26.341843   0.000000
   53       26.525496   0.000000
   54       26.771945   0.000000
   55       27.767821   0.000000
   56       27.822825   0.000000
   57       27.906754   0.000000
   58       28.968615   0.000000
   59       31.585924   0.000000
   60       32.135532   0.000000
   61       32.561959   0.000000
   62       32.879914   0.000000
   63       33.386592   0.000000
   64       34.041726   0.000000
 
  0.2500000E+00  0.5000000E+00  0.2775558E-16  0.1562500E-01
    1      -34.322579   1.000000
    2      -34.322033   1.000000
    3      -34.317805   1.000000
    4      -34.317246   1.000000
    5      -27.352931   1.000000
    6      -27.349391   1.000000
    7      -27.348360   1.000000
    8      -27.346679   1.000000
    9      -27.344367   1.000000
   10      -27.343066   1.000000
   11      -22.719270   1.000000
   12      -22.714130   1.000000
   13       -8.741910   1.000000
   14       -8.737173   1.000000
   15       -0.331198   1.000000
   16       -0.315739   1.000000
   17        1.310344   1.000000
   18        1.330286   1.000000
   19        7.756453   0.000000
   20        7.758317   0.000000
   21        9.367272   0.000000
   22        9.368431   0.000000
   23       10.942002   0.000000
   24       10.944772   0.000000
   25       12.697086   0.000000
   26       12.700025   0.000000
   27       14.343114   0.000000
   28       14.344988   0.000000
   29       15.899116   0.000000
   30       15.935995   0.000000
   31       16.358944   0.000000
   32       16.432203   0.000000
   33       17.973994   0.000000
   34       18.018938   0.000000
   35       18.705992   0.000000
   36       18.886498   0.000000
   37       19.922852   0.000000
   38       20.110630   0.000000
   39       20.168617   0.000000
   40       20.451361   0.000000
   41       20.574863   0.000000
   42       20.829415   0.000000
   43       21.993738   0.000000
   44       22.259143   0.000000
   45       22.596869   0.000000
   46       22.853373   0.000000
   47       23.508423   0.000000
   48       23.798373   0.000000
   49       23.809460   0.000000
   50       24.314908   0.000000
   51       25.616788   0.000000
   52       26.131443   0.000000
   53       26.329212   0.000000
   54       26.633858   0.000000
   55       27.325620   0.000000
   56       27.942455   0.000000
   57       28.261546   0.000000
   58       28.818244   0.000000
   59       29.042133   0.000000
   60       30.501313   0.000000
   61       30.888319   0.000000
   62       31.214850   0.000000
   63       31.963314   0.000000
   64       34.456887   0.000000
 
  0.5000000E+00  0.5000000E+00  0.5551115E-16  0.1562500E-01
    1      -34.331160   1.000000
    2      -34.330398   1.000000
    3      -34.317505   1.000000
    4      -34.316490   1.000000
    5      -27.357823   1.000000
    6      -27.354983   1.000000
    7      -27.349343   1.000000
    8      -27.346853   1.000000
    9      -27.345178   1.000000
   10      -27.343159   1.000000
   11      -22.698100   1.000000
   12      -22.692749   1.000000
   13       -8.796308   1.000000
   14       -8.791649   1.000000
   15       -0.443324   1.000000
   16       -0.419764   1.000000
   17        1.269647   1.000000
   18        1.300406   1.000000
   19        6.731593   0.000000
   20        6.733142   0.000000
   21        8.267895   0.000000
   22        8.270673   0.000000
   23       11.736836   0.000000
   24       11.740669   0.000000
   25       16.080229   0.000000
   26       16.091285   0.000000
   27       16.093221   0.000000
   28       16.101986   0.000000
   29       16.307645   0.000000
   30       16.322900   0.000000
   31       17.079863   0.000000
   32       17.122799   0.000000
   33       18.576621   0.000000
   34       18.653619   0.000000
   35       19.100910   0.000000
   36       19.180644   0.000000
   37       19.583641   0.000000
   38       19.674770   0.000000
   39       19.742778   0.000000
   40       19.916530   0.000000
   41       19.951289   0.000000
   42       20.025791   0.000000
   43       20.252018   0.000000
   44       20.279340   0.000000
   45       20.426428   0.000000
   46       20.800638   0.000000
   47       22.834114   0.000000
   48       23.018891   0.000000
   49       23.741271   0.000000
   50       23.823333   0.000000
   51       23.923783   0.000000
   52       23.978185   0.000000
   53       24.244437   0.000000
   54       24.297302   0.000000
   55       25.381848   0.000000
   56       25.849313   0.000000
   57       27.212083   0.000000
   58       27.928850   0.000000
   59       29.722575   0.000000
   60       31.362550   0.000000
   61       32.438577   0.000000
   62       33.643693   0.000000
   63       35.079128   0.000000
   64       35.756450   0.000000
 
 -0.2500000E+00  0.5000000E+00 -0.6938894E-16  0.1562500E-01
    1      -34.322578   1.000000
    2      -34.322032   1.000000
    3      -34.317804   1.000000
    4      -34.317245   1.000000
    5      -27.352930   1.000000
    6      -27.349390   1.000000
    7      -27.348359   1.000000
    8      -27.346678   1.000000
    9      -27.344367   1.000000
   10      -27.343066   1.000000
   11      -22.719270   1.000000
   12      -22.714129   1.000000
   13       -8.741910   1.000000
   14       -8.737173   1.000000
   15       -0.331198   1.000000
   16       -0.315739   1.000000
   17        1.310344   1.000000
   18        1.330286   1.000000
   19        7.756453   0.000000
   20        7.758317   0.000000
   21        9.367272   0.000000
   22        9.368431   0.000000
   23       10.942002   0.000000
   24       10.944772   0.000000
   25       12.697087   0.000000
   26       12.700024   0.000000
   27       14.343113   0.000000
   28       14.344991   0.000000
   29       15.897852   0.000000
   30       15.944879   0.000000
   31       16.323645   0.000000
   32       16.427639   0.000000
   33       17.945858   0.000000
   34       18.070811   0.000000
   35       18.743264   0.000000
   36       18.865366   0.000000
   37       19.908660   0.000000
   38       19.953363   0.000000
   39       20.209392   0.000000
   40       20.355160   0.000000
   41       20.610044   0.000000
   42       21.279910   0.000000
   43       21.805996   0.000000
   44       22.294344   0.000000
   45       22.422239   0.000000
   46       23.277632   0.000000
   47       23.475809   0.000000
   48       23.608213   0.000000
   49       24.309154   0.000000
   50       24.364227   0.000000
   51       25.790217   0.000000
   52       25.812774   0.000000
   53       26.132497   0.000000
   54       26.617198   0.000000
   55       27.649332   0.000000
   56       28.121575   0.000000
   57       28.646165   0.000000
   58       29.293386   0.000000
   59       29.368307   0.000000
   60       30.279791   0.000000
   61       30.524064   0.000000
   62       31.197528   0.000000
   63       32.838906   0.000000
   64       32.855532   0.000000
 
 -0.7703720E-33 -0.2500000E+00  0.2775558E-16  0.1562500E-01
    1      -34.311165   1.000000
    2      -34.311124   1.000000
    3      -34.309531   1.000000
    4      -34.309040   1.000000
    5      -27.347182   1.000000
    6      -27.346455   1.000000
    7      -27.342608   1.000000
    8      -27.342504   1.000000
    9      -27.340791   1.000000
   10      -27.339394   1.000000
   11      -22.804115   1.000000
   12      -22.799082   1.000000
   13       -8.496728   1.000000
   14       -8.491956   1.000000
   15        0.502843   1.000000
   16        0.508456   1.000000
   17        2.780517   1.000000
   18        2.788832   1.000000
   19        6.339052   0.000000
   20        6.339790   0.000000
   21       10.594639   0.000000
   22       10.596024   0.000000
   23       11.681581   0.000000
   24       11.681692   0.000000
   25       11.946150   0.000000
   26       11.949358   0.000000
   27       12.403129   0.000000
   28       12.405832   0.000000
   29       13.611402   0.000000
   30       13.643440   0.000000
   31       13.806672   0.000000
   32       13.861408   0.000000
   33       16.371774   0.000000
   34       16.430580   0.000000
   35       18.327501   0.000000
   36       18.366411   0.000000
   37       18.505399   0.000000
   38       18.609781   0.000000
   39       20.505495   0.000000
   40       20.557300   0.000000
   41       20.818063   0.000000
   42       20.926525   0.000000
   43       21.636920   0.000000
   44       21.669490   0.000000
   45       21.730809   0.000000
   46       21.954155   0.000000
   47       23.764511   0.000000
   48       24.571548   0.000000
   49       25.855456   0.000000
   50       26.025712   0.000000
   51       27.520364   0.000000
   52       28.359008   0.000000
   53       28.802935   0.000000
   54       29.479103   0.000000
   55       29.990614   0.000000
   56       30.906926   0.000000
   57       31.438580   0.000000
   58       32.354920   0.000000
   59       32.730060   0.000000
   60       33.346943   0.000000
   61       33.816576   0.000000
   62       34.891490   0.000000
   63       35.207960   0.000000
   64       36.000221   0.000000
 
  0.2500000E+00 -0.2500000E+00  0.7632356E-16  0.1562500E-01
    1      -34.313601   1.000000
    2      -34.312981   1.000000
    3      -34.306109   1.000000
    4      -34.305332   1.000000
    5      -27.345260   1.000000
    6      -27.343420   1.000000
    7      -27.342363   1.000000
    8      -27.340177   1.000000
    9      -27.338944   1.000000
   10      -27.336685   1.000000
   11      -22.740981   1.000000
   12      -22.735025   1.000000
   13       -8.683827   1.000000
   14       -8.679144   1.000000
   15       -0.208211   1.000000
   16       -0.189016   1.000000
   17        1.596069   1.000000
   18        1.621772   1.000000
   19        8.167072   0.000000
   20        8.172473   0.000000
   21        9.440169   0.000000
   22        9.442344   0.000000
   23       10.936757   0.000000
   24       10.943933   0.000000
   25       12.260113   0.000000
   26       12.269742   0.000000
   27       13.314996   0.000000
   28       13.317359   0.000000
   29       14.919574   0.000000
   30       14.955832   0.000000
   31       16.120939   0.000000
   32       16.211169   0.000000
   33       16.589263   0.000000
   34       16.702519   0.000000
   35       18.892268   0.000000
   36       18.947123   0.000000
   37       19.755852   0.000000
   38       19.962532   0.000000
   39       20.980435   0.000000
   40       21.137463   0.000000
   41       21.223816   0.000000
   42       21.547852   0.000000
   43       22.297933   0.000000
   44       22.343814   0.000000