 vasp.5.4.4.18Apr17-6-g9f103f2a35 (build Nov 03 2018 10:20:46) complex          
  
 executed on             LinuxIFC date 2018.11.10  19:48:09
 running on   32 total cores
 distrk:  each k-point on   16 cores,    2 groups
 distr:  one band on NCORES_PER_BAND=   1 cores,   16 groups


--------------------------------------------------------------------------------------------------------


 INCAR:
 POTCAR:    PAW Og, JanMewes Oct 18               

 ----------------------------------------------------------------------------- 
|                                                                             |
|           W    W    AA    RRRRR   N    N  II  N    N   GGGG   !!!           |
|           W    W   A  A   R    R  NN   N  II  NN   N  G    G  !!!           |
|           W    W  A    A  R    R  N N  N  II  N N  N  G       !!!           |
|           W WW W  AAAAAA  RRRRR   N  N N  II  N  N N  G  GGG   !            |
|           WW  WW  A    A  R   R   N   NN  II  N   NN  G    G                |
|           W    W  A    A  R    R  N    N  II  N    N   GGGG   !!!           |
|                                                                             |
|      For optimal performance we recommend to set                            |
|        NCORE= 4 - approx SQRT( number of cores)                             |
|      NCORE specifies how many cores store one orbital (NPAR=cpu/NCORE).     |
|      This setting can  greatly improve the performance of VASP for DFT.     |
|      The default,   NCORE=1            might be grossly inefficient         |
|      on modern multi-core architectures or massively parallel machines.     |
|      Do your own testing !!!!                                               |
|      Unfortunately you need to use the default for GW and RPA calculations. |
|      (for HF NCORE is supported but not extensively tested yet)             |
|                                                                             |
 ----------------------------------------------------------------------------- 


 ----------------------------------------------------------------------------- 
|                                                                             |
|           W    W    AA    RRRRR   N    N  II  N    N   GGGG   !!!           |
|           W    W   A  A   R    R  NN   N  II  NN   N  G    G  !!!           |
|           W    W  A    A  R    R  N N  N  II  N N  N  G       !!!           |
|           W WW W  AAAAAA  RRRRR   N  N N  II  N  N N  G  GGG   !            |
|           WW  WW  A    A  R   R   N   NN  II  N   NN  G    G                |
|           W    W  A    A  R    R  N    N  II  N    N   GGGG   !!!           |
|                                                                             |
|      You have enabled k-point parallelism (KPAR>1).                         |
|      This developmental code was originally  written by Paul Kent at ORNL,  |
|      and carefully double checked in Vienna.                                |
|      GW as well as linear response parallelism added by Martijn Marsman     |
|      and Georg Kresse.                                                      |
|      Carefully verify results versus KPAR=1.                                |
|      Report problems to Paul Kent and Vienna.                               |
|                                                                             |
 ----------------------------------------------------------------------------- 

 POTCAR:    PAW Og, JanMewes Oct 18               
  local pseudopotential read in
  partial core-charges read in
  partial kinetic energy density read in
  kinetic energy density of atom read in
  atomic valenz-charges read in
  non local Contribution for L=           2  read in
    real space projection operators read in
  non local Contribution for L=           2  read in
    real space projection operators read in
  non local Contribution for L=           0  read in
    real space projection operators read in
  non local Contribution for L=           0  read in
    real space projection operators read in
  non local Contribution for L=           1  read in
    real space projection operators read in
  non local Contribution for L=           1  read in
    real space projection operators read in
    PAW grid and wavefunctions read in
 
   number of l-projection  operators is LMAX  =           6
   number of lm-projection operators is LMMAX =          18
 
  PAW Og, JanMewes Oct 18               :
 energy of atom  1       EATOM=-2640.5573
 kinetic energy error for atom=    0.6524 (will be added to EATOM!!)
 
 
 POSCAR: Og_FCC                                  
  positions in direct lattice
  velocities in cartesian coordinates
 exchange correlation table for  LEXCH =        8
   RHO(1)=    0.500       N(1)  =     2000
   RHO(2)=  100.500       N(2)  =     4000
 


--------------------------------------------------------------------------------------------------------


 ion  position               nearest neighbor table
   1  0.000  0.000  0.000-
 

IMPORTANT INFORMATION: All symmetrisations will be switched off!
NOSYMM: (Re-)initialisation of all symmetry stuff for point group C_1.

 
 
 KPOINTS: k-points                                

Automatic generation of k-mesh.
Space group operators:
 irot       det(A)        alpha          n_x          n_y          n_z        tau_x        tau_y        tau_z
    1     1.000000     0.000000     1.000000     0.000000     0.000000     0.000000     0.000000     0.000000
 
 Subroutine IBZKPT returns following result:
 ===========================================
 
 Found     64 irreducible k-points:
 
 Following reciprocal coordinates:
            Coordinates               Weight
  0.000000  0.000000  0.000000      1.000000
  0.250000  0.000000  0.000000      1.000000
  0.500000  0.000000  0.000000      1.000000
 -0.250000 -0.000000 -0.000000      1.000000
  0.000000  0.250000 -0.000000      1.000000
  0.250000  0.250000  0.000000      1.000000
  0.500000  0.250000  0.000000      1.000000
 -0.250000  0.250000 -0.000000      1.000000
  0.000000  0.500000 -0.000000      1.000000
  0.250000  0.500000  0.000000      1.000000
  0.500000  0.500000  0.000000      1.000000
 -0.250000  0.500000 -0.000000      1.000000
 -0.000000 -0.250000  0.000000      1.000000
  0.250000 -0.250000  0.000000      1.000000
  0.500000 -0.250000  0.000000      1.000000
 -0.250000 -0.250000 -0.000000      1.000000
  0.000000  0.000000  0.250000      1.000000
  0.250000 -0.000000  0.250000      1.000000
  0.500000 -0.000000  0.250000      1.000000
 -0.250000 -0.000000  0.250000      1.000000
 -0.000000  0.250000  0.250000      1.000000
  0.250000  0.250000  0.250000      1.000000
  0.500000  0.250000  0.250000      1.000000
 -0.250000  0.250000  0.250000      1.000000
 -0.000000  0.500000  0.250000      1.000000
  0.250000  0.500000  0.250000      1.000000
  0.500000  0.500000  0.250000      1.000000
 -0.250000  0.500000  0.250000      1.000000
  0.000000 -0.250000  0.250000      1.000000
  0.250000 -0.250000  0.250000      1.000000
  0.500000 -0.250000  0.250000      1.000000
 -0.250000 -0.250000  0.250000      1.000000
  0.000000  0.000000  0.500000      1.000000
  0.250000  0.000000  0.500000      1.000000
  0.500000 -0.000000  0.500000      1.000000
 -0.250000  0.000000  0.500000      1.000000
 -0.000000  0.250000  0.500000      1.000000
  0.250000  0.250000  0.500000      1.000000
  0.500000  0.250000  0.500000      1.000000
 -0.250000  0.250000  0.500000      1.000000
 -0.000000  0.500000  0.500000      1.000000
  0.250000  0.500000  0.500000      1.000000
  0.500000  0.500000  0.500000      1.000000
 -0.250000  0.500000  0.500000      1.000000
  0.000000 -0.250000  0.500000      1.000000
  0.250000 -0.250000  0.500000      1.000000
  0.500000 -0.250000  0.500000      1.000000
 -0.250000 -0.250000  0.500000      1.000000
  0.000000  0.000000 -0.250000      1.000000
  0.250000  0.000000 -0.250000      1.000000
  0.500000  0.000000 -0.250000      1.000000
 -0.250000  0.000000 -0.250000      1.000000
  0.000000  0.250000 -0.250000      1.000000
  0.250000  0.250000 -0.250000      1.000000
  0.500000  0.250000 -0.250000      1.000000
 -0.250000  0.250000 -0.250000      1.000000
  0.000000  0.500000 -0.250000      1.000000
  0.250000  0.500000 -0.250000      1.000000
  0.500000  0.500000 -0.250000      1.000000
 -0.250000  0.500000 -0.250000      1.000000
  0.000000 -0.250000 -0.250000      1.000000
  0.250000 -0.250000 -0.250000      1.000000
  0.500000 -0.250000 -0.250000      1.000000
 -0.250000 -0.250000 -0.250000      1.000000
 
 Following cartesian coordinates:
            Coordinates               Weight
  0.000000  0.000000  0.000000      1.000000
  0.057573 -0.033240 -0.023504      1.000000
  0.115145 -0.066479 -0.047008      1.000000
 -0.057573  0.033240  0.023504      1.000000
  0.000000  0.066479 -0.023504      1.000000
  0.057573  0.033240 -0.047008      1.000000
  0.115145  0.000000 -0.070512      1.000000
 -0.057573  0.099719  0.000000      1.000000
  0.000000  0.132958 -0.047008      1.000000
  0.057573  0.099719 -0.070512      1.000000
  0.115145  0.066479 -0.094016      1.000000
 -0.057573  0.166198 -0.023504      1.000000
 -0.000000 -0.066479  0.023504      1.000000
  0.057573 -0.099719 -0.000000      1.000000
  0.115145 -0.132958 -0.023504      1.000000
 -0.057573 -0.033240  0.047008      1.000000
 -0.000000  0.000000  0.070512      1.000000
  0.057573 -0.033240  0.047008      1.000000
  0.115145 -0.066479  0.023504      1.000000
 -0.057573  0.033240  0.094016      1.000000
 -0.000000  0.066479  0.047008      1.000000
  0.057573  0.033240  0.023504      1.000000
  0.115145  0.000000 -0.000000      1.000000
 -0.057573  0.099719  0.070512      1.000000
 -0.000000  0.132958  0.023504      1.000000
  0.057573  0.099719  0.000000      1.000000
  0.115145  0.066479 -0.023504      1.000000
 -0.057573  0.166198  0.047008      1.000000
 -0.000000 -0.066479  0.094016      1.000000
  0.057573 -0.099719  0.070512      1.000000
  0.115145 -0.132958  0.047008      1.000000
 -0.057573 -0.033240  0.117520      1.000000
 -0.000000  0.000000  0.141023      1.000000
  0.057573 -0.033240  0.117520      1.000000
  0.115145 -0.066479  0.094016      1.000000
 -0.057573  0.033240  0.164527      1.000000
 -0.000000  0.066479  0.117520      1.000000
  0.057573  0.033240  0.094016      1.000000
  0.115145  0.000000  0.070512      1.000000
 -0.057573  0.099719  0.141023      1.000000
 -0.000000  0.132958  0.094016      1.000000
  0.057573  0.099719  0.070512      1.000000
  0.115145  0.066479  0.047008      1.000000
 -0.057573  0.166198  0.117520      1.000000
 -0.000000 -0.066479  0.164527      1.000000
  0.057573 -0.099719  0.141023      1.000000
  0.115145 -0.132958  0.117520      1.000000
 -0.057573 -0.033240  0.188031      1.000000
  0.000000 -0.000000 -0.070512      1.000000
  0.057573 -0.033240 -0.094016      1.000000
  0.115145 -0.066479 -0.117520      1.000000
 -0.057573  0.033240 -0.047008      1.000000
  0.000000  0.066479 -0.094016      1.000000
  0.057573  0.033240 -0.117520      1.000000
  0.115145 -0.000000 -0.141023      1.000000
 -0.057573  0.099719 -0.070512      1.000000
  0.000000  0.132958 -0.117520      1.000000
  0.057573  0.099719 -0.141023      1.000000
  0.115145  0.066479 -0.164527      1.000000
 -0.057573  0.166198 -0.094016      1.000000
  0.000000 -0.066479 -0.047008      1.000000
  0.057573 -0.099719 -0.070512      1.000000
  0.115145 -0.132958 -0.094016      1.000000
 -0.057573 -0.033240 -0.023504      1.000000
 
 
 Subroutine IBZKPT_HF returns following result:
 ==============================================
 
 Found     64 k-points in 1st BZ
 the following     64 k-points will be used (e.g. in the exchange kernel)
 Following reciprocal coordinates:   # in IRBZ
  0.000000  0.000000  0.000000    0.01562500   1 t-inv F
  0.250000  0.000000  0.000000    0.01562500   2 t-inv F
  0.500000  0.000000  0.000000    0.01562500   3 t-inv F
 -0.250000 -0.000000 -0.000000    0.01562500   4 t-inv F
  0.000000  0.250000 -0.000000    0.01562500   5 t-inv F
  0.250000  0.250000  0.000000    0.01562500   6 t-inv F
  0.500000  0.250000  0.000000    0.01562500   7 t-inv F
 -0.250000  0.250000 -0.000000    0.01562500   8 t-inv F
  0.000000  0.500000 -0.000000    0.01562500   9 t-inv F
  0.250000  0.500000  0.000000    0.01562500  10 t-inv F
  0.500000  0.500000  0.000000    0.01562500  11 t-inv F
 -0.250000  0.500000 -0.000000    0.01562500  12 t-inv F
 -0.000000 -0.250000  0.000000    0.01562500  13 t-inv F
  0.250000 -0.250000  0.000000    0.01562500  14 t-inv F
  0.500000 -0.250000  0.000000    0.01562500  15 t-inv F
 -0.250000 -0.250000 -0.000000    0.01562500  16 t-inv F
  0.000000  0.000000  0.250000    0.01562500  17 t-inv F
  0.250000 -0.000000  0.250000    0.01562500  18 t-inv F
  0.500000 -0.000000  0.250000    0.01562500  19 t-inv F
 -0.250000 -0.000000  0.250000    0.01562500  20 t-inv F
 -0.000000  0.250000  0.250000    0.01562500  21 t-inv F
  0.250000  0.250000  0.250000    0.01562500  22 t-inv F
  0.500000  0.250000  0.250000    0.01562500  23 t-inv F
 -0.250000  0.250000  0.250000    0.01562500  24 t-inv F
 -0.000000  0.500000  0.250000    0.01562500  25 t-inv F
  0.250000  0.500000  0.250000    0.01562500  26 t-inv F
  0.500000  0.500000  0.250000    0.01562500  27 t-inv F
 -0.250000  0.500000  0.250000    0.01562500  28 t-inv F
  0.000000 -0.250000  0.250000    0.01562500  29 t-inv F
  0.250000 -0.250000  0.250000    0.01562500  30 t-inv F
  0.500000 -0.250000  0.250000    0.01562500  31 t-inv F
 -0.250000 -0.250000  0.250000    0.01562500  32 t-inv F
  0.000000  0.000000  0.500000    0.01562500  33 t-inv F
  0.250000  0.000000  0.500000    0.01562500  34 t-inv F
  0.500000 -0.000000  0.500000    0.01562500  35 t-inv F
 -0.250000  0.000000  0.500000    0.01562500  36 t-inv F
 -0.000000  0.250000  0.500000    0.01562500  37 t-inv F
  0.250000  0.250000  0.500000    0.01562500  38 t-inv F
  0.500000  0.250000  0.500000    0.01562500  39 t-inv F
 -0.250000  0.250000  0.500000    0.01562500  40 t-inv F
 -0.000000  0.500000  0.500000    0.01562500  41 t-inv F
  0.250000  0.500000  0.500000    0.01562500  42 t-inv F
  0.500000  0.500000  0.500000    0.01562500  43 t-inv F
 -0.250000  0.500000  0.500000    0.01562500  44 t-inv F
  0.000000 -0.250000  0.500000    0.01562500  45 t-inv F
  0.250000 -0.250000  0.500000    0.01562500  46 t-inv F
  0.500000 -0.250000  0.500000    0.01562500  47 t-inv F
 -0.250000 -0.250000  0.500000    0.01562500  48 t-inv F
  0.000000  0.000000 -0.250000    0.01562500  49 t-inv F
  0.250000  0.000000 -0.250000    0.01562500  50 t-inv F
  0.500000  0.000000 -0.250000    0.01562500  51 t-inv F
 -0.250000  0.000000 -0.250000    0.01562500  52 t-inv F
  0.000000  0.250000 -0.250000    0.01562500  53 t-inv F
  0.250000  0.250000 -0.250000    0.01562500  54 t-inv F
  0.500000  0.250000 -0.250000    0.01562500  55 t-inv F
 -0.250000  0.250000 -0.250000    0.01562500  56 t-inv F
  0.000000  0.500000 -0.250000    0.01562500  57 t-inv F
  0.250000  0.500000 -0.250000    0.01562500  58 t-inv F
  0.500000  0.500000 -0.250000    0.01562500  59 t-inv F
 -0.250000  0.500000 -0.250000    0.01562500  60 t-inv F
  0.000000 -0.250000 -0.250000    0.01562500  61 t-inv F
  0.250000 -0.250000 -0.250000    0.01562500  62 t-inv F
  0.500000 -0.250000 -0.250000    0.01562500  63 t-inv F
 -0.250000 -0.250000 -0.250000    0.01562500  64 t-inv F

 ----------------------------------------------------------------------------- 
|                                                                             |
|           W    W    AA    RRRRR   N    N  II  N    N   GGGG   !!!           |
|           W    W   A  A   R    R  NN   N  II  NN   N  G    G  !!!           |
|           W    W  A    A  R    R  N N  N  II  N N  N  G       !!!           |
|           W WW W  AAAAAA  RRRRR   N  N N  II  N  N N  G  GGG   !            |
|           WW  WW  A    A  R   R   N   NN  II  N   NN  G    G                |
|           W    W  A    A  R    R  N    N  II  N    N   GGGG   !!!           |
|                                                                             |
|      The number of bands has been changed from the values supplied          |
|      in the INCAR file. This is a result of running the parallel version.   |
|      The orbitals not found in the WAVECAR file will be initialized with    |
|      random numbers, which is usually adequate. For correlated              |
|      calculations, however, you should redo the groundstate calculation.    |
|      I found NBANDS    =       56  now  NBANDS  =      64                   |
|                                                                             |
 ----------------------------------------------------------------------------- 



--------------------------------------------------------------------------------------------------------




 Dimension of arrays:
   k-points           NKPTS =     64   k-points in BZ     NKDIM =     64   number of bands    NBANDS=     64
   number of dos      NEDOS =    301   number of ions     NIONS =      1
   non local maximal  LDIM  =      6   non local SUM 2l+1 LMDIM =     18
   total plane-waves  NPLWV =  21952
   max r-space proj   IRMAX =      1   max aug-charges    IRDMAX= 182324
   dimension x,y,z NGX =    28 NGY =   28 NGZ =   28
   dimension x,y,z NGXF=    56 NGYF=   56 NGZF=   56
   support grid    NGXF=   112 NGYF=  112 NGZF=  112
   ions per type =               1
   NGX,Y,Z   is equivalent  to a cutoff of  10.72, 10.72, 10.72 a.u.
   NGXF,Y,Z  is equivalent  to a cutoff of  21.44, 21.44, 21.44 a.u.

 SYSTEM =  Og_FCC                                  
 POSCAR =  Og_FCC                                  

 Startparameter for this run:
   NWRITE =      1    write-flag & timer
   PREC   = accura    normal or accurate (medium, high low for compatibility)
   ISTART =      1    job   : 0-new  1-cont  2-samecut
   ICHARG =      0    charge: 1-file 2-atom 10-const
   ISPIN  =      1    spin polarized calculation?
   LNONCOLLINEAR =      T non collinear calculations
   LSORBIT =      T    spin-orbit coupling
   INIWAV =      1    electr: 0-lowe 1-rand  2-diag
   LASPH  =      F    aspherical Exc in radial PAW
   METAGGA=      F    non-selfconsistent MetaGGA calc.

 Electronic Relaxation 1
   ENCUT  =  300.0 eV  22.05 Ry    4.70 a.u.   6.13  6.13  6.13*2*pi/ulx,y,z
   ENINI  =  300.0     initial cutoff
   ENAUG  =  361.0 eV  augmentation charge cutoff
   NELM   =     60;   NELMIN=  2; NELMDL=  0     # of ELM steps 
   EDIFF  = 0.1E-07   stopping-criterion for ELM
   LREAL  =      F    real-space projection
   NLSPLINE    = F    spline interpolate recip. space projectors
   LCOMPAT=      F    compatible to vasp.4.4
   GGA_COMPAT  = F    GGA compatible to vasp.4.4-vasp.4.6
   LMAXPAW     = -100 max onsite density
   LMAXMIX     =    2 max onsite mixed and CHGCAR
   VOSKOWN=      0    Vosko Wilk Nusair interpolation
   ROPT   =    0.00000
 Ionic relaxation
   EDIFFG = 0.1E-04   stopping-criterion for IOM
   NSW    =      1    number of steps for IOM
   NBLOCK =      1;   KBLOCK =      1    inner block; outer block 
   IBRION =     -1    ionic relax: 0-MD 1-quasi-New 2-CG
   NFREE  =      5    steps in history (QN), initial steepest desc. (CG)
   ISIF   =      3    stress and relaxation
   IWAVPR =     10    prediction:  0-non 1-charg 2-wave 3-comb
   ISYM   =      0    0-nonsym 1-usesym 2-fastsym
   LCORR  =      T    Harris-Foulkes like correction to forces

   POTIM  = 0.1000    time-step for ionic-motion
   TEIN   =    0.0    initial temperature
   TEBEG  =    0.0;   TEEND  =   0.0 temperature during run
   SMASS  =  -3.00    Nose mass-parameter (am)
   estimated Nose-frequenzy (Omega)   =  0.10E-29 period in steps =****** mass=  -0.431E-27a.u.
   SCALEE = 1.0000    scale energy and forces
   NPACO  =    256;   APACO  = 16.0  distance and # of slots for P.C.
   PSTRESS=    0.0 pullay stress

  Mass of Ions in am
   POMASS =   0.01
  Ionic Valenz
   ZVAL   =  18.00
  Atomic Wigner-Seitz radii
   RWIGS  =  -1.00
  virtual crystal weights 
   VCA    =   1.00
   NELECT =      18.0000    total number of electrons
   NUPDOWN=      -1.0000    fix difference up-down

 DOS related values:
   EMIN   =  10.00;   EMAX   =-10.00  energy-range for DOS
   EFERMI =   0.00
   ISMEAR =     0;   SIGMA  =   0.00  broadening in eV -4-tet -1-fermi 0-gaus

 Electronic relaxation 2 (details)
   IALGO  =     53    algorithm
   LDIAG  =      T    sub-space diagonalisation (order eigenvalues)
   LSUBROT=      F    optimize rotation matrix (better conditioning)
   TURBO    =      0    0=normal 1=particle mesh
   IRESTART =      0    0=no restart 2=restart with 2 vectors
   NREBOOT  =      0    no. of reboots
   NMIN     =      0    reboot dimension
   EREF     =   0.00    reference energy to select bands
   IMIX   =      4    mixing-type and parameters
     AMIX     =   0.40;   BMIX     =  1.00
     AMIX_MAG =   1.60;   BMIX_MAG =  1.00
     AMIN     =   0.10
     WC   =   100.;   INIMIX=   1;  MIXPRE=   1;  MAXMIX=  50

 Intra band minimization:
   WEIMIN = 0.0000     energy-eigenvalue tresh-hold
   EBREAK =  0.39E-10  absolut break condition
   DEPER  =   0.30     relativ break condition  

   TIME   =   0.40     timestep for ELM

  volume/ion in A,a.u.               =      57.90       390.71
  Fermi-wavevector in a.u.,A,eV,Ry     =   1.109038  2.095777 16.734680  1.229964
  Thomas-Fermi vector in A             =   2.245572
 
 Write flags
   LWAVE        =      T    write WAVECAR
   LDOWNSAMPLE  =      F    k-point downsampling of WAVECAR
   LCHARG       =      F    write CHGCAR
   LVTOT        =      F    write LOCPOT, total local potential
   LVHAR        =      F    write LOCPOT, Hartree potential only
   LELF         =      F    write electronic localiz. function (ELF)
   LORBIT       =      0    0 simple, 1 ext, 2 COOP (PROOUT), +10 PAW based schemes


 Dipole corrections
   LMONO  =      F    monopole corrections only (constant potential shift)
   LDIPOL =      F    correct potential (dipole corrections)
   IDIPOL =      0    1-x, 2-y, 3-z, 4-all directions 
   EPSILON=  1.0000000 bulk dielectric constant

 Exchange correlation treatment:
   GGA     =    PE    GGA type
   LEXCH   =     8    internal setting for exchange type
   VOSKOWN=      0    Vosko Wilk Nusair interpolation
   EXXOEP  =     0    0=HF, 1=EXX-LHF (local Hartree Fock) 2=EXX OEP
   LHFCALC =     T    Hartree Fock is set to
   LSYMGRAD=     F    symmetrize gradient (conserves proper symmetry)
   PRECFOCK=normal    Normal, Fast or Accurate (Low or Medium for compatibility)
   LRHFCALC=     F    long range Hartree Fock
   LRSCOR  =     F    long range correlation only (use DFT for short range part)
   LTHOMAS =     F    Thomas Fermi screening in HF
   LMODELHF=     F    short range full HF, long range fraction AEXX
   ENCUT4O =  -1.0   cutoff for four orbital integrals eV
   LMAXFOCK=     4    L truncation for augmentation on plane wave grid
   LMAXFOCKAE=  -1    L truncation for all-electron charge restoration on plane wave grid
   NMAXFOCKAE=   1    number of basis functions for all-electron charge restoration
   LFOCKAEDFT=     F  apply the AE augmentation even for DFT
   NKREDX  =     1    reduce k-point grid by
   NKREDY  =     1    reduce k-point grid by
   NKREDZ  =     1    reduce k-point grid by
   SHIFTRED=     F    shift reduced grid of Gamma
   HFKIDENT=     F    idential grid for each k-point
   ODDONLY =     F    use only odd q-grid points
   EVENONLY=     F    use only even q-grid points
   HFALPHA =   -1.0000 decay constant for conv. correction
   MCALPHA =    0.0000 extent of test-charge in conv. correction in multipole expansion
   AEXX    =    0.2500 exact exchange contribution
   HFSCREEN=    0.0000 screening length (either q_TF or 0.3 A-1)
   HFSCREENC=   0.0000 screening length for correlation (either q_TF or 0.3 A-1)
   HFRCUT  =    0.0000 spherical cutoff for potential kernel
   ALDAX   =    0.7500 LDA exchange part
   AGGAX   =    0.7500 GGA exchange part
   ALDAC   =    1.0000 LDA correlation
   AGGAC   =    1.0000 GGA correlation
   ENCUTFOCK=  -1.0 apply spherical cutoff to Coloumb kernel
   NBANDSGWLOW=     1    first orbital included in HF term
   NBLOCK_FOCK=    64    blocking factor in FOCK_ACC
 Linear response parameters
   LEPSILON=     F    determine dielectric tensor
   LRPA    =     F    only Hartree local field effects (RPA)
   LNABLA  =     F    use nabla operator in PAW spheres
   LVEL    =     F    velocity operator in full k-point grid
   LINTERFAST=   F  fast interpolation
   KINTER  =     0    interpolate to denser k-point grid
   CSHIFT  =0.1000    complex shift for real part using Kramers Kronig
   OMEGAMAX=  -1.0    maximum frequency
   DEG_THRESHOLD= 0.2000000E-02 threshold for treating states as degnerate
   RTIME   =   -0.100 relaxation time in fs
  (WPLASMAI=    0.000 imaginary part of plasma frequency in eV, 0.658/RTIME)
   DFIELD  = 0.0000000 0.0000000 0.0000000 field for delta impulse in time
 
 Orbital magnetization related:
   ORBITALMAG=     F  switch on orbital magnetization
   LCHIMAG   =     F  perturbation theory with respect to B field
   DQ        =  0.001000  dq finite difference perturbation B field
   LLRAUG    =     F  two centre corrections for induced B field



--------------------------------------------------------------------------------------------------------


 Static calculation
 charge density and potential will be updated during run
 non collinear spin polarized calculation
 Conjugate gradient for all bands (Freysoldt, et al. PRB 79, 241103 (2009))
 perform sub-space diagonalisation
    before iterative eigenvector-optimisation
 modified Broyden-mixing scheme, WC =      100.0
 initial mixing is a Kerker type mixing with AMIX =  0.4000 and BMIX =      1.0000
 Hartree-type preconditioning will be used
 using additional bands           55
 reciprocal scheme for non local part
 use partial core corrections
 no Harris-corrections to forces 
 use gradient corrections 
 use of overlap-Matrix (Vanderbilt PP)
 Gauss-broadening in eV      SIGMA  =   0.00


--------------------------------------------------------------------------------------------------------


  energy-cutoff  :      300.00
  volume of cell :       57.90
      direct lattice vectors                 reciprocal lattice vectors
     4.342345876  0.000000000  0.000000000     0.230290269 -0.132958149 -0.094015609
     2.171172938  3.760581840 -0.000000000     0.000000000  0.265916298 -0.094015609
     2.171172938  1.253527280  3.545510561    -0.000000000  0.000000000  0.282046826

  length of vectors
     4.342345876  4.342345876  4.342345876     0.282046826  0.282046826  0.282046826


 
 old parameters found on file WAVECAR:
  energy-cutoff  :      300.00
  volume of cell :       57.90
      direct lattice vectors                 reciprocal lattice vectors
     4.342345876  0.000000000  0.000000000     0.230290269 -0.132958149 -0.094015609
     2.171172938  3.760581840 -0.000000000     0.000000000  0.265916298 -0.094015609
     2.171172938  1.253527280  3.545510561    -0.000000000  0.000000000  0.282046826

  length of vectors

 
 k-points in units of 2pi/SCALE and weight: k-points                                
   0.00000000  0.00000000  0.00000000       0.016
   0.05757257 -0.03323954 -0.02350390       0.016
   0.11514513 -0.06647907 -0.04700780       0.016
  -0.05757257  0.03323954  0.02350390       0.016
   0.00000000  0.06647907 -0.02350390       0.016
   0.05757257  0.03323954 -0.04700780       0.016
   0.11514513  0.00000000 -0.07051171       0.016
  -0.05757257  0.09971861  0.00000000       0.016
   0.00000000  0.13295815 -0.04700780       0.016
   0.05757257  0.09971861 -0.07051171       0.016
   0.11514513  0.06647907 -0.09401561       0.016
  -0.05757257  0.16619769 -0.02350390       0.016
  -0.00000000 -0.06647907  0.02350390       0.016
   0.05757257 -0.09971861 -0.00000000       0.016
   0.11514513 -0.13295815 -0.02350390       0.016
  -0.05757257 -0.03323954  0.04700780       0.016
  -0.00000000  0.00000000  0.07051171       0.016
   0.05757257 -0.03323954  0.04700780       0.016
   0.11514513 -0.06647907  0.02350390       0.016
  -0.05757257  0.03323954  0.09401561       0.016
  -0.00000000  0.06647907  0.04700780       0.016
   0.05757257  0.03323954  0.02350390       0.016
   0.11514513  0.00000000 -0.00000000       0.016
  -0.05757257  0.09971861  0.07051171       0.016
  -0.00000000  0.13295815  0.02350390       0.016
   0.05757257  0.09971861  0.00000000       0.016
   0.11514513  0.06647907 -0.02350390       0.016
  -0.05757257  0.16619769  0.04700780       0.016
  -0.00000000 -0.06647907  0.09401561       0.016
   0.05757257 -0.09971861  0.07051171       0.016
   0.11514513 -0.13295815  0.04700780       0.016
  -0.05757257 -0.03323954  0.11751951       0.016
  -0.00000000  0.00000000  0.14102341       0.016
   0.05757257 -0.03323954  0.11751951       0.016
   0.11514513 -0.06647907  0.09401561       0.016
  -0.05757257  0.03323954  0.16452732       0.016
  -0.00000000  0.06647907  0.11751951       0.016
   0.05757257  0.03323954  0.09401561       0.016
   0.11514513  0.00000000  0.07051171       0.016
  -0.05757257  0.09971861  0.14102341       0.016
  -0.00000000  0.13295815  0.09401561       0.016
   0.05757257  0.09971861  0.07051171       0.016
   0.11514513  0.06647907  0.04700780       0.016
  -0.05757257  0.16619769  0.11751951       0.016
  -0.00000000 -0.06647907  0.16452732       0.016
   0.05757257 -0.09971861  0.14102341       0.016
   0.11514513 -0.13295815  0.11751951       0.016
  -0.05757257 -0.03323954  0.18803122       0.016
   0.00000000 -0.00000000 -0.07051171       0.016
   0.05757257 -0.03323954 -0.09401561       0.016
   0.11514513 -0.06647907 -0.11751951       0.016
  -0.05757257  0.03323954 -0.04700780       0.016
   0.00000000  0.06647907 -0.09401561       0.016
   0.05757257  0.03323954 -0.11751951       0.016
   0.11514513 -0.00000000 -0.14102341       0.016
  -0.05757257  0.09971861 -0.07051171       0.016
   0.00000000  0.13295815 -0.11751951       0.016
   0.05757257  0.09971861 -0.14102341       0.016
   0.11514513  0.06647907 -0.16452732       0.016
  -0.05757257  0.16619769 -0.09401561       0.016
   0.00000000 -0.06647907 -0.04700780       0.016
   0.05757257 -0.09971861 -0.07051171       0.016
   0.11514513 -0.13295815 -0.09401561       0.016
  -0.05757257 -0.03323954 -0.02350390       0.016
 
 k-points in reciprocal lattice and weights: k-points                                
   0.00000000  0.00000000  0.00000000       0.016
   0.25000000  0.00000000  0.00000000       0.016
   0.50000000  0.00000000  0.00000000       0.016
  -0.25000000 -0.00000000 -0.00000000       0.016
   0.00000000  0.25000000 -0.00000000       0.016
   0.25000000  0.25000000  0.00000000       0.016
   0.50000000  0.25000000  0.00000000       0.016
  -0.25000000  0.25000000 -0.00000000       0.016
   0.00000000  0.50000000 -0.00000000       0.016
   0.25000000  0.50000000  0.00000000       0.016
   0.50000000  0.50000000  0.00000000       0.016
  -0.25000000  0.50000000 -0.00000000       0.016
  -0.00000000 -0.25000000  0.00000000       0.016
   0.25000000 -0.25000000  0.00000000       0.016
   0.50000000 -0.25000000  0.00000000       0.016
  -0.25000000 -0.25000000 -0.00000000       0.016
   0.00000000  0.00000000  0.25000000       0.016
   0.25000000 -0.00000000  0.25000000       0.016
   0.50000000 -0.00000000  0.25000000       0.016
  -0.25000000 -0.00000000  0.25000000       0.016
  -0.00000000  0.25000000  0.25000000       0.016
   0.25000000  0.25000000  0.25000000       0.016
   0.50000000  0.25000000  0.25000000       0.016
  -0.25000000  0.25000000  0.25000000       0.016
  -0.00000000  0.50000000  0.25000000       0.016
   0.25000000  0.50000000  0.25000000       0.016
   0.50000000  0.50000000  0.25000000       0.016
  -0.25000000  0.50000000  0.25000000       0.016
   0.00000000 -0.25000000  0.25000000       0.016
   0.25000000 -0.25000000  0.25000000       0.016
   0.50000000 -0.25000000  0.25000000       0.016
  -0.25000000 -0.25000000  0.25000000       0.016
   0.00000000  0.00000000  0.50000000       0.016
   0.25000000  0.00000000  0.50000000       0.016
   0.50000000 -0.00000000  0.50000000       0.016
  -0.25000000  0.00000000  0.50000000       0.016
  -0.00000000  0.25000000  0.50000000       0.016
   0.25000000  0.25000000  0.50000000       0.016
   0.50000000  0.25000000  0.50000000       0.016
  -0.25000000  0.25000000  0.50000000       0.016
  -0.00000000  0.50000000  0.50000000       0.016
   0.25000000  0.50000000  0.50000000       0.016
   0.50000000  0.50000000  0.50000000       0.016
  -0.25000000  0.50000000  0.50000000       0.016
   0.00000000 -0.25000000  0.50000000       0.016
   0.25000000 -0.25000000  0.50000000       0.016
   0.50000000 -0.25000000  0.50000000       0.016
  -0.25000000 -0.25000000  0.50000000       0.016
   0.00000000  0.00000000 -0.25000000       0.016
   0.25000000  0.00000000 -0.25000000       0.016
   0.50000000  0.00000000 -0.25000000       0.016
  -0.25000000  0.00000000 -0.25000000       0.016
   0.00000000  0.25000000 -0.25000000       0.016
   0.25000000  0.25000000 -0.25000000       0.016
   0.50000000  0.25000000 -0.25000000       0.016
  -0.25000000  0.25000000 -0.25000000       0.016
   0.00000000  0.50000000 -0.25000000       0.016
   0.25000000  0.50000000 -0.25000000       0.016
   0.50000000  0.50000000 -0.25000000       0.016
  -0.25000000  0.50000000 -0.25000000       0.016
   0.00000000 -0.25000000 -0.25000000       0.016
   0.25000000 -0.25000000 -0.25000000       0.016
   0.50000000 -0.25000000 -0.25000000       0.016
  -0.25000000 -0.25000000 -0.25000000       0.016
 
 position of ions in fractional coordinates (direct lattice) 
   0.00000000  0.00000000  0.00000000
 
 position of ions in cartesian coordinates  (Angst):
   0.00000000  0.00000000  0.00000000
 
 Euler angles ALPHA=     0.0000000  BETA=     0.0000000

 transformation matrix from SAXIS to cartesian coordinates
 ---------------------------------------------------------
     1.0000000 m_x     0.0000000 m_y     0.0000000 m_z
     0.0000000 m_x     1.0000000 m_y     0.0000000 m_z
     0.0000000 m_x     0.0000000 m_y     1.0000000 m_z

 transformation matrix from cartesian coordinates to SAXIS
 ---------------------------------------------------------
     1.0000000 m_x     0.0000000 m_y     0.0000000 m_z
     0.0000000 m_x     1.0000000 m_y     0.0000000 m_z
     0.0000000 m_x     0.0000000 m_y     1.0000000 m_z




--------------------------------------------------------------------------------------------------------


 k-point  1 :   0.0000 0.0000 0.0000  plane waves:    1402
 k-point  2 :   0.2500 0.0000 0.0000  plane waves:    1358
 k-point  3 :   0.5000 0.0000 0.0000  plane waves:    1400
 k-point  4 :  -0.2500-0.0000-0.0000  plane waves:    1358
 k-point  5 :   0.0000 0.2500-0.0000  plane waves:    1358
 k-point  6 :   0.2500 0.2500 0.0000  plane waves:    1362
 k-point  7 :   0.5000 0.2500 0.0000  plane waves:    1374
 k-point  8 :  -0.2500 0.2500-0.0000  plane waves:    1352
 k-point  9 :   0.0000 0.5000-0.0000  plane waves:    1400
 k-point 10 :   0.2500 0.5000 0.0000  plane waves:    1374
 k-point 11 :   0.5000 0.5000 0.0000  plane waves:    1384
 k-point 12 :  -0.2500 0.5000-0.0000  plane waves:    1374
 k-point 13 :  -0.0000-0.2500 0.0000  plane waves:    1358
 k-point 14 :   0.2500-0.2500 0.0000  plane waves:    1352
 k-point 15 :   0.5000-0.2500 0.0000  plane waves:    1374
 k-point 16 :  -0.2500-0.2500-0.0000  plane waves:    1362
 k-point 17 :   0.0000 0.0000 0.2500  plane waves:    1358
 k-point 18 :   0.2500-0.0000 0.2500  plane waves:    1362
 k-point 19 :   0.5000-0.0000 0.2500  plane waves:    1374
 k-point 20 :  -0.2500-0.0000 0.2500  plane waves:    1352
 k-point 21 :  -0.0000 0.2500 0.2500  plane waves:    1362
 k-point 22 :   0.2500 0.2500 0.2500  plane waves:    1358
 k-point 23 :   0.5000 0.2500 0.2500  plane waves:    1352
 k-point 24 :  -0.2500 0.2500 0.2500  plane waves:    1374
 k-point 25 :  -0.0000 0.5000 0.2500  plane waves:    1374
 k-point 26 :   0.2500 0.5000 0.2500  plane waves:    1352
 k-point 27 :   0.5000 0.5000 0.2500  plane waves:    1374
 k-point 28 :  -0.2500 0.5000 0.2500  plane waves:    1368
 k-point 29 :   0.0000-0.2500 0.2500  plane waves:    1352
 k-point 30 :   0.2500-0.2500 0.2500  plane waves:    1374
 k-point 31 :   0.5000-0.2500 0.2500  plane waves:    1368
 k-point 32 :  -0.2500-0.2500 0.2500  plane waves:    1374
 k-point 33 :   0.0000 0.0000 0.5000  plane waves:    1400
 k-point 34 :   0.2500 0.0000 0.5000  plane waves:    1374
 k-point 35 :   0.5000-0.0000 0.5000  plane waves:    1384
 k-point 36 :  -0.2500 0.0000 0.5000  plane waves:    1374
 k-point 37 :  -0.0000 0.2500 0.5000  plane waves:    1374
 k-point 38 :   0.2500 0.2500 0.5000  plane waves:    1352
 k-point 39 :   0.5000 0.2500 0.5000  plane waves:    1374
 k-point 40 :  -0.2500 0.2500 0.5000  plane waves:    1368
 k-point 41 :  -0.0000 0.5000 0.5000  plane waves:    1384
 k-point 42 :   0.2500 0.5000 0.5000  plane waves:    1374
 k-point 43 :   0.5000 0.5000 0.5000  plane waves:    1400
 k-point 44 :  -0.2500 0.5000 0.5000  plane waves:    1374
 k-point 45 :   0.0000-0.2500 0.5000  plane waves:    1374
 k-point 46 :   0.2500-0.2500 0.5000  plane waves:    1368
 k-point 47 :   0.5000-0.2500 0.5000  plane waves:    1374
 k-point 48 :  -0.2500-0.2500 0.5000  plane waves:    1352
 k-point 49 :   0.0000 0.0000-0.2500  plane waves:    1358
 k-point 50 :   0.2500 0.0000-0.2500  plane waves:    1352
 k-point 51 :   0.5000 0.0000-0.2500  plane waves:    1374
 k-point 52 :  -0.2500 0.0000-0.2500  plane waves:    1362
 k-point 53 :   0.0000 0.2500-0.2500  plane waves:    1352
 k-point 54 :   0.2500 0.2500-0.2500  plane waves:    1374
 k-point 55 :   0.5000 0.2500-0.2500  plane waves:    1368
 k-point 56 :  -0.2500 0.2500-0.2500  plane waves:    1374
 k-point 57 :   0.0000 0.5000-0.2500  plane waves:    1374
 k-point 58 :   0.2500 0.5000-0.2500  plane waves:    1368
 k-point 59 :   0.5000 0.5000-0.2500  plane waves:    1374
 k-point 60 :  -0.2500 0.5000-0.2500  plane waves:    1352
 k-point 61 :   0.0000-0.2500-0.2500  plane waves:    1362
 k-point 62 :   0.2500-0.2500-0.2500  plane waves:    1374
 k-point 63 :   0.5000-0.2500-0.2500  plane waves:    1352
 k-point 64 :  -0.2500-0.2500-0.2500  plane waves:    1358

 maximum and minimum number of plane-waves per node :      1402     1352

 maximum number of plane-waves:      1402
 maximum index in each direction: 
   IXMAX=    6   IYMAX=    6   IZMAX=    6
   IXMIN=   -6   IYMIN=   -6   IZMIN=   -6


 serial   3D FFT for wavefunctions
 parallel 3D FFT for charge:
    minimum data exchange during FFTs selected (reduces bandwidth)


 FFT grid for exact exchange (Hartree Fock) 
  NGX = 20; NGY = 20; NGZ = 20

 
 Radii for the augmentation spheres in the non-local exchange
 for species   1 augmentation radius   1.503 (default was   1.202)
       energy cutoff for augmentation   1200.0
 Maximum index for augmentation-charges in exchange         1961
  SETUP_FOCK is finished

 total amount of memory used by VASP MPI-rank0    64185. kBytes
=======================================================================

   base      :      30000. kBytes
   nonl-proj :       6499. kBytes
   fftplans  :       3389. kBytes
   grid      :       5619. kBytes
   one-center:         62. kBytes
   HF        :         64. kBytes
   nonlr-proj:        465. kBytes
   wavefun   :      18087. kBytes
 
     INWAV:  cpu time    0.6372: real time    0.6373
 Broyden mixing: mesh for mixing (old mesh)
   NGX = 13   NGY = 13   NGZ = 13
  (NGX  = 56   NGY  = 56   NGZ  = 56)
  gives a total of   2197 points

 charge density for first step will be calculated from the start-wavefunctions


--------------------------------------------------------------------------------------------------------


 Maximum index for augmentation-charges        11251 (set IRDMAX)


--------------------------------------------------------------------------------------------------------


 initial charge from wavefunction
    FEWALD:  cpu time    0.0147: real time    0.0146


--------------------------------------- Iteration      1(   1)  ---------------------------------------


    POTLOK:  cpu time    0.0288: real time    0.0288
    SETDIJ:  cpu time    0.0488: real time    0.0488
    TRIAL :  cpu time   91.9946: real time   91.9487
    CORREC:  cpu time    0.0003: real time    0.0003
    CHARGE:  cpu time    0.0814: real time    0.0814
    --------------------------------------------
      LOOP:  cpu time   92.1582: real time   92.1135

 eigenvalue-minimisations  :     0
 total energy-change (2. order) :-0.1302206E+02  (-0.2099499E-09)
 number of electron      18.0000000 magnetization      -0.0073533      0.0001624      0.0002985
 augmentation part        2.8580869 magnetization       0.0005883     -0.0000120     -0.0000234

 Free energy of the ion-electron system (eV)
  ---------------------------------------------------
  alpha Z        PSCENC =        65.89697999
  Ewald energy   TEWEN  =     -1741.63824267
  -Hartree energ DENC   =      -680.03053433
  -exchange      EXHF   =        46.96218176
  -V(xc)+E(xc)   XCENC  =       -52.43768736
  PAW double counting   =      2351.60299900    -2302.77167556
  entropy T*S    EENTRO =         0.00000000
  eigenvalues    EBANDS =      -361.01663443
  atomic energy  EATOM  =      2660.41055815
  ---------------------------------------------------
  free energy    TOTEN  =       -13.02205545 eV

  energy without entropy =      -13.02205545  energy(sigma->0) =      -13.02205545
  exchange ACFDT corr.  =         0.00000000  see jH, gK, PRB 81, 115126


--------------------------------------------------------------------------------------------------------




--------------------------------------- Iteration      1(   2)  ---------------------------------------


    POTLOK:  cpu time    0.0278: real time    0.0278
    SETDIJ:  cpu time    0.0512: real time    0.0512
    TRIAL :  cpu time   93.8941: real time   93.9069
    CORREC:  cpu time    0.0003: real time    0.0003
    EDDIAG:  cpu time   93.2332: real time   93.2017
    CHARGE:  cpu time    0.0818: real time    0.0818
    --------------------------------------------
      LOOP:  cpu time  187.2919: real time  187.2760

 eigenvalue-minimisations  :     0
 total energy-change (2. order) :-0.8449206E-09  (-0.2343766E-09)
 number of electron      18.0000000 magnetization      -0.0073527      0.0001624      0.0002985
 augmentation part        2.8580869 magnetization       0.0005883     -0.0000120     -0.0000234

 Free energy of the ion-electron system (eV)
  ---------------------------------------------------
  alpha Z        PSCENC =        65.89697999
  Ewald energy   TEWEN  =     -1741.63824267
  -Hartree energ DENC   =      -680.03054775
  -exchange      EXHF   =        46.96218341
  -V(xc)+E(xc)   XCENC  =       -52.43768685
  PAW double counting   =      2351.60308161    -2302.77175842
  entropy T*S    EENTRO =         0.00000000
  eigenvalues    EBANDS =      -361.01662200
  atomic energy  EATOM  =      2660.41055815
  ---------------------------------------------------
  free energy    TOTEN  =       -13.02205546 eV

  energy without entropy =      -13.02205546  energy(sigma->0) =      -13.02205546
  exchange ACFDT corr.  =         0.00000000  see jH, gK, PRB 81, 115126


--------------------------------------------------------------------------------------------------------


  average scaling for gradient   1.1130


 average (electrostatic) potential at core
  the test charge radii are     1.2024
  (the norm of the test charge is              1.0000)
       1-102.2817
 
 
 
 E-fermi :   3.2539     XC(G=0):  -6.5116     alpha+bet : -7.5793


 k-point     1 :       0.0000    0.0000    0.0000
  band No.  band energies     occupation 
      1     -34.3280      1.00000
      2     -34.3277      1.00000
      3     -34.3271      1.00000
      4     -34.3268      1.00000
      5     -27.3590      1.00000
      6     -27.3572      1.00000
      7     -27.3568      1.00000
      8     -27.3558      1.00000
      9     -27.3537      1.00000
     10     -27.3535      1.00000
     11     -22.8674      1.00000
     12     -22.8622      1.00000
     13      -8.2911      1.00000
     14      -8.2864      1.00000
     15       3.0732      1.00000
     16       3.0733      1.00000
     17       3.1801      1.00000
     18       3.1803      1.00000
     19       3.7693      0.00000
     20       3.7694      0.00000
     21      11.6334      0.00000
     22      11.6339      0.00000
     23      11.6361      0.00000
     24      11.6365      0.00000
     25      11.9429      0.00000
     26      11.9475      0.00000
     27      11.9711      0.00000
     28      11.9723      0.00000
     29      14.3510      0.00000
     30      14.4444      0.00000
     31      14.7129      0.00000
     32      14.7240      0.00000
     33      14.7681      0.00000
     34      14.8796      0.00000
     35      15.1001      0.00000
     36      15.2239      0.00000
     37      15.2320      0.00000
     38      15.3169      0.00000
     39      16.8138      0.00000
     40      16.8718      0.00000
     41      23.3451      0.00000
     42      24.3120      0.00000
     43      24.4417      0.00000
     44      24.6606      0.00000
     45      24.8676      0.00000
     46      24.9552      0.00000
     47      25.5544      0.00000
     48      28.0326      0.00000
     49      28.7507      0.00000
     50      30.2403      0.00000
     51      30.4240      0.00000
     52      30.8061      0.00000
     53      30.9204      0.00000
     54      31.2035      0.00000
     55      31.3886      0.00000
     56      31.6106      0.00000
     57      31.6279      0.00000
     58      31.6459      0.00000
     59      32.2944      0.00000
     60      33.0205      0.00000
     61      33.0912      0.00000
     62      34.6291      0.00000
     63      35.7931      0.00000
     64      39.2165      0.00000

 k-point     2 :       0.2500    0.0000    0.0000
  band No.  band energies     occupation 
      1     -34.3115      1.00000
      2     -34.3106      1.00000
      3     -34.3097      1.00000
      4     -34.3090      1.00000
      5     -27.3471      1.00000
      6     -27.3461      1.00000
      7     -27.3439      1.00000
      8     -27.3421      1.00000
      9     -27.3406      1.00000
     10     -27.3392      1.00000
     11     -22.8049      1.00000
     12     -22.7983      1.00000
     13      -8.4966      1.00000
     14      -8.4920      1.00000
     15       0.4860      1.00000
     16       0.5258      1.00000
     17       2.7512      1.00000
     18       2.8178      1.00000
     19       6.3332      0.00000
     20       6.3455      0.00000
     21      10.5892      0.00000
     22      10.6015      0.00000
     23      11.6811      0.00000
     24      11.6821      0.00000
     25      11.9470      0.00000
     26      11.9485      0.00000
     27      12.4035      0.00000
     28      12.4055      0.00000
     29      13.6674      0.00000
     30      13.7389      0.00000
     31      13.8605      0.00000
     32      13.9750      0.00000
     33      16.4351      0.00000
     34      16.5459      0.00000
     35      18.5653      0.00000
     36      18.7450      0.00000
     37      18.8341      0.00000
     38      19.1646      0.00000
     39      20.1924      0.00000
     40      20.4942      0.00000
     41      21.0497      0.00000
     42      21.1458      0.00000
     43      22.0324      0.00000
     44      22.0570      0.00000
     45      22.1132      0.00000
     46      22.4100      0.00000
     47      24.2600      0.00000
     48      26.6275      0.00000
     49      27.4698      0.00000
     50      27.9840      0.00000
     51      28.1255      0.00000
     52      29.0436      0.00000
     53      29.6748      0.00000
     54      29.8105      0.00000
     55      30.7439      0.00000
     56      30.7876      0.00000
     57      31.2852      0.00000
     58      31.8871      0.00000
     59      32.7909      0.00000
     60      33.5919      0.00000
     61      34.3836      0.00000
     62      35.2522      0.00000
     63      36.3354      0.00000
     64      37.1677      0.00000

 k-point     3 :       0.5000    0.0000    0.0000
  band No.  band energies     occupation 
      1     -34.3333      1.00000
      2     -34.3325      1.00000
      3     -34.3224      1.00000
      4     -34.3215      1.00000
      5     -27.3579      1.00000
      6     -27.3549      1.00000
      7     -27.3541      1.00000
      8     -27.3510      1.00000
      9     -27.3506      1.00000
     10     -27.3487      1.00000
     11     -22.7406      1.00000
     12     -22.7340      1.00000
     13      -8.7053      1.00000
     14      -8.7008      1.00000
     15      -0.4777      1.00000
     16      -0.4562      1.00000
     17       2.4580      1.00000
     18       2.4911      1.00000
     19       6.6129      0.00000
     20       6.6138      0.00000
     21      11.0519      0.00000
     22      11.0553      0.00000
     23      11.2273      0.00000
     24      11.2282      0.00000
     25      11.3287      0.00000
     26      11.3315      0.00000
     27      12.9801      0.00000
     28      12.9842      0.00000
     29      16.0603      0.00000
     30      16.1356      0.00000
     31      16.4329      0.00000
     32      16.5623      0.00000
     33      16.9927      0.00000
     34      17.0965      0.00000
     35      18.1643      0.00000
     36      18.1675      0.00000
     37      18.3788      0.00000
     38      18.4011      0.00000
     39      20.8130      0.00000
     40      21.1343      0.00000
     41      21.7296      0.00000
     42      21.8444      0.00000
     43      22.6574      0.00000
     44      23.2175      0.00000
     45      24.4309      0.00000
     46      25.3475      0.00000
     47      25.6273      0.00000
     48      25.9981      0.00000
     49      26.0295      0.00000
     50      26.1650      0.00000
     51      26.5112      0.00000
     52      26.8370      0.00000
     53      27.1283      0.00000
     54      28.0120      0.00000
     55      28.0913      0.00000
     56      28.5002      0.00000
     57      30.6455      0.00000
     58      30.9818      0.00000
     59      31.3983      0.00000
     60      31.9745      0.00000
     61      33.3294      0.00000
     62      33.4795      0.00000
     63      33.9735      0.00000
     64      34.1884      0.00000

 k-point     4 :      -0.2500   -0.0000   -0.0000
  band No.  band energies     occupation 
      1     -34.3115      1.00000
      2     -34.3106      1.00000
      3     -34.3097      1.00000
      4     -34.3090      1.00000
      5     -27.3471      1.00000
      6     -27.3461      1.00000
      7     -27.3439      1.00000
      8     -27.3421      1.00000
      9     -27.3406      1.00000
     10     -27.3392      1.00000
     11     -22.8049      1.00000
     12     -22.7983      1.00000
     13      -8.4966      1.00000
     14      -8.4920      1.00000
     15       0.4860      1.00000
     16       0.5258      1.00000
     17       2.7512      1.00000
     18       2.8178      1.00000
     19       6.3332      0.00000
     20       6.3455      0.00000
     21      10.5892      0.00000
     22      10.6015      0.00000
     23      11.6811      0.00000
     24      11.6821      0.00000
     25      11.9470      0.00000
     26      11.9485      0.00000
     27      12.4035      0.00000
     28      12.4055      0.00000
     29      13.6479      0.00000
     30      13.7483      0.00000
     31      13.8865      0.00000
     32      13.9166      0.00000
     33      16.3564      0.00000
     34      16.5710      0.00000
     35      18.4389      0.00000
     36      18.5509      0.00000
     37      18.7613      0.00000
     38      19.0531      0.00000
     39      20.4271      0.00000
     40      20.5806      0.00000
     41      21.1017      0.00000
     42      21.2732      0.00000
     43      21.7846      0.00000
     44      22.1118      0.00000
     45      22.2479      0.00000
     46      22.3987      0.00000
     47      24.9191      0.00000
     48      25.8941      0.00000
     49      25.8980      0.00000
     50      26.6592      0.00000
     51      28.8961      0.00000
     52      29.0212      0.00000
     53      29.8651      0.00000
     54      30.8855      0.00000
     55      31.4754      0.00000
     56      31.5685      0.00000
     57      32.2698      0.00000
     58      32.6707      0.00000
     59      32.9579      0.00000
     60      33.3604      0.00000
     61      33.6784      0.00000
     62      34.5364      0.00000
     63      36.1059      0.00000
     64      36.4698      0.00000

 k-point     5 :       0.0000    0.2500   -0.0000
  band No.  band energies     occupation 
      1     -34.3112      1.00000
      2     -34.3111      1.00000
      3     -34.3095      1.00000
      4     -34.3090      1.00000
      5     -27.3472      1.00000
      6     -27.3465      1.00000
      7     -27.3426      1.00000
      8     -27.3425      1.00000
      9     -27.3408      1.00000
     10     -27.3394      1.00000
     11     -22.8041      1.00000
     12     -22.7991      1.00000
     13      -8.4967      1.00000
     14      -8.4920      1.00000
     15       0.5028      1.00000
     16       0.5085      1.00000
     17       2.7805      1.00000
     18       2.7888      1.00000
     19       6.3391      0.00000
     20       6.3398      0.00000
     21      10.5946      0.00000
     22      10.5960      0.00000
     23      11.6816      0.00000
     24      11.6817      0.00000
     25      11.9461      0.00000
     26      11.9494      0.00000
     27      12.4031      0.00000
     28      12.4058      0.00000
     29      13.6384      0.00000
     30      13.7335      0.00000
     31      13.8916      0.00000
     32      13.9758      0.00000
     33      16.4094      0.00000
     34      16.4930      0.00000
     35      18.4838      0.00000
     36      18.5976      0.00000
     37      19.0515      0.00000
     38      19.1742      0.00000
     39      20.3830      0.00000
     40      20.4783      0.00000
     41      21.0003      0.00000
     42      21.2447      0.00000
     43      21.7003      0.00000
     44      21.9902      0.00000
     45      22.0690      0.00000
     46      22.2255      0.00000
     47      24.3677      0.00000
     48      26.0773      0.00000
     49      26.2094      0.00000
     50      26.6245      0.00000
     51      28.7158      0.00000
     52      28.7654      0.00000
     53      29.6855      0.00000
     54      30.3340      0.00000
     55      31.0282      0.00000
     56      31.3280      0.00000
     57      31.8465      0.00000
     58      32.1247      0.00000
     59      32.8490      0.00000
     60      33.5003      0.00000
     61      33.5853      0.00000
     62      34.5576      0.00000
     63      34.5710      0.00000
     64      38.3593      0.00000

 k-point     6 :       0.2500    0.2500    0.0000
  band No.  band energies     occupation 
      1     -34.3177      1.00000
      2     -34.3167      1.00000
      3     -34.3111      1.00000
      4     -34.3103      1.00000
      5     -27.3518      1.00000
      6     -27.3482      1.00000
      7     -27.3450      1.00000
      8     -27.3436      1.00000
      9     -27.3417      1.00000
     10     -27.3405      1.00000
     11     -22.7836      1.00000
     12     -22.7783      1.00000
     13      -8.5528      1.00000
     14      -8.5481      1.00000
     15       0.3927      1.00000
     16       0.4301      1.00000
     17       2.0516      1.00000
     18       2.1100      1.00000
     19       7.2294      0.00000
     20       7.2406      0.00000
     21       9.1712      0.00000
     22       9.1741      0.00000
     23      10.4747      0.00000
     24      10.4859      0.00000
     25      12.7271      0.00000
     26      12.7365      0.00000
     27      13.7667      0.00000
     28      13.7781      0.00000
     29      15.8858      0.00000
     30      16.0028      0.00000
     31      16.4018      0.00000
     32      16.4266      0.00000
     33      16.4832      0.00000
     34      16.5481      0.00000
     35      16.6197      0.00000
     36      16.9957      0.00000
     37      17.3308      0.00000
     38      17.4035      0.00000
     39      20.9032      0.00000
     40      21.0904      0.00000
     41      21.3284      0.00000
     42      21.8200      0.00000
     43      22.2257      0.00000
     44      22.5705      0.00000
     45      22.6398      0.00000
     46      22.9296      0.00000
     47      23.2538      0.00000
     48      23.3762      0.00000
     49      25.7441      0.00000
     50      26.9955      0.00000
     51      27.3071      0.00000
     52      28.4306      0.00000
     53      29.3075      0.00000
     54      29.3352      0.00000
     55      29.4169      0.00000
     56      29.9605      0.00000
     57      30.8383      0.00000
     58      31.8622      0.00000
     59      31.9381      0.00000
     60      32.2459      0.00000
     61      33.4698      0.00000
     62      34.6168      0.00000
     63      35.9778      0.00000
     64      37.2948      0.00000

 k-point     7 :       0.5000    0.2500    0.0000
  band No.  band energies     occupation 
      1     -34.3226      1.00000
      2     -34.3219      1.00000
      3     -34.3180      1.00000
      4     -34.3171      1.00000
      5     -27.3521      1.00000
      6     -27.3503      1.00000
      7     -27.3486      1.00000
      8     -27.3466      1.00000
      9     -27.3448      1.00000
     10     -27.3424      1.00000
     11     -22.7196      1.00000
     12     -22.7138      1.00000
     13      -8.7418      1.00000
     14      -8.7373      1.00000
     15      -0.3343      1.00000
     16      -0.3125      1.00000
     17       1.3063      1.00000
     18       1.3342      1.00000
     19       7.7561      0.00000
     20       7.7587      0.00000
     21       9.3652      0.00000
     22       9.3705      0.00000
     23      10.9406      0.00000
     24      10.9462      0.00000
     25      12.6960      0.00000
     26      12.7011      0.00000
     27      14.3423      0.00000
     28      14.3458      0.00000
     29      15.9731      0.00000
     30      16.2327      0.00000
     31      16.4335      0.00000
     32      16.7410      0.00000
     33      17.9916      0.00000
     34      18.1792      0.00000
     35      18.8474      0.00000
     36      18.9587      0.00000
     37      20.2279      0.00000
     38      20.4310      0.00000
     39      20.5526      0.00000
     40      20.6556      0.00000
     41      21.0058      0.00000
     42      21.1634      0.00000
     43      22.2215      0.00000
     44      22.8525      0.00000
     45      22.8652      0.00000
     46      23.4625      0.00000
     47      23.8361      0.00000
     48      24.2276      0.00000
     49      24.2353      0.00000
     50      24.4615      0.00000
     51      25.5439      0.00000
     52      26.2580      0.00000
     53      26.2981      0.00000
     54      27.1143      0.00000
     55      28.4920      0.00000
     56      28.5714      0.00000
     57      28.8143      0.00000
     58      29.3512      0.00000
     59      29.8412      0.00000
     60      31.1367      0.00000
     61      31.3603      0.00000
     62      31.4314      0.00000
     63      32.9861      0.00000
     64      34.0112      0.00000

 k-point     8 :      -0.2500    0.2500   -0.0000
  band No.  band energies     occupation 
      1     -34.3136      1.00000
      2     -34.3130      1.00000
      3     -34.3061      1.00000
      4     -34.3053      1.00000
      5     -27.3453      1.00000
      6     -27.3434      1.00000
      7     -27.3424      1.00000
      8     -27.3402      1.00000
      9     -27.3389      1.00000
     10     -27.3367      1.00000
     11     -22.7410      1.00000
     12     -22.7350      1.00000
     13      -8.6838      1.00000
     14      -8.6791      1.00000
     15      -0.2082      1.00000
     16      -0.1890      1.00000
     17       1.5961      1.00000
     18       1.6218      1.00000
     19       8.1671      0.00000
     20       8.1725      0.00000
     21       9.4402      0.00000
     22       9.4423      0.00000
     23      10.9368      0.00000
     24      10.9439      0.00000
     25      12.2601      0.00000
     26      12.2697      0.00000
     27      13.3150      0.00000
     28      13.3174      0.00000
     29      15.0429      0.00000
     30      15.1111      0.00000
     31      16.3505      0.00000
     32      16.3710      0.00000
     33      16.7165      0.00000
     34      16.9688      0.00000
     35      18.9452      0.00000
     36      19.0401      0.00000
     37      20.0779      0.00000
     38      20.1317      0.00000
     39      21.4053      0.00000
     40      21.5579      0.00000
     41      21.6333      0.00000
     42      22.5558      0.00000
     43      22.7126      0.00000
     44      23.0165      0.00000
     45      23.6296      0.00000
     46      23.6332      0.00000
     47      23.6821      0.00000
     48      23.9714      0.00000
     49      24.3875      0.00000
     50      24.6359      0.00000
     51      26.9015      0.00000
     52      27.1706      0.00000
     53      27.3335      0.00000
     54      28.0751      0.00000
     55      28.2134      0.00000
     56      28.5183      0.00000
     57      28.6764      0.00000
     58      29.2754      0.00000
     59      29.7852      0.00000
     60      30.0858      0.00000
     61      30.8418      0.00000
     62      31.9335      0.00000
     63      34.6866      0.00000
     64      35.2332      0.00000

 k-point     9 :       0.0000    0.5000   -0.0000
  band No.  band energies     occupation 
      1     -34.3332      1.00000
      2     -34.3327      1.00000
      3     -34.3219      1.00000
      4     -34.3219      1.00000
      5     -27.3575      1.00000
      6     -27.3559      1.00000
      7     -27.3525      1.00000
      8     -27.3523      1.00000
      9     -27.3505      1.00000
     10     -27.3485      1.00000
     11     -22.7399      1.00000
     12     -22.7348      1.00000
     13      -8.7054      1.00000
     14      -8.7007      1.00000
     15      -0.4688      1.00000
     16      -0.4652      1.00000
     17       2.4725      1.00000
     18       2.4767      1.00000
     19       6.6127      0.00000
     20       6.6140      0.00000
     21      11.0535      0.00000
     22      11.0537      0.00000
     23      11.2267      0.00000
     24      11.2288      0.00000
     25      11.3271      0.00000
     26      11.3331      0.00000
     27      12.9814      0.00000
     28      12.9828      0.00000
     29      16.0969      0.00000
     30      16.1666      0.00000
     31      16.3638      0.00000
     32      16.7693      0.00000
     33      16.9641      0.00000
     34      17.0487      0.00000
     35      18.1768      0.00000
     36      18.1770      0.00000
     37      18.2121      0.00000
     38      18.2861      0.00000
     39      20.7641      0.00000
     40      20.8968      0.00000
     41      21.7441      0.00000
     42      21.8981      0.00000
     43      22.5137      0.00000
     44      22.8022      0.00000
     45      24.6906      0.00000
     46      25.1029      0.00000
     47      25.5521      0.00000
     48      25.8058      0.00000
     49      26.0874      0.00000
     50      26.3953      0.00000
     51      26.5391      0.00000
     52      26.8209      0.00000
     53      26.8459      0.00000
     54      26.8896      0.00000
     55      28.0177      0.00000
     56      28.4742      0.00000
     57      28.6678      0.00000
     58      29.6129      0.00000
     59      31.8853      0.00000
     60      32.4227      0.00000
     61      32.5228      0.00000
     62      33.3411      0.00000
     63      33.7293      0.00000
     64      34.2878      0.00000

 k-point    10 :       0.2500    0.5000    0.0000
  band No.  band energies     occupation 
      1     -34.3226      1.00000
      2     -34.3220      1.00000
      3     -34.3178      1.00000
      4     -34.3172      1.00000
      5     -27.3529      1.00000
      6     -27.3494      1.00000
      7     -27.3484      1.00000
      8     -27.3467      1.00000
      9     -27.3444      1.00000
     10     -27.3431      1.00000
     11     -22.7193      1.00000
     12     -22.7141      1.00000
     13      -8.7419      1.00000
     14      -8.7372      1.00000
     15      -0.3312      1.00000
     16      -0.3157      1.00000
     17       1.3103      1.00000
     18       1.3303      1.00000
     19       7.7565      0.00000
     20       7.7583      0.00000
     21       9.3673      0.00000
     22       9.3684      0.00000
     23      10.9420      0.00000
     24      10.9448      0.00000
     25      12.6971      0.00000
     26      12.7000      0.00000
     27      14.3431      0.00000
     28      14.3450      0.00000
     29      16.0419      0.00000
     30      16.1197      0.00000
     31      16.5581      0.00000
     32      16.6771      0.00000
     33      18.0609      0.00000
     34      18.1990      0.00000
     35      18.8106      0.00000
     36      19.1232      0.00000
     37      20.2097      0.00000
     38      20.3695      0.00000
     39      20.5792      0.00000
     40      20.7826      0.00000
     41      21.2507      0.00000
     42      21.2996      0.00000
     43      22.3141      0.00000
     44      22.4484      0.00000
     45      23.1601      0.00000
     46      23.6885      0.00000
     47      23.7132      0.00000
     48      23.7959      0.00000
     49      24.2550      0.00000
     50      24.3904      0.00000
     51      25.6981      0.00000
     52      26.5620      0.00000
     53      26.7730      0.00000
     54      27.1990      0.00000
     55      27.6013      0.00000
     56      28.1075      0.00000
     57      28.2453      0.00000
     58      29.3108      0.00000
     59      30.4520      0.00000
     60      30.5298      0.00000
     61      31.2362      0.00000
     62      31.9638      0.00000
     63      32.6860      0.00000
     64      35.3602      0.00000

 k-point    11 :       0.5000    0.5000    0.0000
  band No.  band energies     occupation 
      1     -34.3312      1.00000
      2     -34.3304      1.00000
      3     -34.3175      1.00000
      4     -34.3165      1.00000
      5     -27.3578      1.00000
      6     -27.3550      1.00000
      7     -27.3493      1.00000
      8     -27.3469      1.00000
      9     -27.3452      1.00000
     10     -27.3432      1.00000
     11     -22.6981      1.00000
     12     -22.6927      1.00000
     13      -8.7963      1.00000
     14      -8.7917      1.00000
     15      -0.4433      1.00000
     16      -0.4198      1.00000
     17       1.2696      1.00000
     18       1.3004      1.00000
     19       6.7316      0.00000
     20       6.7331      0.00000
     21       8.2679      0.00000
     22       8.2707      0.00000
     23      11.7368      0.00000
     24      11.7407      0.00000
     25      16.0802      0.00000
     26      16.0913      0.00000
     27      16.0932      0.00000
     28      16.1020      0.00000
     29      16.3542      0.00000
     30      16.3836      0.00000
     31      17.4119      0.00000
     32      17.4280      0.00000
     33      18.7695      0.00000
     34      18.7749      0.00000
     35      19.0665      0.00000
     36      19.3006      0.00000
     37      19.6003      0.00000
     38      19.7764      0.00000
     39      20.1109      0.00000
     40      20.1588      0.00000
     41      20.2677      0.00000
     42      20.4966      0.00000
     43      20.5253      0.00000
     44      20.8074      0.00000
     45      20.8572      0.00000
     46      21.5000      0.00000
     47      22.8150      0.00000
     48      23.0508      0.00000
     49      23.4888      0.00000
     50      23.8504      0.00000
     51      23.9156      0.00000
     52      24.1474      0.00000
     53      24.2614      0.00000
     54      24.2975      0.00000
     55      25.6792      0.00000
     56      26.5994      0.00000
     57      27.7685      0.00000
     58      28.8983      0.00000
     59      30.5346      0.00000
     60      32.7445      0.00000
     61      32.8214      0.00000
     62      33.9418      0.00000
     63      35.3297      0.00000
     64      36.0695      0.00000

 k-point    12 :      -0.2500    0.5000   -0.0000
  band No.  band energies     occupation 
      1     -34.3226      1.00000
      2     -34.3220      1.00000
      3     -34.3178      1.00000
      4     -34.3172      1.00000
      5     -27.3529      1.00000
      6     -27.3494      1.00000
      7     -27.3484      1.00000
      8     -27.3467      1.00000
      9     -27.3444      1.00000
     10     -27.3431      1.00000
     11     -22.7193      1.00000
     12     -22.7141      1.00000
     13      -8.7419      1.00000
     14      -8.7372      1.00000
     15      -0.3312      1.00000
     16      -0.3157      1.00000
     17       1.3103      1.00000
     18       1.3303      1.00000
     19       7.7565      0.00000
     20       7.7583      0.00000
     21       9.3673      0.00000
     22       9.3684      0.00000
     23      10.9420      0.00000
     24      10.9448      0.00000
     25      12.6971      0.00000
     26      12.7000      0.00000
     27      14.3431      0.00000
     28      14.3450      0.00000
     29      16.0385      0.00000
     30      16.1270      0.00000
     31      16.4955      0.00000
     32      16.7699      0.00000
     33      17.9450      0.00000
     34      18.2181      0.00000
     35      18.9189      0.00000
     36      19.1435      0.00000
     37      20.2201      0.00000
     38      20.3172      0.00000
     39      20.5481      0.00000
     40      20.5524      0.00000
     41      21.1309      0.00000
     42      21.8033      0.00000
     43      22.4271      0.00000
     44      22.4984      0.00000
     45      22.9668      0.00000
     46      23.4698      0.00000
     47      23.4812      0.00000
     48      24.2858      0.00000
     49      24.4287      0.00000
     50      25.1010      0.00000
     51      25.7274      0.00000
     52      25.9841      0.00000
     53      26.5089      0.00000
     54      27.3100      0.00000
     55      28.0106      0.00000
     56      28.1683      0.00000
     57      29.0637      0.00000
     58      29.4989      0.00000
     59      30.3120      0.00000
     60      30.6903      0.00000
     61      30.9136      0.00000
     62      32.2153      0.00000
     63      32.9346      0.00000
     64      33.8343      0.00000

 k-point    13 :      -0.0000   -0.2500    0.0000
  band No.  band energies     occupation 
      1     -34.3112      1.00000
      2     -34.3111      1.00000
      3     -34.3095      1.00000
      4     -34.3090      1.00000
      5     -27.3472      1.00000
      6     -27.3465      1.00000
      7     -27.3426      1.00000
      8     -27.3425      1.00000
      9     -27.3408      1.00000
     10     -27.3394      1.00000
     11     -22.8041      1.00000
     12     -22.7991      1.00000
     13      -8.4967      1.00000
     14      -8.4920      1.00000
     15       0.5028      1.00000
     16       0.5085      1.00000
     17       2.7805      1.00000
     18       2.7888      1.00000
     19       6.3391      0.00000
     20       6.3398      0.00000
     21      10.5946      0.00000
     22      10.5960      0.00000
     23      11.6816      0.00000
     24      11.6817      0.00000
     25      11.9461      0.00000
     26      11.9494      0.00000
     27      12.4031      0.00000
     28      12.4058      0.00000
     29      13.6862      0.00000
     30      13.7238      0.00000
     31      13.8914      0.00000
     32      14.0061      0.00000
     33      16.4821      0.00000
     34      16.6081      0.00000
     35      18.4747      0.00000
     36      18.5897      0.00000
     37      18.6805      0.00000
     38      18.8471      0.00000
     39      20.5790      0.00000
     40      20.7213      0.00000
     41      20.9117      0.00000
     42      21.2394      0.00000
     43      21.8483      0.00000
     44      22.0149      0.00000
     45      22.1668      0.00000
     46      22.1768      0.00000
     47      25.4752      0.00000
     48      25.5960      0.00000
     49      25.7444      0.00000
     50      26.8017      0.00000
     51      28.2769      0.00000
     52      28.5587      0.00000
     53      29.5172      0.00000
     54      30.5381      0.00000
     55      30.7057      0.00000
     56      30.7816      0.00000
     57      32.3986      0.00000
     58      32.5500      0.00000
     59      33.2488      0.00000
     60      33.9655      0.00000
     61      34.4234      0.00000
     62      35.3485      0.00000
     63      35.9227      0.00000
     64      37.3759      0.00000

 k-point    14 :       0.2500   -0.2500    0.0000
  band No.  band energies     occupation 
      1     -34.3136      1.00000
      2     -34.3130      1.00000
      3     -34.3061      1.00000
      4     -34.3053      1.00000
      5     -27.3453      1.00000
      6     -27.3434      1.00000
      7     -27.3424      1.00000
      8     -27.3402      1.00000
      9     -27.3389      1.00000
     10     -27.3367      1.00000
     11     -22.7410      1.00000
     12     -22.7350      1.00000
     13      -8.6838      1.00000
     14      -8.6791      1.00000
     15      -0.2082      1.00000
     16      -0.1890      1.00000
     17       1.5961      1.00000
     18       1.6218      1.00000
     19       8.1671      0.00000
     20       8.1725      0.00000
     21       9.4402      0.00000
     22       9.4423      0.00000
     23      10.9368      0.00000
     24      10.9439      0.00000
     25      12.2601      0.00000
     26      12.2697      0.00000
     27      13.3150      0.00000
     28      13.3174      0.00000
     29      15.0346      0.00000
     30      15.1251      0.00000
     31      16.2234      0.00000
     32      16.3551      0.00000
     33      16.6928      0.00000
     34      16.9822      0.00000
     35      18.8452      0.00000
     36      19.0107      0.00000
     37      20.0604      0.00000
     38      20.6238      0.00000
     39      21.0083      0.00000
     40      21.3987      0.00000
     41      21.7707      0.00000
     42      21.8552      0.00000
     43      22.8087      0.00000
     44      23.0456      0.00000
     45      23.2780      0.00000
     46      23.5372      0.00000
     47      23.6528      0.00000
     48      24.0728      0.00000
     49      24.9591      0.00000
     50      25.1477      0.00000
     51      26.5223      0.00000
     52      26.9480      0.00000
     53      27.6124      0.00000
     54      28.1649      0.00000
     55      28.4232      0.00000
     56      28.5453      0.00000
     57      29.1197      0.00000
     58      29.3403      0.00000
     59      30.2721      0.00000
     60      30.6314      0.00000
     61      30.6656      0.00000
     62      32.6888      0.00000
     63      33.5193      0.00000
     64      35.2382      0.00000

 k-point    15 :       0.5000   -0.2500    0.0000
  band No.  band energies     occupation 
      1     -34.3226      1.00000
      2     -34.3219      1.00000
      3     -34.3180      1.00000
      4     -34.3171      1.00000
      5     -27.3521      1.00000
      6     -27.3503      1.00000
      7     -27.3486      1.00000
      8     -27.3466      1.00000
      9     -27.3448      1.00000
     10     -27.3424      1.00000
     11     -22.7196      1.00000
     12     -22.7138      1.00000
     13      -8.7418      1.00000
     14      -8.7373      1.00000
     15      -0.3343      1.00000
     16      -0.3125      1.00000
     17       1.3063      1.00000
     18       1.3342      1.00000
     19       7.7561      0.00000
     20       7.7587      0.00000
     21       9.3652      0.00000
     22       9.3705      0.00000
     23      10.9406      0.00000
     24      10.9462      0.00000
     25      12.6960      0.00000
     26      12.7011      0.00000
     27      14.3423      0.00000
     28      14.3458      0.00000
     29      16.0385      0.00000
     30      16.1829      0.00000
     31      16.5119      0.00000
     32      16.5170      0.00000
     33      18.0312      0.00000
     34      18.1125      0.00000
     35      18.9124      0.00000
     36      19.2128      0.00000
     37      20.1601      0.00000
     38      20.3329      0.00000
     39      20.6453      0.00000
     40      20.9414      0.00000
     41      21.2529      0.00000
     42      21.4102      0.00000
     43      22.1460      0.00000
     44      22.4766      0.00000
     45      22.7002      0.00000
     46      23.2838      0.00000
     47      23.5818      0.00000
     48      24.1617      0.00000
     49      24.3257      0.00000
     50      25.1927      0.00000
     51      25.6558      0.00000
     52      26.3237      0.00000
     53      26.9383      0.00000
     54      27.3946      0.00000
     55      27.8122      0.00000
     56      28.4281      0.00000
     57      28.5997      0.00000
     58      29.6205      0.00000
     59      29.9232      0.00000
     60      30.5932      0.00000
     61      31.0212      0.00000
     62      31.8277      0.00000
     63      32.9441      0.00000
     64      34.9275      0.00000

 k-point    16 :      -0.2500   -0.2500   -0.0000
  band No.  band energies     occupation 
      1     -34.3177      1.00000
      2     -34.3167      1.00000
      3     -34.3111      1.00000
      4     -34.3103      1.00000
      5     -27.3518      1.00000
      6     -27.3482      1.00000
      7     -27.3450      1.00000
      8     -27.3436      1.00000
      9     -27.3417      1.00000
     10     -27.3405      1.00000
     11     -22.7836      1.00000
     12     -22.7783      1.00000
     13      -8.5528      1.00000
     14      -8.5481      1.00000
     15       0.3927      1.00000
     16       0.4301      1.00000
     17       2.0516      1.00000
     18       2.1100      1.00000
     19       7.2294      0.00000
     20       7.2406      0.00000
     21       9.1712      0.00000
     22       9.1741      0.00000
     23      10.4747      0.00000
     24      10.4859      0.00000
     25      12.7271      0.00000
     26      12.7365      0.00000
     27      13.7667      0.00000
     28      13.7781      0.00000
     29      15.9344      0.00000
     30      15.9834      0.00000
     31      16.3310      0.00000
     32      16.4345      0.00000
     33      16.5381      0.00000
     34      16.5514      0.00000
     35      16.6719      0.00000
     36      16.9887      0.00000
     37      17.1988      0.00000
     38      17.3795      0.00000
     39      20.8549      0.00000
     40      21.0350      0.00000
     41      21.5197      0.00000
     42      21.7385      0.00000
     43      22.0741      0.00000
     44      22.3862      0.00000
     45      22.7543      0.00000
     46      22.8442      0.00000
     47      23.0312      0.00000
     48      23.0585      0.00000
     49      25.7409      0.00000
     50      26.1294      0.00000
     51      27.9859      0.00000
     52      28.2467      0.00000
     53      28.6752      0.00000
     54      28.9761      0.00000
     55      29.5979      0.00000
[...]
  0.000   0.000   0.000  -1.014  -0.000  -0.000   1.014  -0.000  -0.000   0.000   0.000   0.000  -0.000   0.762   0.000   0.000
  0.000  -0.000  -0.000  -0.000   0.000  -0.000   0.000  -0.000   0.000   0.000   0.000  -0.000  -0.000  -0.000   0.000  -0.000
 -0.000   0.000   0.000   0.000  -0.000   0.000  -0.000   0.000   0.000  -0.000  -0.000   0.000   0.000   0.000  -0.000   0.000
  0.000   0.000  -0.000   0.000   0.000   0.000  -0.000   0.000  -0.000  -0.000  -0.000   0.000   0.000   0.000  -0.000   0.000
 -0.000   0.000   0.000   0.000   0.000  -0.000   0.000   0.000   0.000  -0.000   0.000   0.000  -0.000  -0.000  -0.000  -0.000
  0.000  -0.000  -0.000   0.000  -0.000  -0.000  -0.000  -0.000   0.000   0.000  -0.000  -0.000   0.000   0.000  -0.000   0.000
  0.000  -0.000  -0.000   0.000   0.000   0.000  -0.000   0.000  -0.000  -0.000   0.000   0.000   0.000   0.000  -0.000   0.000
 -0.000  -0.000   0.000   0.000   0.000   0.000   0.000  -0.000   0.000  -0.000   0.000   0.000  -0.000  -0.000  -0.000  -0.000
  0.000   0.000  -0.000  -0.000   0.000  -0.000   0.000  -0.000  -0.000   0.000  -0.000  -0.000   0.000   0.000  -0.000   0.000
 pseudopotential strength for first ion, spin component:           4
-22.971  -0.000   0.000   0.000   0.000  -0.000   0.000   0.000  -0.000  -2.696   6.010  -0.000  -0.000  -0.000  -0.000   0.000
  0.000  -0.000 -22.971   0.000  -0.000   0.000  -0.000  -1.348   0.000   0.000  -0.000   0.000   6.010  -0.000   0.000  -0.000
  0.000   0.000  -0.000  -0.000 -22.971   0.000   0.000  -0.000  -0.000   0.000  -0.000  -0.000   0.000   0.000   6.010   0.000
  0.000  -0.000  -0.000   1.348   0.000   0.000 -22.971   0.000   0.000  -0.000   0.000   0.000   0.000  -1.014  -0.000  -0.000
 -0.000   2.696   0.000  -0.000  -0.000  -0.000   0.000   0.000 -22.971  -0.000   0.000  -2.028  -0.000   0.000   0.000   0.000
  6.010   0.000  -0.000  -0.000  -0.000   0.000   0.000  -0.000   0.000   2.028  20.875   0.000   0.000   0.000   0.000  -0.000
 -0.000   0.000   6.010   0.000   0.000  -0.000   0.000   1.014  -0.000  -0.000   0.000  -0.000  20.875   0.000  -0.000   0.000
 -0.000  -0.000   0.000   0.000   6.010  -0.000  -0.000   0.000   0.000  -0.000   0.000   0.000  -0.000  -0.000  20.875  -0.000
  0.000   0.000   0.000  -1.014  -0.000  -0.000   6.010  -0.000  -0.000  -0.000   0.000  -0.000  -0.000   0.762   0.000   0.000
  0.000  -2.028  -0.000   0.000   0.000   0.000  -0.000   0.000   6.010  -0.000   0.000   1.523   0.000  -0.000  -0.000  -0.000
  0.000   0.000   0.000  -0.000  -0.000   0.000  -0.000  -0.000  -0.000  -0.000   0.000  -0.000   0.000   0.000  -0.000  -0.000
 -0.000  -0.000  -0.000  -0.000   0.000  -0.000   0.000   0.000   0.000  -0.000  -0.000  -0.000  -0.000  -0.000   0.000   0.000
 -0.000   0.000   0.000   0.000   0.000   0.000   0.000   0.000   0.000   0.000  -0.000  -0.000  -0.000  -0.000  -0.000  -0.000
  0.000  -0.000  -0.000   0.000   0.000   0.000  -0.000   0.000  -0.000   0.000   0.000   0.000   0.000  -0.000  -0.000  -0.000
 -0.000  -0.000   0.000  -0.000   0.000  -0.000   0.000   0.000  -0.000   0.000   0.000   0.000   0.000   0.000   0.000   0.000
 -0.000   0.000   0.000   0.000   0.000   0.000   0.000   0.000   0.000   0.000  -0.000  -0.000   0.000  -0.000   0.000  -0.000
  0.000  -0.000  -0.000   0.000   0.000   0.000  -0.000   0.000  -0.000   0.000   0.000   0.000  -0.000  -0.000   0.000  -0.000
 -0.000  -0.000   0.000  -0.000   0.000  -0.000   0.000   0.000  -0.000   0.000  -0.000   0.000   0.000   0.000   0.000   0.000
 total augmentation occupancy for first ion, spin component:           1
  2.007   0.000  -0.000   0.000  -0.000   0.023   0.000  -0.000  -0.000  -0.000  -0.000  -0.000   0.000   0.000   0.000  -0.000
  0.000   2.007   0.000   0.000   0.000   0.000   0.023   0.000   0.000  -0.000  -0.000  -0.000  -0.000  -0.000  -0.000   0.000
 -0.000   0.000   2.007   0.000  -0.000  -0.000   0.000   0.023   0.000  -0.000   0.000   0.000  -0.000  -0.000  -0.000  -0.000
  0.000   0.000   0.000   2.007   0.000  -0.000   0.000   0.000   0.023   0.000  -0.000  -0.000   0.000   0.000  -0.000   0.000
 -0.000   0.000  -0.000   0.000   2.007  -0.000  -0.000  -0.000   0.000   0.023  -0.000  -0.000  -0.000  -0.000  -0.000  -0.000
  0.023   0.000  -0.000  -0.000  -0.000   0.006   0.000  -0.000   0.000  -0.000   0.000  -0.000  -0.000   0.000  -0.000  -0.000
  0.000   0.023   0.000   0.000  -0.000   0.000   0.006  -0.000   0.000   0.000  -0.000   0.000   0.000  -0.000   0.000  -0.000
 -0.000   0.000   0.023   0.000  -0.000  -0.000  -0.000   0.006   0.000  -0.000  -0.000  -0.000   0.000   0.000   0.000  -0.000
 -0.000   0.000   0.000   0.023   0.000   0.000   0.000   0.000   0.006   0.000   0.000  -0.000  -0.000  -0.000  -0.000   0.000
 -0.000  -0.000  -0.000   0.000   0.023  -0.000   0.000  -0.000   0.000   0.006  -0.000   0.000  -0.000   0.000  -0.000   0.000
 -0.000  -0.000   0.000  -0.000  -0.000   0.000  -0.000  -0.000   0.000  -0.000   2.100   0.075   0.000  -0.000   0.000   0.000
 -0.000  -0.000   0.000  -0.000  -0.000  -0.000   0.000  -0.000  -0.000   0.000   0.075   0.004  -0.000   0.000   0.000   0.000
  0.000  -0.000  -0.000   0.000  -0.000  -0.000   0.000   0.000  -0.000  -0.000   0.000  -0.000   1.927  -0.000   0.000   0.272
  0.000  -0.000  -0.000   0.000  -0.000   0.000  -0.000   0.000  -0.000   0.000  -0.000   0.000  -0.000   1.927   0.000  -0.000
  0.000  -0.000  -0.000  -0.000  -0.000  -0.000   0.000   0.000  -0.000  -0.000   0.000   0.000   0.000   0.000   1.927   0.000
 -0.000   0.000  -0.000   0.000  -0.000  -0.000  -0.000  -0.000   0.000   0.000   0.000   0.000   0.272  -0.000   0.000   0.165
 -0.000   0.000   0.000  -0.000   0.000  -0.000   0.000  -0.000  -0.000  -0.000  -0.000  -0.000  -0.000   0.272   0.000   0.000
  0.000  -0.000   0.000   0.000  -0.000   0.000  -0.000  -0.000   0.000  -0.000  -0.000  -0.000   0.000   0.000   0.272  -0.000
 total augmentation occupancy for first ion, spin component:           2
  0.000  -0.000   0.000   0.000   0.000  -0.000   0.000  -0.000  -0.000   0.000  -0.000   0.000   0.000   0.000  -0.000  -0.000
 -0.000   0.000   0.000  -0.000  -0.000   0.000  -0.000  -0.000   0.000   0.000   0.000  -0.000   0.000  -0.000   0.000  -0.000
  0.000   0.000   0.000  -0.000   0.000  -0.000  -0.000  -0.000   0.000  -0.000  -0.000   0.000   0.000  -0.000  -0.000  -0.000
  0.000  -0.000  -0.000   0.000  -0.000  -0.000   0.000  -0.000  -0.000   0.000  -0.000   0.000   0.000  -0.000   0.000   0.000
  0.000  -0.000   0.000  -0.000   0.000   0.000   0.000  -0.000   0.000  -0.000  -0.000   0.000   0.000   0.000   0.000  -0.000
 -0.000   0.000  -0.000  -0.000   0.000  -0.000   0.000  -0.000  -0.000   0.000   0.000   0.000   0.000  -0.000  -0.000  -0.000
  0.000  -0.000  -0.000   0.000   0.000   0.000  -0.000  -0.000   0.000   0.000  -0.000  -0.000  -0.000   0.000  -0.000   0.000
 -0.000  -0.000  -0.000  -0.000  -0.000  -0.000  -0.000   0.000   0.000   0.000   0.000   0.000   0.000   0.000  -0.000   0.000
 -0.000   0.000   0.000  -0.000   0.000  -0.000   0.000   0.000   0.000   0.000   0.000   0.000   0.000  -0.000   0.000  -0.000
  0.000   0.000  -0.000   0.000  -0.000   0.000   0.000   0.000   0.000  -0.000   0.000   0.000   0.000   0.000   0.000  -0.000
 -0.000   0.000  -0.000  -0.000  -0.000   0.000  -0.000   0.000   0.000   0.000   0.000  -0.000   0.000   0.000   0.000  -0.000
  0.000  -0.000   0.000   0.000   0.000   0.000  -0.000   0.000   0.000   0.000  -0.000  -0.000  -0.000   0.000   0.000   0.000
  0.000   0.000   0.000   0.000   0.000   0.000  -0.000   0.000   0.000   0.000   0.000  -0.000  -0.006  -0.011   0.001   0.001
  0.000  -0.000  -0.000  -0.000   0.000  -0.000   0.000   0.000  -0.000   0.000   0.000   0.000  -0.011   0.001   0.000   0.001
 -0.000   0.000  -0.000   0.000   0.000  -0.000  -0.000  -0.000   0.000   0.000   0.000   0.000   0.001   0.000  -0.005  -0.000
 -0.000  -0.000  -0.000   0.000  -0.000  -0.000   0.000   0.000  -0.000  -0.000  -0.000   0.000   0.001   0.001  -0.000  -0.000
  0.000   0.000   0.000  -0.000   0.000   0.000  -0.000  -0.000   0.000  -0.000   0.000   0.000   0.001  -0.000  -0.000  -0.000
  0.000  -0.000   0.000   0.000  -0.000   0.000  -0.000   0.000  -0.000  -0.000   0.000  -0.000  -0.000  -0.000   0.000   0.000
 total augmentation occupancy for first ion, spin component:           3
 -0.000   0.000  -0.000   0.000  -0.000   0.000  -0.000   0.000  -0.000   0.000   0.000  -0.000   0.000   0.000   0.000  -0.000
  0.000   0.000   0.000   0.000  -0.000  -0.000  -0.000  -0.000  -0.000   0.000   0.000  -0.000   0.000   0.000  -0.000  -0.000
 -0.000   0.000   0.000   0.000   0.000   0.000  -0.000  -0.000  -0.000  -0.000   0.000  -0.000   0.000  -0.000   0.000  -0.000
  0.000   0.000   0.000  -0.000   0.000  -0.000  -0.000  -0.000   0.000  -0.000   0.000  -0.000  -0.000  -0.000  -0.000   0.000
 -0.000  -0.000   0.000   0.000  -0.000  -0.000   0.000  -0.000  -0.000   0.000  -0.000   0.000   0.000   0.000  -0.000   0.000
  0.000  -0.000   0.000  -0.000  -0.000   0.000  -0.000   0.000  -0.000   0.000  -0.000  -0.000   0.000  -0.000   0.000   0.000
 -0.000  -0.000  -0.000  -0.000   0.000  -0.000  -0.000  -0.000   0.000   0.000  -0.000  -0.000   0.000   0.000   0.000  -0.000
  0.000  -0.000  -0.000  -0.000  -0.000   0.000  -0.000  -0.000  -0.000  -0.000  -0.000  -0.000   0.000   0.000  -0.000  -0.000
 -0.000  -0.000  -0.000   0.000  -0.000  -0.000   0.000  -0.000   0.000  -0.000  -0.000  -0.000  -0.000  -0.000   0.000   0.000
  0.000   0.000  -0.000  -0.000   0.000   0.000   0.000  -0.000  -0.000   0.000   0.000   0.000  -0.000  -0.000   0.000   0.000
  0.000   0.000   0.000   0.000  -0.000  -0.000  -0.000  -0.000  -0.000   0.000  -0.000   0.000   0.000  -0.000  -0.000   0.000
 -0.000  -0.000  -0.000  -0.000   0.000  -0.000  -0.000  -0.000  -0.000   0.000   0.000   0.000  -0.000  -0.000   0.000   0.000
  0.000   0.000   0.000  -0.000   0.000   0.000   0.000   0.000  -0.000  -0.000   0.000  -0.000  -0.000  -0.001  -0.001   0.000
  0.000   0.000  -0.000  -0.000   0.000  -0.000   0.000   0.000  -0.000  -0.000  -0.000  -0.000  -0.001  -0.000  -0.011   0.000
  0.000  -0.000   0.000  -0.000  -0.000   0.000   0.000  -0.000   0.000   0.000  -0.000   0.000  -0.001  -0.011   0.001   0.000
 -0.000  -0.000  -0.000   0.000   0.000   0.000  -0.000  -0.000   0.000   0.000   0.000   0.000   0.000   0.000   0.000  -0.000
 -0.000  -0.000   0.000  -0.000  -0.000   0.000  -0.000   0.000   0.000   0.000  -0.000  -0.000   0.000   0.000   0.001  -0.000
 -0.000   0.000  -0.000  -0.000  -0.000   0.000  -0.000  -0.000   0.000  -0.000   0.000  -0.000   0.000   0.001  -0.000  -0.000
 total augmentation occupancy for first ion, spin component:           4
  0.000  -0.000  -0.000   0.000   0.000  -0.000   0.000   0.000  -0.000  -0.000   0.000  -0.000   0.000  -0.000   0.000   0.000
 -0.000   0.000   0.000   0.000  -0.000   0.000   0.000  -0.000  -0.000   0.000   0.000  -0.000   0.000   0.000   0.000   0.000
 -0.000   0.000  -0.000  -0.000   0.000   0.000  -0.000   0.000   0.000  -0.000  -0.000   0.000   0.000   0.000  -0.000   0.000
  0.000   0.000  -0.000  -0.000  -0.000  -0.000  -0.000   0.000   0.000   0.000  -0.000   0.000  -0.000  -0.000   0.000  -0.000
  0.000  -0.000   0.000  -0.000   0.000  -0.000   0.000  -0.000   0.000  -0.000  -0.000   0.000  -0.000  -0.000   0.000   0.000
 -0.000   0.000   0.000  -0.000  -0.000   0.000   0.000   0.000  -0.000  -0.000  -0.000  -0.000  -0.000  -0.000  -0.000   0.000
  0.000   0.000  -0.000  -0.000   0.000   0.000  -0.000  -0.000  -0.000   0.000  -0.000  -0.000  -0.000  -0.000  -0.000   0.000
  0.000  -0.000   0.000   0.000  -0.000   0.000  -0.000   0.000   0.000  -0.000   0.000   0.000  -0.000   0.000   0.000   0.000
 -0.000  -0.000   0.000   0.000   0.000  -0.000  -0.000   0.000   0.000   0.000   0.000   0.000   0.000   0.000   0.000  -0.000
 -0.000   0.000  -0.000   0.000  -0.000  -0.000   0.000  -0.000   0.000  -0.000   0.000   0.000   0.000   0.000  -0.000  -0.000
  0.000   0.000  -0.000  -0.000  -0.000  -0.000  -0.000   0.000   0.000   0.000  -0.000   0.000   0.000   0.000  -0.000   0.000
 -0.000  -0.000   0.000   0.000   0.000  -0.000  -0.000   0.000   0.000   0.000   0.000   0.000   0.000  -0.000  -0.000   0.000
  0.000   0.000   0.000  -0.000  -0.000  -0.000  -0.000  -0.000   0.000   0.000   0.000   0.000  -0.001  -0.000  -0.011   0.000
 -0.000   0.000   0.000  -0.000  -0.000  -0.000  -0.000   0.000   0.000   0.000   0.000  -0.000  -0.000   0.001   0.006   0.000
  0.000   0.000  -0.000   0.000   0.000  -0.000  -0.000   0.000   0.000  -0.000  -0.000  -0.000  -0.011   0.006   0.000   0.001
  0.000   0.000   0.000  -0.000   0.000   0.000   0.000   0.000  -0.000  -0.000   0.000   0.000   0.000   0.000   0.001  -0.000
  0.000   0.000  -0.000  -0.000   0.000   0.000  -0.000  -0.000   0.000  -0.000   0.000   0.000   0.000  -0.000  -0.001  -0.000
  0.000   0.000   0.000  -0.000   0.000  -0.000   0.000  -0.000  -0.000   0.000  -0.000   0.000   0.001  -0.001  -0.000  -0.000


------------------------ aborting loop because EDIFF is reached ----------------------------------------


    FORLOC:  cpu time    0.0007: real time    0.0007
    FORHF :  cpu time  112.0090: real time  111.9462
    FORNL :  cpu time    0.2101: real time    0.2100
    STRESS:  cpu time    0.7383: real time    0.7380
    FORCOR:  cpu time    0.0242: real time    0.0243
    OFIELD:  cpu time    0.0003: real time    0.0003

 ---------------------------------------------------------------------------------------------

         DFTD3 V3.0 Rev 1        
 IVDW         = 12
 DF pbe       
 parameters
 VDW_S6       =    1.0000
 VDW_S8       =    0.7875
 VDW_A1       =    0.4289
 VDW_A2       =    4.4407
 k1-k3        =   16.0000    1.3333   -4.0000
 VDW_RADIUS   =   50.2022 A
 VDW_CNRADIUS =   21.1671 A
 Edisp (eV)   -0.43996

 E6    (eV) :    -0.2176
 E8    (eV) :    -0.2224
 % E8        : 50.54
    FORVDW:  cpu time    0.0149: real time    0.0184

  FORCE on cell =-STRESS in cart. coord.  units (eV):
  Direction    XX          YY          ZZ          XY          YZ          ZX
  --------------------------------------------------------------------------------------
  Alpha Z    65.89698    65.89698    65.89698
  Ewald    -580.54610  -580.54610  -580.54610     0.00000    -0.00000    -0.00000
  Hartree   226.67687   226.67680   226.67690     0.00000    -0.00001    -0.00000
  E(xc)     -84.87169   -84.87169   -84.87169    -0.00000     0.00000    -0.00000
  Local    -165.30821  -165.30807  -165.30832    -0.00004     0.00003    -0.00002
  n-local   150.35057   150.35060   150.35071    -0.00002    -0.00003    -0.00002
  augment    71.67224    71.67222    71.67220     0.00001     0.00002     0.00001
  Kinetic   399.30484   399.30496   399.30507    -0.00001    -0.00005    -0.00001
  Fock      -87.72384   -87.72382   -87.72381    -0.00001    -0.00001    -0.00001
  vdW        -0.44923    -0.44923    -0.44923     0.00000    -0.00000    -0.00000
  -------------------------------------------------------------------------------------
  Total      -4.99756    -4.99735    -4.99729    -0.00007    -0.00005    -0.00005
  in kB    -138.29630  -138.29044  -138.28867    -0.00204    -0.00131    -0.00139
  external pressure =     -138.29 kB  Pullay stress =        0.00 kB


 VOLUME and BASIS-vectors are now :
 -----------------------------------------------------------------------------
  energy-cutoff  :      300.00
  volume of cell :       57.90
      direct lattice vectors                 reciprocal lattice vectors
     4.342345876  0.000000000  0.000000000     0.230290269 -0.132958149 -0.094015609
     2.171172938  3.760581840 -0.000000000     0.000000000  0.265916298 -0.094015609
     2.171172938  1.253527280  3.545510561    -0.000000000  0.000000000  0.282046826

  length of vectors
     4.342345876  4.342345876  4.342345876     0.282046826  0.282046826  0.282046826


 FORCES acting on ions:
    Electron-Ion                     Ewald-Force                    Non-Local-Force
 -----------------------------------------------------------------------------------------------
   0.131E-06 0.327E-06 -.102E-06   0.498E-15 0.105E-14 0.672E-15   0.475E-07 -.475E-06 -.861E-07
 -----------------------------------------------------------------------------------------------
   0.124E-06 0.336E-06 -.117E-06   0.498E-15 0.105E-14 0.672E-15   0.475E-07 -.475E-06 -.861E-07
 
 
 POSITION                                       TOTAL-FORCE (eV/Angst)
 -----------------------------------------------------------------------------------
      0.00000      0.00000      0.00000         0.000000     -0.000000     -0.000000
 -----------------------------------------------------------------------------------
    total drift:                                0.000000     -0.000000     -0.000000


--------------------------------------------------------------------------------------------------------



  FREE ENERGIE OF THE ION-ELECTRON SYSTEM (eV)
  ---------------------------------------------------
  free  energy   TOTEN  =       -13.46201755 eV

  energy  without entropy=      -13.46201755  energy(sigma->0) =      -13.46201755
 


--------------------------------------------------------------------------------------------------------


    POTLOK:  cpu time    0.1937: real time    0.1936


--------------------------------------------------------------------------------------------------------


 writing wavefunctions
     LOOP+:  cpu time  392.9536: real time  392.9267
    4ORBIT:  cpu time    0.0000: real time    0.0000

 Spin-Orbit-Coupling matrix elements

 Ion:    1  E_soc:    -32.1777745
 l=   1
     0.0000000    -4.9632948    -4.9632969
    -4.9632948     0.0000000    -4.9632935
    -4.9632969    -4.9632935     0.0000000
 l=   2
     0.0000000    -0.0799368     0.0000000    -0.0799368    -0.3197250
    -0.0799368     0.0000000    -0.2397938    -0.0799424    -0.0799368
     0.0000000    -0.2397938     0.0000000    -0.2397938     0.0000000
    -0.0799368    -0.0799424    -0.2397938     0.0000000    -0.0799368
    -0.3197250    -0.0799368     0.0000000    -0.0799368     0.0000000
 l=   3
     0.0000000     0.0000000     0.0000000     0.0000000     0.0000000     0.0000000     0.0000000
     0.0000000     0.0000000     0.0000000     0.0000000     0.0000000     0.0000000     0.0000000
     0.0000000     0.0000000     0.0000000     0.0000000     0.0000000     0.0000000     0.0000000
     0.0000000     0.0000000     0.0000000     0.0000000     0.0000000     0.0000000     0.0000000
     0.0000000     0.0000000     0.0000000     0.0000000     0.0000000     0.0000000     0.0000000
     0.0000000     0.0000000     0.0000000     0.0000000     0.0000000     0.0000000     0.0000000
     0.0000000     0.0000000     0.0000000     0.0000000     0.0000000     0.0000000     0.0000000

 total amount of memory used by VASP MPI-rank0    64491. kBytes
=======================================================================

   base      :      30000. kBytes
   nonl-proj :       6499. kBytes
   fftplans  :       3389. kBytes
   grid      :       5619. kBytes
   one-center:         62. kBytes
   HF        :         64. kBytes
   nonlr-proj:        771. kBytes
   wavefun   :      18087. kBytes
 
  
  
 General timing and accounting informations for this job:
 ========================================================
  
                  Total CPU time used (sec):      395.763
                            User time (sec):      394.998
                          System time (sec):        0.766
                         Elapsed time (sec):      395.779
  
                   Maximum memory used (kb):      158920.
                   Average memory used (kb):           0.
  
                          Minor page faults:        96644
                          Major page faults:            0
                 Voluntary context switches:         2199
