    1    1  999    1
  0.1628488E+02  0.2845115E-09  0.2845115E-09  0.2845115E-09  0.1000000E-15
  1.000000000000000E-004
  CAR 
 He_FCC                                  
      2    104      5
 
  0.0000000E+00  0.0000000E+00  0.0000000E+00  0.3644315E-03
    1      -15.670587   1.000000
    2        3.609632   0.000000
    3       20.698687   0.000000
    4       20.698687   0.000000
    5       20.698687   0.000000
 
  0.7142857E-01  0.6938894E-17  0.0000000E+00  0.2915452E-02
    1      -15.627579   1.000000
    2        3.580724   0.000000
    3       19.337530   0.000000
    4       20.365269   0.000000
    5       20.365269   0.000000
 
  0.1428571E+00  0.1387779E-16  0.6938894E-17  0.2915452E-02
    1      -15.505176   1.000000
    2        3.501085   0.000000
    3       16.913072   0.000000
    4       19.746505   0.000000
    5       19.746505   0.000000
 
  0.2142857E+00  0.1387779E-16  0.0000000E+00  0.2915452E-02
    1      -15.323065   1.000000
    2        3.393268   0.000000
    3       14.604796   0.000000
    4       19.196981   0.000000
    5       19.196981   0.000000
 
  0.2857143E+00  0.5551115E-16  0.2775558E-16  0.2915452E-02
    1      -15.113101   1.000000
    2        3.285326   0.000000
    3       12.667922   0.000000
    4       18.815642   0.000000
    5       18.815642   0.000000
 
  0.3571429E+00  0.2775558E-16  0.1387779E-16  0.2915452E-02
    1      -14.916196   1.000000
    2        3.197772   0.000000
    3       11.205298   0.000000
    4       18.607941   0.000000
    5       18.607942   0.000000
 
  0.4285714E+00  0.2775558E-16  0.0000000E+00  0.2915452E-02
    1      -14.775254   1.000000
    2        3.144308   0.000000
    3       10.290936   0.000000
    4       18.532662   0.000000
    5       18.532662   0.000000
 
  0.5000000E+00  0.5551115E-16  0.0000000E+00  0.1457726E-02
    1      -14.723957   1.000000
    2        3.126985   0.000000
    3        9.980451   0.000000
    4       18.520771   0.000000
    5       18.520771   0.000000
 
  0.7142857E-01  0.7142857E-01 -0.6938894E-17  0.2186589E-02
    1      -15.613335   1.000000
    2        3.573547   0.000000
    3       19.492549   0.000000
    4       19.492549   0.000000
    5       20.966773   0.000000
 
  0.1428571E+00  0.7142857E-01  0.0000000E+00  0.8746356E-02
    1      -15.517638   1.000000
    2        3.518740   0.000000
    3       17.607175   0.000000
    4       18.658225   0.000000
    5       20.964661   0.000000
 
  0.2142857E+00  0.7142857E-01 -0.1387779E-16  0.8746356E-02
    1      -15.355695   1.000000
    2        3.435820   0.000000
    3       15.252074   0.000000
    4       18.010185   0.000000
    5       20.585868   0.000000
 
  0.2857143E+00  0.7142857E-01  0.4163336E-16  0.8746356E-02
    1      -15.155111   1.000000
    2        3.352064   0.000000
    3       13.164381   0.000000
    4       17.592994   0.000000
    5       20.105037   0.000000
 
  0.3571429E+00  0.7142857E-01  0.0000000E+00  0.8746356E-02
    1      -14.953626   1.000000
    2        3.290465   0.000000
    3       11.504055   0.000000
    4       17.419076   0.000000
    5       19.486033   0.000000
 
  0.4285714E+00  0.7142857E-01  0.0000000E+00  0.8746356E-02
    1      -14.793524   1.000000
    2        3.259852   0.000000
    3       10.363292   0.000000
    4       17.485579   0.000000
    5       18.755973   0.000000
 
  0.5000000E+00  0.7142857E-01  0.0000000E+00  0.8746356E-02
    1      -14.711874   1.000000
    2        3.251822   0.000000
    3        9.818076   0.000000
    4       17.776417   0.000000
    5       18.118864   0.000000
 
 -0.4285714E+00  0.7142857E-01  0.1387779E-16  0.8746356E-02
    1      -14.728849   1.000000
    2        3.253424   0.000000
    3        9.914470   0.000000
    4       17.680880   0.000000
    5       18.255841   0.000000
 
 -0.3571429E+00  0.7142857E-01 -0.8326673E-16  0.8746356E-02
    1      -14.840170   1.000000
    2        3.266962   0.000000
    3       10.643493   0.000000
    4       17.471613   0.000000
    5       18.858640   0.000000
 
 -0.2857143E+00  0.7142857E-01 -0.4163336E-16  0.8746356E-02
    1      -15.018805   1.000000
    2        3.305724   0.000000
    3       11.943606   0.000000
    4       17.496362   0.000000
    5       19.496657   0.000000
 
 -0.2142857E+00  0.7142857E-01  0.6938894E-17  0.8746356E-02
    1      -15.224626   1.000000
    2        3.374700   0.000000
    3       13.728909   0.000000
    4       17.752036   0.000000
    5       20.106008   0.000000
 
 -0.1428571E+00  0.7142857E-01  0.6938894E-17  0.8746356E-02
    1      -15.416002   1.000000
    2        3.459923   0.000000
    3       15.880532   0.000000
    4       18.233070   0.000000
    5       20.636889   0.000000
 
 -0.7142857E-01  0.7142857E-01 -0.4037043E-17  0.4373178E-02
    1      -15.558183   1.000000
    2        3.537695   0.000000
    3       18.097375   0.000000
    4       19.004072   0.000000
    5       20.850512   0.000000
 
  0.1428571E+00  0.1428571E+00  0.2775558E-16  0.2186589E-02
    1      -15.451391   1.000000
    2        3.504834   0.000000
    3       17.694797   0.000000
    4       17.694797   0.000000
    5       20.083705   0.000000
 
  0.2142857E+00  0.1428571E+00  0.0000000E+00  0.8746356E-02
    1      -15.317043   1.000000
    2        3.472491   0.000000
    3       15.888493   0.000000
    4       16.948856   0.000000
    5       20.200716   0.000000
 
  0.2857143E+00  0.1428571E+00  0.5551115E-16  0.8746356E-02
    1      -15.137303   1.000000
    2        3.451250   0.000000
    3       13.688270   0.000000
    4       16.450949   0.000000
    5       19.393666   0.000000
 
  0.3571429E+00  0.1428571E+00  0.0000000E+00  0.8746356E-02
    1      -14.945200   1.000000
    2        3.468493   0.000000
    3       11.782055   0.000000
    4       16.212167   0.000000
    5       18.166634   0.000000
 
  0.4285714E+00  0.1428571E+00  0.0000000E+00  0.8746356E-02
    1      -14.779654   1.000000
    2        3.530930   0.000000
    3       10.327112   0.000000
    4       16.235263   0.000000
    5       17.225183   0.000000
 
  0.5000000E+00  0.1428571E+00  0.5551115E-16  0.8746356E-02
    1      -14.677487   1.000000
    2        3.603959   0.000000
    3        9.444100   0.000000
    4       16.517705   0.000000
    5       16.578559   0.000000
 
 -0.4285714E+00  0.1428571E+00  0.1387779E-16  0.8746356E-02
    1      -14.663025   1.000000
    2        3.621816   0.000000
    3        9.243714   0.000000
    4       16.211662   0.000000
    5       17.050830   0.000000
 
 -0.3571429E+00  0.1428571E+00 -0.5551115E-16  0.8746356E-02
    1      -14.739789   1.000000
    2        3.560629   0.000000
    3        9.753324   0.000000
    4       16.102322   0.000000
    5       17.815316   0.000000
 
 -0.2857143E+00  0.1428571E+00 -0.5551115E-16  0.8746356E-02
    1      -14.889198   1.000000
    2        3.474615   0.000000
    3       10.877115   0.000000
    4       16.226216   0.000000
    5       18.768340   0.000000
 
 -0.2142857E+00  0.1428571E+00  0.2081668E-16  0.8746356E-02
    1      -15.077208   1.000000
    2        3.422901   0.000000
    3       12.456014   0.000000
    4       16.568885   0.000000
    5       19.804799   0.000000
 
 -0.1428571E+00  0.1428571E+00  0.3358555E-17  0.4373178E-02
    1      -15.264620   1.000000
    2        3.423700   0.000000
    3       14.268281   0.000000
    4       17.171119   0.000000
    5       20.636211   0.000000
 
  0.2142857E+00  0.2142857E+00  0.2775558E-16  0.2186589E-02
    1      -15.213415   1.000000
    2        3.503872   0.000000
    3       16.110161   0.000000
    4       16.110161   0.000000
    5       18.390711   0.000000
 
  0.2857143E+00  0.2142857E+00  0.2775558E-16  0.8746356E-02
    1      -15.062527   1.000000
    2        3.554951   0.000000
    3       14.395991   0.000000
    4       15.523930   0.000000
    5       17.540039   0.000000
 
  0.3571429E+00  0.2142857E+00  0.2775558E-16  0.8746356E-02
    1      -14.891941   1.000000
    2        3.666275   0.000000
    3       12.272238   0.000000
    4       15.201588   0.000000
    5       16.307969   0.000000
 
  0.4285714E+00  0.2142857E+00 -0.2775558E-16  0.8746356E-02
    1      -14.735399   1.000000
    2        3.860837   0.000000
    3       10.444439   0.000000
    4       15.147212   0.000000
    5       15.427444   0.000000
 
  0.5000000E+00  0.2142857E+00  0.5551115E-16  0.8746356E-02
    1      -14.626424   1.000000
    2        4.103870   0.000000
    3        9.097307   0.000000
    4       14.885747   0.000000
    5       15.360896   0.000000
 
 -0.4285714E+00  0.2142857E+00  0.2775558E-16  0.8746356E-02
    1      -14.589774   1.000018
    2        4.246750   0.000000
    3        8.442639   0.000000
    4       14.666914   0.000000
    5       15.839407   0.000000
 
 -0.3571429E+00  0.2142857E+00 -0.8326673E-16  0.8746356E-02
    1      -14.633986   1.000000
    2        4.124047   0.000000
    3        8.657636   0.000000
    4       14.748323   0.000000
    5       16.573981   0.000000
 
 -0.2857143E+00  0.2142857E+00 -0.1387779E-16  0.8746356E-02
    1      -14.748528   1.000000
    2        3.835779   0.000000
    3        9.601709   0.000000
    4       15.102961   0.000000
    5       17.543905   0.000000
 
 -0.2142857E+00  0.2142857E+00  0.3555021E-17  0.4373178E-02
    1      -14.907471   1.000000
    2        3.575734   0.000000
    3       10.968297   0.000000
    4       15.706468   0.000000
    5       18.691456   0.000000
 
  0.2857143E+00  0.2857143E+00  0.8326673E-16  0.2186589E-02
    1      -14.943888   1.000000
    2        3.676722   0.000000
    3       14.848610   0.000000
    4       14.848610   0.000000
    5       15.789651   0.000000
 
  0.3571429E+00  0.2857143E+00  0.2775558E-16  0.8746356E-02
    1      -14.803363   1.000000
    2        3.862123   0.000000
    3       13.019892   0.000000
    4       14.438092   0.000000
    5       14.738047   0.000000
 
  0.4285714E+00  0.2857143E+00 -0.2775558E-16  0.8746356E-02
    1      -14.668629   1.000000
    2        4.160924   0.000000
    3       10.863041   0.000000
    4       13.977391   0.000000
    5       14.297454   0.000000
 
  0.5000000E+00  0.2857143E+00  0.0000000E+00  0.8746356E-02
    1      -14.567784   1.000223
    2        4.592766   0.000000
    3        9.034007   0.000000
    4       13.534204   0.000000
    5       14.428114   0.000000
 
 -0.4285714E+00  0.2857143E+00 -0.2081668E-16  0.8746356E-02
    1      -14.522748   1.009702
    2        5.039613   0.000000
    3        7.740883   0.000000
    4       13.432323   0.000000
    5       14.828451   0.000000
 
 -0.3571429E+00  0.2857143E+00 -0.4857226E-16  0.8746356E-02
    1      -14.543324   1.002204
    2        4.983589   0.000000
    3        7.520232   0.000000
    4       13.669649   0.000000
    5       15.493501   0.000000
 
 -0.2857143E+00  0.2857143E+00 -0.1640708E-16  0.4373178E-02
    1      -14.624588   1.000000
    2        4.391214   0.000000
    3        8.367131   0.000000
    4       14.233338   0.000000
    5       16.410273   0.000000
 
  0.3571429E+00  0.3571429E+00  0.0000000E+00  0.2186589E-02
    1      -14.696366   1.000000
    2        4.088650   0.000000
    3       12.951048   0.000000
    4       13.938279   0.000000
    5       13.938279   0.000000
 
  0.4285714E+00  0.3571429E+00  0.0000000E+00  0.8746356E-02
    1      -14.592409   1.000013
    2        4.411129   0.000000
    3       11.292757   0.000000
    4       13.226591   0.000000
    5       13.708685   0.000000
 
  0.5000000E+00  0.3571429E+00  0.0000000E+00  0.8746356E-02
    1      -14.513114   1.016597
    2        4.892285   0.000000
    3        9.388206   0.000000
    4       12.714529   0.000000
    5       13.751581   0.000000
 
 -0.4285714E+00  0.3571429E+00 -0.6938894E-17  0.8746356E-02
    1      -14.475191   1.023768
    2        5.569836   0.000000
    3        7.642551   0.000000
    4       12.633811   0.000000
    5       14.066368   0.000000
 
 -0.3571429E+00  0.3571429E+00 -0.7225862E-16  0.4373178E-02
    1      -14.486272   1.035419
    2        6.122201   0.000000
    3        6.499237   0.000000
    4       12.956697   0.000000
    5       14.649920   0.000000
 
  0.4285714E+00  0.4285714E+00  0.5551115E-16  0.2186589E-02
    1      -14.522609   1.009784
    2        4.665676   0.000000
    3       10.868913   0.000000
    4       13.389408   0.000000
    5       13.389408   0.000000
 
  0.5000000E+00  0.4285714E+00  0.5551115E-16  0.8746356E-02
    1      -14.474223   1.021483
    2        4.988659   0.000000
    3        9.865038   0.000000
    4       12.704579   0.000000
    5       13.342744   0.000000
 
 -0.4285714E+00  0.4285714E+00  0.7110042E-17  0.4373178E-02
    1      -14.457472   0.934275
    2        5.375657   0.000000
    3        8.591380   0.000000
    4       12.349348   0.000000
    5       13.569035   0.000000
 
  0.5000000E+00  0.5000000E+00  0.5551115E-16  0.1093294E-02
    1      -14.460127   0.954931
    2        5.000923   0.000000
    3       10.024131   0.000000
    4       13.206144   0.000000
    5       13.206144   0.000000
 
  0.2142857E+00  0.1428571E+00  0.7142857E-01  0.8746356E-02
    1      -15.402394   1.000000
    2        3.472477   0.000000
    3       16.203309   0.000000
    4       17.620501   0.000000
    5       21.246693   0.000000
 
  0.2857143E+00  0.1428571E+00  0.7142857E-01  0.1749271E-01
    1      -15.231386   1.000000
    2        3.426372   0.000000
    3       14.165973   0.000000
    4       16.950373   0.000000
    5       20.699499   0.000000
 
  0.3571429E+00  0.1428571E+00  0.7142857E-01  0.1749271E-01
    1      -15.034920   1.000000
    2        3.407597   0.000000
    3       12.257320   0.000000
    4       16.541250   0.000000
    5       19.695207   0.000000
 
  0.4285714E+00  0.1428571E+00  0.7142857E-01  0.1749271E-01
    1      -14.851397   1.000000
    2        3.429942   0.000000
    3       10.742035   0.000000
    4       16.328909   0.000000
    5       18.749553   0.000000
 
  0.5000000E+00  0.1428571E+00  0.7142857E-01  0.1749271E-01
    1      -14.720497   1.000000
    2        3.476052   0.000000
    3        9.756857   0.000000
    4       16.269446   0.000000
    5       18.089761   0.000000
 
 -0.4285714E+00  0.1428571E+00  0.7142857E-01  0.8746356E-02
    1      -14.672962   1.000000
    2        3.500805   0.000000
    3        9.411651   0.000000
    4       16.273146   0.000000
    5       17.843931   0.000000
 
  0.2857143E+00  0.2142857E+00  0.7142857E-01  0.8746356E-02
    1      -15.174108   1.000000
    2        3.482936   0.000000
    3       14.575216   0.000000
    4       16.058672   0.000000
    5       19.540454   0.000000
 
  0.3571429E+00  0.2142857E+00  0.7142857E-01  0.1749271E-01
    1      -14.998760   1.000000
    2        3.539202   0.000000
    3       12.696643   0.000000
    4       15.371635   0.000000
    5       18.375977   0.000000
 
  0.4285714E+00  0.2142857E+00  0.7142857E-01  0.1749271E-01
    1      -14.824488   1.000000
    2        3.665325   0.000000
    3       10.941527   0.000000
    4       14.884730   0.000000
    5       17.598648   0.000000
 
  0.5000000E+00  0.2142857E+00  0.7142857E-01  0.1749271E-01
    1      -14.687621   1.000000
    2        3.845140   0.000000
    3        9.597868   0.000000
    4       14.563705   0.000000
    5       17.223064   0.000000
 
 -0.4285714E+00  0.2142857E+00  0.7142857E-01  0.1749271E-01
    1      -14.618986   1.000000
    2        3.985181   0.000000
    3        8.863627   0.000000
    4       14.427485   0.000000
    5       17.206155   0.000000
 
 -0.3571429E+00  0.2142857E+00  0.7142857E-01  0.1749271E-01
    1      -14.634795   1.000000
    2        3.958706   0.000000
    3        8.905362   0.000000
    4       14.501722   0.000000
    5       17.492129   0.000000
 
 -0.2857143E+00  0.2142857E+00  0.7142857E-01  0.1749271E-01
    1      -14.731204   1.000000
    2        3.782289   0.000000
    3        9.692152   0.000000
    4       14.793752   0.000000
    5       18.033071   0.000000
 
 -0.2142857E+00  0.2142857E+00  0.7142857E-01  0.1749271E-01
    1      -14.885705   1.000000
    2        3.591547   0.000000
    3       11.014773   0.000000
    4       15.293384   0.000000
    5       18.798362   0.000000
 
 -0.1428571E+00  0.2142857E+00  0.7142857E-01  0.8746356E-02
    1      -15.064436   1.000000
    2        3.469111   0.000000
    3       12.622354   0.000000
    4       15.997360   0.000000
    5       19.754588   0.000000
 
  0.3571429E+00  0.2857143E+00  0.7142857E-01  0.8746356E-02
    1      -14.916554   1.000000
    2        3.681151   0.000000
    3       13.290000   0.000000
    4       14.369078   0.000000
    5       16.716430   0.000000
 
  0.4285714E+00  0.2857143E+00  0.7142857E-01  0.1749271E-01
    1      -14.763912   1.000000
    2        3.905028   0.000000
    3       11.458705   0.000000
    4       13.494626   0.000000
    5       16.337438   0.000000
 
  0.5000000E+00  0.2857143E+00  0.7142857E-01  0.1749271E-01
    1      -14.635664   1.000000
    2        4.243011   0.000000
    3        9.705286   0.000000
    4       13.020456   0.000000
    5       16.185736   0.000000
 
 -0.4285714E+00  0.2857143E+00  0.7142857E-01  0.1749271E-01
    1      -14.559530   1.000514
    2        4.615534   0.000000
    3        8.418568   0.000000
    4       12.848601   0.000000
    5       16.303915   0.000000
 
 -0.3571429E+00  0.2857143E+00  0.7142857E-01  0.1749271E-01
    1      -14.552583   1.000988
    2        4.724264   0.000000
    3        7.965216   0.000000
    4       12.986328   0.000000
    5       16.674141   0.000000
 
 -0.2857143E+00  0.2857143E+00  0.7142857E-01  0.1749271E-01
    1      -14.616241   1.000001
    2        4.383790   0.000000
    3        8.520715   0.000000
    4       13.442349   0.000000
    5       17.255401   0.000000
 
 -0.2142857E+00  0.2857143E+00  0.7142857E-01  0.8746356E-02
    1      -14.735957   1.000000
    2        3.930280   0.000000
    3        9.668985   0.000000
    4       14.218205   0.000000
    5       17.986653   0.000000
 
  0.4285714E+00  0.3571429E+00  0.7142857E-01  0.8746356E-02
    1      -14.681045   1.000000
    2        4.137707   0.000000
    3       12.265782   0.000000
    4       12.365998   0.000000
    5       15.095462   0.000000
 
  0.5000000E+00  0.3571429E+00  0.7142857E-01  0.1749271E-01
    1      -14.574381   1.000110
    2        4.562127   0.000000
    3       10.187483   0.000000
    4       11.848315   0.000000
    5       15.270982   0.000000
 
 -0.4285714E+00  0.3571429E+00  0.7142857E-01  0.1749271E-01
    1      -14.505798   1.023088
    2        5.152893   0.000000
    3        8.371794   0.000000
    4       11.693542   0.000000
    5       15.484901   0.000000
 
 -0.3571429E+00  0.3571429E+00  0.7142857E-01  0.1749271E-01
    1      -14.489889   1.035001
    2        5.716499   0.000000
    3        7.110533   0.000000
    4       11.891839   0.000000
    5       15.891041   0.000000
 
 -0.2857143E+00  0.3571429E+00  0.7142857E-01  0.8746356E-02
    1      -14.529684   1.006180
    2        5.211028   0.000000
    3        7.433635   0.000000
    4       12.468736   0.000000
    5       16.499417   0.000000
 
  0.5000000E+00  0.4285714E+00  0.7142857E-01  0.8746356E-02
    1      -14.516360   1.014021
    2        4.790233   0.000000
    3       10.333081   0.000000
    4       11.809895   0.000000
    5       14.356942   0.000000
 
 -0.4285714E+00  0.4285714E+00  0.7142857E-01  0.1749271E-01
    1      -14.468896   1.004148
    2        5.314654   0.000000
    3        8.895167   0.000000
    4       11.152243   0.000000
    5       14.809619   0.000000
 
 -0.3571429E+00  0.4285714E+00  0.7142857E-01  0.8746356E-02
    1      -14.459665   0.951539
    2        5.937587   0.000000
    3        7.402574   0.000000
    4       11.265495   0.000000
    5       15.268375   0.000000
 
 -0.4285714E+00  0.5000000E+00  0.7142857E-01  0.4373178E-02
    1      -14.457285   0.932710
    2        5.188278   0.000000
    3        9.475703   0.000000
    4       11.624264   0.000000
    5       14.133697   0.000000
 
  0.4285714E+00  0.2857143E+00  0.1428571E+00  0.8746356E-02
    1      -14.841229   1.000000
    2        3.732542   0.000000
    3       11.327534   0.000000
    4       14.085259   0.000000
    5       18.038524   0.000000
 
  0.5000000E+00  0.2857143E+00  0.1428571E+00  0.1749271E-01
    1      -14.695724   1.000000
    2        4.048105   0.000000
    3        9.878139   0.000000
    4       13.166715   0.000000
    5       17.817949   0.000000
 
 -0.4285714E+00  0.2857143E+00  0.1428571E+00  0.1749271E-01
    1      -14.592948   1.000012
    2        4.422161   0.000000
    3        8.718045   0.000000
    4       12.639099   0.000000
    5       17.683559   0.000000
 
 -0.3571429E+00  0.2857143E+00  0.1428571E+00  0.8746356E-02
    1      -14.555849   1.000730
    2        4.618805   0.000000
    3        8.244018   0.000000
    4       12.466411   0.000000
    5       17.638925   0.000000
 
  0.5000000E+00  0.3571429E+00  0.1428571E+00  0.8746356E-02
    1      -14.639765   1.000000
    2        4.300939   0.000000
    3       10.398129   0.000000
    4       11.793032   0.000000
    5       16.827435   0.000000
 
 -0.4285714E+00  0.3571429E+00  0.1428571E+00  0.1749271E-01
    1      -14.545032   1.001912
    2        4.857208   0.000000
    3        8.972449   0.000000
    4       11.020313   0.000000
    5       17.136986   0.000000
 
 -0.3571429E+00  0.3571429E+00  0.1428571E+00  0.1749271E-01
    1      -14.499925   1.028444
    2        5.408366   0.000000
    3        7.813377   0.000000
    4       10.854043   0.000000
    5       17.401651   0.000000
 
 -0.2857143E+00  0.3571429E+00  0.1428571E+00  0.1749271E-01
    1      -14.514186   1.015721
    2        5.292389   0.000000
    3        7.791098   0.000000
    4       11.131990   0.000000
    5       17.666981   0.000000
 
 -0.2142857E+00  0.3571429E+00  0.1428571E+00  0.8746356E-02
    1      -14.584556   1.000034
    2        4.630801   0.000000
    3        8.736965   0.000000
    4       11.883340   0.000000
    5       17.852115   0.000000
 
 -0.4285714E+00  0.4285714E+00  0.1428571E+00  0.8746356E-02
    1      -14.500493   1.027944
    2        5.148573   0.000000
    3        9.721180   0.000000
    4        9.839115   0.000000
    5       16.179687   0.000000
 
 -0.3571429E+00  0.4285714E+00  0.1428571E+00  0.1749271E-01
    1      -14.462233   0.969341
    2        5.919575   0.000000
    3        7.984453   0.000000
    4        9.744271   0.000000
    5       16.798554   0.000000
 
 -0.2857143E+00  0.4285714E+00  0.1428571E+00  0.8746356E-02
    1      -14.467293   0.997196
    2        6.444469   0.000000
    3        6.872474   0.000000
    4       10.166942   0.000000
    5       17.293201   0.000000
 
 -0.3571429E+00  0.5000000E+00  0.1428571E+00  0.4373178E-02
    1      -14.450869   0.870616
    2        5.750267   0.000000
    3        8.686580   0.000000
    4        9.652604   0.000000
    5       15.974308   0.000000
 
 -0.3571429E+00  0.4285714E+00  0.2142857E+00  0.8746356E-02
    1      -14.481882   1.033564
    2        5.705603   0.000000
    3        8.176635   0.000000
    4        9.627874   0.000000
    5       17.735681   0.000000
 
 -0.2857143E+00  0.4285714E+00  0.2142857E+00  0.8746356E-02
    1      -14.459262   0.948511
    2        6.445483   0.000000
    3        7.407450   0.000000
    4        9.200778   0.000000
    5       17.921031   0.000000
 
 -0.2857143E+00  0.5000000E+00  0.2142857E+00  0.4373178E-02
    1      -14.445701   0.808786
    2        6.685312   0.000000
    3        7.989702   0.000000
    4        8.231536   0.000000
    5       17.677987   0.000000
