    1    1  999    1
  0.1628488E+02  0.2845115E-09  0.2845115E-09  0.2845115E-09  0.1000000E-15
  1.000000000000000E-004
  CAR 
 He_FCC                                  
      2     47      5
 
  0.0000000E+00  0.0000000E+00  0.0000000E+00  0.1000000E-02
    1      -15.670599   1.000000
    2        3.609631   0.000000
    3       20.698683   0.000000
    4       20.698683   0.000000
    5       20.698683   0.000000
 
  0.1000000E+00 -0.1387779E-16  0.0000000E+00  0.8000000E-02
    1      -15.587345   1.000000
    2        3.553797   0.000000
    3       18.389442   0.000000
    4       20.123582   0.000000
    5       20.123582   0.000000
 
  0.2000000E+00  0.0000000E+00  0.0000000E+00  0.8000000E-02
    1      -15.362906   1.000000
    2        3.415471   0.000000
    3       15.041003   0.000000
    4       19.294671   0.000000
    5       19.294671   0.000000
 
  0.3000000E+00 -0.5551115E-16 -0.1387779E-16  0.8000000E-02
    1      -15.071281   1.000000
    2        3.265832   0.000000
    3       12.335300   0.000000
    4       18.761000   0.000000
    5       18.761001   0.000000
 
  0.4000000E+00  0.0000000E+00  0.0000000E+00  0.8000000E-02
    1      -14.822414   1.000000
    2        3.161555   0.000000
    3       10.587207   0.000000
    4       18.551160   0.000000
    5       18.551160   0.000000
 
  0.5000000E+00 -0.5551115E-16 -0.2775558E-16  0.4000000E-02
    1      -14.723970   1.000000
    2        3.126987   0.000000
    3        9.980449   0.000000
    4       18.520766   0.000000
    5       18.520767   0.000000
 
  0.1000000E+00  0.1000000E+00  0.0000000E+00  0.6000000E-02
    1      -15.559935   1.000000
    2        3.545074   0.000000
    3       18.765213   0.000000
    4       18.765213   0.000000
    5       21.211120   0.000000
 
  0.2000000E+00  0.1000000E+00  0.1387779E-16  0.2400000E-01
    1      -15.383365   1.000000
    2        3.465230   0.000000
    3       15.965076   0.000000
    4       17.681470   0.000000
    5       21.041377   0.000000
 
  0.3000000E+00  0.1000000E+00  0.0000000E+00  0.2400000E-01
    1      -15.114568   1.000000
    2        3.380561   0.000000
    3       12.971101   0.000000
    4       17.055500   0.000000
    5       20.131418   0.000000
 
  0.4000000E+00  0.1000000E+00 -0.2775558E-16  0.2400000E-01
    1      -14.850645   1.000000
    2        3.351622   0.000000
    3       10.782728   0.000000
    4       16.923689   0.000000
    5       18.648587   0.000000
 
  0.5000000E+00  0.1000000E+00 -0.5551115E-16  0.2400000E-01
    1      -14.700575   1.000000
    2        3.368358   0.000000
    3        9.681869   0.000000
    4       17.278844   0.000000
    5       17.595193   0.000000
 
 -0.4000000E+00  0.1000000E+00  0.1387779E-16  0.2400000E-01
    1      -14.732932   1.000000
    2        3.363705   0.000000
    3        9.857643   0.000000
    4       17.037991   0.000000
    5       18.073662   0.000000
 
 -0.3000000E+00  0.1000000E+00  0.2775558E-16  0.2400000E-01
    1      -14.932473   1.000000
    2        3.350618   0.000000
    3       11.266737   0.000000
    4       16.953864   0.000000
    5       19.177987   0.000000
 
 -0.2000000E+00  0.1000000E+00  0.0000000E+00  0.2400000E-01
    1      -15.210501   1.000000
    2        3.393742   0.000000
    3       13.652703   0.000000
    4       17.316768   0.000000
    5       20.304683   0.000000
 
 -0.1000000E+00  0.1000000E+00 -0.4511414E-17  0.1200000E-01
    1      -15.457241   1.000000
    2        3.483964   0.000000
    3       16.532452   0.000000
    4       18.199802   0.000000
    5       20.908090   0.000000
 
  0.2000000E+00  0.2000000E+00 -0.2775558E-16  0.6000000E-02
    1      -15.265158   1.000000
    2        3.493255   0.000000
    3       16.402746   0.000000
    4       16.402746   0.000000
    5       18.699755   0.000000
 
  0.3000000E+00  0.2000000E+00 -0.5551115E-16  0.2400000E-01
    1      -15.046849   1.000000
    2        3.547074   0.000000
    3       13.807132   0.000000
    4       15.607629   0.000000
    5       17.621025   0.000000
 
  0.4000000E+00  0.2000000E+00  0.0000000E+00  0.2400000E-01
    1      -14.805920   1.000000
    2        3.719543   0.000000
    3       11.047711   0.000000
    4       15.329968   0.000000
    5       16.083064   0.000000
 
  0.5000000E+00  0.2000000E+00 -0.2775558E-16  0.2400000E-01
    1      -14.637592   1.000000
    2        3.998515   0.000000
    3        9.151773   0.000000
    4       15.204028   0.000000
    5       15.576096   0.000000
 
 -0.4000000E+00  0.2000000E+00  0.0000000E+00  0.2400000E-01
    1      -14.614703   1.000001
    2        4.083406   0.000000
    3        8.617880   0.000000
    4       14.942176   0.000000
    5       16.337062   0.000000
 
 -0.3000000E+00  0.2000000E+00  0.2775558E-16  0.2400000E-01
    1      -14.747357   1.000000
    2        3.796705   0.000000
    3        9.623834   0.000000
    4       15.228855   0.000000
    5       17.577812   0.000000
 
 -0.2000000E+00  0.2000000E+00  0.4720102E-17  0.1200000E-01
    1      -14.976977   1.000000
    2        3.504307   0.000000
    3       11.574366   0.000000
    4       15.995135   0.000000
    5       19.163797   0.000000
 
  0.3000000E+00  0.3000000E+00  0.2775558E-16  0.6000000E-02
    1      -14.890877   1.000000
    2        3.739605   0.000000
    3       14.637996   0.000000
    4       14.637997   0.000000
    5       15.172968   0.000000
 
  0.4000000E+00  0.3000000E+00  0.0000000E+00  0.2400000E-01
    1      -14.702966   1.000000
    2        4.072864   0.000000
    3       11.824461   0.000000
    4       14.013080   0.000000
    5       14.189212   0.000000
 
  0.5000000E+00  0.3000000E+00  0.0000000E+00  0.2400000E-01
    1      -14.556154   1.000773
    2        4.671637   0.000000
    3        9.072709   0.000000
    4       13.320973   0.000000
    5       14.271765   0.000000
 
 -0.4000000E+00  0.3000000E+00  0.2775558E-16  0.2400000E-01
    1      -14.510726   1.019436
    2        5.310498   0.000000
    3        7.323118   0.000000
    4       13.298485   0.000000
    5       14.883672   0.000000
 
 -0.3000000E+00  0.3000000E+00  0.3227472E-16  0.1200000E-01
    1      -14.585117   1.000035
    2        4.661283   0.000000
    3        7.934378   0.000000
    4       13.949101   0.000000
    5       16.007974   0.000000
 
  0.4000000E+00  0.4000000E+00 -0.5551115E-16  0.6000000E-02
    1      -14.580426   1.000061
    2        4.430713   0.000000
    3       11.589156   0.000000
    4       13.565171   0.000000
    5       13.565171   0.000000
 
  0.5000000E+00  0.4000000E+00  0.0000000E+00  0.2400000E-01
    1      -14.487228   1.035423
    2        4.967039   0.000000
    3        9.698068   0.000000
    4       12.592521   0.000000
    5       13.473736   0.000000
 
 -0.4000000E+00  0.4000000E+00  0.9440203E-17  0.1200000E-01
    1      -14.461036   0.954891
    2        5.735353   0.000000
    3        7.564975   0.000000
    4       12.465926   0.000000
    5       13.916358   0.000000
 
  0.5000000E+00  0.5000000E+00 -0.5551115E-16  0.3000000E-02
    1      -14.460141   0.948239
    2        5.000922   0.000000
    3       10.024136   0.000000
    4       13.206142   0.000000
    5       13.206142   0.000000
 
  0.3000000E+00  0.2000000E+00  0.1000000E+00  0.2400000E-01
    1      -15.185203   1.000000
    2        3.454535   0.000000
    3       14.068332   0.000000
    4       16.350878   0.000000
    5       20.267267   0.000000
 
  0.4000000E+00  0.2000000E+00  0.1000000E+00  0.4800000E-01
    1      -14.930034   1.000000
    2        3.537271   0.000000
    3       11.585827   0.000000
    4       15.451737   0.000000
    5       18.810179   0.000000
 
  0.5000000E+00  0.2000000E+00  0.1000000E+00  0.4800000E-01
    1      -14.714503   1.000000
    2        3.731343   0.000000
    3        9.689436   0.000000
    4       14.914252   0.000000
    5       17.937338   0.000000
 
 -0.4000000E+00  0.2000000E+00  0.1000000E+00  0.2400000E-01
    1      -14.629857   1.000000
    2        3.859253   0.000000
    3        8.960239   0.000000
    4       14.727548   0.000000
    5       17.658232   0.000000
 
  0.4000000E+00  0.3000000E+00  0.1000000E+00  0.2400000E-01
    1      -14.843185   1.000000
    2        3.767624   0.000000
    3       12.262924   0.000000
    4       13.779846   0.000000
    5       16.893880   0.000000
 
  0.5000000E+00  0.3000000E+00  0.1000000E+00  0.4800000E-01
    1      -14.650053   1.000000
    2        4.216356   0.000000
    3        9.942761   0.000000
    4       12.628605   0.000000
    5       16.758558   0.000000
 
 -0.4000000E+00  0.3000000E+00  0.1000000E+00  0.4800000E-01
    1      -14.545508   1.001984
    2        4.759120   0.000000
    3        8.224167   0.000000
    4       12.305030   0.000000
    5       16.925995   0.000000
 
 -0.3000000E+00  0.3000000E+00  0.1000000E+00  0.4800000E-01
    1      -14.574087   1.000125
    2        4.627272   0.000000
    3        8.248826   0.000000
    4       12.660282   0.000000
    5       17.432154   0.000000
 
 -0.2000000E+00  0.3000000E+00  0.1000000E+00  0.2400000E-01
    1      -14.723073   1.000000
    2        3.978758   0.000000
    3        9.756923   0.000000
    4       13.718550   0.000000
    5       18.114424   0.000000
 
  0.5000000E+00  0.4000000E+00  0.1000000E+00  0.2400000E-01
    1      -14.562708   1.000411
    2        4.607381   0.000000
    3       10.758788   0.000000
    4       11.171791   0.000000
    5       15.273390   0.000000
 
 -0.4000000E+00  0.4000000E+00  0.1000000E+00  0.4800000E-01
    1      -14.478140   1.027802
    2        5.490400   0.000000
    3        8.261753   0.000000
    4       10.732092   0.000000
    5       15.895366   0.000000
 
 -0.3000000E+00  0.4000000E+00  0.1000000E+00  0.2400000E-01
    1      -14.483007   1.033724
    2        6.064885   0.000000
    3        6.835467   0.000000
    4       11.250657   0.000000
    5       16.588104   0.000000
 
 -0.4000000E+00  0.5000000E+00  0.1000000E+00  0.1200000E-01
    1      -14.454915   0.903003
    2        5.368154   0.000000
    3        9.138144   0.000000
    4       10.807156   0.000000
    5       14.823804   0.000000
 
 -0.4000000E+00  0.4000000E+00  0.2000000E+00  0.2400000E-01
    1      -14.521930   1.010770
    2        5.129844   0.000000
    3        8.660396   0.000000
    4       10.440112   0.000000
    5       17.619584   0.000000
 
 -0.3000000E+00  0.4000000E+00  0.2000000E+00  0.2400000E-01
    1      -14.472511   1.013990
    2        6.031225   0.000000
    3        7.516235   0.000000
    4        9.789282   0.000000
    5       17.866715   0.000000
 
 -0.3000000E+00  0.5000000E+00  0.2000000E+00  0.1200000E-01
    1      -14.446421   0.806281
    2        6.468580   0.000000
    3        8.287652   0.000000
    4        8.294188   0.000000
    5       17.411248   0.000000
