    1    1  999    1
  0.1859609E+02  0.2973803E-09  0.2973803E-09  0.2973803E-09  0.1000000E-15
  1.000000000000000E-004
  CAR 
 Ne_FCC                                  
      8     35      8
 
  0.0000000E+00  0.0000000E+00  0.0000000E+00  0.1371742E-02
    1      -33.952886   1.000000
    2      -10.338704   0.721237
    3      -10.338704   0.721235
    4      -10.338704   0.721233
    5        1.502958   0.000000
    6       20.940676   0.000000
    7       20.940685   0.000000
    8       20.940686   0.000000
 
  0.1111111E+00  0.6938894E-17  0.0000000E+00  0.1097394E-01
    1      -33.936014   1.000000
    2      -10.470806   1.000150
    3      -10.350754   0.877309
    4      -10.350754   0.877308
    5        1.902687   0.000000
    6       18.302072   0.000000
    7       20.878171   0.000000
    8       20.878175   0.000000
 
  0.2222222E+00  0.0000000E+00 -0.5551115E-16  0.1097394E-01
    1      -33.892774   1.000000
    2      -10.785969   1.000000
    3      -10.380689   1.033186
    4      -10.380689   1.033186
    5        3.018170   0.000000
    6       14.927212   0.000000
    7       20.520213   0.000000
    8       20.520215   0.000000
 
  0.3333333E+00  0.5551115E-16  0.1387779E-16  0.1097394E-01
    1      -33.843175   1.000000
    2      -11.116724   1.000000
    3      -10.414412   1.014958
    4      -10.414412   1.014958
    5        4.676069   0.000000
    6       11.850248   0.000000
    7       19.919583   0.000000
    8       19.919584   0.000000
 
  0.4444444E+00  0.0000000E+00 -0.1110223E-15  0.1097394E-01
    1      -33.810629   1.000000
    2      -11.319915   1.000000
    3      -10.436292   1.003630
    4      -10.436292   1.003630
    5        6.728785   0.000000
    6        9.132348   0.000000
    7       19.502802   0.000000
    8       19.502803   0.000000
 
  0.1111111E+00  0.1111111E+00  0.2775558E-16  0.8230453E-02
    1      -33.930297   1.000000
    2      -10.473041   1.000117
    3      -10.374509   1.023880
    4      -10.374509   1.023879
    5        2.032627   0.000000
    6       18.619003   0.000000
    7       20.206552   0.000000
    8       20.206560   0.000000
 
  0.2222222E+00  0.1111111E+00 -0.5551115E-16  0.3292181E-01
    1      -33.895987   1.000000
    2      -10.704646   1.000000
    3      -10.413747   1.015485
    4      -10.400916   1.026909
    5        2.900037   0.000000
    6       16.033326   0.000000
    7       19.377126   0.000000
    8       19.713425   0.000000
 
  0.3333333E+00  0.1111111E+00  0.0000000E+00  0.3292181E-01
    1      -33.848575   1.000000
    2      -11.010146   1.000000
    3      -10.449554   1.001215
    4      -10.443452   1.002052
    5        4.361581   0.000000
    6       12.992510   0.000000
    7       18.166136   0.000000
    8       19.337205   0.000000
 
  0.4444444E+00  0.1111111E+00 -0.1110223E-15  0.3292181E-01
    1      -33.810361   1.000000
    2      -11.237720   1.000000
    3      -10.492397   1.000012
    4      -10.465619   1.000259
    5        6.260693   0.000000
    6       10.213736   0.000000
    7       17.389465   0.000000
    8       19.156598   0.000000
 
 -0.4444444E+00  0.1111111E+00  0.1110223E-15  0.3292181E-01
    1      -33.799489   1.000000
    2      -11.298599   1.000000
    3      -10.524110   1.000000
    4      -10.454570   1.000769
    5        7.681023   0.000000
    6        8.585832   0.000000
    7       17.007552   0.000000
    8       19.326714   0.000000
 
 -0.3333333E+00  0.1111111E+00  0.1387779E-16  0.3292181E-01
    1      -33.821158   1.000000
    2      -11.173035   1.000000
    3      -10.521680   1.000000
    4      -10.421446   1.010045
    5        5.589629   0.000000
    6       11.112425   0.000000
    7       17.010002   0.000000
    8       19.974153   0.000000
 
 -0.2222222E+00  0.1111111E+00  0.3469447E-16  0.3292181E-01
    1      -33.865053   1.000000
    2      -10.911197   1.000000
    3      -10.482194   1.000041
    4      -10.381653   1.033934
    5        3.820855   0.000000
    6       13.970574   0.000000
    7       17.480056   0.000000
    8       21.142168   0.000000
 
 -0.1111111E+00  0.1111111E+00  0.3778980E-18  0.1646091E-01
    1      -33.910238   1.000000
    2      -10.630391   1.000000
    3      -10.414553   1.014847
    4      -10.353544   0.905657
    5        2.536979   0.000000
    6       16.703930   0.000000
    7       18.773339   0.000000
    8       21.764175   0.000000
 
  0.2222222E+00  0.2222222E+00 -0.5551115E-16  0.8230453E-02
    1      -33.873155   1.000000
    2      -10.773195   1.000000
    3      -10.464997   1.000276
    4      -10.464997   1.000276
    5        3.478469   0.000000
    6       16.200234   0.000000
    7       17.878848   0.000000
    8       19.148403   0.000000
 
  0.3333333E+00  0.2222222E+00  0.0000000E+00  0.3292181E-01
    1      -33.834808   1.000000
    2      -10.968048   1.000000
    3      -10.524591   1.000000
    4      -10.510140   1.000001
    5        4.666559   0.000000
    6       14.229865   0.000000
    7       15.939932   0.000000
    8       18.802253   0.000000
 
  0.4444444E+00  0.2222222E+00  0.0000000E+00  0.3292181E-01
    1      -33.798808   1.000000
    2      -11.131582   1.000000
    3      -10.616589   1.000000
    4      -10.528434   1.000000
    5        6.333336   0.000000
    6       11.622876   0.000000
    7       14.878883   0.000000
    8       18.674320   0.000000
 
 -0.4444444E+00  0.2222222E+00  0.9714451E-16  0.3292181E-01
    1      -33.782179   1.000000
    2      -11.183930   1.000000
    3      -10.709177   1.000000
    4      -10.511596   1.000001
    5        8.231790   0.000000
    6        9.380896   0.000000
    7       14.201215   0.000000
    8       18.831612   0.000000
 
 -0.3333333E+00  0.2222222E+00  0.2775558E-16  0.3292181E-01
    1      -33.792739   1.000000
    2      -11.127938   1.000000
    3      -10.736199   1.000000
    4      -10.467259   1.000218
    5        6.983089   0.000000
    6       10.876666   0.000000
    7       13.903788   0.000000
    8       19.364633   0.000000
 
 -0.2222222E+00  0.2222222E+00  0.6006518E-16  0.1646091E-01
    1      -33.825614   1.000000
    2      -11.026879   1.000000
    3      -10.643094   1.000000
    4      -10.415969   1.013765
    5        5.195896   0.000000
    6       13.043587   0.000000
    7       14.611987   0.000000
    8       20.302790   0.000000
 
  0.3333333E+00  0.3333333E+00  0.0000000E+00  0.8230453E-02
    1      -33.808339   1.000000
    2      -11.058211   1.000000
    3      -10.567411   1.000000
    4      -10.567411   1.000000
    5        5.544911   0.000000
    6       14.055577   0.000000
    7       14.554570   0.000000
    8       18.459779   0.000000
 
  0.4444444E+00  0.3333333E+00  0.0000000E+00  0.3292181E-01
    1      -33.781302   1.000000
    2      -11.145421   1.000000
    3      -10.648452   1.000000
    4      -10.594807   1.000000
    5        6.914159   0.000000
    6       12.349496   0.000000
    7       13.447950   0.000000
    8       18.320890   0.000000
 
 -0.4444444E+00  0.3333333E+00  0.1110223E-15  0.3292181E-01
    1      -33.766592   1.000000
    2      -11.120170   1.000000
    3      -10.804075   1.000000
    4      -10.580092   1.000000
    5        8.606111   0.000000
    6       10.748314   0.000000
    7       12.203199   0.000000
    8       18.406751   0.000000
 
 -0.3333333E+00  0.3333333E+00  0.8316317E-17  0.1646091E-01
    1      -33.771043   1.000000
    2      -10.991252   1.000000
    3      -10.962799   1.000000
    4      -10.529846   1.000000
    5        8.589471   0.000000
    6       10.940620   0.000000
    7       11.605792   0.000000
    8       18.756986   0.000000
 
  0.4444444E+00  0.4444444E+00 -0.1110223E-15  0.8230453E-02
    1      -33.765941   1.000000
    2      -11.217343   1.000000
    3      -10.633996   1.000000
    4      -10.633996   1.000000
    5        7.943074   0.000000
    6       10.923778   0.000000
    7       13.727613   0.000000
    8       18.153375   0.000000
 
 -0.4444444E+00  0.4444444E+00  0.1201304E-15  0.1646091E-01
    1      -33.760238   1.000000
    2      -11.203261   1.000000
    3      -10.700693   1.000000
    4      -10.628296   1.000000
    5        9.025343   0.000000
    6       10.043944   0.000000
    7       12.973880   0.000000
    8       18.178501   0.000000
 
  0.3333333E+00  0.2222222E+00  0.1111111E+00  0.3292181E-01
    1      -33.859627   1.000000
    2      -10.880137   1.000000
    3      -10.515598   1.000000
    4      -10.420116   1.010878
    5        3.929393   0.000000
    6       14.735287   0.000000
    7       16.548945   0.000000
    8       20.032053   0.000000
 
  0.4444444E+00  0.2222222E+00  0.1111111E+00  0.6584362E-01
    1      -33.817985   1.000000
    2      -11.075705   1.000000
    3      -10.604516   1.000000
    4      -10.459128   1.000497
    5        5.487605   0.000000
    6       12.362403   0.000000
    7       15.336388   0.000000
    8       19.047115   0.000000
 
 -0.4444444E+00  0.2222222E+00  0.1111111E+00  0.6584362E-01
    1      -33.790686   1.000000
    2      -11.201269   1.000000
    3      -10.648142   1.000000
    4      -10.494483   1.000009
    5        7.417351   0.000000
    6        9.834161   0.000000
    7       15.030038   0.000000
    8       18.442050   0.000000
 
  0.4444444E+00  0.3333333E+00  0.1111111E+00  0.3292181E-01
    1      -33.802228   1.000000
    2      -11.073692   1.000000
    3      -10.629851   1.000000
    4      -10.543040   1.000000
    5        5.945693   0.000000
    6       13.393888   0.000000
    7       13.832189   0.000000
    8       17.935690   0.000000
 
 -0.4444444E+00  0.3333333E+00  0.1111111E+00  0.6584362E-01
    1      -33.777075   1.000000
    2      -11.111961   1.000000
    3      -10.747538   1.000000
    4      -10.576217   1.000000
    5        7.632677   0.000000
    6       11.308800   0.000000
    7       13.074302   0.000000
    8       17.189226   0.000000
 
 -0.3333333E+00  0.3333333E+00  0.1111111E+00  0.6584362E-01
    1      -33.771200   1.000000
    2      -11.073931   1.000000
    3      -10.848753   1.000000
    4      -10.561769   1.000000
    5        8.732761   0.000000
    6       10.139888   0.000000
    7       12.639982   0.000000
    8       17.223554   0.000000
 
 -0.2222222E+00  0.3333333E+00  0.1111111E+00  0.3292181E-01
    1      -33.787428   1.000000
    2      -11.072377   1.000000
    3      -10.786848   1.000000
    4      -10.509681   1.000001
    5        7.059386   0.000000
    6       11.919258   0.000000
    7       12.822392   0.000000
    8       17.978760   0.000000
 
 -0.4444444E+00  0.4444444E+00  0.1111111E+00  0.3292181E-01
    1      -33.765013   1.000000
    2      -11.160527   1.000000
    3      -10.704212   1.000000
    4      -10.641918   1.000000
    5        8.297023   0.000000
    6       11.091088   0.000000
    7       12.718605   0.000000
    8       16.973734   0.000000
 
 -0.3333333E+00  0.4444444E+00  0.1111111E+00  0.3292181E-01
    1      -33.760946   1.000000
    2      -11.076532   1.000000
    3      -10.842142   1.000000
    4      -10.628068   1.000000
    5        9.494376   0.000000
    6       10.471353   0.000000
    7       11.666643   0.000000
    8       16.525308   0.000000
 
 -0.3333333E+00  0.4444444E+00  0.2222222E+00  0.3292181E-01
    1      -33.762759   1.000000
    2      -11.015288   1.000000
    3      -10.879862   1.000000
    4      -10.645477   1.000000
    5        9.141895   0.000000
    6       11.306521   0.000000
    7       11.370054   0.000000
    8       15.773165   0.000000
