 vasp.5.4.4.18Apr17-6-g9f103f2a35 (build Jul 09 2018 16:43:14) complex          
  
 executed on             LinuxIFC date 2018.11.21  22:33:48
 running on   16 total cores
 distrk:  each k-point on    4 cores,    4 groups
 distr:  one band on NCORES_PER_BAND=   4 cores,    1 groups


--------------------------------------------------------------------------------------------------------


 INCAR:
 POTCAR:    PAW_PBE He_GW 13May2007               

 ----------------------------------------------------------------------------- 
|                                                                             |
|           W    W    AA    RRRRR   N    N  II  N    N   GGGG   !!!           |
|           W    W   A  A   R    R  NN   N  II  NN   N  G    G  !!!           |
|           W    W  A    A  R    R  N N  N  II  N N  N  G       !!!           |
|           W WW W  AAAAAA  RRRRR   N  N N  II  N  N N  G  GGG   !            |
|           WW  WW  A    A  R   R   N   NN  II  N   NN  G    G                |
|           W    W  A    A  R    R  N    N  II  N    N   GGGG   !!!           |
|                                                                             |
|      You have enabled k-point parallelism (KPAR>1).                         |
|      This developmental code was originally  written by Paul Kent at ORNL,  |
|      and carefully double checked in Vienna.                                |
|      GW as well as linear response parallelism added by Martijn Marsman     |
|      and Georg Kresse.                                                      |
|      Carefully verify results versus KPAR=1.                                |
|      Report problems to Paul Kent and Vienna.                               |
|                                                                             |
 ----------------------------------------------------------------------------- 

 POTCAR:    PAW_PBE He_GW 13May2007               
   VRHFIN =He: 1s                                                               
   LEXCH  = PE                                                                  
   EATOM  =    78.7251 eV,    5.7861 Ry                                         
                                                                                
   TITEL  = PAW_PBE He_GW 13May2007                                             
   LULTRA =        F    use ultrasoft PP ?                                      
   IUNSCR =        0    unscreen: 0-lin 1-nonlin 2-no                           
   RPACOR =    0.000    partial core radius                                     
   POMASS =    4.000; ZVAL   =    2.000    mass and valenz                      
   RCORE  =    1.200    outmost cutoff radius                                   
   RWIGS  =    1.200; RWIGS  =    0.635    wigner-seitz radius (au A)           
   ENMAX  =  405.780; ENMIN  =  304.335 eV                                      
   RCLOC  =    0.703    cutoff for local pot                                    
   LCOR   =        T    correct aug charges                                     
   LPAW   =        T    paw PP                                                  
   EAUG   = 1514.192                                                            
   RMAX   =    1.224    core radius for proj-oper                               
   RAUG   =    1.200    factor for augmentation sphere                          
   RDEP   =    1.261    radius for radial grids                                 
   RDEPT  =    1.051    core radius for aug-charge                              
                                                                                
   Atomic configuration                                                         
    3 entries                                                                   
     n  l   j            E        occ.                                          
     1  0  0.50       -15.7639   2.0000                                         
     2  1  0.50        -2.8912   0.0000                                         
     3  2  1.50        -2.8912   0.0000                                         
   Description                                                                  
     l       E           TYP  RCUT    TYP  RCUT                                 
     0    -15.7638891     23  1.200                                             
     0     27.2116520     23  1.200                                             
     1     -6.8029130     23  1.200                                             
     1     81.6349560     23  1.200                                             
     1    476.2039100     23  1.200                                             
     2     -6.8029130     23  1.200                                             
  local pseudopotential read in
  kinetic energy density of atom read in
  atomic valenz-charges read in
  non local Contribution for L=           0  read in
    real space projection operators read in
  non local Contribution for L=           0  read in
    real space projection operators read in
  non local Contribution for L=           1  read in
    real space projection operators read in
  non local Contribution for L=           1  read in
    real space projection operators read in
  non local Contribution for L=           1  read in
    real space projection operators read in
  non local Contribution for L=           2  read in
    real space projection operators read in
    PAW grid and wavefunctions read in
 
   number of l-projection  operators is LMAX  =           6
   number of lm-projection operators is LMMAX =          16
 
  PAW_PBE He_GW 13May2007               :
 energy of atom  1       EATOM=  -78.7251
 kinetic energy error for atom=    0.0032 (will be added to EATOM!!)
 
 
 POSCAR: He_FCC                                  
  positions in direct lattice
  velocities in cartesian coordinates
 exchange correlation table for  LEXCH =        8
   RHO(1)=    0.500       N(1)  =     2000
   RHO(2)=  100.500       N(2)  =     4000
 


--------------------------------------------------------------------------------------------------------


 ion  position               nearest neighbor table
   1  0.000  0.000  0.000-
 
  LATTYP: Found a face centered cubic cell.
 ALAT       =     4.0236002575
  
  Lattice vectors:
  
 A1 = (   2.8451150268,   0.0000000000,   0.0000000000)
 A2 = (   1.4225575134,   2.4639418899,   0.0000000000)
 A3 = (   1.4225575134,   0.8213139633,   2.3230266918)


Analysis of symmetry for initial positions (statically):
=====================================================================
 Subroutine PRICEL returns:
 Original cell was already a primitive cell.
 

 Routine SETGRP: Setting up the symmetry group for a 
 face centered cubic supercell.


 Subroutine GETGRP returns: Found 48 space group operations
 (whereof 48 operations were pure point group operations)
 out of a pool of 48 trial point group operations.


The static configuration has the point symmetry O_h .


Analysis of symmetry for dynamics (positions and initial velocities):
=====================================================================
 Subroutine PRICEL returns:
 Original cell was already a primitive cell.
 

 Routine SETGRP: Setting up the symmetry group for a 
 face centered cubic supercell.


 Subroutine GETGRP returns: Found 48 space group operations
 (whereof 48 operations were pure point group operations)
 out of a pool of 48 trial point group operations.


The dynamic configuration has the point symmetry O_h .


 Subroutine INISYM returns: Found 48 space group operations
 (whereof 48 operations are pure point group operations),
 and found     1 'primitive' translations

 
 

Automatic generation of k-mesh.
 generate k-points for:   10   10   10
Space group operators:
 irot       det(A)        alpha          n_x          n_y          n_z        tau_x        tau_y        tau_z
    1     1.000000     0.000000     1.000000     0.000000     0.000000     0.000000     0.000000     0.000000
    2    -1.000000     0.000000     1.000000     0.000000     0.000000     0.000000     0.000000     0.000000
    3     1.000000   120.000000    -0.816497    -0.471405    -0.333333     0.000000     0.000000     0.000000
    4    -1.000000   120.000000    -0.816497    -0.471405    -0.333333     0.000000     0.000000     0.000000
    5     1.000000   120.000000     0.816497     0.471405     0.333333     0.000000     0.000000     0.000000
    6    -1.000000   120.000000     0.816497     0.471405     0.333333     0.000000     0.000000     0.000000
    7     1.000000    90.000000    -0.707107    -0.408248     0.577350     0.000000     0.000000     0.000000
    8    -1.000000    90.000000    -0.707107    -0.408248     0.577350     0.000000     0.000000     0.000000
    9     1.000000   180.000000     1.000000     0.000000     0.000000     0.000000     0.000000     0.000000
   10    -1.000000   180.000000     1.000000     0.000000     0.000000     0.000000     0.000000     0.000000
   11     1.000000    90.000000     0.707107    -0.408248     0.577350     0.000000     0.000000     0.000000
   12    -1.000000    90.000000     0.707107    -0.408248     0.577350     0.000000     0.000000     0.000000
   13     1.000000   180.000000     0.707107     0.408248    -0.577350     0.000000     0.000000     0.000000
   14    -1.000000   180.000000     0.707107     0.408248    -0.577350     0.000000     0.000000     0.000000
   15     1.000000   120.000000     0.816497    -0.471405    -0.333333     0.000000     0.000000     0.000000
   16    -1.000000   120.000000     0.816497    -0.471405    -0.333333     0.000000     0.000000     0.000000
   17     1.000000   120.000000     0.000000    -0.942809     0.333333     0.000000     0.000000     0.000000
   18    -1.000000   120.000000     0.000000    -0.942809     0.333333     0.000000     0.000000     0.000000
   19     1.000000    90.000000     0.707107     0.408248    -0.577350     0.000000     0.000000     0.000000
   20    -1.000000    90.000000     0.707107     0.408248    -0.577350     0.000000     0.000000     0.000000
   21     1.000000    90.000000    -0.000000    -0.816497    -0.577350     0.000000     0.000000     0.000000
   22    -1.000000    90.000000    -0.000000    -0.816497    -0.577350     0.000000     0.000000     0.000000
   23     1.000000   180.000000     0.500000     0.866025    -0.000000     0.000000     0.000000     0.000000
   24    -1.000000   180.000000     0.500000     0.866025    -0.000000     0.000000     0.000000     0.000000
   25     1.000000   120.000000     0.000000     0.942809    -0.333333     0.000000     0.000000     0.000000
   26    -1.000000   120.000000     0.000000     0.942809    -0.333333     0.000000     0.000000     0.000000
   27     1.000000   120.000000     0.000000    -0.000000    -1.000000     0.000000     0.000000     0.000000
   28    -1.000000   120.000000     0.000000    -0.000000    -1.000000     0.000000     0.000000     0.000000
   29     1.000000   180.000000     0.000000    -0.816497    -0.577350     0.000000     0.000000     0.000000
   30    -1.000000   180.000000     0.000000    -0.816497    -0.577350     0.000000     0.000000     0.000000
   31     1.000000    90.000000    -0.707107     0.408248    -0.577350     0.000000     0.000000     0.000000
   32    -1.000000    90.000000    -0.707107     0.408248    -0.577350     0.000000     0.000000     0.000000
   33     1.000000   180.000000     0.500000     0.288675     0.816497     0.000000     0.000000     0.000000
   34    -1.000000   180.000000     0.500000     0.288675     0.816497     0.000000     0.000000     0.000000
   35     1.000000    90.000000    -0.000000     0.816497     0.577350     0.000000     0.000000     0.000000
   36    -1.000000    90.000000    -0.000000     0.816497     0.577350     0.000000     0.000000     0.000000
   37     1.000000   120.000000    -0.816497     0.471405     0.333333     0.000000     0.000000     0.000000
   38    -1.000000   120.000000    -0.816497     0.471405     0.333333     0.000000     0.000000     0.000000
   39     1.000000   179.999999    -0.707107     0.408248    -0.577350     0.000000     0.000000     0.000000
   40    -1.000000   179.999999    -0.707107     0.408248    -0.577350     0.000000     0.000000     0.000000
   41     1.000000   120.000000     0.000000     0.000000     1.000000     0.000000     0.000000     0.000000
   42    -1.000000   120.000000     0.000000     0.000000     1.000000     0.000000     0.000000     0.000000
   43     1.000000   180.000000     0.000000    -0.577350     0.816497     0.000000     0.000000     0.000000
   44    -1.000000   180.000000     0.000000    -0.577350     0.816497     0.000000     0.000000     0.000000
   45     1.000000   180.000000    -0.500000     0.866025    -0.000000     0.000000     0.000000     0.000000
   46    -1.000000   180.000000    -0.500000     0.866025    -0.000000     0.000000     0.000000     0.000000
   47     1.000000   180.000000     0.500000    -0.288675    -0.816497     0.000000     0.000000     0.000000
   48    -1.000000   180.000000     0.500000    -0.288675    -0.816497     0.000000     0.000000     0.000000
 
 Subroutine IBZKPT returns following result:
 ===========================================
 
 Found     47 irreducible k-points:
 
 Following reciprocal coordinates:
            Coordinates               Weight
  0.000000  0.000000  0.000000      1.000000
  0.100000 -0.000000  0.000000      8.000000
  0.200000  0.000000  0.000000      8.000000
  0.300000 -0.000000 -0.000000      8.000000
  0.400000  0.000000  0.000000      8.000000
  0.500000 -0.000000 -0.000000      4.000000
  0.100000  0.100000  0.000000      6.000000
  0.200000  0.100000  0.000000     24.000000
  0.300000  0.100000  0.000000     24.000000
  0.400000  0.100000 -0.000000     24.000000
  0.500000  0.100000 -0.000000     24.000000
 -0.400000  0.100000  0.000000     24.000000
 -0.300000  0.100000  0.000000     24.000000
 -0.200000  0.100000  0.000000     24.000000
 -0.100000  0.100000 -0.000000     12.000000
  0.200000  0.200000 -0.000000      6.000000
  0.300000  0.200000 -0.000000     24.000000
  0.400000  0.200000  0.000000     24.000000
  0.500000  0.200000 -0.000000     24.000000
 -0.400000  0.200000  0.000000     24.000000
 -0.300000  0.200000  0.000000     24.000000
 -0.200000  0.200000  0.000000     12.000000
  0.300000  0.300000  0.000000      6.000000
  0.400000  0.300000  0.000000     24.000000
  0.500000  0.300000  0.000000     24.000000
 -0.400000  0.300000  0.000000     24.000000
 -0.300000  0.300000  0.000000     12.000000
  0.400000  0.400000 -0.000000      6.000000
  0.500000  0.400000  0.000000     24.000000
 -0.400000  0.400000  0.000000     12.000000
  0.500000  0.500000 -0.000000      3.000000
  0.300000  0.200000  0.100000     24.000000
  0.400000  0.200000  0.100000     48.000000
  0.500000  0.200000  0.100000     48.000000
 -0.400000  0.200000  0.100000     24.000000
  0.400000  0.300000  0.100000     24.000000
  0.500000  0.300000  0.100000     48.000000
 -0.400000  0.300000  0.100000     48.000000
 -0.300000  0.300000  0.100000     48.000000
 -0.200000  0.300000  0.100000     24.000000
  0.500000  0.400000  0.100000     24.000000
 -0.400000  0.400000  0.100000     48.000000
 -0.300000  0.400000  0.100000     24.000000
 -0.400000  0.500000  0.100000     12.000000
 -0.400000  0.400000  0.200000     24.000000
 -0.300000  0.400000  0.200000     24.000000
 -0.300000  0.500000  0.200000     12.000000
 
 Following cartesian coordinates:
            Coordinates               Weight
  0.000000  0.000000  0.000000      1.000000
  0.035148 -0.020293 -0.014349      8.000000
  0.070296 -0.040585 -0.028698      8.000000
  0.105444 -0.060878 -0.043047      8.000000
  0.140592 -0.081171 -0.057396      8.000000
  0.175740 -0.101463 -0.071745      4.000000
  0.035148  0.020293 -0.028698      6.000000
  0.070296 -0.000000 -0.043047     24.000000
  0.105444 -0.020293 -0.057396     24.000000
  0.140592 -0.040585 -0.071745     24.000000
  0.175740 -0.060878 -0.086095     24.000000
 -0.140592  0.121756  0.043047     24.000000
 -0.105444  0.101463  0.028698     24.000000
 -0.070296  0.081171  0.014349     24.000000
 -0.035148  0.060878  0.000000     12.000000
  0.070296  0.040585 -0.057396      6.000000
  0.105444  0.020293 -0.071745     24.000000
  0.140592  0.000000 -0.086095     24.000000
  0.175740 -0.020293 -0.100444     24.000000
 -0.140592  0.162341  0.028698     24.000000
 -0.105444  0.142049  0.014349     24.000000
 -0.070296  0.121756 -0.000000     12.000000
  0.105444  0.060878 -0.086095      6.000000
  0.140592  0.040585 -0.100444     24.000000
  0.175740  0.020293 -0.114793     24.000000
 -0.140592  0.202927  0.014349     24.000000
 -0.105444  0.182634 -0.000000     12.000000
  0.140592  0.081171 -0.114793      6.000000
  0.175740  0.060878 -0.129142     24.000000
 -0.140592  0.243512 -0.000000     12.000000
  0.175740  0.101463 -0.143491      3.000000
  0.105444  0.020293 -0.028698     24.000000
  0.140592  0.000000 -0.043047     48.000000
  0.175740 -0.020293 -0.057396     48.000000
 -0.140592  0.162341  0.071745     24.000000
  0.140592  0.040585 -0.057396     24.000000
  0.175740  0.020293 -0.071745     48.000000
 -0.140592  0.202927  0.057396     48.000000
 -0.105444  0.182634  0.043047     48.000000
 -0.070296  0.162341  0.028698     24.000000
  0.175740  0.060878 -0.086095     24.000000
 -0.140592  0.243512  0.043047     48.000000
 -0.105444  0.223220  0.028698     24.000000
 -0.140592  0.284098  0.028698     12.000000
 -0.140592  0.243512  0.086095     24.000000
 -0.105444  0.223220  0.071745     24.000000
 -0.105444  0.263805  0.057396     12.000000
 


--------------------------------------------------------------------------------------------------------




 Dimension of arrays:
   k-points           NKPTS =     47   k-points in BZ     NKDIM =     47   number of bands    NBANDS=      5
   number of dos      NEDOS =    301   number of ions     NIONS =      1
   non local maximal  LDIM  =      6   non local SUM 2l+1 LMDIM =     16
   total plane-waves  NPLWV =  13824
   max r-space proj   IRMAX =      1   max aug-charges    IRDMAX=  47671
   dimension x,y,z NGX =    24 NGY =   24 NGZ =   24
   dimension x,y,z NGXF=    48 NGYF=   48 NGZF=   48
   support grid    NGXF=    96 NGYF=   96 NGZF=   96
   ions per type =               1
   NGX,Y,Z   is equivalent  to a cutoff of  14.02, 14.02, 14.02 a.u.
   NGXF,Y,Z  is equivalent  to a cutoff of  28.05, 28.05, 28.05 a.u.

 SYSTEM =  He_FCC                                  
 POSCAR =  He_FCC                                  

 Startparameter for this run:
   NWRITE =      2    write-flag & timer
   PREC   = accura    normal or accurate (medium, high low for compatibility)
   ISTART =      0    job   : 0-new  1-cont  2-samecut
   ICHARG =      2    charge: 1-file 2-atom 10-const
   ISPIN  =      1    spin polarized calculation?
   LNONCOLLINEAR =      F non collinear calculations
   LSORBIT =      F    spin-orbit coupling
   INIWAV =      1    electr: 0-lowe 1-rand  2-diag
   LASPH  =      F    aspherical Exc in radial PAW
   METAGGA=      F    non-selfconsistent MetaGGA calc.

 Electronic Relaxation 1
   ENCUT  =  600.0 eV  44.10 Ry    6.64 a.u.   5.68  5.68  5.68*2*pi/ulx,y,z
   ENINI  =  600.0     initial cutoff
   ENAUG  = 1514.2 eV  augmentation charge cutoff
   NELM   =    100;   NELMIN=  5; NELMDL= -5     # of ELM steps 
   EDIFF  = 0.1E-07   stopping-criterion for ELM
   LREAL  =      F    real-space projection
   NLSPLINE    = F    spline interpolate recip. space projectors
   LCOMPAT=      F    compatible to vasp.4.4
   GGA_COMPAT  = F    GGA compatible to vasp.4.4-vasp.4.6
   LMAXPAW     = -100 max onsite density
   LMAXMIX     =    2 max onsite mixed and CHGCAR
   VOSKOWN=      0    Vosko Wilk Nusair interpolation
   ROPT   =    0.00000
 Ionic relaxation
   EDIFFG = 0.1E-06   stopping-criterion for IOM
   NSW    =    999    number of steps for IOM
   NBLOCK =      1;   KBLOCK =    999    inner block; outer block 
   IBRION =      1    ionic relax: 0-MD 1-quasi-New 2-CG
   NFREE  =      5    steps in history (QN), initial steepest desc. (CG)
   ISIF   =      7    stress and relaxation
   IWAVPR =     11    prediction:  0-non 1-charg 2-wave 3-comb
   ISYM   =      2    0-nonsym 1-usesym 2-fastsym
   LCORR  =      T    Harris-Foulkes like correction to forces

   POTIM  = 0.1000    time-step for ionic-motion
   TEIN   =    0.0    initial temperature
   TEBEG  =    0.0;   TEEND  =   0.0 temperature during run
   SMASS  =  -3.00    Nose mass-parameter (am)
   estimated Nose-frequenzy (Omega)   =  0.10E-29 period in steps =****** mass=  -0.185E-27a.u.
   SCALEE = 1.0000    scale energy and forces
   NPACO  =    256;   APACO  = 16.0  distance and # of slots for P.C.
   PSTRESS=    0.0 pullay stress

  Mass of Ions in am
   POMASS =   4.00
  Ionic Valenz
   ZVAL   =   2.00
  Atomic Wigner-Seitz radii
   RWIGS  =  -1.00
  virtual crystal weights 
   VCA    =   1.00
   NELECT =       2.0000    total number of electrons
   NUPDOWN=      -1.0000    fix difference up-down

 DOS related values:
   EMIN   =  10.00;   EMAX   =-10.00  energy-range for DOS
   EFERMI =   0.00
   ISMEAR =     1;   SIGMA  =   0.05  broadening in eV -4-tet -1-fermi 0-gaus

 Electronic relaxation 2 (details)
   IALGO  =     38    algorithm
   LDIAG  =      T    sub-space diagonalisation (order eigenvalues)
   LSUBROT=      F    optimize rotation matrix (better conditioning)
   TURBO    =      0    0=normal 1=particle mesh
   IRESTART =      0    0=no restart 2=restart with 2 vectors
   NREBOOT  =      0    no. of reboots
   NMIN     =      0    reboot dimension
   EREF     =   0.00    reference energy to select bands
   IMIX   =      4    mixing-type and parameters
     AMIX     =   0.40;   BMIX     =  1.00
     AMIX_MAG =   1.60;   BMIX_MAG =  1.00
     AMIN     =   0.10
     WC   =   100.;   INIMIX=   1;  MIXPRE=   1;  MAXMIX=  30

 Intra band minimization:
   WEIMIN = 0.0010     energy-eigenvalue tresh-hold
   EBREAK =  0.50E-09  absolut break condition
   DEPER  =   0.30     relativ break condition  

   TIME   =   0.40     timestep for ELM

  volume/ion in A,a.u.               =      16.28       109.90
  Fermi-wavevector in a.u.,A,eV,Ry     =   0.813748  1.537761  9.009588  0.662186
  Thomas-Fermi vector in A             =   1.923530
 
 Write flags
   LWAVE        =      F    write WAVECAR
   LDOWNSAMPLE  =      F    k-point downsampling of WAVECAR
   LCHARG       =      F    write CHGCAR
   LVTOT        =      F    write LOCPOT, total local potential
   LVHAR        =      F    write LOCPOT, Hartree potential only
   LELF         =      F    write electronic localiz. function (ELF)
   LORBIT       =      0    0 simple, 1 ext, 2 COOP (PROOUT), +10 PAW based schemes


 Dipole corrections
   LMONO  =      F    monopole corrections only (constant potential shift)
   LDIPOL =      F    correct potential (dipole corrections)
   IDIPOL =      0    1-x, 2-y, 3-z, 4-all directions 
   EPSILON=  1.0000000 bulk dielectric constant

 Exchange correlation treatment:
   GGA     =    PE    GGA type
   LEXCH   =     8    internal setting for exchange type
   VOSKOWN=      0    Vosko Wilk Nusair interpolation
   LHFCALC =     F    Hartree Fock is set to
   LHFONE  =     F    Hartree Fock one center treatment
   AEXX    =    0.0000 exact exchange contribution

 Linear response parameters
   LEPSILON=     F    determine dielectric tensor
   LRPA    =     F    only Hartree local field effects (RPA)
   LNABLA  =     F    use nabla operator in PAW spheres
   LVEL    =     F    velocity operator in full k-point grid
   LINTERFAST=   F  fast interpolation
   KINTER  =     0    interpolate to denser k-point grid
   CSHIFT  =0.1000    complex shift for real part using Kramers Kronig
   OMEGAMAX=  -1.0    maximum frequency
   DEG_THRESHOLD= 0.2000000E-02 threshold for treating states as degnerate
   RTIME   =   -0.100 relaxation time in fs
  (WPLASMAI=    0.000 imaginary part of plasma frequency in eV, 0.658/RTIME)
   DFIELD  = 0.0000000 0.0000000 0.0000000 field for delta impulse in time
 
 Orbital magnetization related:
   ORBITALMAG=     F  switch on orbital magnetization
   LCHIMAG   =     F  perturbation theory with respect to B field
   DQ        =  0.001000  dq finite difference perturbation B field
   LLRAUG    =     F  two centre corrections for induced B field



--------------------------------------------------------------------------------------------------------


 quasi-Newton-method for relaxation of ions
 charge density and potential will be updated during run
 non-spin polarized calculation
 Variant of blocked Davidson
 Davidson routine will perform the subspace rotation
 perform sub-space diagonalisation
    after iterative eigenvector-optimisation
 modified Broyden-mixing scheme, WC =      100.0
 initial mixing is a Kerker type mixing with AMIX =  0.4000 and BMIX =      1.0000
 Hartree-type preconditioning will be used
 using additional bands            4
 reciprocal scheme for non local part
 calculate Harris-corrections to forces 
   (improved forces if not selfconsistent)
 use gradient corrections 
 use of overlap-Matrix (Vanderbilt PP)
 Methfessel and Paxton  Order N= 1 SIGMA  =   0.05


--------------------------------------------------------------------------------------------------------


  energy-cutoff  :      600.00
  volume of cell :       16.28
      direct lattice vectors                 reciprocal lattice vectors
     2.845115027  0.000000000  0.000000000     0.351479638 -0.202926864 -0.143490961
     1.422557513  2.463941890  0.000000000     0.000000000  0.405853727 -0.143490961
     1.422557513  0.821313963  2.323026692     0.000000000  0.000000000  0.430472884

  length of vectors
     2.845115027  2.845115027  2.845115027     0.430472884  0.430472884  0.430472884


 
 k-points in units of 2pi/SCALE and weight: read from INCAR                         
   0.00000000  0.00000000  0.00000000       0.001
   0.03514796 -0.02029269 -0.01434910       0.008
   0.07029593 -0.04058537 -0.02869819       0.008
   0.10544389 -0.06087806 -0.04304729       0.008
   0.14059186 -0.08117075 -0.05739638       0.008
   0.17573982 -0.10146343 -0.07174548       0.004
   0.03514796  0.02029269 -0.02869819       0.006
   0.07029593 -0.00000000 -0.04304729       0.024
   0.10544389 -0.02029269 -0.05739638       0.024
   0.14059186 -0.04058537 -0.07174548       0.024
   0.17573982 -0.06087806 -0.08609458       0.024
  -0.14059186  0.12175612  0.04304729       0.024
  -0.10544389  0.10146343  0.02869819       0.024
  -0.07029593  0.08117075  0.01434910       0.024
  -0.03514796  0.06087806  0.00000000       0.012
   0.07029593  0.04058537 -0.05739638       0.006
   0.10544389  0.02029269 -0.07174548       0.024
   0.14059186  0.00000000 -0.08609458       0.024
   0.17573982 -0.02029269 -0.10044367       0.024
  -0.14059186  0.16234149  0.02869819       0.024
  -0.10544389  0.14204880  0.01434910       0.024
  -0.07029593  0.12175612 -0.00000000       0.012
   0.10544389  0.06087806 -0.08609458       0.006
   0.14059186  0.04058537 -0.10044367       0.024
   0.17573982  0.02029269 -0.11479277       0.024
  -0.14059186  0.20292686  0.01434910       0.024
  -0.10544389  0.18263418 -0.00000000       0.012
   0.14059186  0.08117075 -0.11479277       0.006
   0.17573982  0.06087806 -0.12914187       0.024
  -0.14059186  0.24351224 -0.00000000       0.012
   0.17573982  0.10146343 -0.14349096       0.003
   0.10544389  0.02029269 -0.02869819       0.024
   0.14059186  0.00000000 -0.04304729       0.048
   0.17573982 -0.02029269 -0.05739638       0.048
  -0.14059186  0.16234149  0.07174548       0.024
   0.14059186  0.04058537 -0.05739638       0.024
   0.17573982  0.02029269 -0.07174548       0.048
  -0.14059186  0.20292686  0.05739638       0.048
  -0.10544389  0.18263418  0.04304729       0.048
  -0.07029593  0.16234149  0.02869819       0.024
   0.17573982  0.06087806 -0.08609458       0.024
  -0.14059186  0.24351224  0.04304729       0.048
  -0.10544389  0.22321955  0.02869819       0.024
  -0.14059186  0.28409761  0.02869819       0.012
  -0.14059186  0.24351224  0.08609458       0.024
  -0.10544389  0.22321955  0.07174548       0.024
  -0.10544389  0.26380492  0.05739638       0.012
 
 k-points in reciprocal lattice and weights: read from INCAR                         
   0.00000000  0.00000000  0.00000000       0.001
   0.10000000 -0.00000000  0.00000000       0.008
   0.20000000  0.00000000  0.00000000       0.008
   0.30000000 -0.00000000 -0.00000000       0.008
   0.40000000  0.00000000  0.00000000       0.008
   0.50000000 -0.00000000 -0.00000000       0.004
   0.10000000  0.10000000  0.00000000       0.006
   0.20000000  0.10000000  0.00000000       0.024
   0.30000000  0.10000000  0.00000000       0.024
   0.40000000  0.10000000 -0.00000000       0.024
   0.50000000  0.10000000 -0.00000000       0.024
  -0.40000000  0.10000000  0.00000000       0.024
  -0.30000000  0.10000000  0.00000000       0.024
  -0.20000000  0.10000000  0.00000000       0.024
  -0.10000000  0.10000000 -0.00000000       0.012
   0.20000000  0.20000000 -0.00000000       0.006
   0.30000000  0.20000000 -0.00000000       0.024
   0.40000000  0.20000000  0.00000000       0.024
   0.50000000  0.20000000 -0.00000000       0.024
  -0.40000000  0.20000000  0.00000000       0.024
  -0.30000000  0.20000000  0.00000000       0.024
  -0.20000000  0.20000000  0.00000000       0.012
   0.30000000  0.30000000  0.00000000       0.006
   0.40000000  0.30000000  0.00000000       0.024
   0.50000000  0.30000000  0.00000000       0.024
  -0.40000000  0.30000000  0.00000000       0.024
  -0.30000000  0.30000000  0.00000000       0.012
   0.40000000  0.40000000 -0.00000000       0.006
   0.50000000  0.40000000  0.00000000       0.024
  -0.40000000  0.40000000  0.00000000       0.012
   0.50000000  0.50000000 -0.00000000       0.003
   0.30000000  0.20000000  0.10000000       0.024
   0.40000000  0.20000000  0.10000000       0.048
   0.50000000  0.20000000  0.10000000       0.048
  -0.40000000  0.20000000  0.10000000       0.024
   0.40000000  0.30000000  0.10000000       0.024
   0.50000000  0.30000000  0.10000000       0.048
  -0.40000000  0.30000000  0.10000000       0.048
  -0.30000000  0.30000000  0.10000000       0.048
  -0.20000000  0.30000000  0.10000000       0.024
   0.50000000  0.40000000  0.10000000       0.024
  -0.40000000  0.40000000  0.10000000       0.048
  -0.30000000  0.40000000  0.10000000       0.024
  -0.40000000  0.50000000  0.10000000       0.012
  -0.40000000  0.40000000  0.20000000       0.024
  -0.30000000  0.40000000  0.20000000       0.024
  -0.30000000  0.50000000  0.20000000       0.012
 
 position of ions in fractional coordinates (direct lattice) 
   0.00000000  0.00000000  0.00000000
 
 position of ions in cartesian coordinates  (Angst):
   0.00000000  0.00000000  0.00000000
 


--------------------------------------------------------------------------------------------------------


 k-point  1 :   0.0000 0.0000 0.0000  plane waves:     537
 k-point  2 :   0.1000-0.0000 0.0000  plane waves:     537
 k-point  3 :   0.2000 0.0000 0.0000  plane waves:     552
 k-point  4 :   0.3000-0.0000-0.0000  plane waves:     537
 k-point  5 :   0.4000 0.0000 0.0000  plane waves:     547
 k-point  6 :   0.5000-0.0000-0.0000  plane waves:     544
 k-point  7 :   0.1000 0.1000 0.0000  plane waves:     540
 k-point  8 :   0.2000 0.1000 0.0000  plane waves:     551
 k-point  9 :   0.3000 0.1000 0.0000  plane waves:     549
 k-point 10 :   0.4000 0.1000-0.0000  plane waves:     546
 k-point 11 :   0.5000 0.1000-0.0000  plane waves:     547
 k-point 12 :  -0.4000 0.1000 0.0000  plane waves:     545
 k-point 13 :  -0.3000 0.1000 0.0000  plane waves:     546
 k-point 14 :  -0.2000 0.1000 0.0000  plane waves:     542
 k-point 15 :  -0.1000 0.1000-0.0000  plane waves:     545
 k-point 16 :   0.2000 0.2000-0.0000  plane waves:     540
 k-point 17 :   0.3000 0.2000-0.0000  plane waves:     545
 k-point 18 :   0.4000 0.2000 0.0000  plane waves:     543
 k-point 19 :   0.5000 0.2000-0.0000  plane waves:     545
 k-point 20 :  -0.4000 0.2000 0.0000  plane waves:     540
 k-point 21 :  -0.3000 0.2000 0.0000  plane waves:     543
 k-point 22 :  -0.2000 0.2000 0.0000  plane waves:     550
 k-point 23 :   0.3000 0.3000 0.0000  plane waves:     552
 k-point 24 :   0.4000 0.3000 0.0000  plane waves:     543
 k-point 25 :   0.5000 0.3000 0.0000  plane waves:     544
 k-point 26 :  -0.4000 0.3000 0.0000  plane waves:     541
 k-point 27 :  -0.3000 0.3000 0.0000  plane waves:     542
 k-point 28 :   0.4000 0.4000-0.0000  plane waves:     552
 k-point 29 :   0.5000 0.4000 0.0000  plane waves:     546
 k-point 30 :  -0.4000 0.4000 0.0000  plane waves:     542
 k-point 31 :   0.5000 0.5000-0.0000  plane waves:     524
 k-point 32 :   0.3000 0.2000 0.1000  plane waves:     548
 k-point 33 :   0.4000 0.2000 0.1000  plane waves:     543
 k-point 34 :   0.5000 0.2000 0.1000  plane waves:     546
 k-point 35 :  -0.4000 0.2000 0.1000  plane waves:     548
 k-point 36 :   0.4000 0.3000 0.1000  plane waves:     543
 k-point 37 :   0.5000 0.3000 0.1000  plane waves:     542
 k-point 38 :  -0.4000 0.3000 0.1000  plane waves:     545
 k-point 39 :  -0.3000 0.3000 0.1000  plane waves:     541
 k-point 40 :  -0.2000 0.3000 0.1000  plane waves:     548
 k-point 41 :   0.5000 0.4000 0.1000  plane waves:     537
 k-point 42 :  -0.4000 0.4000 0.1000  plane waves:     541
 k-point 43 :  -0.3000 0.4000 0.1000  plane waves:     539
 k-point 44 :  -0.4000 0.5000 0.1000  plane waves:     540
 k-point 45 :  -0.4000 0.4000 0.2000  plane waves:     540
 k-point 46 :  -0.3000 0.4000 0.2000  plane waves:     534
 k-point 47 :  -0.3000 0.5000 0.2000  plane waves:     534

 maximum and minimum number of plane-waves per node :       143      125

 maximum number of plane-waves:       552
 maximum index in each direction: 
   IXMAX=    6   IYMAX=    5   IZMAX=    5
   IXMIN=   -6   IYMIN=   -6   IZMIN=   -5


 parallel 3D FFT for wavefunctions:
    minimum data exchange during FFTs selected (reduces bandwidth)
 parallel 3D FFT for charge:
    minimum data exchange during FFTs selected (reduces bandwidth)


 total amount of memory used by VASP MPI-rank0    41937. kBytes
=======================================================================

   base      :      30000. kBytes
   nonl-proj :        856. kBytes
   fftplans  :       8153. kBytes
   grid      :       2322. kBytes
   one-center:         12. kBytes
   wavefun   :        594. kBytes
 
     INWAV:  cpu time    0.0000: real time    0.0000
 Broyden mixing: mesh for mixing (old mesh)
   NGX = 11   NGY = 11   NGZ = 11
  (NGX  = 48   NGY  = 48   NGZ  = 48)
  gives a total of   1331 points

 initial charge density was supplied:
 charge density of overlapping atoms calculated
 number of electron       2.0000000 magnetization 
 keeping initial charge density in first step


--------------------------------------------------------------------------------------------------------


 Maximum index for augmentation-charges        11429 (set IRDMAX)


--------------------------------------------------------------------------------------------------------


 First call to EWALD:  gamma=   0.699
 Maximum number of real-space cells 3x 3x 3
 Maximum number of reciprocal cells 3x 3x 3

    FEWALD:  cpu time    0.0015: real time    0.0015


--------------------------------------- Iteration      1(   1)  ---------------------------------------


    POTLOK:  cpu time    0.0235: real time    0.0237
    SETDIJ:  cpu time    0.0159: real time    0.0160
     EDDAV:  cpu time    0.0239: real time    0.0241
       DOS:  cpu time    0.0003: real time    0.0003
    --------------------------------------------
      LOOP:  cpu time    0.0637: real time    0.0641

 eigenvalue-minimisations  :   470
 total energy-change (2. order) : 0.3765700E+00  (-0.4268324E+02)
 number of electron       2.0000000 magnetization 
 augmentation part        2.0000000 magnetization 

 Free energy of the ion-electron system (eV)
  ---------------------------------------------------
  alpha Z        PSCENC =         0.62263337
  Ewald energy   TEWEN  =       -32.81689722
  -Hartree energ DENC   =       -23.23826789
  -exchange      EXHF   =         0.00000000
  -V(xc)+E(xc)   XCENC  =         7.73038852
  PAW double counting   =        45.69252117      -47.19906635
  entropy T*S    EENTRO =         0.00006958
  eigenvalues    EBANDS =       -29.13673610
  atomic energy  EATOM  =        78.72192494
  Solvation  Ediel_sol  =         0.00000000
  ---------------------------------------------------
  free energy    TOTEN  =         0.37657001 eV

  energy without entropy =        0.37650044  energy(sigma->0) =        0.37654682


--------------------------------------------------------------------------------------------------------




--------------------------------------- Iteration      1(   2)  ---------------------------------------


     EDDAV:  cpu time    0.0302: real time    0.0305
       DOS:  cpu time    0.0003: real time    0.0003
    --------------------------------------------
      LOOP:  cpu time    0.0305: real time    0.0308

 eigenvalue-minimisations  :   640
 total energy-change (2. order) :-0.3860215E+00  (-0.3863282E+00)
 number of electron       2.0000000 magnetization 
 augmentation part        2.0000000 magnetization 

 Free energy of the ion-electron system (eV)
  ---------------------------------------------------
  alpha Z        PSCENC =         0.62263337
  Ewald energy   TEWEN  =       -32.81689722
  -Hartree energ DENC   =       -23.23826789
  -exchange      EXHF   =         0.00000000
  -V(xc)+E(xc)   XCENC  =         7.73038852
  PAW double counting   =        45.69252117      -47.19906635
  entropy T*S    EENTRO =         0.00068246
  eigenvalues    EBANDS =       -29.52337051
  atomic energy  EATOM  =        78.72192494
  Solvation  Ediel_sol  =         0.00000000
  ---------------------------------------------------
  free energy    TOTEN  =        -0.00945152 eV

  energy without entropy =       -0.01013398  energy(sigma->0) =       -0.00967900


--------------------------------------------------------------------------------------------------------




--------------------------------------- Iteration      1(   3)  ---------------------------------------


     EDDAV:  cpu time    0.0303: real time    0.0306
       DOS:  cpu time    0.0003: real time    0.0003
    --------------------------------------------
      LOOP:  cpu time    0.0306: real time    0.0308

 eigenvalue-minimisations  :   590
 total energy-change (2. order) :-0.1074007E-02  (-0.1073748E-02)
 number of electron       2.0000000 magnetization 
 augmentation part        2.0000000 magnetization 

 Free energy of the ion-electron system (eV)
  ---------------------------------------------------
  alpha Z        PSCENC =         0.62263337
  Ewald energy   TEWEN  =       -32.81689722
  -Hartree energ DENC   =       -23.23826789
  -exchange      EXHF   =         0.00000000
  -V(xc)+E(xc)   XCENC  =         7.73038852
  PAW double counting   =        45.69252117      -47.19906635
  entropy T*S    EENTRO =         0.00068922
  eigenvalues    EBANDS =       -29.52445128
  atomic energy  EATOM  =        78.72192494
  Solvation  Ediel_sol  =         0.00000000
  ---------------------------------------------------
  free energy    TOTEN  =        -0.01052552 eV

  energy without entropy =       -0.01121474  energy(sigma->0) =       -0.01075526


--------------------------------------------------------------------------------------------------------




--------------------------------------- Iteration      1(   4)  ---------------------------------------


     EDDAV:  cpu time    0.0291: real time    0.0291
       DOS:  cpu time    0.0003: real time    0.0003
    --------------------------------------------
      LOOP:  cpu time    0.0293: real time    0.0294

 eigenvalue-minimisations  :   600
 total energy-change (2. order) :-0.9334089E-05  (-0.9332426E-05)
 number of electron       2.0000000 magnetization 
 augmentation part        2.0000000 magnetization 

 Free energy of the ion-electron system (eV)
  ---------------------------------------------------
  alpha Z        PSCENC =         0.62263337
  Ewald energy   TEWEN  =       -32.81689722
  -Hartree energ DENC   =       -23.23826789
  -exchange      EXHF   =         0.00000000
  -V(xc)+E(xc)   XCENC  =         7.73038852
  PAW double counting   =        45.69252117      -47.19906635
  entropy T*S    EENTRO =         0.00068929
  eigenvalues    EBANDS =       -29.52446068
  atomic energy  EATOM  =        78.72192494
  Solvation  Ediel_sol  =         0.00000000
  ---------------------------------------------------
  free energy    TOTEN  =        -0.01053486 eV

  energy without entropy =       -0.01122415  energy(sigma->0) =       -0.01076462


--------------------------------------------------------------------------------------------------------




--------------------------------------- Iteration      1(   5)  ---------------------------------------


     EDDAV:  cpu time    0.0251: real time    0.0254
       DOS:  cpu time    0.0003: real time    0.0003
    CHARGE:  cpu time    0.0159: real time    0.0159
    MIXING:  cpu time    0.0011: real time    0.0011
    --------------------------------------------
      LOOP:  cpu time    0.0424: real time    0.0427

 eigenvalue-minimisations  :   535
 total energy-change (2. order) :-0.4000384E-07  (-0.3978967E-07)
 number of electron       2.0000000 magnetization 
 augmentation part        0.2920312 magnetization 

 Broyden mixing:
  rms(total) = 0.57541E-02    rms(broyden)= 0.47677E-02
  rms(prec ) = 0.73029E-02
  weight for this iteration     100.00
  WARNING: grid for Broyden might be to small

 Free energy of the ion-electron system (eV)
  ---------------------------------------------------
  alpha Z        PSCENC =         0.62263337
  Ewald energy   TEWEN  =       -32.81689722
  -Hartree energ DENC   =       -23.23826789
  -exchange      EXHF   =         0.00000000
  -V(xc)+E(xc)   XCENC  =         7.73038852
  PAW double counting   =        45.69252117      -47.19906635
  entropy T*S    EENTRO =         0.00068929
  eigenvalues    EBANDS =       -29.52446072
  atomic energy  EATOM  =        78.72192494
  Solvation  Ediel_sol  =         0.00000000
  ---------------------------------------------------
  free energy    TOTEN  =        -0.01053490 eV

  energy without entropy =       -0.01122419  energy(sigma->0) =       -0.01076466


--------------------------------------------------------------------------------------------------------




--------------------------------------- Iteration      1(   6)  ---------------------------------------


    POTLOK:  cpu time    0.0192: real time    0.0195
    SETDIJ:  cpu time    0.0130: real time    0.0130
     EDDAV:  cpu time    0.0267: real time    0.0267
       DOS:  cpu time    0.0003: real time    0.0003
    CHARGE:  cpu time    0.0147: real time    0.0147
    MIXING:  cpu time    0.0010: real time    0.0010
    --------------------------------------------
      LOOP:  cpu time    0.0749: real time    0.0752

 eigenvalue-minimisations  :   540
 total energy-change (2. order) :-0.9521284E-05  (-0.1166254E-05)
 number of electron       2.0000000 magnetization 
 augmentation part        0.2920078 magnetization 

 Broyden mixing:
  rms(total) = 0.28268E-02    rms(broyden)= 0.27530E-02
  rms(prec ) = 0.40361E-02
  weight for this iteration     100.00

 eigenvalues of (default mixing * dielectric matrix)
  average eigenvalue GAMMA=   2.3343
  2.3343

 Free energy of the ion-electron system (eV)
  ---------------------------------------------------
  alpha Z        PSCENC =         0.62263337
  Ewald energy   TEWEN  =       -32.81689722
  -Hartree energ DENC   =       -23.24823095
  -exchange      EXHF   =         0.00000000
  -V(xc)+E(xc)   XCENC  =         7.73164892
  PAW double counting   =        45.64442439      -47.15265336
  entropy T*S    EENTRO =         0.00068912
  eigenvalues    EBANDS =       -29.51408363
  atomic energy  EATOM  =        78.72192494
  Solvation  Ediel_sol  =         0.00000000
  ---------------------------------------------------
  free energy    TOTEN  =        -0.01054442 eV

  energy without entropy =       -0.01123354  energy(sigma->0) =       -0.01077413


--------------------------------------------------------------------------------------------------------




--------------------------------------- Iteration      1(   7)  ---------------------------------------


    POTLOK:  cpu time    0.0192: real time    0.0195
    SETDIJ:  cpu time    0.0125: real time    0.0125
     EDDAV:  cpu time    0.0247: real time    0.0247
       DOS:  cpu time    0.0003: real time    0.0003
    CHARGE:  cpu time    0.0147: real time    0.0147
    MIXING:  cpu time    0.0010: real time    0.0010
    --------------------------------------------
      LOOP:  cpu time    0.0725: real time    0.0727

 eigenvalue-minimisations  :   505
 total energy-change (2. order) :-0.2606831E-04  (-0.1152272E-05)
 number of electron       2.0000000 magnetization 
 augmentation part        0.2919820 magnetization 

 Broyden mixing:
  rms(total) = 0.38029E-03    rms(broyden)= 0.35946E-03
  rms(prec ) = 0.62462E-03
  weight for this iteration     100.00

 eigenvalues of (default mixing * dielectric matrix)
  average eigenvalue GAMMA=   2.3172
  2.1273  2.5071

 Free energy of the ion-electron system (eV)
  ---------------------------------------------------
  alpha Z        PSCENC =         0.62263337
  Ewald energy   TEWEN  =       -32.81689722
  -Hartree energ DENC   =       -23.25788495
  -exchange      EXHF   =         0.00000000
  -V(xc)+E(xc)   XCENC  =         7.73288088
  PAW double counting   =        45.57502127      -47.08505089
  entropy T*S    EENTRO =         0.00068897
  eigenvalues    EBANDS =       -29.50388686
  atomic energy  EATOM  =        78.72192494
  Solvation  Ediel_sol  =         0.00000000
  ---------------------------------------------------
  free energy    TOTEN  =        -0.01057049 eV

  energy without entropy =       -0.01125946  energy(sigma->0) =       -0.01080014


--------------------------------------------------------------------------------------------------------




--------------------------------------- Iteration      1(   8)  ---------------------------------------


    POTLOK:  cpu time    0.0192: real time    0.0195
    SETDIJ:  cpu time    0.0129: real time    0.0129
     EDDAV:  cpu time    0.0255: real time    0.0255
       DOS:  cpu time    0.0003: real time    0.0003
    CHARGE:  cpu time    0.0148: real time    0.0148
    MIXING:  cpu time    0.0011: real time    0.0011
    --------------------------------------------
      LOOP:  cpu time    0.0738: real time    0.0740

 eigenvalue-minimisations  :   525
 total energy-change (2. order) : 0.3129155E-06  (-0.3826474E-07)
 number of electron       2.0000000 magnetization 
 augmentation part        0.2919881 magnetization 

 Broyden mixing:
  rms(total) = 0.25558E-04    rms(broyden)= 0.11228E-04
  rms(prec ) = 0.28545E-04
  weight for this iteration     100.00
  WARNING: grid for Broyden might be to small

 eigenvalues of (default mixing * dielectric matrix)
  average eigenvalue GAMMA=   1.8385
  0.9678  2.4629  2.0848

 Free energy of the ion-electron system (eV)
  ---------------------------------------------------
  alpha Z        PSCENC =         0.62263337
  Ewald energy   TEWEN  =       -32.81689722
  -Hartree energ DENC   =       -23.25544604
  -exchange      EXHF   =         0.00000000
  -V(xc)+E(xc)   XCENC  =         7.73247409
  PAW double counting   =        45.55643782      -47.06625262
  entropy T*S    EENTRO =         0.00068900
  eigenvalues    EBANDS =       -29.50613352
  atomic energy  EATOM  =        78.72192494
  Solvation  Ediel_sol  =         0.00000000
  ---------------------------------------------------
  free energy    TOTEN  =        -0.01057017 eV

  energy without entropy =       -0.01125918  energy(sigma->0) =       -0.01079984


--------------------------------------------------------------------------------------------------------




--------------------------------------- Iteration      1(   9)  ---------------------------------------


    POTLOK:  cpu time    0.0192: real time    0.0193
    SETDIJ:  cpu time    0.0130: real time    0.0130
     EDDAV:  cpu time    0.0261: real time    0.0261
       DOS:  cpu time    0.0003: real time    0.0003
    CHARGE:  cpu time    0.0153: real time    0.0153
    MIXING:  cpu time    0.0011: real time    0.0011
    --------------------------------------------
      LOOP:  cpu time    0.0751: real time    0.0752

 eigenvalue-minimisations  :   510
 total energy-change (2. order) :-0.3906102E-07  (-0.4122270E-09)
 number of electron       2.0000000 magnetization 
 augmentation part        0.2919882 magnetization 

 Broyden mixing:
  rms(total) = 0.85567E-05    rms(broyden)= 0.72778E-05
  rms(prec ) = 0.15021E-04
  weight for this iteration     100.00
  WARNING: grid for Broyden might be to small

 eigenvalues of (default mixing * dielectric matrix)
  average eigenvalue GAMMA=   2.0208
  1.0103  2.1606  2.4560  2.4560

 Free energy of the ion-electron system (eV)
  ---------------------------------------------------
  alpha Z        PSCENC =         0.62263337
  Ewald energy   TEWEN  =       -32.81689722
  -Hartree energ DENC   =       -23.25554452
  -exchange      EXHF   =         0.00000000
  -V(xc)+E(xc)   XCENC  =         7.73248953
  PAW double counting   =        45.55710220      -47.06692178
  entropy T*S    EENTRO =         0.00068900
  eigenvalues    EBANDS =       -29.50604574
  atomic energy  EATOM  =        78.72192494
  Solvation  Ediel_sol  =         0.00000000
  ---------------------------------------------------
  free energy    TOTEN  =        -0.01057021 eV

  energy without entropy =       -0.01125922  energy(sigma->0) =       -0.01079988


--------------------------------------------------------------------------------------------------------




--------------------------------------- Iteration      1(  10)  ---------------------------------------


    POTLOK:  cpu time    0.0191: real time    0.0194
    SETDIJ:  cpu time    0.0125: real time    0.0125
     EDDAV:  cpu time    0.0172: real time    0.0172
       DOS:  cpu time    0.0003: real time    0.0003
    --------------------------------------------
      LOOP:  cpu time    0.0492: real time    0.0494

 eigenvalue-minimisations  :   275
 total energy-change (2. order) :-0.7221118E-08  (-0.3430701E-10)
 number of electron       2.0000000 magnetization 
 augmentation part        0.2919882 magnetization 

 Free energy of the ion-electron system (eV)
  ---------------------------------------------------
  alpha Z        PSCENC =         0.62263337
  Ewald energy   TEWEN  =       -32.81689722
  -Hartree energ DENC   =       -23.25561893
  -exchange      EXHF   =         0.00000000
  -V(xc)+E(xc)   XCENC  =         7.73250200
  PAW double counting   =        45.55776173      -47.06758079
  entropy T*S    EENTRO =         0.00068900
  eigenvalues    EBANDS =       -29.50598433
  atomic energy  EATOM  =        78.72192494
  Solvation  Ediel_sol  =         0.00000000
  ---------------------------------------------------
  free energy    TOTEN  =        -0.01057022 eV

  energy without entropy =       -0.01125922  energy(sigma->0) =       -0.01079989


--------------------------------------------------------------------------------------------------------




 average (electrostatic) potential at core
  the test charge radii are     0.5871
  (the norm of the test charge is              1.0000)
       1 -50.5270
 
 
 
 E-fermi : -14.4267     XC(G=0):  -5.2686     alpha+bet : -0.9963


 k-point     1 :       0.0000    0.0000    0.0000
  band No.  band energies     occupation 
      1     -15.6706      2.00000
      2       3.6096      0.00000
      3      20.6987      0.00000
      4      20.6987      0.00000
      5      20.6987      0.00000

 k-point     2 :       0.1000   -0.0000    0.0000
  band No.  band energies     occupation 
      1     -15.5873      2.00000
      2       3.5538      0.00000
      3      18.3894      0.00000
      4      20.1236      0.00000
      5      20.1236      0.00000

 k-point     3 :       0.2000    0.0000    0.0000
  band No.  band energies     occupation 
      1     -15.3629      2.00000
      2       3.4155      0.00000
      3      15.0410      0.00000
      4      19.2947      0.00000
      5      19.2947      0.00000

 k-point     4 :       0.3000   -0.0000   -0.0000
  band No.  band energies     occupation 
      1     -15.0713      2.00000
      2       3.2658      0.00000
      3      12.3353      0.00000
      4      18.7610      0.00000
      5      18.7610      0.00000

 k-point     5 :       0.4000    0.0000    0.0000
  band No.  band energies     occupation 
      1     -14.8224      2.00000
      2       3.1616      0.00000
      3      10.5872      0.00000
      4      18.5512      0.00000
      5      18.5512      0.00000

 k-point     6 :       0.5000   -0.0000   -0.0000
  band No.  band energies     occupation 
      1     -14.7240      2.00000
      2       3.1270      0.00000
      3       9.9804      0.00000
      4      18.5208      0.00000
      5      18.5208      0.00000

 k-point     7 :       0.1000    0.1000    0.0000
  band No.  band energies     occupation 
      1     -15.5599      2.00000
      2       3.5451      0.00000
      3      18.7652      0.00000
      4      18.7652      0.00000
      5      21.2111      0.00000

 k-point     8 :       0.2000    0.1000    0.0000
  band No.  band energies     occupation 
      1     -15.3834      2.00000
      2       3.4652      0.00000
      3      15.9651      0.00000
      4      17.6815      0.00000
      5      21.0414      0.00000

 k-point     9 :       0.3000    0.1000    0.0000
  band No.  band energies     occupation 
      1     -15.1146      2.00000
      2       3.3806      0.00000
      3      12.9711      0.00000
      4      17.0555      0.00000
      5      20.1314      0.00000

 k-point    10 :       0.4000    0.1000   -0.0000
  band No.  band energies     occupation 
      1     -14.8506      2.00000
      2       3.3516      0.00000
      3      10.7827      0.00000
      4      16.9237      0.00000
      5      18.6486      0.00000

 k-point    11 :       0.5000    0.1000   -0.0000
  band No.  band energies     occupation 
      1     -14.7006      2.00000
      2       3.3684      0.00000
      3       9.6819      0.00000
      4      17.2788      0.00000
      5      17.5952      0.00000

 k-point    12 :      -0.4000    0.1000    0.0000
  band No.  band energies     occupation 
      1     -14.7329      2.00000
      2       3.3637      0.00000
      3       9.8576      0.00000
      4      17.0380      0.00000
      5      18.0737      0.00000

 k-point    13 :      -0.3000    0.1000    0.0000
  band No.  band energies     occupation 
      1     -14.9325      2.00000
      2       3.3506      0.00000
      3      11.2667      0.00000
      4      16.9539      0.00000
      5      19.1780      0.00000

 k-point    14 :      -0.2000    0.1000    0.0000
  band No.  band energies     occupation 
      1     -15.2105      2.00000
      2       3.3937      0.00000
      3      13.6527      0.00000
      4      17.3168      0.00000
      5      20.3047      0.00000

 k-point    15 :      -0.1000    0.1000   -0.0000
  band No.  band energies     occupation 
      1     -15.4572      2.00000
      2       3.4840      0.00000
      3      16.5325      0.00000
      4      18.1998      0.00000
      5      20.9081      0.00000

 k-point    16 :       0.2000    0.2000   -0.0000
  band No.  band energies     occupation 
      1     -15.2652      2.00000
      2       3.4933      0.00000
      3      16.4027      0.00000
      4      16.4027      0.00000
      5      18.6998      0.00000

 k-point    17 :       0.3000    0.2000   -0.0000
  band No.  band energies     occupation 
      1     -15.0468      2.00000
      2       3.5471      0.00000
      3      13.8071      0.00000
      4      15.6076      0.00000
      5      17.6210      0.00000

 k-point    18 :       0.4000    0.2000    0.0000
  band No.  band energies     occupation 
      1     -14.8059      2.00000
      2       3.7195      0.00000
      3      11.0477      0.00000
      4      15.3300      0.00000
      5      16.0831      0.00000

 k-point    19 :       0.5000    0.2000   -0.0000
  band No.  band energies     occupation 
      1     -14.6376      2.00000
      2       3.9985      0.00000
      3       9.1518      0.00000
      4      15.2040      0.00000
      5      15.5761      0.00000

 k-point    20 :      -0.4000    0.2000    0.0000
  band No.  band energies     occupation 
      1     -14.6147      2.00000
      2       4.0834      0.00000
      3       8.6179      0.00000
      4      14.9422      0.00000
      5      16.3371      0.00000

 k-point    21 :      -0.3000    0.2000    0.0000
  band No.  band energies     occupation 
      1     -14.7474      2.00000
      2       3.7967      0.00000
      3       9.6238      0.00000
      4      15.2289      0.00000
      5      17.5778      0.00000

 k-point    22 :      -0.2000    0.2000    0.0000
  band No.  band energies     occupation 
      1     -14.9770      2.00000
      2       3.5043      0.00000
      3      11.5744      0.00000
      4      15.9951      0.00000
      5      19.1638      0.00000

 k-point    23 :       0.3000    0.3000    0.0000
  band No.  band energies     occupation 
      1     -14.8909      2.00000
      2       3.7396      0.00000
      3      14.6380      0.00000
      4      14.6380      0.00000
      5      15.1730      0.00000

 k-point    24 :       0.4000    0.3000    0.0000
  band No.  band energies     occupation 
      1     -14.7030      2.00000
      2       4.0729      0.00000
      3      11.8245      0.00000
      4      14.0131      0.00000
      5      14.1892      0.00000

 k-point    25 :       0.5000    0.3000    0.0000
  band No.  band energies     occupation 
      1     -14.5562      2.00155
      2       4.6716      0.00000
      3       9.0727      0.00000
      4      13.3210      0.00000
      5      14.2718      0.00000

 k-point    26 :      -0.4000    0.3000    0.0000
  band No.  band energies     occupation 
      1     -14.5107      2.03887
      2       5.3105      0.00000
      3       7.3231      0.00000
      4      13.2985      0.00000
      5      14.8837      0.00000

 k-point    27 :      -0.3000    0.3000    0.0000
  band No.  band energies     occupation 
      1     -14.5851      2.00007
      2       4.6613      0.00000
      3       7.9344      0.00000
      4      13.9491      0.00000
      5      16.0080      0.00000

 k-point    28 :       0.4000    0.4000   -0.0000
  band No.  band energies     occupation 
      1     -14.5804      2.00012
      2       4.4307      0.00000
      3      11.5892      0.00000
      4      13.5652      0.00000
      5      13.5652      0.00000

 k-point    29 :       0.5000    0.4000    0.0000
  band No.  band energies     occupation 
      1     -14.4872      2.07085
      2       4.9670      0.00000
      3       9.6981      0.00000
      4      12.5925      0.00000
      5      13.4737      0.00000

 k-point    30 :      -0.4000    0.4000    0.0000
  band No.  band energies     occupation 
      1     -14.4610      1.90978
      2       5.7354      0.00000
      3       7.5650      0.00000
      4      12.4659      0.00000
      5      13.9164      0.00000

 k-point    31 :       0.5000    0.5000   -0.0000
  band No.  band energies     occupation 
      1     -14.4601      1.89648
      2       5.0009      0.00000
      3      10.0241      0.00000
      4      13.2061      0.00000
      5      13.2061      0.00000

 k-point    32 :       0.3000    0.2000    0.1000
  band No.  band energies     occupation 
      1     -15.1852      2.00000
      2       3.4545      0.00000
      3      14.0683      0.00000
      4      16.3509      0.00000
      5      20.2673      0.00000

 k-point    33 :       0.4000    0.2000    0.1000
  band No.  band energies     occupation 
      1     -14.9300      2.00000
      2       3.5373      0.00000
      3      11.5858      0.00000
      4      15.4517      0.00000
      5      18.8102      0.00000

 k-point    34 :       0.5000    0.2000    0.1000
  band No.  band energies     occupation 
      1     -14.7145      2.00000
      2       3.7313      0.00000
      3       9.6894      0.00000
      4      14.9143      0.00000
      5      17.9373      0.00000

 k-point    35 :      -0.4000    0.2000    0.1000
  band No.  band energies     occupation 
      1     -14.6299      2.00000
      2       3.8593      0.00000
      3       8.9602      0.00000
      4      14.7275      0.00000
      5      17.6582      0.00000

 k-point    36 :       0.4000    0.3000    0.1000
  band No.  band energies     occupation 
      1     -14.8432      2.00000
      2       3.7676      0.00000
      3      12.2629      0.00000
      4      13.7798      0.00000
      5      16.8939      0.00000

 k-point    37 :       0.5000    0.3000    0.1000
  band No.  band energies     occupation 
      1     -14.6501      2.00000
      2       4.2164      0.00000
      3       9.9428      0.00000
      4      12.6286      0.00000
      5      16.7586      0.00000

 k-point    38 :      -0.4000    0.3000    0.1000
  band No.  band energies     occupation 
      1     -14.5455      2.00397
      2       4.7591      0.00000
      3       8.2242      0.00000
      4      12.3050      0.00000
      5      16.9260      0.00000

 k-point    39 :      -0.3000    0.3000    0.1000
  band No.  band energies     occupation 
      1     -14.5741      2.00025
      2       4.6273      0.00000
      3       8.2488      0.00000
      4      12.6603      0.00000
      5      17.4322      0.00000

 k-point    40 :      -0.2000    0.3000    0.1000
  band No.  band energies     occupation 
      1     -14.7231      2.00000
      2       3.9788      0.00000
      3       9.7569      0.00000
      4      13.7185      0.00000
      5      18.1144      0.00000

 k-point    41 :       0.5000    0.4000    0.1000
  band No.  band energies     occupation 
      1     -14.5627      2.00082
      2       4.6074      0.00000
      3      10.7588      0.00000
      4      11.1718      0.00000
      5      15.2734      0.00000

 k-point    42 :      -0.4000    0.4000    0.1000
  band No.  band energies     occupation 
      1     -14.4781      2.05560
      2       5.4904      0.00000
      3       8.2618      0.00000
      4      10.7321      0.00000
      5      15.8954      0.00000

 k-point    43 :      -0.3000    0.4000    0.1000
  band No.  band energies     occupation 
      1     -14.4830      2.06745
      2       6.0649      0.00000
      3       6.8355      0.00000
      4      11.2507      0.00000
      5      16.5881      0.00000

 k-point    44 :      -0.4000    0.5000    0.1000
  band No.  band energies     occupation 
      1     -14.4549      1.80601
      2       5.3682      0.00000
      3       9.1381      0.00000
      4      10.8072      0.00000
      5      14.8238      0.00000

 k-point    45 :      -0.4000    0.4000    0.2000
  band No.  band energies     occupation 
      1     -14.5219      2.02154
      2       5.1298      0.00000
      3       8.6604      0.00000
      4      10.4401      0.00000
      5      17.6196      0.00000

 k-point    46 :      -0.3000    0.4000    0.2000
  band No.  band energies     occupation 
      1     -14.4725      2.02798
      2       6.0312      0.00000
      3       7.5162      0.00000
      4       9.7893      0.00000
      5      17.8667      0.00000

 k-point    47 :      -0.3000    0.5000    0.2000
  band No.  band energies     occupation 
      1     -14.4464      1.61256
      2       6.4686      0.00000
      3       8.2877      0.00000
      4       8.2942      0.00000
      5      17.4112      0.00000


--------------------------------------------------------------------------------------------------------


 soft charge-density along one line, spin component           1
         0         1         2         3         4         5         6         7         8         9
 total charge-density along one line
 
 pseudopotential strength for first ion, spin component:           1
-13.654   0.000  17.683   0.000   0.000   0.000   0.000   0.000   0.000   0.000   0.000   0.000   0.000   0.000   0.000   0.000
 17.683   0.000 -43.129   0.000   0.000   0.000   0.000   0.000   0.000   0.000   0.000   0.000   0.000   0.000   0.000   0.000
  0.000   0.000   0.000   0.000  -0.507   0.000   0.000   0.000   0.000   0.000  -1.283   0.000   0.000   0.000   0.000   0.000
  0.000   0.000   0.000   0.000   0.000   0.000  -0.507   0.000   0.000   0.000   0.000   0.000  -1.283   0.000   0.000   0.000
  0.000   0.000   0.000   0.000   0.000   0.000   0.000   0.000  -0.507   0.000   0.000   0.000   0.000   0.000  -1.283   0.000
  0.000   0.000   0.000   0.000  -1.283   0.000   0.000   0.000   0.000   0.000  -1.122   0.000  -0.000   0.000  -0.000   0.000
  0.000   0.000   0.000   0.000   0.000   0.000  -1.283   0.000   0.000   0.000  -0.000   0.000  -1.122   0.000  -0.000   0.000
  0.000   0.000   0.000   0.000   0.000   0.000   0.000   0.000  -1.283   0.000  -0.000   0.000  -0.000   0.000  -1.122   0.000
  0.000   0.000  -0.000   0.000  -0.957   0.000  -0.000   0.000  -0.000   0.000  11.265   0.000  -0.000   0.000  -0.000   0.000
  0.000   0.000  -0.000   0.000  -0.000   0.000  -0.957   0.000  -0.000   0.000  -0.000   0.000  11.265   0.000  -0.000   0.000
  0.000   0.000  -0.000   0.000  -0.000   0.000  -0.000   0.000  -0.957   0.000  -0.000   0.000  -0.000   0.000  11.265   0.000
 -0.000   0.000  -0.000   0.000  -0.000   0.000   0.000   0.000  -0.000   0.000  -0.000   0.000   0.000   0.000  -0.000   0.000
 -0.000   0.000  -0.000   0.000  -0.000   0.000  -0.000   0.000   0.000   0.000  -0.000   0.000  -0.000   0.000   0.000   0.000
  0.000   0.000   0.000   0.000   0.000   0.000  -0.000   0.000   0.000   0.000   0.000   0.000  -0.000   0.000   0.000   0.000
 -0.000   0.000  -0.000   0.000   0.000   0.000  -0.000   0.000  -0.000   0.000   0.000   0.000  -0.000   0.000  -0.000   0.000
 -0.000   0.000  -0.000   0.000   0.000   0.000   0.000   0.000  -0.000   0.000   0.000   0.000   0.000   0.000  -0.000   0.000
 total augmentation occupancy for first ion, spin component:           1
  1.991  -0.004   0.000   0.000   0.000   0.000   0.000   0.000   0.000   0.000   0.000   0.000   0.000  -0.000  -0.000   0.000
 -0.004   0.000   0.000   0.000   0.000   0.000   0.000   0.000   0.000   0.000   0.000  -0.000  -0.000   0.000   0.000  -0.000
  0.000   0.000   0.000   0.000  -0.000  -0.000  -0.000   0.000   0.000   0.000   0.000   0.000   0.000   0.000   0.000   0.000
  0.000   0.000   0.000   0.000   0.000  -0.000  -0.000  -0.000   0.000   0.000   0.000   0.000   0.000   0.000   0.000   0.000
  0.000   0.000   0.000  -0.000   0.000   0.000  -0.000  -0.000   0.000   0.000   0.000   0.000   0.000   0.000   0.000   0.000
  0.000   0.000  -0.000  -0.000   0.000   0.000   0.000   0.000  -0.000  -0.000  -0.000   0.000   0.000   0.000   0.000   0.000
  0.000   0.000  -0.000  -0.000  -0.000   0.000   0.000   0.000  -0.000  -0.000  -0.000   0.000   0.000   0.000   0.000   0.000
  0.000   0.000   0.000   0.000  -0.000  -0.000   0.000   0.000   0.000  -0.000  -0.000   0.000   0.000   0.000   0.000   0.000
  0.000   0.000   0.000   0.000  -0.000  -0.000  -0.000   0.000   0.000   0.000   0.000   0.000   0.000   0.000   0.000   0.000
  0.000   0.000   0.000   0.000   0.000  -0.000  -0.000   0.000   0.000   0.000   0.000   0.000   0.000   0.000   0.000   0.000
  0.000   0.000   0.000   0.000   0.000  -0.000  -0.000  -0.000  -0.000   0.000   0.000   0.000   0.000   0.000   0.000   0.000
  0.000   0.000   0.000   0.000   0.000   0.000   0.000   0.000   0.000   0.000   0.000   0.000   0.000  -0.000   0.000  -0.000
  0.000  -0.000   0.000   0.000   0.000   0.000   0.000   0.000   0.000   0.000   0.000   0.000   0.000  -0.000  -0.000   0.000
 -0.000   0.000   0.000   0.000   0.000   0.000   0.000   0.000   0.000   0.000   0.000  -0.000  -0.000   0.000  -0.000  -0.000
 -0.000   0.000   0.000   0.000   0.000   0.000   0.000   0.000   0.000   0.000   0.000   0.000  -0.000   0.000   0.000   0.000
  0.000  -0.000   0.000   0.000   0.000   0.000   0.000   0.000   0.000   0.000   0.000  -0.000   0.000  -0.000   0.000   0.000


------------------------ aborting loop because EDIFF is reached ----------------------------------------


    CHARGE:  cpu time    0.0146: real time    0.0146
    FORLOC:  cpu time    0.0011: real time    0.0011
    FORNL :  cpu time    0.0713: real time    0.0713
    STRESS:  cpu time    0.2381: real time    0.2381
    FORHAR:  cpu time    0.0052: real time    0.0052
    MIXING:  cpu time    0.0011: real time    0.0011
    OFIELD:  cpu time    0.0000: real time    0.0000

 ---------------------------------------------------------------------------------------------

         DFTD3 V3.0 Rev 1        
 IVDW         = 12
 DF pbe       
 parameters
 VDW_S6       =    1.0000
 VDW_S8       =    0.7875
 VDW_A1       =    0.4289
 VDW_A2       =    4.4407
 k1-k3        =   16.0000    1.3333   -4.0000
 VDW_RADIUS   =   50.2022 A
 VDW_CNRADIUS =   21.1671 A
 Edisp (eV)   -0.00765

 E6    (eV) :    -0.0066
 E8    (eV) :    -0.0010
 % E8        : 13.29
    FORVDW:  cpu time    0.0172: real time    0.0178

  FORCE on cell =-STRESS in cart. coord.  units (eV):
  Direction    XX          YY          ZZ          XY          YZ          ZX
  --------------------------------------------------------------------------------------
  Alpha Z     0.62263     0.62263     0.62263
  Ewald     -10.93897   -10.93897   -10.93897     0.00000    -0.00000     0.00000
  Hartree     7.75186     7.75186     7.75186     0.00000    -0.00000     0.00000
  E(xc)      -8.78655    -8.78655    -8.78655    -0.00000    -0.00000    -0.00000
  Local     -10.40542   -10.40543   -10.40543     0.00000     0.00000     0.00000
  n-local   -11.59991   -11.63340   -11.64770    -0.01217     0.00383    -0.03139
  augment     3.51459     3.51459     3.51459    -0.00000    -0.00000    -0.00000
  Kinetic    30.81597    29.64717    29.17193    -0.41972     0.12226    -1.06316
  Fock        0.00000     0.00000     0.00000     0.00000     0.00000     0.00000
  vdW        -0.00918    -0.00918    -0.00918    -0.00000    -0.00000     0.00000
  -------------------------------------------------------------------------------------
  Total       0.00032     0.00032     0.00032     0.00000    -0.00000     0.00000
  in kB       0.03140     0.03140     0.03140     0.00000    -0.00000     0.00000
  external pressure =        0.03 kB  Pullay stress =        0.00 kB


 VOLUME and BASIS-vectors are now :
 -----------------------------------------------------------------------------
  energy-cutoff  :      600.00
  volume of cell :       16.28
      direct lattice vectors                 reciprocal lattice vectors
     2.845115027  0.000000000  0.000000000     0.351479638 -0.202926864 -0.143490961
     1.422557513  2.463941890  0.000000000     0.000000000  0.405853727 -0.143490961
     1.422557513  0.821313963  2.323026692     0.000000000  0.000000000  0.430472884

  length of vectors
     2.845115027  2.845115027  2.845115027     0.430472884  0.430472884  0.430472884


 FORCES acting on ions
    electron-ion (+dipol)            ewald-force                    non-local-force                 convergence-correction
 -----------------------------------------------------------------------------------------------
   0.942E-15 0.185E-14 -.363E-16   -.213E-15 -.672E-17 0.753E-16   0.310E-24 -.414E-24 0.000E+00   0.812E-16 0.177E-14 -.470E-15
 -----------------------------------------------------------------------------------------------
   0.942E-15 0.185E-14 -.363E-16   -.213E-15 -.672E-17 0.753E-16   0.310E-24 -.414E-24 0.000E+00   0.812E-16 0.177E-14 -.470E-15
 
 
 POSITION                                       TOTAL-FORCE (eV/Angst)
 -----------------------------------------------------------------------------------
      0.00000      0.00000      0.00000         0.000000      0.000000      0.000000
 -----------------------------------------------------------------------------------
    total drift:                                0.000000      0.000000     -0.000000


--------------------------------------------------------------------------------------------------------



  FREE ENERGIE OF THE ION-ELECTRON SYSTEM (eV)
  ---------------------------------------------------
  free  energy   TOTEN  =        -0.01822269 eV

  energy  without entropy=       -0.01891170  energy(sigma->0) =       -0.01845236
 


--------------------------------------------------------------------------------------------------------


    POTLOK:  cpu time    0.0314: real time    0.0314


--------------------------------------------------------------------------------------------------------


 Quasi-Newton relaxation of ions (Broydens 2nd method)
  g(Force)  = 0.000E+00   g(Stress)= 0.295E-08

 Reset! Starting new Quasi-Newton update for ions 


--------------------------------------------------------------------------------------------------------


  
 reached required accuracy - stopping structural energy minimisation
     LOOP+:  cpu time    0.9420: real time    0.9463
    4ORBIT:  cpu time    0.0000: real time    0.0000

 total amount of memory used by VASP MPI-rank0    41937. kBytes
=======================================================================

   base      :      30000. kBytes
   nonl-proj :        856. kBytes
   fftplans  :       8153. kBytes
   grid      :       2322. kBytes
   one-center:         12. kBytes
   wavefun   :        594. kBytes
 
  
  
 General timing and accounting informations for this job:
 ========================================================
  
                  Total CPU time used (sec):        1.773
                            User time (sec):        1.652
                          System time (sec):        0.121
                         Elapsed time (sec):        1.825
  
                   Maximum memory used (kb):       78156.
                   Average memory used (kb):           0.
  
                          Minor page faults:        12093
                          Major page faults:            0
                 Voluntary context switches:          664
