He_FCC                                  
           1
     2.973423    0.000000    0.000000
     1.486712    2.575060    0.000000
     1.486712    0.858353    2.427790
   He
   1
Direct configuration=     1
   0.00000000  0.00000000  0.00000000
He_FCC                                  
           1
     2.973044    0.000000    0.000000
     1.486522    2.574732    0.000000
     1.486522    0.858244    2.427481
   He
   1
Direct configuration=     2
   0.00000000  0.00000000  0.00000000
