He_FCC                                  
           1
     2.973044    0.000000    0.000000
     1.486522    2.574732    0.000000
     1.486522    0.858244    2.427481
   He
   1
Direct configuration=     1
   0.00000000  0.00000000  0.00000000
He_FCC                                  
           1
     2.972666    0.000000    0.000000
     1.486333    2.574405    0.000000
     1.486333    0.858135    2.427172
   He
   1
Direct configuration=     2
   0.00000000  0.00000000  0.00000000
He_FCC                                  
           1
     2.800916    0.000000    0.000000
     1.400458    2.425664    0.000000
     1.400458    0.808555    2.286938
   He
   1
Direct configuration=     3
   0.00000000  0.00000000  0.00000000
He_FCC                                  
           1
     2.851147    0.000000    0.000000
     1.425574    2.469166    0.000000
     1.425574    0.823055    2.327952
   He
   1
Direct configuration=     4
   0.00000000  0.00000000  0.00000000
He_FCC                                  
           1
     2.845115    0.000000    0.000000
     1.422558    2.463942    0.000000
     1.422558    0.821314    2.323027
   He
   1
Direct configuration=     5
   0.00000000  0.00000000  0.00000000
