   1   1   0   0
  0.4928368E+02  0.4115343E-09  0.4115343E-09  0.4115343E-09  0.1000000E-15
  1.000000000000000E-004
  CAR 
 Og_FCC                                  
    111.80498264    -24.85552822  301     -4.12868407      1.00000000
    -24.856  0.0000E+00  0.0000E+00
    -24.400  0.0000E+00  0.0000E+00
    -23.944  0.0000E+00  0.0000E+00
    -23.489  0.0000E+00  0.0000E+00
    -23.033  0.0000E+00  0.0000E+00
    -22.578  0.0000E+00  0.0000E+00
    -22.122  0.0000E+00  0.0000E+00
    -21.667  0.0000E+00  0.0000E+00
    -21.211  0.0000E+00  0.0000E+00
    -20.756  0.0000E+00  0.0000E+00
    -20.300  0.0000E+00  0.0000E+00
    -19.845  0.0000E+00  0.0000E+00
    -19.389  0.0000E+00  0.0000E+00
    -18.934  0.0000E+00  0.0000E+00
    -18.478  0.8597E-06  0.1306E+01
    -18.023  0.0000E+00  0.2000E+01
    -17.567  0.0000E+00  0.2000E+01
    -17.111  0.0000E+00  0.2000E+01
    -16.656  0.0000E+00  0.2000E+01
    -16.200  0.0000E+00  0.2000E+01
    -15.745  0.0000E+00  0.2000E+01
    -15.289  0.0000E+00  0.2000E+01
    -14.834  0.0000E+00  0.2000E+01
    -14.378  0.0000E+00  0.2000E+01
    -13.923  0.0000E+00  0.2000E+01
    -13.467  0.0000E+00  0.2000E+01
    -13.012  0.0000E+00  0.2000E+01
    -12.556  0.0000E+00  0.2000E+01
    -12.101  0.0000E+00  0.2000E+01
    -11.645  0.0000E+00  0.2000E+01
    -11.189  0.0000E+00  0.2000E+01
    -10.734  0.0000E+00  0.2000E+01
    -10.278  0.0000E+00  0.2000E+01
     -9.823  0.0000E+00  0.2000E+01
     -9.367  0.0000E+00  0.2000E+01
     -8.912  0.0000E+00  0.2000E+01
     -8.456  0.0000E+00  0.2000E+01
     -8.001  0.0000E+00  0.2000E+01
     -7.545  0.0000E+00  0.2000E+01
     -7.090  0.0000E+00  0.2000E+01
     -6.634  0.0000E+00  0.2000E+01
     -6.179  0.0000E+00  0.2000E+01
     -5.723  0.0000E+00  0.2000E+01
     -5.268  0.0000E+00  0.2287E+01
     -4.812  0.2439E+00  0.4306E+01
     -4.356  0.5586E+00  0.7412E+01
     -3.901  0.0000E+00  0.8000E+01
     -3.445  0.0000E+00  0.8000E+01
     -2.990  0.0000E+00  0.8000E+01
     -2.534  0.0000E+00  0.8000E+01
     -2.079  0.0000E+00  0.8000E+01
     -1.623  0.0000E+00  0.8000E+01
     -1.168  0.0000E+00  0.8000E+01
     -0.712  0.0000E+00  0.8000E+01
     -0.257  0.0000E+00  0.8000E+01
      0.199  0.0000E+00  0.8000E+01
      0.654  0.0000E+00  0.8000E+01
      1.110  0.0000E+00  0.8000E+01
      1.566  0.0000E+00  0.8000E+01
      2.021  0.0000E+00  0.8000E+01
      2.477  0.0000E+00  0.8000E+01
      2.932  0.0000E+00  0.8000E+01
      3.388  0.0000E+00  0.8009E+01
      3.843  0.0000E+00  0.8083E+01
      4.299  0.0000E+00  0.8139E+01
      4.754  0.0000E+00  0.8250E+01
      5.210  0.0000E+00  0.8546E+01
      5.665  0.0000E+00  0.8667E+01
      6.121  0.0000E+00  0.9667E+01
      6.576  0.6098E-01  0.9806E+01
      7.032  0.0000E+00  0.1064E+02
      7.487  0.0000E+00  0.1119E+02
      7.943  0.0000E+00  0.1197E+02
      8.399  0.0000E+00  0.1269E+02
      8.854  0.0000E+00  0.1360E+02
      9.310  0.0000E+00  0.1396E+02
      9.765  0.0000E+00  0.1458E+02
     10.221  0.0000E+00  0.1553E+02
     10.676  0.0000E+00  0.1586E+02
     11.132  0.0000E+00  0.1631E+02
     11.587  0.0000E+00  0.1679E+02
     12.043  0.0000E+00  0.1736E+02
     12.498  0.0000E+00  0.1823E+02
     12.954  0.0000E+00  0.1863E+02
     13.409  0.0000E+00  0.1880E+02
     13.865  0.0000E+00  0.1942E+02
     14.320  0.0000E+00  0.2081E+02
     14.776  0.7617E-01  0.2240E+02
     15.232  0.0000E+00  0.2256E+02
     15.687  0.0000E+00  0.2297E+02
     16.143  0.0000E+00  0.2327E+02
     16.598  0.1867E+00  0.2424E+02
     17.054  0.1010E-05  0.2510E+02
     17.509  0.0000E+00  0.2611E+02
     17.965  0.0000E+00  0.2706E+02
     18.420  0.0000E+00  0.2750E+02
     18.876  0.0000E+00  0.2856E+02
     19.331  0.9072E-15  0.2881E+02
     19.787  0.0000E+00  0.2932E+02
     20.242  0.0000E+00  0.2994E+02
     20.698  0.0000E+00  0.3044E+02
     21.154  0.0000E+00  0.3100E+02
     21.609  0.0000E+00  0.3191E+02
     22.065  0.0000E+00  0.3296E+02
     22.520  0.0000E+00  0.3369E+02
     22.976  0.0000E+00  0.3476E+02
     23.431  0.0000E+00  0.3585E+02
     23.887  0.2238E+00  0.3647E+02
     24.342  0.4124E-09  0.3713E+02
     24.798  0.0000E+00  0.3838E+02
     25.253  0.0000E+00  0.3902E+02
     25.709  0.0000E+00  0.3930E+02
     26.164  0.0000E+00  0.3988E+02
     26.620  0.0000E+00  0.4106E+02
     27.075  0.0000E+00  0.4206E+02
     27.531  0.0000E+00  0.4331E+02
     27.987  0.0000E+00  0.4419E+02
     28.442  0.0000E+00  0.4542E+02
     28.898  0.0000E+00  0.4619E+02
     29.353  0.2915E-10  0.4670E+02
     29.809  0.0000E+00  0.4706E+02
     30.264  0.0000E+00  0.4827E+02
     30.720  0.0000E+00  0.4897E+02
     31.175  0.0000E+00  0.5012E+02
     31.631  0.0000E+00  0.5129E+02
     32.086  0.0000E+00  0.5195E+02
     32.542  0.0000E+00  0.5340E+02
     32.997  0.0000E+00  0.5445E+02
     33.453  0.0000E+00  0.5529E+02
     33.908  0.0000E+00  0.5595E+02
     34.364  0.0000E+00  0.5642E+02
     34.820  0.0000E+00  0.5747E+02
     35.275  0.3471E+00  0.5819E+02
     35.731  0.2501E+00  0.5981E+02
     36.186  0.1220E+00  0.6064E+02
     36.642  0.0000E+00  0.6192E+02
     37.097  0.0000E+00  0.6346E+02
     37.553  0.0000E+00  0.6439E+02
     38.008  0.0000E+00  0.6487E+02
     38.464  0.1626E+00  0.6594E+02
     38.919  0.0000E+00  0.6643E+02
     39.375  0.0000E+00  0.6746E+02
     39.830  0.4878E+00  0.6838E+02
     40.286  0.0000E+00  0.6938E+02
     40.742  0.0000E+00  0.7035E+02
     41.197  0.1626E+00  0.7166E+02
     41.653  0.0000E+00  0.7330E+02
     42.108  0.0000E+00  0.7399E+02
     42.564  0.2438E+00  0.7563E+02
     43.019  0.4878E+00  0.7700E+02
     43.475  0.4504E+00  0.7743E+02
     43.930  0.3252E+00  0.7881E+02
     44.386  0.0000E+00  0.7949E+02
     44.841  0.0000E+00  0.8026E+02
     45.297  0.0000E+00  0.8151E+02
     45.752  0.0000E+00  0.8226E+02
     46.208  0.0000E+00  0.8272E+02
     46.663  0.0000E+00  0.8394E+02
     47.119  0.0000E+00  0.8565E+02
     47.575  0.0000E+00  0.8737E+02
     48.030  0.0000E+00  0.8897E+02
     48.486  0.0000E+00  0.8931E+02
     48.941  0.2429E+00  0.9071E+02
     49.397  0.1275E+00  0.9188E+02
     49.852  0.0000E+00  0.9293E+02
     50.308  0.0000E+00  0.9363E+02
     50.763  0.0000E+00  0.9533E+02
     51.219  0.4877E+00  0.9635E+02
     51.674  0.0000E+00  0.9749E+02
     52.130  0.1955E-08  0.9831E+02
     52.585  0.0000E+00  0.9953E+02
     53.041  0.0000E+00  0.1007E+03
     53.496  0.0000E+00  0.1012E+03
     53.952  0.2814E-07  0.1022E+03
     54.408  0.4878E+00  0.1036E+03
     54.863  0.0000E+00  0.1054E+03
     55.319  0.0000E+00  0.1067E+03
     55.774  0.1805E-16  0.1082E+03
     56.230  0.0000E+00  0.1094E+03
     56.685  0.0000E+00  0.1104E+03
     57.141  0.0000E+00  0.1118E+03
     57.596  0.0000E+00  0.1127E+03
     58.052  0.0000E+00  0.1140E+03
     58.507  0.0000E+00  0.1151E+03
     58.963  0.4878E+00  0.1169E+03
     59.418  0.0000E+00  0.1177E+03
     59.874  0.0000E+00  0.1186E+03
     60.330  0.1814E-01  0.1204E+03
     60.785  0.0000E+00  0.1209E+03
     61.241  0.0000E+00  0.1220E+03
     61.696  0.0000E+00  0.1234E+03
     62.152  0.0000E+00  0.1248E+03
     62.607  0.0000E+00  0.1264E+03
     63.063  0.0000E+00  0.1277E+03
     63.518  0.0000E+00  0.1282E+03
     63.974  0.0000E+00  0.1293E+03
     64.429  0.0000E+00  0.1304E+03
     64.885  0.0000E+00  0.1328E+03
     65.340  0.0000E+00  0.1343E+03
     65.796  0.0000E+00  0.1364E+03
     66.251  0.0000E+00  0.1370E+03
     66.707  0.0000E+00  0.1380E+03
     67.163  0.9868E-01  0.1393E+03
     67.618  0.1874E+00  0.1406E+03
     68.074  0.0000E+00  0.1426E+03
     68.529  0.0000E+00  0.1432E+03
     68.985  0.0000E+00  0.1437E+03
     69.440  0.2460E-12  0.1452E+03
     69.896  0.3355E-04  0.1464E+03
     70.351  0.0000E+00  0.1479E+03
     70.807  0.0000E+00  0.1495E+03
     71.262  0.0000E+00  0.1504E+03
     71.718  0.0000E+00  0.1514E+03
     72.173  0.2879E-11  0.1533E+03
     72.629  0.4878E+00  0.1545E+03
     73.085  0.0000E+00  0.1570E+03
     73.540  0.0000E+00  0.1580E+03
     73.996  0.0000E+00  0.1597E+03
     74.451  0.0000E+00  0.1606E+03
     74.907  0.0000E+00  0.1622E+03
     75.362  0.0000E+00  0.1644E+03
     75.818  0.0000E+00  0.1651E+03
     76.273  0.0000E+00  0.1665E+03
     76.729  0.0000E+00  0.1680E+03
     77.184  0.0000E+00  0.1693E+03
     77.640  0.4878E+00  0.1700E+03
     78.095  0.0000E+00  0.1705E+03
     78.551  0.6364E-15  0.1715E+03
     79.006  0.0000E+00  0.1730E+03
     79.462  0.0000E+00  0.1746E+03
     79.918  0.0000E+00  0.1760E+03
     80.373  0.0000E+00  0.1782E+03
     80.829  0.0000E+00  0.1799E+03
     81.284  0.4878E+00  0.1813E+03
     81.740  0.0000E+00  0.1833E+03
     82.195  0.0000E+00  0.1844E+03
     82.651  0.4878E+00  0.1863E+03
     83.106  0.0000E+00  0.1884E+03
     83.562  0.0000E+00  0.1894E+03
     84.017  0.0000E+00  0.1911E+03
     84.473  0.4698E-01  0.1919E+03
     84.928  0.0000E+00  0.1936E+03
     85.384  0.0000E+00  0.1948E+03
     85.839  0.0000E+00  0.1959E+03
     86.295  0.2439E+00  0.1973E+03
     86.751  0.0000E+00  0.1981E+03
     87.206  0.0000E+00  0.1992E+03
     87.662  0.0000E+00  0.2006E+03
     88.117  0.4878E+00  0.2024E+03
     88.573  0.0000E+00  0.2041E+03
     89.028  0.0000E+00  0.2056E+03
     89.484  0.0000E+00  0.2065E+03
     89.939  0.0000E+00  0.2079E+03
     90.395  0.0000E+00  0.2096E+03
     90.850  0.4147E-09  0.2113E+03
     91.306  0.4521E+00  0.2135E+03
     91.761  0.4878E+00  0.2163E+03
     92.217  0.4878E+00  0.2180E+03
     92.673  0.0000E+00  0.2195E+03
     93.128  0.4878E+00  0.2210E+03
     93.584  0.0000E+00  0.2227E+03
     94.039  0.5779E-07  0.2234E+03
     94.495  0.0000E+00  0.2245E+03
     94.950  0.0000E+00  0.2264E+03
     95.406  0.0000E+00  0.2275E+03
     95.861  0.0000E+00  0.2284E+03
     96.317  0.4878E+00  0.2295E+03
     96.772  0.4633E+00  0.2313E+03
     97.228  0.1488E-10  0.2324E+03
     97.683  0.0000E+00  0.2331E+03
     98.139  0.0000E+00  0.2348E+03
     98.594  0.0000E+00  0.2369E+03
     99.050  0.0000E+00  0.2385E+03
     99.506  0.4878E+00  0.2409E+03
     99.961  0.0000E+00  0.2428E+03
    100.417  0.0000E+00  0.2442E+03
    100.872  0.0000E+00  0.2456E+03
    101.328  0.0000E+00  0.2477E+03
    101.783  0.0000E+00  0.2499E+03
    102.239  0.0000E+00  0.2508E+03
    102.694  0.0000E+00  0.2528E+03
    103.150  0.0000E+00  0.2541E+03
    103.605  0.0000E+00  0.2542E+03
    104.061  0.0000E+00  0.2546E+03
    104.516  0.0000E+00  0.2552E+03
    104.972  0.0000E+00  0.2553E+03
    105.427  0.0000E+00  0.2559E+03
    105.883  0.0000E+00  0.2560E+03
    106.339  0.0000E+00  0.2560E+03
    106.794  0.0000E+00  0.2560E+03
    107.250  0.0000E+00  0.2560E+03
    107.705  0.0000E+00  0.2560E+03
    108.161  0.0000E+00  0.2560E+03
    108.616  0.0000E+00  0.2560E+03
    109.072  0.0000E+00  0.2560E+03
    109.527  0.0000E+00  0.2560E+03
    109.983  0.0000E+00  0.2560E+03
    110.438  0.0000E+00  0.2560E+03
    110.894  0.0000E+00  0.2560E+03
    111.349  0.0000E+00  0.2560E+03
    111.805  0.0000E+00  0.2560E+03
