    1    1    1    1
  0.4928368E+02  0.4115343E-09  0.4115343E-09  0.4115343E-09  0.1000000E-15
  1.000000000000000E-004
  CAR 
 Og_FCC                                  
      8    112    128
 
  0.0000000E+00  0.0000000E+00  0.0000000E+00  0.4629630E-02
    1      -18.643687   1.000000
    2       -4.215712   1.000000
    3       -4.215712   1.000000
    4       -4.215712   1.000000
    5        3.022911   0.000000
    6        9.364328   0.000000
    7        9.364328   0.000000
    8        9.364328   0.000000
    9       11.696881   0.000000
   10       11.696881   0.000000
   11       12.920558   0.000000
   12       15.292655   0.000000
   13       15.292655   0.000000
   14       15.292655   0.000000
   15       17.222041   0.000000
   16       24.846813   0.000000
   17       24.846813   0.000000
   18       24.846813   0.000000
   19       26.089734   0.000000
   20       26.089734   0.000000
   21       26.089734   0.000000
   22       28.943586   0.000000
   23       28.943586   0.000000
   24       30.002641   0.000000
   25       30.002641   0.000000
   26       30.002641   0.000000
   27       31.534974   0.000000
   28       38.511783   0.000000
   29       38.511783   0.000000
   30       39.568604   0.000000
   31       39.568604   0.000000
   32       39.568604   0.000000
   33       40.683330   0.000000
   34       41.353309   0.000000
   35       41.353309   0.000000
   36       41.353309   0.000000
   37       42.235566   0.000000
   38       42.235566   0.000000
   39       42.235566   0.000000
   40       44.830254   0.000000
   41       44.830254   0.000000
   42       44.830254   0.000000
   43       45.079909   0.000000
   44       45.079909   0.000000
   45       45.079909   0.000000
   46       45.728403   0.000000
   47       47.318578   0.000000
   48       47.318578   0.000000
   49       47.318578   0.000000
   50       47.989158   0.000000
   51       47.989158   0.000000
   52       50.938842   0.000000
   53       50.938842   0.000000
   54       50.938843   0.000000
   55       51.011501   0.000000
   56       51.404396   0.000000
   57       51.404397   0.000000
   58       51.404397   0.000000
   59       51.691692   0.000000
   60       64.220277   0.000000
   61       64.220278   0.000000
   62       65.000284   0.000000
   63       65.000285   0.000000
   64       65.000285   0.000000
   65       67.690817   0.000000
   66       68.484319   0.000000
   67       68.484319   0.000000
   68       68.484319   0.000000
   69       69.592464   0.000000
   70       69.592464   0.000000
   71       69.592464   0.000000
   72       72.696376   0.000000
   73       72.696376   0.000000
   74       73.100827   0.000000
   75       73.100827   0.000000
   76       73.100827   0.000000
   77       75.075301   0.000000
   78       79.471221   0.000000
   79       79.471221   0.000000
   80       79.471221   0.000000
   81       79.710067   0.000000
   82       79.710068   0.000000
   83       79.710068   0.000000
   84       81.418512   0.000000
   85       81.418512   0.000000
   86       81.418512   0.000000
   87       82.116793   0.000000
   88       82.116793   0.000000
   89       82.369599   0.000000
   90       82.369599   0.000000
   91       82.850455   0.000000
   92       82.850455   0.000000
   93       82.850455   0.000000
   94       83.039784   0.000000
   95       83.602360   0.000000
   96       83.602360   0.000000
   97       83.602360   0.000000
   98       84.718964   0.000000
   99       84.718964   0.000000
  100       84.718964   0.000000
  101       85.898172   0.000000
  102       86.650138   0.000000
  103       86.650138   0.000000
  104       86.650141   0.000000
  105       86.690552   0.000000
  106       86.690552   0.000000
  107       86.690552   0.000000
  108       87.001799   0.000000
  109       87.001799   0.000000
  110       87.001799   0.000000
  111       87.183023   0.000000
  112       87.183024   0.000000
  113       88.915009   0.000000
  114       96.181294   0.000000
  115       98.378743   0.000000
  116       98.378743   0.000000
  117       98.378743   0.000000
  118       99.038031   0.000000
  119       99.038032   0.000000
  120       99.038033   0.000000
  121      100.994720   0.000000
  122      100.994720   0.000000
  123      100.994720   0.000000
  124      101.365996   0.000000
  125      101.365996   0.000000
  126      101.405460   0.000000
  127      101.405460   0.000000
  128      101.405460   0.000000
 
  0.1666667E+00 -0.1222443E-16 -0.6938894E-17  0.9259259E-02
    1      -18.610312   1.000000
    2       -4.568241   1.000000
    3       -4.251907   1.000000
    4       -4.251907   1.000000
    5        3.696949   0.000000
    6        8.532310   0.000000
    7        9.573937   0.000000
    8        9.573937   0.000000
    9       11.225142   0.000000
   10       11.225142   0.000000
   11       13.552450   0.000000
   12       14.925133   0.000000
   13       16.838401   0.000000
   14       16.838401   0.000000
   15       19.422588   0.000000
   16       21.356851   0.000000
   17       22.257227   0.000000
   18       22.257227   0.000000
   19       26.353825   0.000000
   20       26.353825   0.000000
   21       28.114066   0.000000
   22       28.114066   0.000000
   23       28.232939   0.000000
   24       30.243729   0.000000
   25       33.237943   0.000000
   26       33.237944   0.000000
   27       33.249187   0.000000
   28       35.553661   0.000000
   29       35.576027   0.000000
   30       35.576027   0.000000
   31       38.655278   0.000000
   32       38.946325   0.000000
   33       38.946325   0.000000
   34       40.686197   0.000000
   35       40.686197   0.000000
   36       40.767277   0.000000
   37       41.183094   0.000000
   38       42.328869   0.000000
   39       42.328869   0.000000
   40       43.470977   0.000000
   41       43.926842   0.000000
   42       43.926843   0.000000
   43       45.611040   0.000000
   44       46.868583   0.000000
   45       46.868583   0.000000
   46       47.555831   0.000000
   47       47.555831   0.000000
   48       47.760252   0.000000
   49       49.464287   0.000000
   50       49.560098   0.000000
   51       50.049744   0.000000
   52       50.049744   0.000000
   53       50.436199   0.000000
   54       53.447584   0.000000
   55       53.447584   0.000000
   56       54.789560   0.000000
   57       54.851366   0.000000
   58       54.851366   0.000000
   59       59.204851   0.000000
   60       59.204852   0.000000
   61       59.884819   0.000000
   62       61.008567   0.000000
   63       62.329167   0.000000
   64       62.329167   0.000000
   65       63.984312   0.000000
   66       68.263886   0.000000
   67       69.859728   0.000000
   68       69.859728   0.000000
   69       70.219893   0.000000
   70       70.219893   0.000000
   71       70.601950   0.000000
   72       72.251800   0.000000
   73       72.464903   0.000000
   74       72.464904   0.000000
   75       73.471971   0.000000
   76       73.471971   0.000000
   77       74.138388   0.000000
   78       74.138388   0.000000
   79       75.068099   0.000000
   80       76.458982   0.000000
   81       78.354854   0.000000
   82       78.354854   0.000000
   83       78.430935   0.000000
   84       78.644330   0.000000
   85       78.644330   0.000000
   86       78.853412   0.000000
   87       80.454442   0.000000
   88       80.454442   0.000000
   89       81.161789   0.000000
   90       82.052321   0.000000
   91       82.052321   0.000000
   92       82.262728   0.000000
   93       82.724838   0.000000
   94       82.724838   0.000000
   95       83.413149   0.000000
   96       83.413149   0.000000
   97       83.529428   0.000000
   98       85.677120   0.000000
   99       87.867261   0.000000
  100       87.867262   0.000000
  101       88.023564   0.000000
  102       88.087249   0.000000
  103       88.692712   0.000000
  104       88.948015   0.000000
  105       88.948016   0.000000
  106       90.122379   0.000000
  107       90.171484   0.000000
  108       90.171484   0.000000
  109       90.405863   0.000000
  110       90.405864   0.000000
  111       92.310942   0.000000
  112       92.310943   0.000000
  113       94.042622   0.000000
  114       94.473651   0.000000
  115       94.473652   0.000000
  116       95.374391   0.000000
  117       95.725176   0.000000
  118       95.992159   0.000000
  119       95.992159   0.000000
  120       96.275826   0.000000
  121       96.275826   0.000000
  122       96.356403   0.000000
  123       99.931670   0.000000
  124      100.495437   0.000000
  125      100.495437   0.000000
  126      101.476331   0.000000
  127      101.476332   0.000000
  128      101.875523   0.000000
 
  0.3333333E+00  0.3306717E-17  0.0000000E+00  0.9259259E-02
    1      -18.542238   1.000000
    2       -5.170487   1.000000
    3       -4.322187   1.000000
    4       -4.322187   1.000000
    5        4.941585   0.000000
    6        7.840043   0.000000
    7        9.269234   0.000000
    8        9.269234   0.000000
    9       12.084498   0.000000
   10       12.084498   0.000000
   11       12.588117   0.000000
   12       16.769849   0.000000
   13       18.447229   0.000000
   14       18.447230   0.000000
   15       18.516218   0.000000
   16       20.035746   0.000000
   17       20.035746   0.000000
   18       24.052425   0.000000
   19       26.230166   0.000000
   20       26.230167   0.000000
   21       27.492105   0.000000
   22       28.243620   0.000000
   23       28.243620   0.000000
   24       30.570532   0.000000
   25       30.570532   0.000000
   26       30.833054   0.000000
   27       30.951623   0.000000
   28       34.342158   0.000000
   29       36.351747   0.000000
   30       36.351747   0.000000
   31       37.046225   0.000000
   32       37.582762   0.000000
   33       37.582762   0.000000
   34       38.458019   0.000000
   35       40.371066   0.000000
   36       40.728986   0.000000
   37       40.728986   0.000000
   38       41.190055   0.000000
   39       42.584497   0.000000
   40       42.584497   0.000000
   41       44.543156   0.000000
   42       44.543156   0.000000
   43       45.882731   0.000000
   44       47.689902   0.000000
   45       47.689902   0.000000
   46       48.844913   0.000000
   47       51.924756   0.000000
   48       51.924756   0.000000
   49       52.904286   0.000000
   50       53.857688   0.000000
   51       53.857688   0.000000
   52       54.060096   0.000000
   53       54.060096   0.000000
   54       54.889726   0.000000
   55       55.664159   0.000000
   56       55.780010   0.000000
   57       55.780011   0.000000
   58       56.748139   0.000000
   59       57.933645   0.000000
   60       58.938390   0.000000
   61       58.938390   0.000000
   62       60.087775   0.000000
   63       61.586449   0.000000
   64       61.586449   0.000000
   65       64.519469   0.000000
   66       64.519469   0.000000
   67       64.754445   0.000000
   68       66.453246   0.000000
   69       66.453246   0.000000
   70       66.540845   0.000000
   71       69.394806   0.000000
   72       70.197368   0.000000
   73       70.614881   0.000000
   74       70.754961   0.000000
   75       70.754962   0.000000
   76       71.082311   0.000000
   77       71.082311   0.000000
   78       72.237385   0.000000
   79       72.237385   0.000000
   80       74.701556   0.000000
   81       76.432180   0.000000
   82       77.508126   0.000000
   83       77.508126   0.000000
   84       78.876419   0.000000
   85       79.996899   0.000000
   86       79.996899   0.000000
   87       80.100391   0.000000
   88       80.100392   0.000000
   89       81.528933   0.000000
   90       81.541183   0.000000
   91       81.541183   0.000000
   92       81.989483   0.000000
   93       82.214910   0.000000
   94       82.214910   0.000000
   95       82.828057   0.000000
   96       84.317634   0.000000
   97       84.388226   0.000000
   98       84.388226   0.000000
   99       88.426343   0.000000
  100       88.426343   0.000000
  101       89.695884   0.000000
  102       89.695884   0.000000
  103       90.120755   0.000000
  104       90.316551   0.000000
  105       91.035119   0.000000
  106       91.035120   0.000000
  107       91.082559   0.000000
  108       91.413205   0.000000
  109       92.025403   0.000000
  110       92.025404   0.000000
  111       92.443686   0.000000
  112       92.912874   0.000000
  113       92.912875   0.000000
  114       94.196491   0.000000
  115       94.268597   0.000000
  116       94.268597   0.000000
  117       97.566083   0.000000
  118       98.193855   0.000000
  119       99.523581   0.000000
  120       99.523581   0.000000
  121      100.110325   0.000000
  122      100.500512   0.000000
  123      100.500512   0.000000
  124      101.720771   0.000000
  125      101.720771   0.000000
  126      102.323704   0.000000
  127      102.323704   0.000000
  128      102.365150   0.000000
 
  0.5000000E+00  0.3271565E-16  0.0000000E+00  0.4629630E-02
    1      -18.507506   1.000000
    2       -5.436156   1.000000
    3       -4.356351   1.000000
    4       -4.356351   1.000000
    5        5.406343   0.000000
    6        7.912137   0.000000
    7        8.992750   0.000000
    8        8.992750   0.000000
    9       12.642562   0.000000
   10       13.572280   0.000000
   11       13.572280   0.000000
   12       14.774939   0.000000
   13       16.112183   0.000000
   14       16.112183   0.000000
   15       22.593079   0.000000
   16       23.132585   0.000000
   17       23.462012   0.000000
   18       23.462012   0.000000
   19       23.950032   0.000000
   20       23.950032   0.000000
   21       28.265423   0.000000
   22       28.265423   0.000000
   23       28.934517   0.000000
   24       29.046198   0.000000
   25       29.392155   0.000000
   26       29.392155   0.000000
   27       31.218011   0.000000
   28       31.431497   0.000000
   29       35.468621   0.000000
   30       35.561387   0.000000
   31       35.561387   0.000000
   32       36.548821   0.000000
   33       36.548821   0.000000
   34       37.359666   0.000000
   35       40.337492   0.000000
   36       42.385430   0.000000
   37       42.385430   0.000000
   38       44.260343   0.000000
   39       44.260343   0.000000
   40       44.551214   0.000000
   41       46.523068   0.000000
   42       46.594911   0.000000
   43       46.594912   0.000000
   44       47.410052   0.000000
   45       47.410052   0.000000
   46       49.665727   0.000000
   47       50.662615   0.000000
   48       50.662615   0.000000
   49       51.109670   0.000000
   50       51.685280   0.000000
   51       51.685281   0.000000
   52       54.017386   0.000000
   53       57.275340   0.000000
   54       57.950190   0.000000
   55       57.950190   0.000000
   56       57.985619   0.000000
   57       57.985619   0.000000
   58       59.587698   0.000000
   59       59.587698   0.000000
   60       59.994964   0.000000
   61       59.994964   0.000000
   62       60.205460   0.000000
   63       60.692579   0.000000
   64       61.579401   0.000000
   65       63.543157   0.000000
   66       63.777704   0.000000
   67       64.467977   0.000000
   68       64.467977   0.000000
   69       64.521642   0.000000
   70       64.521642   0.000000
   71       67.470971   0.000000
   72       67.497110   0.000000
   73       69.492118   0.000000
   74       69.575619   0.000000
   75       69.575620   0.000000
   76       70.408258   0.000000
   77       70.408259   0.000000
   78       71.032854   0.000000
   79       71.032854   0.000000
   80       72.701708   0.000000
   81       72.701708   0.000000
   82       76.481275   0.000000
   83       77.776441   0.000000
   84       79.472776   0.000000
   85       79.537841   0.000000
   86       79.537841   0.000000
   87       79.957407   0.000000
   88       81.065592   0.000000
   89       81.065592   0.000000
   90       81.600111   0.000000
   91       83.040741   0.000000
   92       83.040741   0.000000
   93       83.430312   0.000000
   94       83.430312   0.000000
   95       83.851024   0.000000
   96       86.445617   0.000000
   97       86.445619   0.000000
   98       86.563169   0.000000
   99       87.054404   0.000000
  100       87.158319   0.000000
  101       87.350031   0.000000
  102       87.350031   0.000000
  103       87.870852   0.000000
  104       88.586417   0.000000
  105       88.586417   0.000000
  106       88.713374   0.000000
  107       88.713375   0.000000
  108       91.241129   0.000000
  109       94.160182   0.000000
  110       94.655525   0.000000
  111       94.655525   0.000000
  112       95.457112   0.000000
  113       95.457113   0.000000
  114       96.335863   0.000000
  115       96.831740   0.000000
  116       96.882882   0.000000
  117       96.882882   0.000000
  118       97.202591   0.000000
  119       97.537115   0.000000
  120       97.537115   0.000000
  121       98.666463   0.000000
  122       98.666464   0.000000
  123       98.958654   0.000000
  124       98.958654   0.000000
  125      101.400517   0.000000
  126      101.890897   0.000000
  127      102.360145   0.000000
  128      102.360145   0.000000
 
  0.5777790E-33  0.1666667E+00  0.1387779E-16  0.9259259E-02
    1      -18.610312   1.000000
    2       -4.568241   1.000000
    3       -4.251907   1.000000
    4       -4.251907   1.000000
    5        3.696949   0.000000
    6        8.532310   0.000000
    7        9.573937   0.000000
    8        9.573937   0.000000
    9       11.225142   0.000000
   10       11.225142   0.000000
   11       13.552450   0.000000
   12       14.925133   0.000000
   13       16.838401   0.000000
   14       16.838401   0.000000
   15       19.422588   0.000000
   16       21.356851   0.000000
   17       22.257227   0.000000
   18       22.257227   0.000000
   19       26.353825   0.000000
   20       26.353825   0.000000
   21       28.114066   0.000000
   22       28.114066   0.000000
   23       28.232939   0.000000
   24       30.243729   0.000000
   25       33.237943   0.000000
   26       33.237944   0.000000
   27       33.249187   0.000000
   28       35.553661   0.000000
   29       35.576027   0.000000
   30       35.576027   0.000000
   31       38.655278   0.000000
   32       38.946325   0.000000
   33       38.946325   0.000000
   34       40.686197   0.000000
   35       40.686197   0.000000
   36       40.767277   0.000000
   37       41.183094   0.000000
   38       42.328869   0.000000
   39       42.328869   0.000000
   40       43.470977   0.000000
   41       43.926843   0.000000
   42       43.926843   0.000000
   43       45.611040   0.000000
   44       46.868583   0.000000
   45       46.868583   0.000000
   46       47.555831   0.000000
   47       47.555831   0.000000
   48       47.760252   0.000000
   49       49.464287   0.000000
   50       49.560098   0.000000
   51       50.049744   0.000000
   52       50.049744   0.000000
   53       50.436199   0.000000
   54       53.447584   0.000000
   55       53.447584   0.000000
   56       54.789560   0.000000
   57       54.851366   0.000000
   58       54.851366   0.000000
   59       59.204851   0.000000
   60       59.204851   0.000000
   61       59.884819   0.000000
   62       61.008568   0.000000
   63       62.329167   0.000000
   64       62.329167   0.000000
   65       63.984312   0.000000
   66       68.263886   0.000000
   67       69.859728   0.000000
   68       69.859728   0.000000
   69       70.219893   0.000000
   70       70.219893   0.000000
   71       70.601950   0.000000
   72       72.251800   0.000000
   73       72.464904   0.000000
   74       72.464904   0.000000
   75       73.471971   0.000000
   76       73.471971   0.000000
   77       74.138388   0.000000
   78       74.138388   0.000000
   79       75.068099   0.000000
   80       76.458982   0.000000
   81       78.354854   0.000000
   82       78.354854   0.000000
   83       78.430935   0.000000
   84       78.644330   0.000000
   85       78.644330   0.000000
   86       78.853412   0.000000
   87       80.454442   0.000000
   88       80.454442   0.000000
   89       81.161789   0.000000
   90       82.052321   0.000000
   91       82.052321   0.000000
   92       82.262728   0.000000
   93       82.724838   0.000000
   94       82.724838   0.000000
   95       83.413149   0.000000
   96       83.413149   0.000000
   97       83.529428   0.000000
   98       85.677121   0.000000
   99       87.867261   0.000000
  100       87.867261   0.000000
  101       88.023564   0.000000
  102       88.087249   0.000000
  103       88.692712   0.000000
  104       88.948015   0.000000
  105       88.948016   0.000000
  106       90.122379   0.000000
  107       90.171484   0.000000
  108       90.171484   0.000000
  109       90.405863   0.000000
  110       90.405864   0.000000
  111       92.310942   0.000000
  112       92.310942   0.000000
  113       94.042622   0.000000
  114       94.473651   0.000000
  115       94.473652   0.000000
  116       95.374391   0.000000
  117       95.725176   0.000000
  118       95.992159   0.000000
  119       95.992159   0.000000
  120       96.275826   0.000000
  121       96.275826   0.000000
  122       96.356403   0.000000
  123       99.931670   0.000000
  124      100.495437   0.000000
  125      100.495437   0.000000
  126      101.476331   0.000000
  127      101.476332   0.000000
  128      101.875523   0.000000
 
  0.1666667E+00  0.1666667E+00  0.1387779E-16  0.9259259E-02
    1      -18.599280   1.000000
    2       -4.561526   1.000000
    3       -4.322961   1.000000
    4       -4.322961   1.000000
    5        3.915425   0.000000
    6        8.235478   0.000000
    7        9.839795   0.000000
    8        9.839795   0.000000
    9        9.843366   0.000000
   10       12.052027   0.000000
   11       14.960336   0.000000
   12       15.528406   0.000000
   13       16.084494   0.000000
   14       16.084494   0.000000
   15       20.647759   0.000000
   16       21.410946   0.000000
   17       21.410946   0.000000
   18       21.797867   0.000000
   19       24.896842   0.000000
   20       26.274279   0.000000
   21       27.611858   0.000000
   22       27.611858   0.000000
   23       29.357544   0.000000
   24       32.902029   0.000000
   25       32.902029   0.000000
   26       33.139861   0.000000
   27       34.026673   0.000000
   28       34.459409   0.000000
   29       35.724497   0.000000
   30       35.724497   0.000000
   31       36.462758   0.000000
   32       38.445872   0.000000
   33       38.445873   0.000000
   34       38.632091   0.000000
   35       41.050547   0.000000
   36       41.420670   0.000000
   37       41.592897   0.000000
   38       41.592897   0.000000
   39       43.724186   0.000000
   40       43.824840   0.000000
   41       45.068954   0.000000
   42       45.406185   0.000000
   43       45.406185   0.000000
   44       46.695128   0.000000
   45       46.841358   0.000000
   46       47.103728   0.000000
   47       47.103728   0.000000
   48       47.367272   0.000000
   49       48.681441   0.000000
   50       48.681441   0.000000
   51       50.163863   0.000000
   52       50.325919   0.000000
   53       52.522755   0.000000
   54       52.522755   0.000000
   55       54.469571   0.000000
   56       54.588664   0.000000
   57       56.944507   0.000000
   58       57.692286   0.000000
   59       57.692286   0.000000
   60       58.738138   0.000000
   61       61.820618   0.000000
   62       61.820618   0.000000
   63       61.917790   0.000000
   64       65.325396   0.000000
   65       65.325396   0.000000
   66       65.331277   0.000000
   67       65.677187   0.000000
   68       67.725537   0.000000
   69       68.914508   0.000000
   70       69.729861   0.000000
   71       69.729861   0.000000
   72       71.186865   0.000000
   73       71.732595   0.000000
   74       72.737275   0.000000
   75       72.737275   0.000000
   76       73.653196   0.000000
   77       74.265276   0.000000
   78       74.265276   0.000000
   79       75.151692   0.000000
   80       75.305002   0.000000
   81       77.550603   0.000000
   82       78.318990   0.000000
   83       78.634029   0.000000
   84       78.634029   0.000000
   85       79.432194   0.000000
   86       79.714374   0.000000
   87       79.953182   0.000000
   88       80.284281   0.000000
   89       80.284281   0.000000
   90       81.495772   0.000000
   91       81.495772   0.000000
   92       82.572433   0.000000
   93       83.440713   0.000000
   94       83.480664   0.000000
   95       83.480664   0.000000
   96       84.632251   0.000000
   97       86.601025   0.000000
   98       86.930712   0.000000
   99       87.417254   0.000000
  100       87.417255   0.000000
  101       88.284919   0.000000
  102       88.510117   0.000000
  103       88.843535   0.000000
  104       89.186842   0.000000
  105       89.186842   0.000000
  106       89.847513   0.000000
  107       89.847513   0.000000
  108       90.745399   0.000000
  109       91.412507   0.000000
  110       91.902558   0.000000
  111       91.902559   0.000000
  112       91.925442   0.000000
  113       92.451634   0.000000
  114       94.507261   0.000000
  115       94.584026   0.000000
  116       94.940683   0.000000
  117       94.940683   0.000000
  118       96.202125   0.000000
  119       96.584146   0.000000
  120       96.584146   0.000000
  121       96.646044   0.000000
  122       96.654462   0.000000
  123       97.232413   0.000000
  124       97.232413   0.000000
  125       98.663719   0.000000
  126       99.899388   0.000000
  127      101.604367   0.000000
  128      101.604367   0.000000
 
  0.3333333E+00  0.1666667E+00  0.2775558E-16  0.9259259E-02
    1      -18.542832   1.000000
    2       -5.000690   1.000000
    3       -4.420305   1.000000
    4       -4.409538   1.000000
    5        5.013133   0.000000
    6        7.611492   0.000000
    7        8.607251   0.000000
    8        9.969976   0.000000
    9       11.004193   0.000000
   10       12.690619   0.000000
   11       14.429701   0.000000
   12       17.056951   0.000000
   13       17.434168   0.000000
   14       17.527823   0.000000
   15       19.068342   0.000000
   16       19.400968   0.000000
   17       21.224978   0.000000
   18       23.785320   0.000000
   19       24.376076   0.000000
   20       24.464715   0.000000
   21       27.159010   0.000000
   22       27.955109   0.000000
   23       29.449197   0.000000
   24       31.042065   0.000000
   25       32.307369   0.000000
   26       32.800655   0.000000
   27       33.267609   0.000000
   28       33.714200   0.000000
   29       34.777182   0.000000
   30       35.336947   0.000000
   31       36.410231   0.000000
   32       37.174848   0.000000
   33       38.342598   0.000000
   34       39.065658   0.000000
   35       39.740143   0.000000
   36       40.055239   0.000000
   37       41.289792   0.000000
   38       41.469922   0.000000
   39       43.560352   0.000000
   40       43.743346   0.000000
   41       44.552574   0.000000
   42       44.875959   0.000000
   43       45.690680   0.000000
   44       46.436033   0.000000
   45       47.489015   0.000000
   46       48.125164   0.000000
   47       49.684693   0.000000
   48       50.280407   0.000000
   49       51.538514   0.000000
   50       52.210166   0.000000
   51       52.453535   0.000000
   52       53.675692   0.000000
   53       54.728798   0.000000
   54       55.482941   0.000000
   55       55.697749   0.000000
   56       55.883971   0.000000
   57       57.756539   0.000000
   58       58.735431   0.000000
   59       59.919335   0.000000
   60       60.134591   0.000000
   61       61.171788   0.000000
   62       61.315527   0.000000
   63       61.882062   0.000000
   64       62.460935   0.000000
   65       63.046198   0.000000
   66       64.856782   0.000000
   67       64.857860   0.000000
   68       65.137046   0.000000
   69       65.729076   0.000000
   70       66.878984   0.000000
   71       66.946541   0.000000
   72       70.156845   0.000000
   73       70.188880   0.000000
   74       71.307274   0.000000
   75       71.680638   0.000000
   76       71.787020   0.000000
   77       72.053361   0.000000
   78       72.956000   0.000000
   79       73.499973   0.000000
   80       73.672707   0.000000
   81       74.566746   0.000000
   82       74.918220   0.000000
   83       75.759970   0.000000
   84       78.585315   0.000000
   85       79.262097   0.000000
   86       79.481782   0.000000
   87       80.118566   0.000000
   88       80.526606   0.000000
   89       81.564534   0.000000
   90       82.098065   0.000000
   91       82.644005   0.000000
   92       82.687837   0.000000
   93       83.767348   0.000000
   94       83.900356   0.000000
   95       84.007068   0.000000
   96       84.657046   0.000000
   97       84.991466   0.000000
   98       85.912851   0.000000
   99       86.636258   0.000000
  100       87.828341   0.000000
  101       87.945623   0.000000
  102       88.751303   0.000000
  103       89.708376   0.000000
  104       89.820270   0.000000
  105       90.096274   0.000000
  106       90.626043   0.000000
  107       91.127529   0.000000
  108       91.304880   0.000000
  109       91.458837   0.000000
  110       91.502904   0.000000
  111       92.054286   0.000000
  112       93.307906   0.000000
  113       94.603566   0.000000
  114       95.098177   0.000000
  115       95.176432   0.000000
  116       95.550406   0.000000
  117       96.410322   0.000000
  118       96.573135   0.000000
  119       97.880848   0.000000
  120       99.104097   0.000000
  121       99.474057   0.000000