       N       E                     dE             d eps       ncg     rms          rms(c)
DIA:   1    -0.304612943319E-01   -0.30461E-01    0.00000E+00     0   0.000E+00
DIA:   2    -0.304612943431E-01   -0.11141E-10    0.00000E+00     0   0.000E+00
DIA:   3    -0.304612943257E-01    0.17394E-10    0.00000E+00     0   0.000E+00
DIA:   4    -0.304612943369E-01   -0.11255E-10    0.00000E+00     0   0.000E+00
DIA:   5    -0.304612943362E-01    0.68212E-12    0.00000E+00     0   0.000E+00    0.180E-06
DIA:   6    -0.304612944527E-01   -0.11647E-09    0.00000E+00     0   0.000E+00
   1 F= -.14174185E+00 E0= -.14174185E+00  d E =0.000000E+00
 imaginary and real dielectric function
