 vasp.5.4.4.18Apr17-6-g9f103f2a35 (build Jul 09 2018 16:43:14) complex          
  
 executed on             LinuxIFC date 2018.11.22  04:10:49
 running on   32 total cores
 distrk:  each k-point on   16 cores,    2 groups
 distr:  one band on NCORES_PER_BAND=   8 cores,    2 groups


--------------------------------------------------------------------------------------------------------


 INCAR:
 POTCAR:    PAW_PBE Kr_GW 21Aug2013               

 ----------------------------------------------------------------------------- 
|                                                                             |
|           W    W    AA    RRRRR   N    N  II  N    N   GGGG   !!!           |
|           W    W   A  A   R    R  NN   N  II  NN   N  G    G  !!!           |
|           W    W  A    A  R    R  N N  N  II  N N  N  G       !!!           |
|           W WW W  AAAAAA  RRRRR   N  N N  II  N  N N  G  GGG   !            |
|           WW  WW  A    A  R   R   N   NN  II  N   NN  G    G                |
|           W    W  A    A  R    R  N    N  II  N    N   GGGG   !!!           |
|                                                                             |
|      You have enabled k-point parallelism (KPAR>1).                         |
|      This developmental code was originally  written by Paul Kent at ORNL,  |
|      and carefully double checked in Vienna.                                |
|      GW as well as linear response parallelism added by Martijn Marsman     |
|      and Georg Kresse.                                                      |
|      Carefully verify results versus KPAR=1.                                |
|      Report problems to Paul Kent and Vienna.                               |
|                                                                             |
 ----------------------------------------------------------------------------- 

 POTCAR:    PAW_PBE Kr_GW 21Aug2013               
   VRHFIN =Kr: s2p6                                                             
   LEXCH  = PE                                                                  
   EATOM  =   506.7358 eV,   37.2440 Ry                                         
                                                                                
   TITEL  = PAW_PBE Kr_GW 21Aug2013                                             
   LULTRA =        F    use ultrasoft PP ?                                      
   IUNSCR =        1    unscreen: 0-lin 1-nonlin 2-no                           
   RPACOR =    1.800    partial core radius                                     
   POMASS =   83.800; ZVAL   =    8.000    mass and valenz                      
   RCORE  =    2.300    outmost cutoff radius                                   
   RWIGS  =    2.300; RWIGS  =    1.217    wigner-seitz radius (au A)           
   ENMAX  =  252.232; ENMIN  =  189.174 eV                                      
   ICORE  =        3    local potential                                         
   LCOR   =        T    correct aug charges                                     
   LPAW   =        T    paw PP                                                  
   EAUG   =  554.765                                                            
   DEXC   =    0.000                                                            
   RMAX   =    2.354    core radius for proj-oper                               
   RAUG   =    1.300    factor for augmentation sphere                          
   RDEP   =    2.368    radius for radial grids                                 
   RDEPT  =    1.821    core radius for aug-charge                              
                                                                                
   Atomic configuration                                                         
   10 entries                                                                   
     n  l   j            E        occ.                                          
     1  0  0.50    -14156.5824   2.0000                                         
     2  0  0.50     -1864.1588   2.0000                                         
     2  1  1.50     -1648.0830   6.0000                                         
     3  0  0.50      -263.9350   2.0000                                         
     3  1  1.50      -195.1536   6.0000                                         
     3  2  2.50       -81.3940  10.0000                                         
     4  0  0.50       -23.0477   2.0000                                         
     4  1  0.50        -9.2466   6.0000                                         
     4  2  2.50        -1.3606   0.0000                                         
     4  3  2.50        -1.3606   0.0000                                         
   Description                                                                  
     l       E           TYP  RCUT    TYP  RCUT                                 
     0    -23.0476842     23  1.500                                             
     0     81.6349560     23  1.800                                             
     1     -9.2466308     23  2.200                                             
     1     68.0291300     23  2.200                                             
     2      6.8029130     23  2.200                                             
     2     68.0291300     23  2.200                                             
     3     27.2116520      7  2.300                                             
  local pseudopotential read in
  partial core-charges read in
  partial kinetic energy density read in
  kinetic energy density of atom read in
  atomic valenz-charges read in
  non local Contribution for L=           0  read in
    real space projection operators read in
  non local Contribution for L=           0  read in
    real space projection operators read in
  non local Contribution for L=           1  read in
    real space projection operators read in
  non local Contribution for L=           1  read in
    real space projection operators read in
  non local Contribution for L=           2  read in
    real space projection operators read in
  non local Contribution for L=           2  read in
    real space projection operators read in
    PAW grid and wavefunctions read in
 
   number of l-projection  operators is LMAX  =           6
   number of lm-projection operators is LMMAX =          18
 
  PAW_PBE Kr_GW 21Aug2013               :
 energy of atom  1       EATOM= -506.7358
 kinetic energy error for atom=    0.0279 (will be added to EATOM!!)
 
 
 POSCAR: Kr_FCC                                  
  positions in direct lattice
  velocities in cartesian coordinates
 exchange correlation table for  LEXCH =        8
   RHO(1)=    0.500       N(1)  =     2000
   RHO(2)=  100.500       N(2)  =     4000
 


--------------------------------------------------------------------------------------------------------


 ion  position               nearest neighbor table
   1  0.000  0.000  0.000-
 

IMPORTANT INFORMATION: All symmetrisations will be switched off!
NOSYMM: (Re-)initialisation of all symmetry stuff for point group C_1.

 
 
 KPOINTS: k-points                                

Automatic generation of k-mesh.
Space group operators:
 irot       det(A)        alpha          n_x          n_y          n_z        tau_x        tau_y        tau_z
    1     1.000000     0.000001     1.000000     0.000000     0.000000     0.000000     0.000000     0.000000
 
 Subroutine IBZKPT returns following result:
 ===========================================
 
 Found    112 irreducible k-points:
 
 Following reciprocal coordinates:
            Coordinates               Weight
  0.000000  0.000000  0.000000      1.000000
  0.166667 -0.000000 -0.000000      2.000000
  0.333333  0.000000  0.000000      2.000000
  0.500000  0.000000  0.000000      1.000000
  0.000000  0.166667  0.000000      2.000000
  0.166667  0.166667  0.000000      2.000000
  0.333333  0.166667  0.000000      2.000000
  0.500000  0.166667  0.000000      2.000000
 -0.333333  0.166667  0.000000      2.000000
 -0.166667  0.166667  0.000000      2.000000
  0.000000  0.333333 -0.000000      2.000000
  0.166667  0.333333  0.000000      2.000000
  0.333333  0.333333 -0.000000      2.000000
  0.500000  0.333333 -0.000000      2.000000
 -0.333333  0.333333 -0.000000      2.000000
 -0.166667  0.333333  0.000000      2.000000
  0.000000  0.500000  0.000000      1.000000
  0.166667  0.500000  0.000000      2.000000
  0.333333  0.500000  0.000000      2.000000
  0.500000  0.500000  0.000000      1.000000
  0.000000  0.000000  0.166667      2.000000
  0.166667  0.000000  0.166667      2.000000
  0.333333 -0.000000  0.166667      2.000000
  0.500000  0.000000  0.166667      2.000000
 -0.333333 -0.000000  0.166667      2.000000
 -0.166667  0.000000  0.166667      2.000000
  0.000000  0.166667  0.166667      2.000000
  0.166667  0.166667  0.166667      2.000000
  0.333333  0.166667  0.166667      2.000000
  0.500000  0.166667  0.166667      2.000000
 -0.333333  0.166667  0.166667      2.000000
 -0.166667  0.166667  0.166667      2.000000
  0.000000  0.333333  0.166667      2.000000
  0.166667  0.333333  0.166667      2.000000
  0.333333  0.333333  0.166667      2.000000
  0.500000  0.333333  0.166667      2.000000
 -0.333333  0.333333  0.166667      2.000000
 -0.166667  0.333333  0.166667      2.000000
  0.000000  0.500000  0.166667      2.000000
  0.166667  0.500000  0.166667      2.000000
  0.333333  0.500000  0.166667      2.000000
  0.500000  0.500000  0.166667      2.000000
 -0.333333  0.500000  0.166667      2.000000
 -0.166667  0.500000  0.166667      2.000000
  0.000000 -0.333333  0.166667      2.000000
  0.166667 -0.333333  0.166667      2.000000
  0.333333 -0.333333  0.166667      2.000000
  0.500000 -0.333333  0.166667      2.000000
 -0.333333 -0.333333  0.166667      2.000000
 -0.166667 -0.333333  0.166667      2.000000
  0.000000 -0.166667  0.166667      2.000000
  0.166667 -0.166667  0.166667      2.000000
  0.333333 -0.166667  0.166667      2.000000
  0.500000 -0.166667  0.166667      2.000000
 -0.333333 -0.166667  0.166667      2.000000
 -0.166667 -0.166667  0.166667      2.000000
  0.000000  0.000000  0.333333      2.000000
  0.166667 -0.000000  0.333333      2.000000
  0.333333  0.000000  0.333333      2.000000
  0.500000  0.000000  0.333333      2.000000
 -0.333333  0.000000  0.333333      2.000000
 -0.166667  0.000000  0.333333      2.000000
 -0.000000  0.166667  0.333333      2.000000
  0.166667  0.166667  0.333333      2.000000
  0.333333  0.166667  0.333333      2.000000
  0.500000  0.166667  0.333333      2.000000
 -0.333333  0.166667  0.333333      2.000000
 -0.166667  0.166667  0.333333      2.000000
  0.000000  0.333333  0.333333      2.000000
  0.166667  0.333333  0.333333      2.000000
  0.333333  0.333333  0.333333      2.000000
  0.500000  0.333333  0.333333      2.000000
 -0.333333  0.333333  0.333333      2.000000
 -0.166667  0.333333  0.333333      2.000000
  0.000000  0.500000  0.333333      2.000000
  0.166667  0.500000  0.333333      2.000000
  0.333333  0.500000  0.333333      2.000000
  0.500000  0.500000  0.333333      2.000000
 -0.333333  0.500000  0.333333      2.000000
 -0.166667  0.500000  0.333333      2.000000
 -0.000000 -0.333333  0.333333      2.000000
  0.166667 -0.333333  0.333333      2.000000
  0.333333 -0.333333  0.333333      2.000000
  0.500000 -0.333333  0.333333      2.000000
 -0.333333 -0.333333  0.333333      2.000000
 -0.166667 -0.333333  0.333333      2.000000
  0.000000 -0.166667  0.333333      2.000000
  0.166667 -0.166667  0.333333      2.000000
  0.333333 -0.166667  0.333333      2.000000
  0.500000 -0.166667  0.333333      2.000000
 -0.333333 -0.166667  0.333333      2.000000
 -0.166667 -0.166667  0.333333      2.000000
  0.000000  0.000000  0.500000      1.000000
  0.166667  0.000000  0.500000      2.000000
  0.333333  0.000000  0.500000      2.000000
  0.500000  0.000000  0.500000      1.000000
  0.000000  0.166667  0.500000      2.000000
  0.166667  0.166667  0.500000      2.000000
  0.333333  0.166667  0.500000      2.000000
  0.500000  0.166667  0.500000      2.000000
 -0.333333  0.166667  0.500000      2.000000
 -0.166667  0.166667  0.500000      2.000000
  0.000000  0.333333  0.500000      2.000000
  0.166667  0.333333  0.500000      2.000000
  0.333333  0.333333  0.500000      2.000000
  0.500000  0.333333  0.500000      2.000000
 -0.333333  0.333333  0.500000      2.000000
 -0.166667  0.333333  0.500000      2.000000
  0.000000  0.500000  0.500000      1.000000
  0.166667  0.500000  0.500000      2.000000
  0.333333  0.500000  0.500000      2.000000
  0.500000  0.500000  0.500000      1.000000
 
 Following cartesian coordinates:
            Coordinates               Weight
  0.000000  0.000000  0.000000      1.000000
  0.040499 -0.023382 -0.016534      2.000000
  0.080998 -0.046764 -0.033067      2.000000
  0.121497 -0.070146 -0.049601      1.000000
  0.000000  0.046764 -0.016534      2.000000
  0.040499  0.023382 -0.033067      2.000000
  0.080998  0.000000 -0.049601      2.000000
  0.121497 -0.023382 -0.066134      2.000000
 -0.080998  0.093528  0.016534      2.000000
 -0.040499  0.070146  0.000000      2.000000
  0.000000  0.093528 -0.033067      2.000000
  0.040499  0.070146 -0.049601      2.000000
  0.080998  0.046764 -0.066134      2.000000
  0.121497  0.023382 -0.082668      2.000000
 -0.080998  0.140292  0.000000      2.000000
 -0.040499  0.116910 -0.016534      2.000000
  0.000000  0.140292 -0.049601      1.000000
  0.040499  0.116910 -0.066134      2.000000
  0.080998  0.093528 -0.082668      2.000000
  0.121497  0.070146 -0.099202      1.000000
 -0.000000  0.000000  0.049601      2.000000
  0.040499 -0.023382  0.033067      2.000000
  0.080998 -0.046764  0.016534      2.000000
  0.121497 -0.070146 -0.000000      2.000000
 -0.080998  0.046764  0.082668      2.000000
 -0.040499  0.023382  0.066134      2.000000
 -0.000000  0.046764  0.033067      2.000000
  0.040499  0.023382  0.016534      2.000000
  0.080998  0.000000  0.000000      2.000000
  0.121497 -0.023382 -0.016534      2.000000
 -0.080998  0.093528  0.066134      2.000000
 -0.040499  0.070146  0.049601      2.000000
 -0.000000  0.093528  0.016534      2.000000
  0.040499  0.070146  0.000000      2.000000
  0.080998  0.046764 -0.016534      2.000000
  0.121497  0.023382 -0.033067      2.000000
 -0.080998  0.140292  0.049601      2.000000
 -0.040499  0.116910  0.033067      2.000000
 -0.000000  0.140292  0.000000      2.000000
  0.040499  0.116910 -0.016534      2.000000
  0.080998  0.093528 -0.033067      2.000000
  0.121497  0.070146 -0.049601      2.000000
 -0.080998  0.187056  0.033067      2.000000
 -0.040499  0.163674  0.016534      2.000000
 -0.000000 -0.093528  0.082668      2.000000
  0.040499 -0.116910  0.066134      2.000000
  0.080998 -0.140292  0.049601      2.000000
  0.121497 -0.163674  0.033067      2.000000
 -0.080998 -0.046764  0.115735      2.000000
 -0.040499 -0.070146  0.099202      2.000000
 -0.000000 -0.046764  0.066134      2.000000
  0.040499 -0.070146  0.049601      2.000000
  0.080998 -0.093528  0.033067      2.000000
  0.121497 -0.116910  0.016534      2.000000
 -0.080998 -0.000000  0.099202      2.000000
 -0.040499 -0.023382  0.082668      2.000000
 -0.000000  0.000000  0.099202      2.000000
  0.040499 -0.023382  0.082668      2.000000
  0.080998 -0.046764  0.066134      2.000000
  0.121497 -0.070146  0.049601      2.000000
 -0.080998  0.046764  0.132269      2.000000
 -0.040499  0.023382  0.115735      2.000000
 -0.000000  0.046764  0.082668      2.000000
  0.040499  0.023382  0.066134      2.000000
  0.080998  0.000000  0.049601      2.000000
  0.121497 -0.023382  0.033067      2.000000
 -0.080998  0.093528  0.115735      2.000000
 -0.040499  0.070146  0.099202      2.000000
 -0.000000  0.093528  0.066134      2.000000
  0.040499  0.070146  0.049601      2.000000
  0.080998  0.046764  0.033067      2.000000
  0.121497  0.023382  0.016534      2.000000
 -0.080998  0.140292  0.099202      2.000000
 -0.040499  0.116910  0.082668      2.000000
 -0.000000  0.140292  0.049601      2.000000
  0.040499  0.116910  0.033067      2.000000
  0.080998  0.093528  0.016534      2.000000
  0.121497  0.070146  0.000000      2.000000
 -0.080998  0.187056  0.082668      2.000000
 -0.040499  0.163674  0.066134      2.000000
 -0.000000 -0.093528  0.132269      2.000000
  0.040499 -0.116910  0.115735      2.000000
  0.080998 -0.140292  0.099202      2.000000
  0.121497 -0.163674  0.082668      2.000000
 -0.080998 -0.046764  0.165336      2.000000
 -0.040499 -0.070146  0.148802      2.000000
 -0.000000 -0.046764  0.115735      2.000000
  0.040499 -0.070146  0.099202      2.000000
  0.080998 -0.093528  0.082668      2.000000
  0.121497 -0.116910  0.066134      2.000000
 -0.080998 -0.000000  0.148802      2.000000
 -0.040499 -0.023382  0.132269      2.000000
 -0.000000  0.000000  0.148802      1.000000
  0.040499 -0.023382  0.132269      2.000000
  0.080998 -0.046764  0.115735      2.000000
  0.121497 -0.070146  0.099202      1.000000
 -0.000000  0.046764  0.132269      2.000000
  0.040499  0.023382  0.115735      2.000000
  0.080998  0.000000  0.099202      2.000000
  0.121497 -0.023382  0.082668      2.000000
 -0.080998  0.093528  0.165336      2.000000
 -0.040499  0.070146  0.148802      2.000000
 -0.000000  0.093528  0.115735      2.000000
  0.040499  0.070146  0.099202      2.000000
  0.080998  0.046764  0.082668      2.000000
  0.121497  0.023382  0.066134      2.000000
 -0.080998  0.140292  0.148802      2.000000
 -0.040499  0.116910  0.132269      2.000000
 -0.000000  0.140292  0.099202      1.000000
  0.040499  0.116910  0.082668      2.000000
  0.080998  0.093528  0.066134      2.000000
  0.121497  0.070146  0.049601      1.000000
 


--------------------------------------------------------------------------------------------------------




 Dimension of arrays:
   k-points           NKPTS =    112   k-points in BZ     NKDIM =    112   number of bands    NBANDS=    128
   number of dos      NEDOS =    301   number of ions     NIONS =      1
   non local maximal  LDIM  =      6   non local SUM 2l+1 LMDIM =     18
   total plane-waves  NPLWV =  13824
   max r-space proj   IRMAX =      1   max aug-charges    IRDMAX=  70933
   dimension x,y,z NGX =    24 NGY =   24 NGZ =   24
   dimension x,y,z NGXF=    48 NGYF=   48 NGZF=   48
   support grid    NGXF=    96 NGYF=   96 NGZF=   96
   ions per type =               1
   NGX,Y,Z   is equivalent  to a cutoff of   9.70,  9.70,  9.70 a.u.
   NGXF,Y,Z  is equivalent  to a cutoff of  19.39, 19.39, 19.39 a.u.

 SYSTEM =  Og_FCC                                  
 POSCAR =  Kr_FCC                                  

 Startparameter for this run:
   NWRITE =      2    write-flag & timer
   PREC   = accura    normal or accurate (medium, high low for compatibility)
   ISTART =      1    job   : 0-new  1-cont  2-samecut
   ICHARG =      0    charge: 1-file 2-atom 10-const
   ISPIN  =      1    spin polarized calculation?
   LNONCOLLINEAR =      F non collinear calculations
   LSORBIT =      F    spin-orbit coupling
   INIWAV =      1    electr: 0-lowe 1-rand  2-diag
   LASPH  =      F    aspherical Exc in radial PAW
   METAGGA=      F    non-selfconsistent MetaGGA calc.

 Electronic Relaxation 1
   ENCUT  =  300.0 eV  22.05 Ry    4.70 a.u.   5.81  5.81  5.81*2*pi/ulx,y,z
   ENINI  =  300.0     initial cutoff
   ENAUG  =  554.8 eV  augmentation charge cutoff
   NELM   =     50;   NELMIN=  2; NELMDL= -5     # of ELM steps 
   EDIFF  = 0.1E-07   stopping-criterion for ELM
   LREAL  =      F    real-space projection
   NLSPLINE    = F    spline interpolate recip. space projectors
   LCOMPAT=      F    compatible to vasp.4.4
   GGA_COMPAT  = F    GGA compatible to vasp.4.4-vasp.4.6
   LMAXPAW     = -100 max onsite density
   LMAXMIX     =    2 max onsite mixed and CHGCAR
   VOSKOWN=      0    Vosko Wilk Nusair interpolation
   ROPT   =    0.00000
 Ionic relaxation
   EDIFFG = 0.1E-04   stopping-criterion for IOM
   NSW    =      1    number of steps for IOM
   NBLOCK =      1;   KBLOCK =      1    inner block; outer block 
   IBRION =     -1    ionic relax: 0-MD 1-quasi-New 2-CG
   NFREE  =      5    steps in history (QN), initial steepest desc. (CG)
   ISIF   =      3    stress and relaxation
   IWAVPR =     10    prediction:  0-non 1-charg 2-wave 3-comb
   ISYM   =      0    0-nonsym 1-usesym 2-fastsym
   LCORR  =      T    Harris-Foulkes like correction to forces

   POTIM  = 0.1000    time-step for ionic-motion
   TEIN   =    0.0    initial temperature
   TEBEG  =    0.0;   TEEND  =   0.0 temperature during run
   SMASS  =  -3.00    Nose mass-parameter (am)
   estimated Nose-frequenzy (Omega)   =  0.10E-29 period in steps =****** mass=  -0.387E-27a.u.
   SCALEE = 1.0000    scale energy and forces
   NPACO  =    256;   APACO  = 16.0  distance and # of slots for P.C.
   PSTRESS=    0.0 pullay stress

  Mass of Ions in am
   POMASS =  83.80
  Ionic Valenz
   ZVAL   =   8.00
  Atomic Wigner-Seitz radii
   RWIGS  =  -1.00
  virtual crystal weights 
   VCA    =   1.00
   NELECT =       8.0000    total number of electrons
   NUPDOWN=      -1.0000    fix difference up-down

 DOS related values:
   EMIN   =  10.00;   EMAX   =-10.00  energy-range for DOS
   EFERMI =   0.00
   ISMEAR =     0;   SIGMA  =   0.00  broadening in eV -4-tet -1-fermi 0-gaus

 Electronic relaxation 2 (details)
   IALGO  =     90    algorithm
   LDIAG  =      T    sub-space diagonalisation (order eigenvalues)
   LSUBROT=      F    optimize rotation matrix (better conditioning)
   TURBO    =      0    0=normal 1=particle mesh
   IRESTART =      0    0=no restart 2=restart with 2 vectors
   NREBOOT  =      0    no. of reboots
   NMIN     =      0    reboot dimension
   EREF     =   0.00    reference energy to select bands
   IMIX   =      4    mixing-type and parameters
     AMIX     =   0.40;   BMIX     =  1.00
     AMIX_MAG =   1.60;   BMIX_MAG =  1.00
     AMIN     =   0.10
     WC   =   100.;   INIMIX=   1;  MIXPRE=   1;  MAXMIX=  50

 Intra band minimization:
   WEIMIN = 0.0000     energy-eigenvalue tresh-hold
   EBREAK =  0.20E-10  absolut break condition
   DEPER  =   0.30     relativ break condition  

   TIME   =   0.40     timestep for ELM

  volume/ion in A,a.u.               =      49.28       332.58
  Fermi-wavevector in a.u.,A,eV,Ry     =   0.893039  1.687599 10.850901  0.797519
  Thomas-Fermi vector in A             =   2.015065
 
 Write flags
   LWAVE        =      T    write WAVECAR
   LDOWNSAMPLE  =      F    k-point downsampling of WAVECAR
   LCHARG       =      F    write CHGCAR
   LVTOT        =      F    write LOCPOT, total local potential
   LVHAR        =      F    write LOCPOT, Hartree potential only
   LELF         =      F    write electronic localiz. function (ELF)
   LORBIT       =      0    0 simple, 1 ext, 2 COOP (PROOUT), +10 PAW based schemes


 Dipole corrections
   LMONO  =      F    monopole corrections only (constant potential shift)
   LDIPOL =      F    correct potential (dipole corrections)
   IDIPOL =      0    1-x, 2-y, 3-z, 4-all directions 
   EPSILON=  1.0000000 bulk dielectric constant

 Exchange correlation treatment:
   GGA     =    PE    GGA type
   LEXCH   =     8    internal setting for exchange type
   VOSKOWN=      0    Vosko Wilk Nusair interpolation
   LHFCALC =     F    Hartree Fock is set to
   LHFONE  =     F    Hartree Fock one center treatment
   AEXX    =    0.0000 exact exchange contribution

 Linear response parameters
   LEPSILON=     F    determine dielectric tensor
   LRPA    =     F    only Hartree local field effects (RPA)
   LNABLA  =     F    use nabla operator in PAW spheres
   LVEL    =     F    velocity operator in full k-point grid
   LINTERFAST=   F  fast interpolation
   KINTER  =     0    interpolate to denser k-point grid
   CSHIFT  =0.1000    complex shift for real part using Kramers Kronig
   OMEGAMAX=  -1.0    maximum frequency
   DEG_THRESHOLD= 0.2000000E-02 threshold for treating states as degnerate
   RTIME   =   -0.100 relaxation time in fs
  (WPLASMAI=    0.000 imaginary part of plasma frequency in eV, 0.658/RTIME)
   DFIELD  = 0.0000000 0.0000000 0.0000000 field for delta impulse in time
 
 Orbital magnetization related:
   ORBITALMAG=     F  switch on orbital magnetization
   LCHIMAG   =     F  perturbation theory with respect to B field
   DQ        =  0.001000  dq finite difference perturbation B field
   LLRAUG    =     F  two centre corrections for induced B field



--------------------------------------------------------------------------------------------------------


 Static calculation
 charge density and potential will be updated during run
 non-spin polarized calculation
 Exact diagonalization
 preconditioned conjugated gradient (Jacobi prec)
    charged. constant during bandupdate  
    band-by band algorithm
 perform sub-space diagonalisation
    after iterative eigenvector-optimisation
 modified Broyden-mixing scheme, WC =      100.0
 initial mixing is a Kerker type mixing with AMIX =  0.4000 and BMIX =      1.0000
 Hartree-type preconditioning will be used
 using additional bands          124
 reciprocal scheme for non local part
 use partial core corrections
 calculate Harris-corrections to forces 
   (improved forces if not selfconsistent)
 use gradient corrections 
 use of overlap-Matrix (Vanderbilt PP)
 Gauss-broadening in eV      SIGMA  =   0.00


--------------------------------------------------------------------------------------------------------


  energy-cutoff  :      300.00
  volume of cell :       49.28
      direct lattice vectors                 reciprocal lattice vectors
     4.115343013  0.000000000  0.000000000     0.242993111 -0.140292138 -0.099201522
     2.057671506  3.563991594 -0.000000000     0.000000000  0.280584276 -0.099201522
     2.057671506  1.187997198  3.360163499    -0.000000000  0.000000000  0.297604566

  length of vectors
     4.115343013  4.115343013  4.115343013     0.297604566  0.297604566  0.297604566


 
 old parameters found on file WAVECAR:
  energy-cutoff  :      300.00
  volume of cell :       49.28
      direct lattice vectors                 reciprocal lattice vectors
     4.115343013  0.000000000  0.000000000     0.242993111 -0.140292138 -0.099201522
     2.057671506  3.563991594 -0.000000000     0.000000000  0.280584276 -0.099201522
     2.057671506  1.187997198  3.360163499    -0.000000000  0.000000000  0.297604566

  length of vectors

 
 k-points in units of 2pi/SCALE and weight: k-points                                
   0.00000000  0.00000000  0.00000000       0.005
   0.04049885 -0.02338202 -0.01653359       0.009
   0.08099770 -0.04676405 -0.03306717       0.009
   0.12149656 -0.07014607 -0.04960076       0.005
   0.00000000  0.04676405 -0.01653359       0.009
   0.04049885  0.02338202 -0.03306717       0.009
   0.08099770  0.00000000 -0.04960076       0.009
   0.12149656 -0.02338202 -0.06613435       0.009
  -0.08099770  0.09352809  0.01653359       0.009
  -0.04049885  0.07014607  0.00000000       0.009
   0.00000000  0.09352809 -0.03306717       0.009
   0.04049885  0.07014607 -0.04960076       0.009
   0.08099770  0.04676405 -0.06613435       0.009
   0.12149656  0.02338202 -0.08266794       0.009
  -0.08099770  0.14029214  0.00000000       0.009
  -0.04049885  0.11691011 -0.01653359       0.009
   0.00000000  0.14029214 -0.04960076       0.005
   0.04049885  0.11691011 -0.06613435       0.009
   0.08099770  0.09352809 -0.08266794       0.009
   0.12149656  0.07014607 -0.09920152       0.005
  -0.00000000  0.00000000  0.04960076       0.009
   0.04049885 -0.02338202  0.03306717       0.009
   0.08099770 -0.04676405  0.01653359       0.009
   0.12149656 -0.07014607 -0.00000000       0.009
  -0.08099770  0.04676405  0.08266794       0.009
  -0.04049885  0.02338202  0.06613435       0.009
  -0.00000000  0.04676405  0.03306717       0.009
   0.04049885  0.02338202  0.01653359       0.009
   0.08099770  0.00000000  0.00000000       0.009
   0.12149656 -0.02338202 -0.01653359       0.009
  -0.08099770  0.09352809  0.06613435       0.009
  -0.04049885  0.07014607  0.04960076       0.009
  -0.00000000  0.09352809  0.01653359       0.009
   0.04049885  0.07014607  0.00000000       0.009
   0.08099770  0.04676405 -0.01653359       0.009
   0.12149656  0.02338202 -0.03306717       0.009
  -0.08099770  0.14029214  0.04960076       0.009
  -0.04049885  0.11691011  0.03306717       0.009
  -0.00000000  0.14029214  0.00000000       0.009
   0.04049885  0.11691011 -0.01653359       0.009
   0.08099770  0.09352809 -0.03306717       0.009
   0.12149656  0.07014607 -0.04960076       0.009
  -0.08099770  0.18705618  0.03306717       0.009
  -0.04049885  0.16367416  0.01653359       0.009
  -0.00000000 -0.09352809  0.08266794       0.009
   0.04049885 -0.11691011  0.06613435       0.009
   0.08099770 -0.14029214  0.04960076       0.009
   0.12149656 -0.16367416  0.03306717       0.009
  -0.08099770 -0.04676405  0.11573511       0.009
  -0.04049885 -0.07014607  0.09920152       0.009
  -0.00000000 -0.04676405  0.06613435       0.009
   0.04049885 -0.07014607  0.04960076       0.009
   0.08099770 -0.09352809  0.03306717       0.009
   0.12149656 -0.11691011  0.01653359       0.009
  -0.08099770 -0.00000000  0.09920152       0.009
  -0.04049885 -0.02338202  0.08266794       0.009
  -0.00000000  0.00000000  0.09920152       0.009
   0.04049885 -0.02338202  0.08266794       0.009
   0.08099770 -0.04676405  0.06613435       0.009
   0.12149656 -0.07014607  0.04960076       0.009
  -0.08099770  0.04676405  0.13226870       0.009
  -0.04049885  0.02338202  0.11573511       0.009
  -0.00000000  0.04676405  0.08266794       0.009
   0.04049885  0.02338202  0.06613435       0.009
   0.08099770  0.00000000  0.04960076       0.009
   0.12149656 -0.02338202  0.03306717       0.009
  -0.08099770  0.09352809  0.11573511       0.009
  -0.04049885  0.07014607  0.09920152       0.009
  -0.00000000  0.09352809  0.06613435       0.009
   0.04049885  0.07014607  0.04960076       0.009
   0.08099770  0.04676405  0.03306717       0.009
   0.12149656  0.02338202  0.01653359       0.009
  -0.08099770  0.14029214  0.09920152       0.009
  -0.04049885  0.11691011  0.08266794       0.009
  -0.00000000  0.14029214  0.04960076       0.009
   0.04049885  0.11691011  0.03306717       0.009
   0.08099770  0.09352809  0.01653359       0.009
   0.12149656  0.07014607  0.00000000       0.009
  -0.08099770  0.18705618  0.08266794       0.009
  -0.04049885  0.16367416  0.06613435       0.009
  -0.00000000 -0.09352809  0.13226870       0.009
   0.04049885 -0.11691011  0.11573511       0.009
   0.08099770 -0.14029214  0.09920152       0.009
   0.12149656 -0.16367416  0.08266794       0.009
  -0.08099770 -0.04676405  0.16533587       0.009
  -0.04049885 -0.07014607  0.14880228       0.009
  -0.00000000 -0.04676405  0.11573511       0.009
   0.04049885 -0.07014607  0.09920152       0.009
   0.08099770 -0.09352809  0.08266794       0.009
   0.12149656 -0.11691011  0.06613435       0.009
  -0.08099770 -0.00000000  0.14880228       0.009
  -0.04049885 -0.02338202  0.13226870       0.009
  -0.00000000  0.00000000  0.14880228       0.005
   0.04049885 -0.02338202  0.13226870       0.009
   0.08099770 -0.04676405  0.11573511       0.009
   0.12149656 -0.07014607  0.09920152       0.005
  -0.00000000  0.04676405  0.13226870       0.009
   0.04049885  0.02338202  0.11573511       0.009
   0.08099770  0.00000000  0.09920152       0.009
   0.12149656 -0.02338202  0.08266794       0.009
  -0.08099770  0.09352809  0.16533587       0.009
  -0.04049885  0.07014607  0.14880228       0.009
  -0.00000000  0.09352809  0.11573511       0.009
   0.04049885  0.07014607  0.09920152       0.009
   0.08099770  0.04676405  0.08266794       0.009
   0.12149656  0.02338202  0.06613435       0.009
  -0.08099770  0.14029214  0.14880228       0.009
  -0.04049885  0.11691011  0.13226870       0.009
  -0.00000000  0.14029214  0.09920152       0.005
   0.04049885  0.11691011  0.08266794       0.009
   0.08099770  0.09352809  0.06613435       0.009
   0.12149656  0.07014607  0.04960076       0.005
 
 k-points in reciprocal lattice and weights: k-points                                
   0.00000000  0.00000000  0.00000000       0.005
   0.16666667 -0.00000000 -0.00000000       0.009
   0.33333333  0.00000000  0.00000000       0.009
   0.50000000  0.00000000  0.00000000       0.005
   0.00000000  0.16666667  0.00000000       0.009
   0.16666667  0.16666667  0.00000000       0.009
   0.33333333  0.16666667  0.00000000       0.009
   0.50000000  0.16666667  0.00000000       0.009
  -0.33333333  0.16666667  0.00000000       0.009
  -0.16666667  0.16666667  0.00000000       0.009
   0.00000000  0.33333333 -0.00000000       0.009
   0.16666667  0.33333333  0.00000000       0.009
   0.33333333  0.33333333 -0.00000000       0.009
   0.50000000  0.33333333 -0.00000000       0.009
  -0.33333333  0.33333333 -0.00000000       0.009
  -0.16666667  0.33333333  0.00000000       0.009
   0.00000000  0.50000000  0.00000000       0.005
   0.16666667  0.50000000  0.00000000       0.009
   0.33333333  0.50000000  0.00000000       0.009
   0.50000000  0.50000000  0.00000000       0.005
   0.00000000  0.00000000  0.16666667       0.009
   0.16666667  0.00000000  0.16666667       0.009
   0.33333333 -0.00000000  0.16666667       0.009
   0.50000000  0.00000000  0.16666667       0.009
  -0.33333333 -0.00000000  0.16666667       0.009
  -0.16666667  0.00000000  0.16666667       0.009
   0.00000000  0.16666667  0.16666667       0.009
   0.16666667  0.16666667  0.16666667       0.009
   0.33333333  0.16666667  0.16666667       0.009
   0.50000000  0.16666667  0.16666667       0.009
  -0.33333333  0.16666667  0.16666667       0.009
  -0.16666667  0.16666667  0.16666667       0.009
   0.00000000  0.33333333  0.16666667       0.009
   0.16666667  0.33333333  0.16666667       0.009
   0.33333333  0.33333333  0.16666667       0.009
   0.50000000  0.33333333  0.16666667       0.009
  -0.33333333  0.33333333  0.16666667       0.009
  -0.16666667  0.33333333  0.16666667       0.009
   0.00000000  0.50000000  0.16666667       0.009
   0.16666667  0.50000000  0.16666667       0.009
   0.33333333  0.50000000  0.16666667       0.009
   0.50000000  0.50000000  0.16666667       0.009
  -0.33333333  0.50000000  0.16666667       0.009
  -0.16666667  0.50000000  0.16666667       0.009
   0.00000000 -0.33333333  0.16666667       0.009
   0.16666667 -0.33333333  0.16666667       0.009
   0.33333333 -0.33333333  0.16666667       0.009
   0.50000000 -0.33333333  0.16666667       0.009
  -0.33333333 -0.33333333  0.16666667       0.009
  -0.16666667 -0.33333333  0.16666667       0.009
   0.00000000 -0.16666667  0.16666667       0.009
   0.16666667 -0.16666667  0.16666667       0.009
   0.33333333 -0.16666667  0.16666667       0.009
   0.50000000 -0.16666667  0.16666667       0.009
  -0.33333333 -0.16666667  0.16666667       0.009
  -0.16666667 -0.16666667  0.16666667       0.009
   0.00000000  0.00000000  0.33333333       0.009
   0.16666667 -0.00000000  0.33333333       0.009
   0.33333333  0.00000000  0.33333333       0.009
   0.50000000  0.00000000  0.33333333       0.009
  -0.33333333  0.00000000  0.33333333       0.009
  -0.16666667  0.00000000  0.33333333       0.009
  -0.00000000  0.16666667  0.33333333       0.009
   0.16666667  0.16666667  0.33333333       0.009
   0.33333333  0.16666667  0.33333333       0.009
   0.50000000  0.16666667  0.33333333       0.009
  -0.33333333  0.16666667  0.33333333       0.009
  -0.16666667  0.16666667  0.33333333       0.009
   0.00000000  0.33333333  0.33333333       0.009
   0.16666667  0.33333333  0.33333333       0.009
   0.33333333  0.33333333  0.33333333       0.009
   0.50000000  0.33333333  0.33333333       0.009
  -0.33333333  0.33333333  0.33333333       0.009
  -0.16666667  0.33333333  0.33333333       0.009
   0.00000000  0.50000000  0.33333333       0.009
   0.16666667  0.50000000  0.33333333       0.009
   0.33333333  0.50000000  0.33333333       0.009
   0.50000000  0.50000000  0.33333333       0.009
  -0.33333333  0.50000000  0.33333333       0.009
  -0.16666667  0.50000000  0.33333333       0.009
  -0.00000000 -0.33333333  0.33333333       0.009
   0.16666667 -0.33333333  0.33333333       0.009
   0.33333333 -0.33333333  0.33333333       0.009
   0.50000000 -0.33333333  0.33333333       0.009
  -0.33333333 -0.33333333  0.33333333       0.009
  -0.16666667 -0.33333333  0.33333333       0.009
   0.00000000 -0.16666667  0.33333333       0.009
   0.16666667 -0.16666667  0.33333333       0.009
   0.33333333 -0.16666667  0.33333333       0.009
   0.50000000 -0.16666667  0.33333333       0.009
  -0.33333333 -0.16666667  0.33333333       0.009
  -0.16666667 -0.16666667  0.33333333       0.009
   0.00000000  0.00000000  0.50000000       0.005
   0.16666667  0.00000000  0.50000000       0.009
   0.33333333  0.00000000  0.50000000       0.009
   0.50000000  0.00000000  0.50000000       0.005
   0.00000000  0.16666667  0.50000000       0.009
   0.16666667  0.16666667  0.50000000       0.009
   0.33333333  0.16666667  0.50000000       0.009
   0.50000000  0.16666667  0.50000000       0.009
  -0.33333333  0.16666667  0.50000000       0.009
  -0.16666667  0.16666667  0.50000000       0.009
   0.00000000  0.33333333  0.50000000       0.009
   0.16666667  0.33333333  0.50000000       0.009
   0.33333333  0.33333333  0.50000000       0.009
   0.50000000  0.33333333  0.50000000       0.009
  -0.33333333  0.33333333  0.50000000       0.009
  -0.16666667  0.33333333  0.50000000       0.009
   0.00000000  0.50000000  0.50000000       0.005
   0.16666667  0.50000000  0.50000000       0.009
   0.33333333  0.50000000  0.50000000       0.009
   0.50000000  0.50000000  0.50000000       0.005
 
 position of ions in fractional coordinates (direct lattice) 
   0.00000000  0.00000000  0.00000000
 
 position of ions in cartesian coordinates  (Angst):
   0.00000000  0.00000000  0.00000000
 


--------------------------------------------------------------------------------------------------------


 k-point  1 :   0.0000 0.0000 0.0000  plane waves:     561
 k-point  2 :   0.1667-0.0000-0.0000  plane waves:     576
 k-point  3 :   0.3333 0.0000 0.0000  plane waves:     589
 k-point  4 :   0.5000 0.0000 0.0000  plane waves:     580
 k-point  5 :   0.0000 0.1667 0.0000  plane waves:     576
 k-point  6 :   0.1667 0.1667 0.0000  plane waves:     572
 k-point  7 :   0.3333 0.1667 0.0000  plane waves:     579
 k-point  8 :   0.5000 0.1667 0.0000  plane waves:     580
 k-point  9 :  -0.3333 0.1667 0.0000  plane waves:     583
 k-point 10 :  -0.1667 0.1667 0.0000  plane waves:     580
 k-point 11 :   0.0000 0.3333-0.0000  plane waves:     589
 k-point 12 :   0.1667 0.3333 0.0000  plane waves:     579
 k-point 13 :   0.3333 0.3333-0.0000  plane waves:     576
 k-point 14 :   0.5000 0.3333-0.0000  plane waves:     588
 k-point 15 :  -0.3333 0.3333-0.0000  plane waves:     578
 k-point 16 :  -0.1667 0.3333 0.0000  plane waves:     583
 k-point 17 :   0.0000 0.5000 0.0000  plane waves:     580
 k-point 18 :   0.1667 0.5000 0.0000  plane waves:     580
 k-point 19 :   0.3333 0.5000 0.0000  plane waves:     588
 k-point 20 :   0.5000 0.5000 0.0000  plane waves:     588
 k-point 21 :   0.0000 0.0000 0.1667  plane waves:     576
 k-point 22 :   0.1667 0.0000 0.1667  plane waves:     572
 k-point 23 :   0.3333-0.0000 0.1667  plane waves:     579
 k-point 24 :   0.5000 0.0000 0.1667  plane waves:     580
 k-point 25 :  -0.3333-0.0000 0.1667  plane waves:     583
 k-point 26 :  -0.1667 0.0000 0.1667  plane waves:     580
 k-point 27 :   0.0000 0.1667 0.1667  plane waves:     572
 k-point 28 :   0.1667 0.1667 0.1667  plane waves:     576
 k-point 29 :   0.3333 0.1667 0.1667  plane waves:     580
 k-point 30 :   0.5000 0.1667 0.1667  plane waves:     583
 k-point 31 :  -0.3333 0.1667 0.1667  plane waves:     580
 k-point 32 :  -0.1667 0.1667 0.1667  plane waves:     579
 k-point 33 :   0.0000 0.3333 0.1667  plane waves:     579
 k-point 34 :   0.1667 0.3333 0.1667  plane waves:     580
 k-point 35 :   0.3333 0.3333 0.1667  plane waves:     579
 k-point 36 :   0.5000 0.3333 0.1667  plane waves:     583
 k-point 37 :  -0.3333 0.3333 0.1667  plane waves:     574
 k-point 38 :  -0.1667 0.3333 0.1667  plane waves:     583
 k-point 39 :   0.0000 0.5000 0.1667  plane waves:     580
 k-point 40 :   0.1667 0.5000 0.1667  plane waves:     583
 k-point 41 :   0.3333 0.5000 0.1667  plane waves:     583
 k-point 42 :   0.5000 0.5000 0.1667  plane waves:     588
 k-point 43 :  -0.3333 0.5000 0.1667  plane waves:     584
 k-point 44 :  -0.1667 0.5000 0.1667  plane waves:     574
 k-point 45 :   0.0000-0.3333 0.1667  plane waves:     583
 k-point 46 :   0.1667-0.3333 0.1667  plane waves:     580
 k-point 47 :   0.3333-0.3333 0.1667  plane waves:     574
 k-point 48 :   0.5000-0.3333 0.1667  plane waves:     584
 k-point 49 :  -0.3333-0.3333 0.1667  plane waves:     588
 k-point 50 :  -0.1667-0.3333 0.1667  plane waves:     583
 k-point 51 :   0.0000-0.1667 0.1667  plane waves:     580
 k-point 52 :   0.1667-0.1667 0.1667  plane waves:     579
 k-point 53 :   0.3333-0.1667 0.1667  plane waves:     583
 k-point 54 :   0.5000-0.1667 0.1667  plane waves:     574
 k-point 55 :  -0.3333-0.1667 0.1667  plane waves:     583
 k-point 56 :  -0.1667-0.1667 0.1667  plane waves:     579
 k-point 57 :   0.0000 0.0000 0.3333  plane waves:     589
 k-point 58 :   0.1667-0.0000 0.3333  plane waves:     579
 k-point 59 :   0.3333 0.0000 0.3333  plane waves:     576
 k-point 60 :   0.5000 0.0000 0.3333  plane waves:     588
 k-point 61 :  -0.3333 0.0000 0.3333  plane waves:     578
 k-point 62 :  -0.1667 0.0000 0.3333  plane waves:     583
 k-point 63 :  -0.0000 0.1667 0.3333  plane waves:     579
 k-point 64 :   0.1667 0.1667 0.3333  plane waves:     580
 k-point 65 :   0.3333 0.1667 0.3333  plane waves:     579
 k-point 66 :   0.5000 0.1667 0.3333  plane waves:     583
 k-point 67 :  -0.3333 0.1667 0.3333  plane waves:     574
 k-point 68 :  -0.1667 0.1667 0.3333  plane waves:     583
 k-point 69 :   0.0000 0.3333 0.3333  plane waves:     576
 k-point 70 :   0.1667 0.3333 0.3333  plane waves:     579
 k-point 71 :   0.3333 0.3333 0.3333  plane waves:     589
 k-point 72 :   0.5000 0.3333 0.3333  plane waves:     583
 k-point 73 :  -0.3333 0.3333 0.3333  plane waves:     578
 k-point 74 :  -0.1667 0.3333 0.3333  plane waves:     588
 k-point 75 :   0.0000 0.5000 0.3333  plane waves:     588
 k-point 76 :   0.1667 0.5000 0.3333  plane waves:     583
 k-point 77 :   0.3333 0.5000 0.3333  plane waves:     583
 k-point 78 :   0.5000 0.5000 0.3333  plane waves:     580
 k-point 79 :  -0.3333 0.5000 0.3333  plane waves:     574
 k-point 80 :  -0.1667 0.5000 0.3333  plane waves:     584
 k-point 81 :  -0.0000-0.3333 0.3333  plane waves:     578
 k-point 82 :   0.1667-0.3333 0.3333  plane waves:     574
 k-point 83 :   0.3333-0.3333 0.3333  plane waves:     578
 k-point 84 :   0.5000-0.3333 0.3333  plane waves:     574
 k-point 85 :  -0.3333-0.3333 0.3333  plane waves:     578
 k-point 86 :  -0.1667-0.3333 0.3333  plane waves:     574
 k-point 87 :   0.0000-0.1667 0.3333  plane waves:     583
 k-point 88 :   0.1667-0.1667 0.3333  plane waves:     583
 k-point 89 :   0.3333-0.1667 0.3333  plane waves:     588
 k-point 90 :   0.5000-0.1667 0.3333  plane waves:     584
 k-point 91 :  -0.3333-0.1667 0.3333  plane waves:     574
 k-point 92 :  -0.1667-0.1667 0.3333  plane waves:     580
 k-point 93 :   0.0000 0.0000 0.5000  plane waves:     580
 k-point 94 :   0.1667 0.0000 0.5000  plane waves:     580
 k-point 95 :   0.3333 0.0000 0.5000  plane waves:     588
 k-point 96 :   0.5000 0.0000 0.5000  plane waves:     588
 k-point 97 :   0.0000 0.1667 0.5000  plane waves:     580
 k-point 98 :   0.1667 0.1667 0.5000  plane waves:     583
 k-point 99 :   0.3333 0.1667 0.5000  plane waves:     583
 k-point ** :   0.5000 0.1667 0.5000  plane waves:     588
 k-point ** :  -0.3333 0.1667 0.5000  plane waves:     584
 k-point ** :  -0.1667 0.1667 0.5000  plane waves:     574
 k-point ** :   0.0000 0.3333 0.5000  plane waves:     588
 k-point ** :   0.1667 0.3333 0.5000  plane waves:     583
 k-point ** :   0.3333 0.3333 0.5000  plane waves:     583
 k-point ** :   0.5000 0.3333 0.5000  plane waves:     580
 k-point ** :  -0.3333 0.3333 0.5000  plane waves:     574
 k-point ** :  -0.1667 0.3333 0.5000  plane waves:     584
 k-point ** :   0.0000 0.5000 0.5000  plane waves:     588
 k-point ** :   0.1667 0.5000 0.5000  plane waves:     588
 k-point ** :   0.3333 0.5000 0.5000  plane waves:     580
 k-point ** :   0.5000 0.5000 0.5000  plane waves:     580

 maximum and minimum number of plane-waves per node :        83       58

 maximum number of plane-waves:       589
 maximum index in each direction: 
   IXMAX=    6   IYMAX=    6   IZMAX=    5
   IXMIN=   -6   IYMIN=   -6   IZMIN=   -6


 parallel 3D FFT for wavefunctions:
    minimum data exchange during FFTs selected (reduces bandwidth)
 parallel 3D FFT for charge:
    minimum data exchange during FFTs selected (reduces bandwidth)


 total amount of memory used by VASP MPI-rank0    45746. kBytes
=======================================================================

   base      :      30000. kBytes
   nonl-proj :       1356. kBytes
   fftplans  :       2069. kBytes
   grid      :        608. kBytes
   one-center:         15. kBytes
   wavefun   :      11698. kBytes
 
     INWAV:  cpu time    1.6520: real time    1.6520
 Broyden mixing: mesh for mixing (old mesh)
   NGX = 11   NGY = 11   NGZ = 11
  (NGX  = 48   NGY  = 48   NGZ  = 48)
  gives a total of   1331 points

 charge density for first step will be calculated from the start-wavefunctions


--------------------------------------------------------------------------------------------------------


 Maximum index for augmentation-charges         4327 (set IRDMAX)


--------------------------------------------------------------------------------------------------------


 initial charge from wavefunction
 First call to EWALD:  gamma=   0.483
 Maximum number of real-space cells 3x 3x 3
 Maximum number of reciprocal cells 3x 3x 3

    FEWALD:  cpu time    0.0026: real time    0.0028


--------------------------------------- Iteration      1(   1)  ---------------------------------------


    POTLOK:  cpu time    0.0091: real time    0.0099
    SETDIJ:  cpu time    0.0045: real time    0.0045

 total amount of memory used by VASP MPI-rank0    99667. kBytes
=======================================================================

   base      :      30000. kBytes
   nonl-proj :       1356. kBytes
   fftplans  :       2069. kBytes
   grid      :        608. kBytes
   one-center:         15. kBytes
   wavefun   :      65619. kBytes
 
    EDDIAG:  cpu time   14.5840: real time   14.5850
       DOS:  cpu time    0.0061: real time    0.0061
    --------------------------------------------
      LOOP:  cpu time   14.6038: real time   14.6055

 eigenvalue-minimisations  :     0
 total energy-change (2. order) :-0.3046129E-01  ( 0.0000000E+00)
 number of electron       8.0000000 magnetization 
 augmentation part       -0.8518294 magnetization 

 Free energy of the ion-electron system (eV)
  ---------------------------------------------------
  alpha Z        PSCENC =         8.51686385
  Ewald energy   TEWEN  =      -363.00389881
  -Hartree energ DENC   =      -106.39469711
  -exchange      EXHF   =         0.00000000
  -V(xc)+E(xc)   XCENC  =        14.64465996
  PAW double counting   =       409.79396621     -404.92643274
  entropy T*S    EENTRO =         0.00000000
  eigenvalues    EBANDS =       -65.36878170
  atomic energy  EATOM  =       506.70785905
  Solvation  Ediel_sol  =         0.00000000
  ---------------------------------------------------
  free energy    TOTEN  =        -0.03046129 eV

  energy without entropy =       -0.03046129  energy(sigma->0) =       -0.03046129


--------------------------------------------------------------------------------------------------------




--------------------------------------- Iteration      1(   2)  ---------------------------------------



 total amount of memory used by VASP MPI-rank0    99667. kBytes
=======================================================================

   base      :      30000. kBytes
   nonl-proj :       1356. kBytes
   fftplans  :       2069. kBytes
   grid      :        608. kBytes
   one-center:         15. kBytes
   wavefun   :      65619. kBytes
 
    EDDIAG:  cpu time   14.2217: real time   14.2216
       DOS:  cpu time    0.0060: real time    0.0060
    --------------------------------------------
      LOOP:  cpu time   14.2277: real time   14.2276

 eigenvalue-minimisations  :     0
 total energy-change (2. order) :-0.1114131E-10  ( 0.0000000E+00)
 number of electron       8.0000000 magnetization 
 augmentation part       -0.8518294 magnetization 

 Free energy of the ion-electron system (eV)
  ---------------------------------------------------
  alpha Z        PSCENC =         8.51686385
  Ewald energy   TEWEN  =      -363.00389881
  -Hartree energ DENC   =      -106.39469711
  -exchange      EXHF   =         0.00000000
  -V(xc)+E(xc)   XCENC  =        14.64465996
  PAW double counting   =       409.79396621     -404.92643274
  entropy T*S    EENTRO =         0.00000000
  eigenvalues    EBANDS =       -65.36878170
  atomic energy  EATOM  =       506.70785905
  Solvation  Ediel_sol  =         0.00000000
  ---------------------------------------------------
  free energy    TOTEN  =        -0.03046129 eV

  energy without entropy =       -0.03046129  energy(sigma->0) =       -0.03046129


--------------------------------------------------------------------------------------------------------




--------------------------------------- Iteration      1(   3)  ---------------------------------------



 total amount of memory used by VASP MPI-rank0    99667. kBytes
=======================================================================

   base      :      30000. kBytes
   nonl-proj :       1356. kBytes
   fftplans  :       2069. kBytes
   grid      :        608. kBytes
   one-center:         15. kBytes
   wavefun   :      65619. kBytes
 
    EDDIAG:  cpu time   14.2401: real time   14.2404
       DOS:  cpu time    0.0062: real time    0.0062
    --------------------------------------------
      LOOP:  cpu time   14.2463: real time   14.2466

 eigenvalue-minimisations  :     0
 total energy-change (2. order) : 0.1739409E-10  ( 0.0000000E+00)
 number of electron       8.0000000 magnetization 
 augmentation part       -0.8518294 magnetization 

 Free energy of the ion-electron system (eV)
  ---------------------------------------------------
  alpha Z        PSCENC =         8.51686385
  Ewald energy   TEWEN  =      -363.00389881
  -Hartree energ DENC   =      -106.39469711
  -exchange      EXHF   =         0.00000000
  -V(xc)+E(xc)   XCENC  =        14.64465996
  PAW double counting   =       409.79396621     -404.92643274
  entropy T*S    EENTRO =         0.00000000
  eigenvalues    EBANDS =       -65.36878170
  atomic energy  EATOM  =       506.70785905
  Solvation  Ediel_sol  =         0.00000000
  ---------------------------------------------------
  free energy    TOTEN  =        -0.03046129 eV

  energy without entropy =       -0.03046129  energy(sigma->0) =       -0.03046129


--------------------------------------------------------------------------------------------------------




--------------------------------------- Iteration      1(   4)  ---------------------------------------



 total amount of memory used by VASP MPI-rank0    99667. kBytes
=======================================================================

   base      :      30000. kBytes
   nonl-proj :       1356. kBytes
   fftplans  :       2069. kBytes
   grid      :        608. kBytes
   one-center:         15. kBytes
   wavefun   :      65619. kBytes
 
    EDDIAG:  cpu time   14.3227: real time   14.3226
       DOS:  cpu time    0.0032: real time    0.0032
    --------------------------------------------
      LOOP:  cpu time   14.3259: real time   14.3258

 eigenvalue-minimisations  :     0
 total energy-change (2. order) :-0.1125500E-10  ( 0.0000000E+00)
 number of electron       8.0000000 magnetization 
 augmentation part       -0.8518294 magnetization 

 Free energy of the ion-electron system (eV)
  ---------------------------------------------------
  alpha Z        PSCENC =         8.51686385
  Ewald energy   TEWEN  =      -363.00389881
  -Hartree energ DENC   =      -106.39469711
  -exchange      EXHF   =         0.00000000
  -V(xc)+E(xc)   XCENC  =        14.64465996
  PAW double counting   =       409.79396621     -404.92643274
  entropy T*S    EENTRO =         0.00000000
  eigenvalues    EBANDS =       -65.36878170
  atomic energy  EATOM  =       506.70785905
  Solvation  Ediel_sol  =         0.00000000
  ---------------------------------------------------
  free energy    TOTEN  =        -0.03046129 eV

  energy without entropy =       -0.03046129  energy(sigma->0) =       -0.03046129


--------------------------------------------------------------------------------------------------------




--------------------------------------- Iteration      1(   5)  ---------------------------------------



 total amount of memory used by VASP MPI-rank0    99667. kBytes
=======================================================================

   base      :      30000. kBytes
   nonl-proj :       1356. kBytes
   fftplans  :       2069. kBytes
   grid      :        608. kBytes
   one-center:         15. kBytes
   wavefun   :      65619. kBytes
 
    EDDIAG:  cpu time   14.4010: real time   14.4003
       DOS:  cpu time    0.0068: real time    0.0068
    CHARGE:  cpu time    0.0130: real time    0.0130
    MIXING:  cpu time    0.0010: real time    0.0010
    --------------------------------------------
      LOOP:  cpu time   14.4218: real time   14.4211

 eigenvalue-minimisations  :     0
 total energy-change (2. order) : 0.6821210E-12  ( 0.0000000E+00)
 number of electron       8.0000000 magnetization 
 augmentation part       -0.8518294 magnetization 

 Broyden mixing:
  rms(total) = 0.17954E-06    rms(broyden)= 0.17938E-06
  rms(prec ) = 0.59001E-06
  weight for this iteration     100.00

 Free energy of the ion-electron system (eV)
  ---------------------------------------------------
  alpha Z        PSCENC =         8.51686385
  Ewald energy   TEWEN  =      -363.00389881
  -Hartree energ DENC   =      -106.39469711
  -exchange      EXHF   =         0.00000000
  -V(xc)+E(xc)   XCENC  =        14.64465996
  PAW double counting   =       409.79396621     -404.92643274
  entropy T*S    EENTRO =         0.00000000
  eigenvalues    EBANDS =       -65.36878170
  atomic energy  EATOM  =       506.70785905
  Solvation  Ediel_sol  =         0.00000000
  ---------------------------------------------------
  free energy    TOTEN  =        -0.03046129 eV

  energy without entropy =       -0.03046129  energy(sigma->0) =       -0.03046129


--------------------------------------------------------------------------------------------------------




--------------------------------------- Iteration      1(   6)  ---------------------------------------


    POTLOK:  cpu time    0.0062: real time    0.0062
    SETDIJ:  cpu time    0.0041: real time    0.0041

 total amount of memory used by VASP MPI-rank0    99667. kBytes
=======================================================================

   base      :      30000. kBytes
   nonl-proj :       1356. kBytes
   fftplans  :       2069. kBytes
   grid      :        608. kBytes
   one-center:         15. kBytes
   wavefun   :      65619. kBytes
 
    EDDIAG:  cpu time   14.3071: real time   14.3064
       DOS:  cpu time    0.0059: real time    0.0059
    --------------------------------------------
      LOOP:  cpu time   14.3233: real time   14.3227

 eigenvalue-minimisations  :     0
 total energy-change (2. order) :-0.1164722E-09  ( 0.0000000E+00)
 number of electron       8.0000000 magnetization 
 augmentation part       -0.8518294 magnetization 

 Free energy of the ion-electron system (eV)
  ---------------------------------------------------
  alpha Z        PSCENC =         8.51686385
  Ewald energy   TEWEN  =      -363.00389881
  -Hartree energ DENC   =      -106.39470116
  -exchange      EXHF   =         0.00000000
  -V(xc)+E(xc)   XCENC  =        14.64466020
  PAW double counting   =       409.79398261     -404.92644928
  entropy T*S    EENTRO =         0.00000000
  eigenvalues    EBANDS =       -65.36877775
  atomic energy  EATOM  =       506.70785905
  Solvation  Ediel_sol  =         0.00000000
  ---------------------------------------------------
  free energy    TOTEN  =        -0.03046129 eV

  energy without entropy =       -0.03046129  energy(sigma->0) =       -0.03046129


--------------------------------------------------------------------------------------------------------




 average (electrostatic) potential at core
  the test charge radii are     0.9700
  (the norm of the test charge is              1.0000)
       1 -98.8433
 
 
 
 E-fermi :  -4.1287     XC(G=0):  -6.3979     alpha+bet : -4.4977


 k-point     1 :       0.0000    0.0000    0.0000
  band No.  band energies     occupation 
      1     -18.6437      2.00000
      2      -4.2157      2.00000
      3      -4.2157      2.00000
      4      -4.2157      2.00000
      5       3.0229      0.00000
      6       9.3643      0.00000
      7       9.3643      0.00000
      8       9.3643      0.00000
      9      11.6969      0.00000
     10      11.6969      0.00000
     11      12.9206      0.00000
     12      15.2927      0.00000
     13      15.2927      0.00000
     14      15.2927      0.00000
     15      17.2220      0.00000
     16      24.8468      0.00000
     17      24.8468      0.00000
     18      24.8468      0.00000
     19      26.0897      0.00000
     20      26.0897      0.00000
     21      26.0897      0.00000
     22      28.9436      0.00000
     23      28.9436      0.00000
     24      30.0026      0.00000
     25      30.0026      0.00000
     26      30.0026      0.00000
     27      31.5350      0.00000
     28      38.5118      0.00000
     29      38.5118      0.00000
     30      39.5686      0.00000
     31      39.5686      0.00000
     32      39.5686      0.00000
     33      40.6833      0.00000
     34      41.3533      0.00000
     35      41.3533      0.00000
     36      41.3533      0.00000
     37      42.2356      0.00000
     38      42.2356      0.00000
     39      42.2356      0.00000
     40      44.8303      0.00000
     41      44.8303      0.00000
     42      44.8303      0.00000
     43      45.0799      0.00000
     44      45.0799      0.00000
     45      45.0799      0.00000
     46      45.7284      0.00000
     47      47.3186      0.00000
     48      47.3186      0.00000
     49      47.3186      0.00000
     50      47.9892      0.00000
     51      47.9892      0.00000
     52      50.9388      0.00000
     53      50.9388      0.00000
     54      50.9388      0.00000
     55      51.0115      0.00000
     56      51.4044      0.00000
     57      51.4044      0.00000
     58      51.4044      0.00000
     59      51.6917      0.00000
     60      64.2203      0.00000
     61      64.2203      0.00000
     62      65.0003      0.00000
     63      65.0003      0.00000
     64      65.0003      0.00000
     65      67.6908      0.00000
     66      68.4843      0.00000
     67      68.4843      0.00000
     68      68.4843      0.00000
     69      69.5925      0.00000
     70      69.5925      0.00000
     71      69.5925      0.00000
     72      72.6964      0.00000
     73      72.6964      0.00000
     74      73.1008      0.00000
     75      73.1008      0.00000
     76      73.1008      0.00000
     77      75.0753      0.00000
     78      79.4712      0.00000
     79      79.4712      0.00000
     80      79.4712      0.00000
     81      79.7101      0.00000
     82      79.7101      0.00000
     83      79.7101      0.00000
     84      81.4185      0.00000
     85      81.4185      0.00000
     86      81.4185      0.00000
     87      82.1168      0.00000
     88      82.1168      0.00000
     89      82.3696      0.00000
     90      82.3696      0.00000
     91      82.8505      0.00000
     92      82.8505      0.00000
     93      82.8505      0.00000
     94      83.0398      0.00000
     95      83.6024      0.00000
     96      83.6024      0.00000
     97      83.6024      0.00000
     98      84.7190      0.00000
     99      84.7190      0.00000
    100      84.7190      0.00000
    101      85.8982      0.00000
    102      86.6501      0.00000
    103      86.6501      0.00000
    104      86.6501      0.00000
    105      86.6906      0.00000
    106      86.6906      0.00000
    107      86.6906      0.00000
    108      87.0018      0.00000
    109      87.0018      0.00000
    110      87.0018      0.00000
    111      87.1830      0.00000
    112      87.1830      0.00000
    113      88.9150      0.00000
    114      96.1813      0.00000
    115      98.3787      0.00000
    116      98.3787      0.00000
    117      98.3787      0.00000
    118      99.0380      0.00000
    119      99.0380      0.00000
    120      99.0380      0.00000
    121     100.9947      0.00000
    122     100.9947      0.00000
    123     100.9947      0.00000
    124     101.3660      0.00000
    125     101.3660      0.00000
    126     101.4055      0.00000
    127     101.4055      0.00000
    128     101.4055      0.00000

 k-point     2 :       0.1667   -0.0000   -0.0000
  band No.  band energies     occupation 
      1     -18.6103      2.00000
      2      -4.5682      2.00000
      3      -4.2519      2.00000
      4      -4.2519      2.00000
      5       3.6969      0.00000
      6       8.5323      0.00000
      7       9.5739      0.00000
      8       9.5739      0.00000
      9      11.2251      0.00000
     10      11.2251      0.00000
     11      13.5525      0.00000
     12      14.9251      0.00000
     13      16.8384      0.00000
     14      16.8384      0.00000
     15      19.4226      0.00000
     16      21.3569      0.00000
     17      22.2572      0.00000
     18      22.2572      0.00000
     19      26.3538      0.00000
     20      26.3538      0.00000
     21      28.1141      0.00000
     22      28.1141      0.00000
     23      28.2329      0.00000
     24      30.2437      0.00000
     25      33.2379      0.00000
     26      33.2379      0.00000
     27      33.2492      0.00000
     28      35.5537      0.00000
     29      35.5760      0.00000
     30      35.5760      0.00000
     31      38.6553      0.00000
     32      38.9463      0.00000
     33      38.9463      0.00000
     34      40.6862      0.00000
     35      40.6862      0.00000
     36      40.7673      0.00000
     37      41.1831      0.00000
     38      42.3289      0.00000
     39      42.3289      0.00000
     40      43.4710      0.00000
     41      43.9268      0.00000
     42      43.9268      0.00000
     43      45.6110      0.00000
     44      46.8686      0.00000
     45      46.8686      0.00000
     46      47.5558      0.00000
     47      47.5558      0.00000
     48      47.7603      0.00000
     49      49.4643      0.00000
     50      49.5601      0.00000
     51      50.0497      0.00000
     52      50.0497      0.00000
     53      50.4362      0.00000
     54      53.4476      0.00000
     55      53.4476      0.00000
     56      54.7896      0.00000
     57      54.8514      0.00000
     58      54.8514      0.00000
     59      59.2049      0.00000
     60      59.2049      0.00000
     61      59.8848      0.00000
     62      61.0086      0.00000
     63      62.3292      0.00000
     64      62.3292      0.00000
     65      63.9843      0.00000
     66      68.2639      0.00000
     67      69.8597      0.00000
     68      69.8597      0.00000
     69      70.2199      0.00000
     70      70.2199      0.00000
     71      70.6020      0.00000
     72      72.2518      0.00000
     73      72.4649      0.00000
     74      72.4649      0.00000
     75      73.4720      0.00000
     76      73.4720      0.00000
     77      74.1384      0.00000
     78      74.1384      0.00000
     79      75.0681      0.00000
     80      76.4590      0.00000
     81      78.3549      0.00000
     82      78.3549      0.00000
     83      78.4309      0.00000
     84      78.6443      0.00000
     85      78.6443      0.00000
     86      78.8534      0.00000
     87      80.4544      0.00000
     88      80.4544      0.00000
     89      81.1618      0.00000
     90      82.0523      0.00000
     91      82.0523      0.00000
     92      82.2627      0.00000
     93      82.7248      0.00000
     94      82.7248      0.00000
     95      83.4131      0.00000
     96      83.4131      0.00000
     97      83.5294      0.00000
     98      85.6771      0.00000
     99      87.8673      0.00000
    100      87.8673      0.00000
    101      88.0236      0.00000
    102      88.0872      0.00000
    103      88.6927      0.00000
    104      88.9480      0.00000
    105      88.9480      0.00000
    106      90.1224      0.00000
    107      90.1715      0.00000
    108      90.1715      0.00000
    109      90.4059      0.00000
    110      90.4059      0.00000
    111      92.3109      0.00000
    112      92.3109      0.00000
    113      94.0426      0.00000
    114      94.4737      0.00000
    115      94.4737      0.00000
    116      95.3744      0.00000
    117      95.7252      0.00000
    118      95.9922      0.00000
    119      95.9922      0.00000
    120      96.2758      0.00000
    121      96.2758      0.00000
    122      96.3564      0.00000
    123      99.9317      0.00000
    124     100.4954      0.00000
    125     100.4954      0.00000
    126     101.4763      0.00000
    127     101.4763      0.00000
    128     101.8755      0.00000

 k-point     3 :       0.3333    0.0000    0.0000
  band No.  band energies     occupation 
      1     -18.5422      2.00000
      2      -5.1705      2.00000
      3      -4.3222      2.00000
      4      -4.3222      2.00000
      5       4.9416      0.00000
      6       7.8400      0.00000
      7       9.2692      0.00000
      8       9.2692      0.00000
      9      12.0845      0.00000
     10      12.0845      0.00000
     11      12.5881      0.00000
     12      16.7698      0.00000
     13      18.4472      0.00000
     14      18.4472      0.00000
     15      18.5162      0.00000
     16      20.0357      0.00000
     17      20.0357      0.00000
     18      24.0524      0.00000
     19      26.2302      0.00000
     20      26.2302      0.00000
     21      27.4921      0.00000
     22      28.2436      0.00000
     23      28.2436      0.00000
     24      30.5705      0.00000
     25      30.5705      0.00000
     26      30.8331      0.00000
     27      30.9516      0.00000
     28      34.3422      0.00000
     29      36.3517      0.00000
     30      36.3517      0.00000
     31      37.0462      0.00000
     32      37.5828      0.00000
     33      37.5828      0.00000
     34      38.4580      0.00000
     35      40.3711      0.00000
     36      40.7290      0.00000
     37      40.7290      0.00000
     38      41.1901      0.00000
     39      42.5845      0.00000
     40      42.5845      0.00000
     41      44.5432      0.00000
     42      44.5432      0.00000
     43      45.8827      0.00000
     44      47.6899      0.00000
     45      47.6899      0.00000
     46      48.8449      0.00000
     47      51.9248      0.00000
     48      51.9248      0.00000
     49      52.9043      0.00000
     50      53.8577      0.00000
     51      53.8577      0.00000
     52      54.0601      0.00000
     53      54.0601      0.00000
     54      54.8897      0.00000
     55      55.6642      0.00000
     56      55.7800      0.00000
     57      55.7800      0.00000
     58      56.7481      0.00000
     59      57.9336      0.00000
     60      58.9384      0.00000
     61      58.9384      0.00000
     62      60.0878      0.00000
     63      61.5864      0.00000
     64      61.5864      0.00000
     65      64.5195      0.00000
     66      64.5195      0.00000
     67      64.7544      0.00000
     68      66.4532      0.00000
     69      66.4532      0.00000
     70      66.5408      0.00000
     71      69.3948      0.00000
     72      70.1974      0.00000
     73      70.6149      0.00000
     74      70.7550      0.00000
     75      70.7550      0.00000
     76      71.0823      0.00000
     77      71.0823      0.00000
     78      72.2374      0.00000
     79      72.2374      0.00000
     80      74.7016      0.00000
     81      76.4322      0.00000
     82      77.5081      0.00000
     83      77.5081      0.00000
     84      78.8764      0.00000
     85      79.9969      0.00000
     86      79.9969      0.00000
     87      80.1004      0.00000
     88      80.1004      0.00000
     89      81.5289      0.00000
     90      81.5412      0.00000
     91      81.5412      0.00000
     92      81.9895      0.00000
     93      82.2149      0.00000
     94      82.2149      0.00000
     95      82.8281      0.00000
     96      84.3176      0.00000
     97      84.3882      0.00000
     98      84.3882      0.00000
     99      88.4263      0.00000
    100      88.4263      0.00000
    101      89.6959      0.00000
    102      89.6959      0.00000
    103      90.1208      0.00000
    104      90.3166      0.00000
    105      91.0351      0.00000
    106      91.0351      0.00000
    107      91.0826      0.00000
    108      91.4132      0.00000
    109      92.0254      0.00000
    110      92.0254      0.00000
    111      92.4437      0.00000
    112      92.9129      0.00000
    113      92.9129      0.00000
    114      94.1965      0.00000
    115      94.2686      0.00000
    116      94.2686      0.00000
    117      97.5661      0.00000
    118      98.1939      0.00000
    119      99.5236      0.00000
    120      99.5236      0.00000
    121     100.1103      0.00000
    122     100.5005      0.00000
    123     100.5005      0.00000
    124     101.7208      0.00000
    125     101.7208      0.00000
    126     102.3237      0.00000
    127     102.3237      0.00000
    128     102.3651      0.00000

 k-point     4 :       0.5000    0.0000    0.0000
  band No.  band energies     occupation 
      1     -18.5075      2.00000
      2      -5.4362      2.00000
      3      -4.3564      2.00000
      4      -4.3564      2.00000
      5       5.4063      0.00000
      6       7.9121      0.00000
      7       8.9928      0.00000
      8       8.9928      0.00000
      9      12.6426      0.00000
     10      13.5723      0.00000
     11      13.5723      0.00000
     12      14.7749      0.00000
     13      16.1122      0.00000
     14      16.1122      0.00000
     15      22.5931      0.00000
     16      23.1326      0.00000
     17      23.4620      0.00000
     18      23.4620      0.00000
     19      23.9500      0.00000
     20      23.9500      0.00000
     21      28.2654      0.00000
     22      28.2654      0.00000
     23      28.9345      0.00000
     24      29.0462      0.00000
     25      29.3922      0.00000
     26      29.3922      0.00000
     27      31.2180      0.00000
     28      31.4315      0.00000
     29      35.4686      0.00000
     30      35.5614      0.00000
     31      35.5614      0.00000
     32      36.5488      0.00000
     33      36.5488      0.00000
     34      37.3597      0.00000
     35      40.3375      0.00000
     36      42.3854      0.00000
     37      42.3854      0.00000
     38      44.2603      0.00000
     39      44.2603      0.00000
     40      44.5512      0.00000
     41      46.5231      0.00000
     42      46.5949      0.00000
     43      46.5949      0.00000
     44      47.4101      0.00000
     45      47.4101      0.00000
     46      49.6657      0.00000
     47      50.6626      0.00000
     48      50.6626      0.00000
     49      51.1097      0.00000
     50      51.6853      0.00000
     51      51.6853      0.00000
     52      54.0174      0.00000
     53      57.2753      0.00000
     54      57.9502      0.00000
     55      57.9502      0.00000
     56      57.9856      0.00000
     57      57.9856      0.00000
     58      59.5877      0.00000
     59      59.5877      0.00000
     60      59.9950      0.00000
     61      59.9950      0.00000
     62      60.2055      0.00000
     63      60.6926      0.00000
     64      61.5794      0.00000
     65      63.5432      0.00000
     66      63.7777      0.00000
     67      64.4680      0.00000
     68      64.4680      0.00000
     69      64.5216      0.00000
     70      64.5216      0.00000
     71      67.4710      0.00000
     72      67.4971      0.00000
     73      69.4921      0.00000
     74      69.5756      0.00000
     75      69.5756      0.00000
     76      70.4083      0.00000
     77      70.4083      0.00000
     78      71.0329      0.00000
     79      71.0329      0.00000
     80      72.7017      0.00000
     81      72.7017      0.00000
     82      76.4813      0.00000
     83      77.7764      0.00000
     84      79.4728      0.00000
     85      79.5378      0.00000
     86      79.5378      0.00000
     87      79.9574      0.00000
     88      81.0656      0.00000
     89      81.0656      0.00000
     90      81.6001      0.00000
     91      83.0407      0.00000
     92      83.0407      0.00000
     93      83.4303      0.00000
     94      83.4303      0.00000
     95      83.8510      0.00000
     96      86.4456      0.00000
     97      86.4456      0.00000
     98      86.5632      0.00000
     99      87.0544      0.00000
    100      87.1583      0.00000
    101      87.3500      0.00000
    102      87.3500      0.00000
    103      87.8709      0.00000
    104      88.5864      0.00000
    105      88.5864      0.00000
    106      88.7134      0.00000
    107      88.7134      0.00000
    108      91.2411      0.00000
    109      94.1602      0.00000
    110      94.6555      0.00000
    111      94.6555      0.00000
    112      95.4571      0.00000
    113      95.4571      0.00000
    114      96.3359      0.00000
    115      96.8317      0.00000
    116      96.8829      0.00000
    117      96.8829      0.00000
    118      97.2026      0.00000
    119      97.5371      0.00000
    120      97.5371      0.00000
    121      98.6665      0.00000
    122      98.6665      0.00000
    123      98.9587      0.00000
    124      98.9587      0.00000
    125     101.4005      0.00000
    126     101.8909      0.00000
    127     102.3601      0.00000
    128     102.3601      0.00000

 k-point     5 :       0.0000    0.1667    0.0000
  band No.  band energies     occupation 
      1     -18.6103      2.00000
      2      -4.5682      2.00000
      3      -4.2519      2.00000
      4      -4.2519      2.00000
      5       3.6969      0.00000
      6       8.5323      0.00000
      7       9.5739      0.00000
      8       9.5739      0.00000
      9      11.2251      0.00000
     10      11.2251      0.00000
     11      13.5525      0.00000
     12      14.9251      0.00000
     13      16.8384      0.00000
     14      16.8384      0.00000
     15      19.4226      0.00000
     16      21.3569      0.00000
     17      22.2572      0.00000
     18      22.2572      0.00000
     19      26.3538      0.00000
     20      26.3538      0.00000
     21      28.1141      0.00000
     22      28.1141      0.00000
     23      28.2329      0.00000
     24      30.2437      0.00000
     25      33.2379      0.00000
     26      33.2379      0.00000
     27      33.2492      0.00000
     28      35.5537      0.00000
     29      35.5760      0.00000
     30      35.5760      0.00000
     31      38.6553      0.00000
     32      38.9463      0.00000
     33      38.9463      0.00000
     34      40.6862      0.00000
     35      40.6862      0.00000
     36      40.7673      0.00000
     37      41.1831      0.00000
     38      42.3289      0.00000
     39      42.3289      0.00000
     40      43.4710      0.00000
     41      43.9268      0.00000
     42      43.9268      0.00000
     43      45.6110      0.00000
     44      46.8686      0.00000
     45      46.8686      0.00000
     46      47.5558      0.00000
     47      47.5558      0.00000
     48      47.7603      0.00000
     49      49.4643      0.00000
     50      49.5601      0.00000
     51      50.0497      0.00000
     52      50.0497      0.00000
     53      50.4362      0.00000
     54      53.4476      0.00000
     55      53.4476      0.00000
     56      54.7896      0.00000
     57      54.8514      0.00000
     58      54.8514      0.00000
     59      59.2049      0.00000
     60      59.2049      0.00000
     61      59.8848      0.00000
     62      61.0086      0.00000
     63      62.3292      0.00000
     64      62.3292      0.00000
     65      63.9843      0.00000
     66      68.2639      0.00000
     67      69.8597      0.00000
     68      69.8597      0.00000
     69      70.2199      0.00000
     70      70.2199      0.00000
     71      70.6020      0.00000
     72      72.2518      0.00000
     73      72.4649      0.00000
     74      72.4649      0.00000
     75      73.4720      0.00000
     76      73.4720      0.00000
     77      74.1384      0.00000
     78      74.1384      0.00000
     79      75.0681      0.00000
     80      76.4590      0.00000
     81      78.3549      0.00000
     82      78.3549      0.00000
     83      78.4309      0.00000
     84      78.6443      0.00000
     85      78.6443      0.00000
     86      78.8534      0.00000
     87      80.4544      0.00000
     88      80.4544      0.00000
     89      81.1618      0.00000
     90      82.0523      0.00000
     91      82.0523      0.00000
     92      82.2627      0.00000
     93      82.7248      0.00000
     94      82.7248      0.00000
     95      83.4131      0.00000
     96      83.4131      0.00000
     97      83.5294      0.00000
     98      85.6771      0.00000
     99      87.8673      0.00000
    100      87.8673      0.00000
    101      88.0236      0.00000
    102      88.0872      0.00000
    103      88.6927      0.00000
    104      88.9480      0.00000
    105      88.9480      0.00000
    106      90.1224      0.00000
    107      90.1715      0.00000
    108      90.1715      0.00000
    109      90.4059      0.00000
    110      90.4059      0.00000
    111      92.3109      0.00000
    112      92.3109      0.00000
    113      94.0426      0.00000
    114      94.4737      0.00000
    115      94.4737      0.00000
    116      95.3744      0.00000
    117      95.7252      0.00000
    118      95.9922      0.00000
    119      95.9922      0.00000
    120      96.2758      0.00000
    121      96.2758      0.00000
    122      96.3564      0.00000
    123      99.9317      0.00000
    124     100.4954      0.00000
    125     100.4954      0.00000
    126     101.4763      0.00000
    127     101.4763      0.00000
    128     101.8755      0.00000

 k-point     6 :       0.1667    0.1667    0.0000
  band No.  band energies     occupation 
      1     -18.5993      2.00000
      2      -4.5615      2.00000
      3      -4.3230      2.00000
      4      -4.3230      2.00000
      5       3.9154      0.00000
[...]
  131.325421    0.986584    0.986584    0.986584    0.000000   -0.000000   -0.000000
  132.817755    0.986909    0.986909    0.986909    0.000000   -0.000000   -0.000000
  134.310090    0.987220    0.987220    0.987220    0.000000   -0.000000   -0.000000
  135.802424    0.987519    0.987519    0.987519    0.000000   -0.000000   -0.000000
  137.294758    0.987806    0.987806    0.987806    0.000000   -0.000000   -0.000000
  138.787093    0.988082    0.988082    0.988082    0.000000   -0.000000   -0.000000
  140.279427    0.988348    0.988348    0.988348    0.000000   -0.000000   -0.000000
  141.771761    0.988605    0.988605    0.988605    0.000000   -0.000000   -0.000000
  143.264096    0.988852    0.988852    0.988852    0.000000   -0.000000   -0.000000
  144.756430    0.989092    0.989092    0.989092    0.000000   -0.000000   -0.000000
  146.248764    0.989323    0.989323    0.989323    0.000000   -0.000000   -0.000000
  147.741099    0.989547    0.989547    0.989547    0.000000   -0.000000   -0.000000

  frequency dependent IMAGINARY DIELECTRIC FUNCTION (independent particle, no local field effects) current-current (2nd set in vasprun.xml)
     E(ev)      X         Y         Z        XY        YZ        ZX
  --------------------------------------------------------------------------------------------------------------
    0.000000    0.000000    0.000000    0.000000    0.000000    0.000000    0.000000
    1.492334    0.000000    0.000000    0.000000    0.000000    0.000000    0.000000
    2.984669    0.000000    0.000000    0.000000    0.000000    0.000000    0.000000
    4.477003    0.000000    0.000000    0.000000    0.000000    0.000000    0.000000
    5.969337    0.000000    0.000000    0.000000    0.000000    0.000000    0.000000
    7.461672    0.000000    0.000000    0.000000    0.000000    0.000000    0.000000
    8.954006    1.136839    1.136838    1.136838    0.000000    0.000000    0.000000
   10.446340    4.627127    4.627127    4.627127    0.000000    0.000000    0.000000
   11.938675    3.839946    3.839946    3.839946   -0.000000    0.000000    0.000000
   13.431009    0.000000    0.000000    0.000000    0.000000   -0.000000    0.000000
   14.923343    0.752636    0.752636    0.752636   -0.000000   -0.000000    0.000000
   16.415678    1.719367    1.719367    1.719367   -0.000000   -0.000000    0.000000
   17.908012    0.368531    0.368531    0.368531    0.000000    0.000000    0.000000
   19.400346    1.462281    1.462281    1.462281   -0.000000   -0.000000   -0.000000
   20.892681    0.184653    0.184653    0.184653    0.000000    0.000000   -0.000000
   22.385015    0.625359    0.625359    0.625359    0.000000   -0.000000    0.000000
   23.877349    0.254205    0.254205    0.254205    0.000000   -0.000000    0.000000
   25.369684    0.177514    0.177514    0.177514   -0.000000   -0.000000    0.000000
   26.862018    0.181085    0.181085    0.181085   -0.000000    0.000000   -0.000000
   28.354352    0.060990    0.060990    0.060990   -0.000000    0.000000    0.000000
   29.846687    0.000002    0.000002    0.000002   -0.000000    0.000000   -0.000000
   31.339021    0.026886    0.026886    0.026886   -0.000000   -0.000000   -0.000000
   32.831355    0.066819    0.066819    0.066819    0.000000    0.000000    0.000000
   34.323690    0.091267    0.091267    0.091267   -0.000000    0.000000   -0.000000
   35.816024    0.056803    0.056803    0.056803    0.000000   -0.000000    0.000000
   37.308358    0.023000    0.023000    0.023000   -0.000000   -0.000000   -0.000000
   38.800693    0.012457    0.012457    0.012457    0.000000   -0.000000    0.000000
   40.293027    0.026609    0.026609    0.026609    0.000000    0.000000    0.000000
   41.785361    0.025637    0.025637    0.025637    0.000000    0.000000    0.000000
   43.277696    0.011268    0.011268    0.011268   -0.000000   -0.000000   -0.000000
   44.770030    0.005151    0.005151    0.005151    0.000000    0.000000    0.000000
   46.262364    0.021632    0.021632    0.021632   -0.000000   -0.000000   -0.000000
   47.754699    0.017439    0.017439    0.017439   -0.000000   -0.000000   -0.000000
   49.247033    0.000467    0.000467    0.000467   -0.000000    0.000000   -0.000000
   50.739367    0.002327    0.002327    0.002327    0.000000    0.000000    0.000000
   52.231702    0.008094    0.008094    0.008094   -0.000000    0.000000   -0.000000
   53.724036    0.009064    0.009064    0.009064    0.000000   -0.000000    0.000000
   55.216370    0.002893    0.002893    0.002893   -0.000000    0.000000   -0.000000
   56.708705    0.005698    0.005698    0.005698    0.000000   -0.000000    0.000000
   58.201039    0.002713    0.002713    0.002713    0.000000    0.000000    0.000000
   59.693373    0.004507    0.004507    0.004507   -0.000000   -0.000000   -0.000000
   61.185708    0.001451    0.001451    0.001451    0.000000   -0.000000    0.000000
   62.678042    0.002308    0.002308    0.002308    0.000000    0.000000    0.000000
   64.170376    0.005010    0.005010    0.005010   -0.000000    0.000000    0.000000
   65.662711    0.004485    0.004484    0.004484    0.000000    0.000000    0.000000
   67.155045    0.002256    0.002256    0.002256   -0.000000   -0.000000   -0.000000
   68.647379    0.000106    0.000106    0.000106   -0.000000    0.000000   -0.000000
   70.139714    0.011796    0.011796    0.011796   -0.000000   -0.000000   -0.000000
   71.632048    0.001598    0.001598    0.001598    0.000000   -0.000000   -0.000000
   73.124382    0.002052    0.002052    0.002052    0.000000    0.000000    0.000000
   74.616717    0.002816    0.002816    0.002816    0.000000    0.000000    0.000000
   76.109051    0.000369    0.000369    0.000369   -0.000000    0.000000   -0.000000
   77.601385    0.001372    0.001372    0.001372   -0.000000   -0.000000   -0.000000
   79.093720    0.002337    0.002337    0.002337    0.000000    0.000000    0.000000
   80.586054    0.001072    0.001072    0.001072   -0.000000   -0.000000   -0.000000
   82.078388    0.001620    0.001620    0.001620   -0.000000    0.000000    0.000000
   83.570722    0.001071    0.001071    0.001071    0.000000    0.000000    0.000000
   85.063057    0.000549    0.000549    0.000549    0.000000   -0.000000   -0.000000
   86.555391    0.001601    0.001601    0.001601   -0.000000    0.000000   -0.000000
   88.047725    0.001595    0.001595    0.001595   -0.000000   -0.000000   -0.000000
   89.540060    0.002048    0.002048    0.002048   -0.000000   -0.000000   -0.000000
   91.032394    0.003363    0.003363    0.003363    0.000000    0.000000    0.000000
   92.524728    0.000459    0.000459    0.000459   -0.000000   -0.000000   -0.000000
   94.017063    0.000367    0.000367    0.000367   -0.000000   -0.000000   -0.000000
   95.509397    0.001492    0.001492    0.001492    0.000000    0.000000    0.000000
   97.001731    0.001073    0.001073    0.001073    0.000000   -0.000000    0.000000
   98.494066    0.001183    0.001183    0.001183   -0.000000   -0.000000   -0.000000
   99.986400    0.001218    0.001218    0.001218    0.000000    0.000000    0.000000
  101.478734    0.001917    0.001917    0.001917    0.000000    0.000000    0.000000
  102.971069    0.000225    0.000225    0.000225   -0.000000    0.000000   -0.000000
  104.463403    0.001216    0.001216    0.001216   -0.000000   -0.000000    0.000000
  105.955737    0.000110    0.000110    0.000110    0.000000    0.000000    0.000000
  107.448072    0.000328    0.000328    0.000328    0.000000    0.000000   -0.000000
  108.940406    0.000063    0.000063    0.000063    0.000000   -0.000000    0.000000
  110.432740    0.000631    0.000631    0.000631    0.000000   -0.000000    0.000000
  111.925075    0.000311    0.000311    0.000311    0.000000    0.000000    0.000000
  113.417409    0.000032    0.000032    0.000032   -0.000000   -0.000000   -0.000000
  114.909743    0.000625    0.000625    0.000625    0.000000    0.000000   -0.000000
  116.402078    0.000738    0.000738    0.000738    0.000000    0.000000    0.000000
  117.894412    0.000284    0.000284    0.000283   -0.000000    0.000000   -0.000000
  119.386746    0.001009    0.001009    0.001009   -0.000000    0.000000   -0.000000
  120.879081    0.000947    0.000947    0.000947    0.000000    0.000000   -0.000000
  122.371415    0.000000    0.000000    0.000000    0.000000    0.000000   -0.000000
  123.863749    0.000000    0.000000    0.000000    0.000000   -0.000000   -0.000000
  125.356084    0.000000    0.000000    0.000000    0.000000    0.000000    0.000000
  126.848418    0.000000    0.000000    0.000000    0.000000    0.000000    0.000000
  128.340752    0.000000    0.000000    0.000000    0.000000    0.000000    0.000000
  129.833087    0.000000    0.000000    0.000000    0.000000    0.000000    0.000000
  131.325421    0.000000    0.000000    0.000000    0.000000    0.000000    0.000000
  132.817755    0.000000    0.000000    0.000000    0.000000    0.000000    0.000000
  134.310090    0.000000    0.000000    0.000000    0.000000    0.000000    0.000000
  135.802424    0.000000    0.000000    0.000000    0.000000    0.000000    0.000000
  137.294758    0.000000    0.000000    0.000000    0.000000    0.000000    0.000000
  138.787093    0.000000    0.000000    0.000000    0.000000    0.000000    0.000000
  140.279427    0.000000    0.000000    0.000000    0.000000    0.000000    0.000000
  141.771761    0.000000    0.000000    0.000000    0.000000    0.000000    0.000000
  143.264096    0.000000    0.000000    0.000000    0.000000    0.000000    0.000000
  144.756430    0.000000    0.000000    0.000000    0.000000    0.000000    0.000000
  146.248764    0.000000    0.000000    0.000000    0.000000    0.000000    0.000000
  147.741099    0.000000    0.000000    0.000000    0.000000    0.000000    0.000000

  frequency dependent      REAL DIELECTRIC FUNCTION (independent particle, no local field effects) current-current (2nd set in vasprun.xml)
     E(ev)        X           Y           Z          XY          YZ          ZX
  --------------------------------------------------------------------------------------------------------------
    0.000000    2.074321    2.074321    2.074321    0.000000    0.000000    0.000000
    1.492334    2.090250    2.090250    2.090250    0.000000    0.000000    0.000000
    2.984669    2.143649    2.143649    2.143648    0.000000    0.000000    0.000000
    4.477003    2.249737    2.249737    2.249737    0.000000    0.000000    0.000000
    5.969337    2.457210    2.457210    2.457210    0.000000    0.000000    0.000000
    7.461672    2.913096    2.913096    2.913096    0.000000    0.000000    0.000000
    8.954006    3.727175    3.727175    3.727175    0.000000    0.000000    0.000000
   10.446340    1.683698    1.683698    1.683698   -0.000000   -0.000000   -0.000000
   11.938675    2.219624    2.219624    2.219624   -0.000000    0.000000   -0.000000
   13.431009    0.581153    0.581153    0.581153    0.000000    0.000000    0.000000
   14.923343   -0.582572   -0.582572   -0.582572    0.000000    0.000000    0.000000
   16.415678    0.154193    0.154193    0.154193   -0.000000   -0.000000   -0.000000
   17.908012    0.451163    0.451163    0.451163   -0.000000   -0.000000   -0.000000
   19.400346   -0.482842   -0.482842   -0.482842    0.000000    0.000000    0.000000
   20.892681    0.446419    0.446419    0.446419    0.000000    0.000000    0.000000
   22.385015    0.190259    0.190259    0.190259   -0.000000   -0.000000   -0.000000
   23.877349    0.370443    0.370443    0.370443    0.000000   -0.000000    0.000000
   25.369684    0.611097    0.611097    0.611097    0.000000    0.000000    0.000000
   26.862018    0.602052    0.602052    0.602052    0.000000    0.000000    0.000000
   28.354352    0.602528    0.602528    0.602528    0.000000   -0.000000   -0.000000
   29.846687    0.649545    0.649545    0.649545    0.000000   -0.000000    0.000000
   31.339021    0.722981    0.722981    0.722981    0.000000   -0.000000   -0.000000
   32.831355    0.708588    0.708588    0.708588    0.000000   -0.000000    0.000000
   34.323690    0.766099    0.766099    0.766099    0.000000   -0.000000    0.000000
   35.816024    0.785852    0.785852    0.785852    0.000000   -0.000000    0.000000
   37.308358    0.796714    0.796714    0.796714   -0.000000    0.000000   -0.000000
   38.800693    0.832392    0.832392    0.832392    0.000000    0.000000    0.000000
   40.293027    0.839622    0.839622    0.839622   -0.000000   -0.000000   -0.000000
   41.785361    0.846931    0.846931    0.846931    0.000000   -0.000000   -0.000000
   43.277696    0.857777    0.857777    0.857777    0.000000   -0.000000   -0.000000
   44.770030    0.883791    0.883791    0.883791   -0.000000    0.000000   -0.000000
   46.262364    0.880910    0.880910    0.880910    0.000000    0.000000    0.000000
   47.754699    0.889368    0.889368    0.889368   -0.000000   -0.000000   -0.000000
   49.247033    0.894096    0.894096    0.894096    0.000000    0.000000   -0.000000
   50.739367    0.902843    0.902843    0.902843    0.000000    0.000000   -0.000000
   52.231702    0.909414    0.909414    0.909414   -0.000000   -0.000000   -0.000000
   53.724036    0.916645    0.916645    0.916645    0.000000   -0.000000    0.000000
   55.216370    0.919521    0.919521    0.919521    0.000000   -0.000000   -0.000000
   56.708705    0.924090    0.924090    0.924090    0.000000   -0.000000   -0.000000
   58.201039    0.931628    0.931628    0.931628   -0.000000   -0.000000   -0.000000
   59.693373    0.933131    0.933131    0.933131   -0.000000   -0.000000   -0.000000
   61.185708    0.935606    0.935606    0.935606   -0.000000   -0.000000   -0.000000
   62.678042    0.940006    0.940006    0.940006    0.000000    0.000000    0.000000
   64.170376    0.942071    0.942071    0.942071    0.000000   -0.000000   -0.000000
   65.662711    0.944259    0.944259    0.944259   -0.000000   -0.000000   -0.000000
   67.155045    0.947627    0.947627    0.947627   -0.000000   -0.000000   -0.000000
   68.647379    0.951713    0.951713    0.951713    0.000000   -0.000000   -0.000000
   70.139714    0.952602    0.952602    0.952602   -0.000000    0.000000   -0.000000
   71.632048    0.955007    0.955007    0.955007   -0.000000   -0.000000   -0.000000
   73.124382    0.956730    0.956730    0.956730    0.000000   -0.000000    0.000000
   74.616717    0.957442    0.957442    0.957442    0.000000   -0.000000   -0.000000
   76.109051    0.960667    0.960667    0.960667   -0.000000   -0.000000   -0.000000
   77.601385    0.961994    0.961994    0.961994    0.000000    0.000000   -0.000000
   79.093720    0.963761    0.963761    0.963761    0.000000    0.000000   -0.000000
   80.586054    0.963561    0.963561    0.963561    0.000000    0.000000    0.000000
   82.078388    0.965130    0.965130    0.965130   -0.000000   -0.000000   -0.000000
   83.570722    0.966763    0.966763    0.966763   -0.000000   -0.000000   -0.000000
   85.063057    0.968179    0.968179    0.968179    0.000000   -0.000000   -0.000000
   86.555391    0.969406    0.969406    0.969406   -0.000000   -0.000000   -0.000000
   88.047725    0.971168    0.971168    0.971168    0.000000   -0.000000   -0.000000
   89.540060    0.970314    0.970314    0.970314   -0.000000   -0.000000   -0.000000
   91.032394    0.971828    0.971828    0.971828   -0.000000    0.000000   -0.000000
   92.524728    0.972507    0.972507    0.972507    0.000000    0.000000   -0.000000
   94.017063    0.974049    0.974049    0.974049   -0.000000   -0.000000   -0.000000
   95.509397    0.975179    0.975179    0.975179   -0.000000   -0.000000   -0.000000
   97.001731    0.975841    0.975841    0.975841   -0.000000   -0.000000   -0.000000
   98.494066    0.976852    0.976852    0.976852   -0.000000   -0.000000   -0.000000
   99.986400    0.976367    0.976367    0.976367   -0.000000    0.000000   -0.000000
  101.478734    0.977315    0.977315    0.977315   -0.000000   -0.000000   -0.000000
  102.971069    0.978055    0.978055    0.978055   -0.000000   -0.000000   -0.000000
  104.463403    0.978254    0.978254    0.978254   -0.000000    0.000000   -0.000000
  105.955737    0.979133    0.979133    0.979133    0.000000    0.000000   -0.000000
  107.448072    0.980007    0.980007    0.980007    0.000000    0.000000    0.000000
  108.940406    0.980276    0.980276    0.980276    0.000000   -0.000000   -0.000000
  110.432740    0.980343    0.980343    0.980343    0.000000   -0.000000   -0.000000
  111.925075    0.980952    0.980952    0.980952   -0.000000   -0.000000   -0.000000
  113.417409    0.981388    0.981388    0.981388    0.000000    0.000000    0.000000
  114.909743    0.982376    0.982376    0.982376   -0.000000    0.000000   -0.000000
  116.402078    0.983142    0.983142    0.983142    0.000000   -0.000000    0.000000
  117.894412    0.982814    0.982814    0.982814   -0.000000    0.000000   -0.000000
  119.386746    0.983626    0.983626    0.983626    0.000000   -0.000000    0.000000
  120.879081    0.983853    0.983853    0.983853    0.000000   -0.000000   -0.000000
  122.371415    0.984270    0.984270    0.984270   -0.000000   -0.000000   -0.000000
  123.863749    0.984488    0.984488    0.984488    0.000000    0.000000   -0.000000
  125.356084    0.985079    0.985079    0.985079   -0.000000   -0.000000   -0.000000
  126.848418    0.985499    0.985499    0.985499   -0.000000   -0.000000   -0.000000
  128.340752    0.985882    0.985882    0.985882   -0.000000   -0.000000   -0.000000
  129.833087    0.986241    0.986241    0.986241   -0.000000   -0.000000   -0.000000
  131.325421    0.986582    0.986582    0.986582   -0.000000   -0.000000   -0.000000
  132.817755    0.986907    0.986907    0.986907   -0.000000   -0.000000   -0.000000
  134.310090    0.987218    0.987218    0.987218   -0.000000   -0.000000   -0.000000
  135.802424    0.987517    0.987517    0.987517   -0.000000   -0.000000   -0.000000
  137.294758    0.987804    0.987804    0.987804   -0.000000   -0.000000   -0.000000
  138.787093    0.988080    0.988080    0.988080   -0.000000   -0.000000   -0.000000
  140.279427    0.988346    0.988346    0.988346   -0.000000   -0.000000   -0.000000
  141.771761    0.988603    0.988603    0.988603   -0.000000   -0.000000   -0.000000
  143.264096    0.988851    0.988851    0.988851   -0.000000   -0.000000   -0.000000
  144.756430    0.989090    0.989090    0.989090   -0.000000   -0.000000   -0.000000
  146.248764    0.989321    0.989321    0.989321   -0.000000   -0.000000   -0.000000
  147.741099    0.989545    0.989545    0.989545   -0.000000   -0.000000   -0.000000
 
 The outermost node in the dielectric function lies at epsilon=  20.4


--------------------------------------------------------------------------------------------------------


    OPTICS:  cpu time    0.3151: real time    0.3168
    4ORBIT:  cpu time    0.0000: real time    0.0000

 total amount of memory used by VASP MPI-rank0    45746. kBytes
=======================================================================

   base      :      30000. kBytes
   nonl-proj :       1356. kBytes
   fftplans  :       2069. kBytes
   grid      :        608. kBytes
   one-center:         15. kBytes
   wavefun   :      11698. kBytes
 
  
  
 General timing and accounting informations for this job:
 ========================================================
  
                  Total CPU time used (sec):       91.121
                            User time (sec):       90.086
                          System time (sec):        1.035
                         Elapsed time (sec):       91.628
  
                   Maximum memory used (kb):      125800.
                   Average memory used (kb):           0.
  
                          Minor page faults:       186681
                          Major page faults:            0
                 Voluntary context switches:         1659
