   1   1   0   0
  0.1628488E+02  0.2845115E-09  0.2845115E-09  0.2845115E-09  0.1000000E-15
  1.000000000000000E-004
  CAR 
 Og_FCC                                  
     28.32620087    -18.67360561  301    -15.34445265      1.00000000
    -18.674  0.0000E+00  0.0000E+00
    -18.517  0.0000E+00  0.0000E+00
    -18.360  0.0000E+00  0.0000E+00
    -18.204  0.0000E+00  0.0000E+00
    -18.047  0.0000E+00  0.0000E+00
    -17.890  0.0000E+00  0.0000E+00
    -17.734  0.0000E+00  0.0000E+00
    -17.577  0.0000E+00  0.0000E+00
    -17.420  0.0000E+00  0.0000E+00
    -17.264  0.0000E+00  0.0000E+00
    -17.107  0.0000E+00  0.0000E+00
    -16.950  0.0000E+00  0.0000E+00
    -16.794  0.0000E+00  0.0000E+00
    -16.637  0.0000E+00  0.0000E+00
    -16.480  0.0000E+00  0.9259E-02
    -16.324  0.4728E+00  0.8333E-01
    -16.167  0.0000E+00  0.1389E+00
    -16.010  0.0000E+00  0.2500E+00
    -15.854  0.0000E+00  0.5463E+00
    -15.697  0.0000E+00  0.6019E+00
    -15.540  0.0000E+00  0.1306E+01
    -15.384  0.0000E+00  0.2000E+01
    -15.227  0.0000E+00  0.2000E+01
    -15.070  0.0000E+00  0.2000E+01
    -14.914  0.0000E+00  0.2000E+01
    -14.757  0.0000E+00  0.2000E+01
    -14.600  0.0000E+00  0.2000E+01
    -14.444  0.0000E+00  0.2000E+01
    -14.287  0.0000E+00  0.2000E+01
    -14.130  0.0000E+00  0.2000E+01
    -13.974  0.0000E+00  0.2000E+01
    -13.817  0.0000E+00  0.2000E+01
    -13.660  0.0000E+00  0.2000E+01
    -13.504  0.0000E+00  0.2000E+01
    -13.347  0.0000E+00  0.2000E+01
    -13.190  0.0000E+00  0.2000E+01
    -13.034  0.0000E+00  0.2000E+01
    -12.877  0.0000E+00  0.2000E+01
    -12.720  0.0000E+00  0.2000E+01
    -12.564  0.0000E+00  0.2000E+01
    -12.407  0.0000E+00  0.2000E+01
    -12.250  0.0000E+00  0.2000E+01
    -12.094  0.0000E+00  0.2000E+01
    -11.937  0.0000E+00  0.2000E+01
    -11.780  0.0000E+00  0.2000E+01
    -11.624  0.0000E+00  0.2000E+01
    -11.467  0.0000E+00  0.2000E+01
    -11.310  0.0000E+00  0.2000E+01
    -11.154  0.0000E+00  0.2000E+01
    -10.997  0.0000E+00  0.2000E+01
    -10.840  0.0000E+00  0.2000E+01
    -10.684  0.0000E+00  0.2000E+01
    -10.527  0.0000E+00  0.2000E+01
    -10.370  0.0000E+00  0.2000E+01
    -10.214  0.0000E+00  0.2000E+01
    -10.057  0.0000E+00  0.2000E+01
     -9.900  0.0000E+00  0.2000E+01
     -9.744  0.0000E+00  0.2000E+01
     -9.587  0.0000E+00  0.2000E+01
     -9.430  0.0000E+00  0.2000E+01
     -9.274  0.0000E+00  0.2000E+01
     -9.117  0.0000E+00  0.2000E+01
     -8.960  0.0000E+00  0.2000E+01
     -8.804  0.0000E+00  0.2000E+01
     -8.647  0.0000E+00  0.2000E+01
     -8.490  0.0000E+00  0.2000E+01
     -8.334  0.0000E+00  0.2000E+01
     -8.177  0.0000E+00  0.2000E+01
     -8.020  0.0000E+00  0.2000E+01
     -7.864  0.0000E+00  0.2000E+01
     -7.707  0.0000E+00  0.2000E+01
     -7.550  0.0000E+00  0.2000E+01
     -7.394  0.0000E+00  0.2000E+01
     -7.237  0.0000E+00  0.2000E+01
     -7.080  0.0000E+00  0.2000E+01
     -6.924  0.0000E+00  0.2000E+01
     -6.767  0.0000E+00  0.2000E+01
     -6.610  0.0000E+00  0.2000E+01
     -6.454  0.0000E+00  0.2000E+01
     -6.297  0.0000E+00  0.2000E+01
     -6.140  0.0000E+00  0.2000E+01
     -5.984  0.0000E+00  0.2000E+01
     -5.827  0.0000E+00  0.2000E+01
     -5.670  0.0000E+00  0.2000E+01
     -5.514  0.0000E+00  0.2000E+01
     -5.357  0.0000E+00  0.2000E+01
     -5.200  0.0000E+00  0.2000E+01
     -5.044  0.0000E+00  0.2000E+01
     -4.887  0.0000E+00  0.2000E+01
     -4.730  0.0000E+00  0.2000E+01
     -4.574  0.0000E+00  0.2000E+01
     -4.417  0.0000E+00  0.2000E+01
     -4.260  0.0000E+00  0.2000E+01
     -4.104  0.0000E+00  0.2000E+01
     -3.947  0.0000E+00  0.2000E+01
     -3.790  0.0000E+00  0.2000E+01
     -3.634  0.0000E+00  0.2000E+01
     -3.477  0.0000E+00  0.2000E+01
     -3.320  0.0000E+00  0.2000E+01
     -3.164  0.0000E+00  0.2000E+01
     -3.007  0.0000E+00  0.2000E+01
     -2.850  0.0000E+00  0.2000E+01
     -2.694  0.0000E+00  0.2000E+01
     -2.537  0.0000E+00  0.2000E+01
     -2.380  0.0000E+00  0.2000E+01
     -2.224  0.0000E+00  0.2000E+01
     -2.067  0.0000E+00  0.2000E+01
     -1.910  0.0000E+00  0.2000E+01
     -1.754  0.0000E+00  0.2000E+01
     -1.597  0.0000E+00  0.2000E+01
     -1.440  0.0000E+00  0.2000E+01
     -1.284  0.0000E+00  0.2000E+01
     -1.127  0.0000E+00  0.2000E+01
     -0.970  0.0000E+00  0.2000E+01
     -0.814  0.0000E+00  0.2000E+01
     -0.657  0.0000E+00  0.2000E+01
     -0.500  0.0000E+00  0.2000E+01
     -0.344  0.0000E+00  0.2000E+01
     -0.187  0.0000E+00  0.2000E+01
     -0.030  0.0000E+00  0.2000E+01
      0.126  0.0000E+00  0.2000E+01
      0.283  0.0000E+00  0.2000E+01
      0.440  0.0000E+00  0.2000E+01
      0.596  0.0000E+00  0.2000E+01
      0.753  0.0000E+00  0.2000E+01
      0.910  0.0000E+00  0.2000E+01
      1.066  0.0000E+00  0.2000E+01
      1.223  0.0000E+00  0.2000E+01
      1.380  0.0000E+00  0.2000E+01
      1.536  0.0000E+00  0.2000E+01
      1.693  0.0000E+00  0.2000E+01
      1.850  0.0000E+00  0.2000E+01
      2.006  0.0000E+00  0.2000E+01
      2.163  0.0000E+00  0.2000E+01
      2.320  0.0000E+00  0.2000E+01
      2.476  0.0000E+00  0.2000E+01
      2.633  0.0000E+00  0.2000E+01
      2.790  0.0000E+00  0.2000E+01
      2.946  0.0000E+00  0.2000E+01
      3.103  0.0000E+00  0.2000E+01
      3.260  0.0000E+00  0.2000E+01
      3.416  0.0000E+00  0.2000E+01
      3.573  0.0000E+00  0.2000E+01
      3.730  0.0000E+00  0.2000E+01
      3.886  0.0000E+00  0.2000E+01
      4.043  0.0000E+00  0.2000E+01
      4.200  0.0000E+00  0.2037E+01
      4.356  0.0000E+00  0.2111E+01
      4.513  0.0000E+00  0.2222E+01
      4.670  0.0000E+00  0.2574E+01
      4.826  0.0000E+00  0.3028E+01
      4.983  0.0000E+00  0.3028E+01
      5.140  0.0000E+00  0.3083E+01
      5.296  0.0000E+00  0.3306E+01
      5.453  0.0000E+00  0.3306E+01
      5.610  0.0000E+00  0.3306E+01
      5.766  0.0000E+00  0.3306E+01
      5.923  0.0000E+00  0.3528E+01
      6.080  0.0000E+00  0.3556E+01
      6.236  0.0000E+00  0.3778E+01
      6.393  0.0000E+00  0.3778E+01
      6.550  0.0000E+00  0.3889E+01
      6.706  0.0000E+00  0.3889E+01
      6.863  0.0000E+00  0.3889E+01
      7.020  0.0000E+00  0.3889E+01
      7.176  0.0000E+00  0.4000E+01
      7.333  0.0000E+00  0.4000E+01
      7.490  0.0000E+00  0.4000E+01
      7.646  0.0000E+00  0.4000E+01
      7.803  0.0000E+00  0.4000E+01
      7.960  0.0000E+00  0.4000E+01
      8.116  0.0000E+00  0.4000E+01
      8.273  0.0000E+00  0.4111E+01
      8.430  0.0000E+00  0.4111E+01
      8.586  0.0000E+00  0.4111E+01
      8.743  0.0000E+00  0.4111E+01
      8.900  0.0000E+00  0.4111E+01
      9.056  0.0000E+00  0.4111E+01
      9.213  0.0000E+00  0.4333E+01
      9.370  0.0000E+00  0.4333E+01
      9.526  0.0000E+00  0.4333E+01
      9.683  0.0000E+00  0.4444E+01
      9.840  0.0000E+00  0.4444E+01
      9.996  0.0000E+00  0.4444E+01
     10.153  0.0000E+00  0.4444E+01
     10.310  0.0000E+00  0.4556E+01
     10.466  0.0000E+00  0.4778E+01
     10.623  0.0000E+00  0.4778E+01
     10.780  0.0000E+00  0.5000E+01
     10.936  0.0000E+00  0.5000E+01
     11.093  0.0000E+00  0.5222E+01
     11.250  0.0000E+00  0.5250E+01
     11.406  0.0000E+00  0.5472E+01
     11.563  0.0000E+00  0.5509E+01
     11.720  0.0000E+00  0.5509E+01
     11.876  0.0000E+00  0.5509E+01
     12.033  0.0000E+00  0.5509E+01
     12.190  0.0000E+00  0.5509E+01
     12.346  0.0000E+00  0.5509E+01
     12.503  0.0000E+00  0.5731E+01
     12.660  0.0000E+00  0.5731E+01
     12.816  0.0000E+00  0.5731E+01
     12.973  0.0000E+00  0.5731E+01
     13.130  0.0000E+00  0.5806E+01
     13.286  0.0000E+00  0.5806E+01
     13.443  0.0000E+00  0.5806E+01
     13.600  0.0000E+00  0.5806E+01
     13.756  0.1043E-12  0.5806E+01
     13.913  0.0000E+00  0.6250E+01
     14.070  0.0000E+00  0.6250E+01
     14.226  0.0000E+00  0.6250E+01
     14.383  0.7092E+00  0.6583E+01
     14.540  0.0000E+00  0.6639E+01
     14.696  0.0000E+00  0.6639E+01
     14.853  0.0000E+00  0.6750E+01
     15.010  0.0000E+00  0.6750E+01
     15.166  0.0000E+00  0.7028E+01
     15.323  0.0000E+00  0.7028E+01
     15.480  0.0000E+00  0.7139E+01
     15.636  0.0000E+00  0.7139E+01
     15.793  0.0000E+00  0.7139E+01
     15.950  0.0000E+00  0.7139E+01
     16.106  0.0000E+00  0.7139E+01
     16.263  0.0000E+00  0.7139E+01
     16.420  0.0000E+00  0.7250E+01
     16.576  0.0000E+00  0.7250E+01
     16.733  0.0000E+00  0.7250E+01
     16.890  0.0000E+00  0.7250E+01
     17.046  0.0000E+00  0.7278E+01
     17.203  0.0000E+00  0.7722E+01
     17.360  0.0000E+00  0.7944E+01
     17.516  0.0000E+00  0.8167E+01
     17.673  0.0000E+00  0.8241E+01
     17.830  0.0000E+00  0.8241E+01
     17.986  0.0000E+00  0.8241E+01
     18.143  0.0000E+00  0.8296E+01
     18.300  0.0000E+00  0.8519E+01
     18.456  0.0000E+00  0.8630E+01
     18.613  0.0000E+00  0.8630E+01
     18.770  0.0000E+00  0.8630E+01
     18.926  0.0000E+00  0.8852E+01
     19.083  0.0000E+00  0.8852E+01
     19.240  0.0000E+00  0.9074E+01
     19.396  0.0000E+00  0.9296E+01
     19.553  0.0000E+00  0.9519E+01
     19.710  0.0000E+00  0.9593E+01
     19.866  0.0000E+00  0.9741E+01
     20.023  0.0000E+00  0.9741E+01
     20.180  0.0000E+00  0.9741E+01
     20.336  0.0000E+00  0.9741E+01
     20.493  0.0000E+00  0.9741E+01
     20.650  0.0000E+00  0.9741E+01
     20.806  0.0000E+00  0.9889E+01
     20.963  0.0000E+00  0.9889E+01
     21.120  0.0000E+00  0.9889E+01
     21.276  0.0000E+00  0.1006E+02
     21.433  0.1371E+01  0.1027E+02
     21.590  0.0000E+00  0.1028E+02
     21.746  0.0000E+00  0.1031E+02
     21.903  0.0000E+00  0.1031E+02
     22.060  0.0000E+00  0.1031E+02
     22.216  0.0000E+00  0.1031E+02
     22.373  0.0000E+00  0.1031E+02
     22.530  0.0000E+00  0.1031E+02
     22.686  0.0000E+00  0.1031E+02
     22.843  0.0000E+00  0.1081E+02
     23.000  0.0000E+00  0.1081E+02
     23.156  0.0000E+00  0.1103E+02
     23.313  0.0000E+00  0.1136E+02
     23.470  0.0000E+00  0.1136E+02
     23.626  0.0000E+00  0.1136E+02
     23.783  0.0000E+00  0.1136E+02
     23.940  0.0000E+00  0.1136E+02
     24.096  0.0000E+00  0.1162E+02
     24.253  0.0000E+00  0.1162E+02
     24.410  0.0000E+00  0.1162E+02
     24.566  0.0000E+00  0.1162E+02
     24.723  0.0000E+00  0.1173E+02
     24.880  0.0000E+00  0.1184E+02
     25.036  0.0000E+00  0.1187E+02
     25.193  0.0000E+00  0.1188E+02
     25.350  0.0000E+00  0.1192E+02
     25.506  0.0000E+00  0.1192E+02
     25.663  0.0000E+00  0.1192E+02
     25.820  0.0000E+00  0.1199E+02
     25.976  0.0000E+00  0.1199E+02
     26.133  0.0000E+00  0.1199E+02
     26.290  0.0000E+00  0.1200E+02
     26.446  0.0000E+00  0.1200E+02
     26.603  0.0000E+00  0.1200E+02
     26.760  0.0000E+00  0.1200E+02
     26.916  0.0000E+00  0.1200E+02
     27.073  0.0000E+00  0.1200E+02
     27.230  0.0000E+00  0.1200E+02
     27.386  0.0000E+00  0.1200E+02
     27.543  0.0000E+00  0.1200E+02
     27.700  0.0000E+00  0.1200E+02
     27.856  0.0000E+00  0.1200E+02
     28.013  0.0000E+00  0.1200E+02
     28.170  0.0000E+00  0.1200E+02
     28.326  0.0000E+00  0.1200E+02
