    1    1    1    1
  0.1628488E+02  0.2845115E-09  0.2845115E-09  0.2845115E-09  0.1000000E-15
  1.000000000000000E-004
  CAR 
 Og_FCC                                  
      2    216     12
 
  0.0000000E+00  0.0000000E+00  0.0000000E+00  0.4629630E-02
    1      -16.537251   1.000000
    2      -16.537249   1.000000
    3        4.790967   0.000000
    4        4.790984   0.000000
    5       21.715269   0.000000
    6       21.715281   0.000000
    7       21.715650   0.000000
    8       21.715659   0.000000
    9       21.715982   0.000000
   10       21.716014   0.000000
   11       26.189837   0.000000
   12       26.189846   0.000000
 
  0.1666667E+00 -0.1387779E-16  0.1387779E-16  0.4629630E-02
    1      -16.329580   1.000000
    2      -16.329578   1.000000
    3        4.602064   0.000000
    4        4.602081   0.000000
    5       17.531446   0.000000
    6       17.531463   0.000000
    7       20.719398   0.000000
    8       20.719415   0.000000
    9       20.719690   0.000000
   10       20.719720   0.000000
   11       25.703385   0.000000
   12       25.703394   0.000000
 
  0.3333333E+00 -0.5551115E-16  0.4163336E-16  0.4629630E-02
    1      -15.884862   1.000000
    2      -15.884860   1.000000
    3        4.257987   0.000000
    4        4.258004   0.000000
    5       13.104877   0.000000
    6       13.104893   0.000000
    7       19.826608   0.000000
    8       19.826617   0.000000
    9       19.826859   0.000000
   10       19.826872   0.000000
   11       25.003595   0.000000
   12       25.003666   0.000000
 
  0.5000000E+00 -0.5551115E-16  0.0000000E+00  0.4629630E-02
    1      -15.636387   1.000000
    2      -15.636384   1.000000
    3        4.098521   0.000000
    4        4.098538   0.000000
    5       11.506197   0.000000
    6       11.506213   0.000000
    7       19.637485   0.000000
    8       19.637500   0.000000
    9       19.637832   0.000000
   10       19.637841   0.000000
   11       23.975168   0.000000
   12       23.975414   0.000000
 
 -0.3333333E+00  0.5551115E-16 -0.4163336E-16  0.4629630E-02
    1      -15.884862   1.000000
    2      -15.884860   1.000000
    3        4.257987   0.000000
    4        4.258004   0.000000
    5       13.104877   0.000000
    6       13.104893   0.000000
    7       19.826607   0.000000
    8       19.826616   0.000000
    9       19.826860   0.000000
   10       19.826873   0.000000
   11       25.261870   0.000000
   12       25.262966   0.000000
 
 -0.1666667E+00  0.1387779E-16 -0.1387779E-16  0.4629630E-02
    1      -16.329580   1.000000
    2      -16.329578   1.000000
    3        4.602064   0.000000
    4        4.602081   0.000000
    5       17.531446   0.000000
    6       17.531463   0.000000
    7       20.719397   0.000000
    8       20.719413   0.000000
    9       20.719691   0.000000
   10       20.719721   0.000000
   11       25.703385   0.000000
   12       25.703394   0.000000
 
  0.0000000E+00  0.1666667E+00 -0.6938894E-17  0.4629630E-02
    1      -16.329580   1.000000
    2      -16.329578   1.000000
    3        4.602065   0.000000
    4        4.602081   0.000000
    5       17.531445   0.000000
    6       17.531464   0.000000
    7       20.719393   0.000000
    8       20.719417   0.000000
    9       20.719696   0.000000
   10       20.719717   0.000000
   11       25.703383   0.000000
   12       25.703396   0.000000
 
  0.1666667E+00  0.1666667E+00  0.1387779E-16  0.4629630E-02
    1      -16.265197   1.000000
    2      -16.265195   1.000000
    3        4.618572   0.000000
    4        4.618589   0.000000
    5       18.378391   0.000000
    6       18.378418   0.000000
    7       18.378678   0.000000
    8       18.378710   0.000000
    9       21.161955   0.000000
   10       21.161976   0.000000
   11       22.693047   0.000000
   12       22.693065   0.000000
 
  0.3333333E+00  0.1666667E+00  0.2775558E-16  0.4629630E-02
    1      -15.909344   1.000000
    2      -15.909342   1.000000
    3        4.577937   0.000000
    4        4.577953   0.000000
    5       13.867307   0.000000
    6       13.867324   0.000000
    7       17.141325   0.000000
    8       17.141350   0.000000
    9       19.274632   0.000000
   10       19.274662   0.000000
   11       22.807291   0.000000
   12       22.807308   0.000000
 
  0.5000000E+00  0.1666667E+00  0.0000000E+00  0.4629630E-02
    1      -15.599424   1.000000
    2      -15.599422   1.000000
    3        4.759339   0.000000
    4        4.759355   0.000000
    5       10.641281   0.000000
    6       10.641296   0.000000
    7       17.338422   0.000000
    8       17.338445   0.000000
    9       17.387059   0.000000
   10       17.387091   0.000000
   11       22.833875   0.000000
   12       22.833895   0.000000
 
 -0.3333333E+00  0.1666667E+00 -0.4163336E-16  0.4629630E-02
    1      -15.675128   1.000000
    2      -15.675125   1.000000
    3        4.687034   0.000000
    4        4.687051   0.000000
    5       10.981770   0.000000
    6       10.981783   0.000000
    7       17.156461   0.000000
    8       17.156494   0.000000
    9       18.917811   0.000000
   10       18.917835   0.000000
   11       23.074463   0.000000
   12       23.074490   0.000000
 
 -0.1666667E+00  0.1666667E+00 -0.8680612E-17  0.4629630E-02
    1      -16.054993   1.000000
    2      -16.054991   1.000000
    3        4.504363   0.000000
    4        4.504379   0.000000
    5       14.376365   0.000000
    6       14.376378   0.000000
    7       18.192611   0.000000
    8       18.192641   0.000000
    9       21.245311   0.000000
   10       21.245336   0.000000
   11       24.784379   0.000000
   12       24.784417   0.000000
 
  0.0000000E+00  0.3333333E+00  0.0000000E+00  0.4629630E-02
    1      -15.884862   1.000000
    2      -15.884860   1.000000
    3        4.257988   0.000000
    4        4.258003   0.000000
    5       13.104876   0.000000
    6       13.104895   0.000000
    7       19.826602   0.000000
    8       19.826622   0.000000
    9       19.826856   0.000000
   10       19.826876   0.000000
   11       25.155960   0.000000
   12       25.261858   0.000000
 
  0.1666667E+00  0.3333333E+00  0.0000000E+00  0.4629630E-02
    1      -15.909344   1.000000
    2      -15.909342   1.000000
    3        4.577938   0.000000
    4        4.577953   0.000000
    5       13.867307   0.000000
    6       13.867324   0.000000
    7       17.141325   0.000000
    8       17.141350   0.000000
    9       19.274632   0.000000
   10       19.274662   0.000000
   11       22.807291   0.000000
   12       22.807308   0.000000
 
  0.3333333E+00  0.3333333E+00  0.5551115E-16  0.4629630E-02
    1      -15.709568   1.000000
    2      -15.709566   1.000000
    3        4.996864   0.000000
    4        4.996878   0.000000
    5       15.082213   0.000000
    6       15.082243   0.000000
    7       15.405767   0.000000
    8       15.405793   0.000000
    9       15.406036   0.000000
   10       15.406067   0.000000
   11       17.993617   0.000000
   12       17.993638   0.000000
 
  0.5000000E+00  0.3333333E+00  0.5551115E-16  0.4629630E-02
    1      -15.487825   1.000000
    2      -15.487823   1.000000
    3        5.881275   0.000000
    4        5.881288   0.000000
    5       10.364787   0.000000
    6       10.364804   0.000000
    7       14.270407   0.000000
    8       14.270441   0.000000
    9       15.145818   0.000000
   10       15.145842   0.000000
   11       21.431740   0.000000
   12       21.431756   0.000000
 
 -0.3333333E+00  0.3333333E+00 -0.1736122E-16  0.4629630E-02
    1      -15.454537   1.000000
    2      -15.454534   1.000000
    3        6.480472   0.000000
    4        6.480489   0.000000
    5        8.165514   0.000000
    6        8.165525   0.000000
    7       14.780134   0.000000
    8       14.780172   0.000000
    9       16.387660   0.000000
   10       16.387684   0.000000
   11       24.689378   0.000000
   12       24.689401   0.000000
 
 -0.1666667E+00  0.3333333E+00  0.2081668E-16  0.4629630E-02
    1      -15.675128   1.000000
    2      -15.675125   1.000000
    3        4.687034   0.000000
    4        4.687050   0.000000
    5       10.981770   0.000000
    6       10.981784   0.000000
    7       17.156462   0.000000
    8       17.156493   0.000000
    9       18.917811   0.000000
   10       18.917835   0.000000
   11       23.074463   0.000000
   12       23.074490   0.000000
 
  0.0000000E+00  0.5000000E+00  0.0000000E+00  0.4629630E-02
    1      -15.636387   1.000000
    2      -15.636384   1.000000
    3        4.098522   0.000000
    4        4.098537   0.000000
    5       11.506195   0.000000
    6       11.506214   0.000000
    7       19.637483   0.000000
    8       19.637502   0.000000
    9       19.637827   0.000000
   10       19.637845   0.000000
   11       23.975221   0.000000
   12       23.975486   0.000000
 
  0.1666667E+00  0.5000000E+00  0.2775558E-16  0.4629630E-02
    1      -15.599424   1.000000
    2      -15.599422   1.000000
    3        4.759339   0.000000
    4        4.759355   0.000000
    5       10.641281   0.000000
    6       10.641296   0.000000
    7       17.338421   0.000000
    8       17.338446   0.000000
    9       17.387059   0.000000
   10       17.387091   0.000000
   11       22.833875   0.000000
   12       22.833895   0.000000
 
  0.3333333E+00  0.5000000E+00  0.1110223E-15  0.4629630E-02
    1      -15.487825   1.000000
    2      -15.487823   1.000000
    3        5.881275   0.000000
    4        5.881288   0.000000
    5       10.364787   0.000000
    6       10.364804   0.000000
    7       14.270407   0.000000
    8       14.270440   0.000000
    9       15.145818   0.000000
   10       15.145842   0.000000
   11       21.431740   0.000000
   12       21.431756   0.000000
 
  0.5000000E+00  0.5000000E+00  0.5551115E-16  0.4629630E-02
    1      -15.410009   1.000000
    2      -15.410007   1.000000
    3        6.068383   0.000000
    4        6.068394   0.000000
    5       11.209730   0.000000
    6       11.209769   0.000000
    7       14.386673   0.000000
    8       14.386699   0.000000
    9       14.386940   0.000000
   10       14.386970   0.000000
   11       16.938323   0.000000
   12       16.938344   0.000000
 
 -0.3333333E+00  0.5000000E+00 -0.3469447E-16  0.4629630E-02
    1      -15.487825   1.000000
    2      -15.487823   1.000000
    3        5.881275   0.000000
    4        5.881288   0.000000
    5       10.364787   0.000000
    6       10.364804   0.000000
    7       14.270407   0.000000
    8       14.270440   0.000000
    9       15.145818   0.000000
   10       15.145842   0.000000
   11       21.431740   0.000000
   12       21.431756   0.000000
 
 -0.1666667E+00  0.5000000E+00 -0.1387779E-16  0.4629630E-02
    1      -15.599424   1.000000
    2      -15.599422   1.000000
    3        4.759339   0.000000
    4        4.759355   0.000000
    5       10.641281   0.000000
    6       10.641296   0.000000
    7       17.338421   0.000000
    8       17.338446   0.000000
    9       17.387059   0.000000
   10       17.387091   0.000000
   11       22.833875   0.000000
   12       22.833895   0.000000
 
  0.0000000E+00 -0.3333333E+00  0.0000000E+00  0.4629630E-02
    1      -15.884862   1.000000
    2      -15.884860   1.000000
    3        4.257988   0.000000
    4        4.258003   0.000000
    5       13.104876   0.000000
    6       13.104895   0.000000
    7       19.826603   0.000000
    8       19.826623   0.000000
    9       19.826855   0.000000
   10       19.826875   0.000000
   11       25.003752   0.000000
   12       25.004189   0.000000
 
  0.1666667E+00 -0.3333333E+00 -0.2081668E-16  0.4629630E-02
    1      -15.675128   1.000000
    2      -15.675125   1.000000
    3        4.687034   0.000000
    4        4.687050   0.000000
    5       10.981770   0.000000
    6       10.981784   0.000000
    7       17.156462   0.000000
    8       17.156493   0.000000
    9       18.917811   0.000000
   10       18.917835   0.000000
   11       23.074463   0.000000
   12       23.074490   0.000000
 
  0.3333333E+00 -0.3333333E+00  0.1736122E-16  0.4629630E-02
    1      -15.454537   1.000000
    2      -15.454534   1.000000
    3        6.480472   0.000000
    4        6.480489   0.000000
    5        8.165514   0.000000
    6        8.165525   0.000000
    7       14.780134   0.000000
    8       14.780172   0.000000
    9       16.387660   0.000000
   10       16.387684   0.000000
   11       24.689378   0.000000
   12       24.689401   0.000000
 
  0.5000000E+00 -0.3333333E+00 -0.6938894E-17  0.4629630E-02
    1      -15.487825   1.000000
    2      -15.487823   1.000000
    3        5.881275   0.000000
    4        5.881288   0.000000
    5       10.364787   0.000000
    6       10.364804   0.000000
    7       14.270407   0.000000
    8       14.270441   0.000000
    9       15.145818   0.000000
   10       15.145842   0.000000
   11       21.431740   0.000000
   12       21.431756   0.000000
 
 -0.3333333E+00 -0.3333333E+00 -0.5551115E-16  0.4629630E-02
    1      -15.709568   1.000000
    2      -15.709566   1.000000
    3        4.996864   0.000000
    4        4.996878   0.000000
    5       15.082213   0.000000
    6       15.082243   0.000000
    7       15.405767   0.000000
    8       15.405793   0.000000
    9       15.406036   0.000000
   10       15.406067   0.000000
   11       17.993617   0.000000
   12       17.993638   0.000000
 
 -0.1666667E+00 -0.3333333E+00  0.0000000E+00  0.4629630E-02
    1      -15.909344   1.000000
    2      -15.909342   1.000000
    3        4.577938   0.000000
    4        4.577953   0.000000
    5       13.867307   0.000000
    6       13.867324   0.000000
    7       17.141325   0.000000
    8       17.141350   0.000000
    9       19.274632   0.000000
   10       19.274662   0.000000
   11       22.807291   0.000000
   12       22.807308   0.000000
 
  0.0000000E+00 -0.1666667E+00  0.6938894E-17  0.4629630E-02
    1      -16.329580   1.000000
    2      -16.329578   1.000000
    3        4.602065   0.000000
    4        4.602081   0.000000
    5       17.531445   0.000000
    6       17.531464   0.000000
    7       20.719395   0.000000
    8       20.719418   0.000000
    9       20.719694   0.000000
   10       20.719715   0.000000
   11       25.703383   0.000000
   12       25.703396   0.000000
 
  0.1666667E+00 -0.1666667E+00  0.1363969E-16  0.4629630E-02
    1      -16.054993   1.000000
    2      -16.054991   1.000000
    3        4.504363   0.000000
    4        4.504379   0.000000
    5       14.376365   0.000000
    6       14.376378   0.000000
    7       18.192611   0.000000
    8       18.192641   0.000000
    9       21.245311   0.000000
   10       21.245336   0.000000
   11       24.784379   0.000000
   12       24.784417   0.000000
 
  0.3333333E+00 -0.1666667E+00  0.4163336E-16  0.4629630E-02
    1      -15.675128   1.000000
    2      -15.675125   1.000000
    3        4.687034   0.000000
    4        4.687051   0.000000
    5       10.981770   0.000000
    6       10.981783   0.000000
    7       17.156461   0.000000
    8       17.156494   0.000000
    9       18.917811   0.000000
   10       18.917835   0.000000
   11       23.074463   0.000000
   12       23.074490   0.000000
 
  0.5000000E+00 -0.1666667E+00  0.0000000E+00  0.4629630E-02
    1      -15.599424   1.000000
    2      -15.599422   1.000000
    3        4.759339   0.000000
    4        4.759355   0.000000
    5       10.641281   0.000000
    6       10.641296   0.000000
    7       17.338422   0.000000
    8       17.338445   0.000000
    9       17.387059   0.000000
   10       17.387091   0.000000
   11       22.833875   0.000000
   12       22.833895   0.000000
 
 -0.3333333E+00 -0.1666667E+00 -0.2775558E-16  0.4629630E-02
    1      -15.909344   1.000000
    2      -15.909342   1.000000
    3        4.577937   0.000000
    4        4.577953   0.000000
    5       13.867307   0.000000
    6       13.867324   0.000000
    7       17.141325   0.000000
    8       17.141350   0.000000
    9       19.274632   0.000000
   10       19.274662   0.000000
   11       22.807291   0.000000
   12       22.807308   0.000000
 
 -0.1666667E+00 -0.1666667E+00 -0.1387779E-16  0.4629630E-02
    1      -16.265197   1.000000
    2      -16.265195   1.000000
    3        4.618572   0.000000
    4        4.618589   0.000000
    5       18.378390   0.000000
    6       18.378418   0.000000
    7       18.378678   0.000000
    8       18.378710   0.000000
    9       21.161955   0.000000
   10       21.161976   0.000000
   11       22.693047   0.000000
   12       22.693065   0.000000
 
  0.0000000E+00  0.0000000E+00  0.1666667E+00  0.4629630E-02
    1      -16.329580   1.000000
    2      -16.329578   1.000000
    3        4.602063   0.000000
    4        4.602082   0.000000
    5       17.531446   0.000000
    6       17.531463   0.000000
    7       20.719396   0.000000
    8       20.719413   0.000000
    9       20.719697   0.000000
   10       20.719717   0.000000
   11       25.703384   0.000000
   12       25.703395   0.000000
 
  0.1666667E+00 -0.1387779E-16  0.1666667E+00  0.4629630E-02
    1      -16.265197   1.000000
    2      -16.265195   1.000000
    3        4.618571   0.000000
    4        4.618590   0.000000
    5       18.378394   0.000000
    6       18.378414   0.000000
    7       18.378682   0.000000
    8       18.378706   0.000000
    9       21.161956   0.000000
   10       21.161975   0.000000
   11       22.693046   0.000000
   12       22.693066   0.000000
 
  0.3333333E+00 -0.5551115E-16  0.1666667E+00  0.4629630E-02
    1      -15.909344   1.000000
    2      -15.909342   1.000000
    3        4.577937   0.000000
    4        4.577954   0.000000
    5       13.867306   0.000000
    6       13.867325   0.000000
    7       17.141325   0.000000
    8       17.141350   0.000000
    9       19.274637   0.000000
   10       19.274657   0.000000
   11       22.807291   0.000000
   12       22.807308   0.000000
 
  0.5000000E+00 -0.5551115E-16  0.1666667E+00  0.4629630E-02
    1      -15.599424   1.000000
    2      -15.599422   1.000000
    3        4.759339   0.000000
    4        4.759355   0.000000
    5       10.641279   0.000000
    6       10.641298   0.000000
    7       17.338421   0.000000
    8       17.338446   0.000000
    9       17.387065   0.000000
   10       17.387085   0.000000
   11       22.833866   0.000000
   12       22.833904   0.000000
 
 -0.3333333E+00  0.5551115E-16  0.1666667E+00  0.4629630E-02
    1      -15.675128   1.000000
    2      -15.675126   1.000000
    3        4.687034   0.000000
    4        4.687051   0.000000
    5       10.981767   0.000000
    6       10.981787   0.000000
    7       17.156465   0.000000
    8       17.156490   0.000000
    9       18.917811   0.000000
   10       18.917835   0.000000
   11       23.074455   0.000000
   12       23.074498   0.000000
 
 -0.1666667E+00  0.1387779E-16  0.1666667E+00  0.4629630E-02
    1      -16.054993   1.000000
    2      -16.054991   1.000000
    3        4.504362   0.000000
    4        4.504380   0.000000
    5       14.376361   0.000000
    6       14.376382   0.000000
    7       18.192610   0.000000
    8       18.192641   0.000000
    9       21.245312   0.000000
   10       21.245336   0.000000
   11       24.784375   0.000000
   12       24.784421   0.000000
 
  0.0000000E+00  0.1666667E+00  0.1666667E+00  0.4629630E-02
    1      -16.265198   1.000000
    2      -16.265195   1.000000
    3        4.618572   0.000000
    4        4.618589   0.000000
    5       18.378392   0.000000
    6       18.378417   0.000000
    7       18.378682   0.000000
    8       18.378705   0.000000
    9       21.161959   0.000000
   10       21.161972   0.000000
   11       22.693048   0.000000
   12       22.693064   0.000000
 
  0.1666667E+00  0.1666667E+00  0.1666667E+00  0.4629630E-02
    1      -16.329579   1.000000
    2      -16.329577   1.000000
    3        4.601988   0.000000
    4        4.602005   0.000000
    5       17.531986   0.000000
    6       17.532005   0.000000
    7       20.719174   0.000000
    8       20.719181   0.000000
    9       20.719423   0.000000
   10       20.719430   0.000000
   11       25.703324   0.000000
   12       25.703350   0.000000
 
  0.3333333E+00  0.1666667E+00  0.1666667E+00  0.4629630E-02
    1      -16.054995   1.000000
    2      -16.054993   1.000000
    3        4.504244   0.000000
    4        4.504261   0.000000
    5       14.376387   0.000000
    6       14.376416   0.000000
    7       18.193344   0.000000
    8       18.193369   0.000000
    9       21.245222   0.000000
   10       21.245239   0.000000
   11       24.784312   0.000000
   12       24.784335   0.000000
 
  0.5000000E+00  0.1666667E+00  0.1666667E+00  0.4629630E-02
    1      -15.675128   1.000000
    2      -15.675126   1.000000
    3        4.686968   0.000000
    4        4.686984   0.000000
    5       10.981617   0.000000
    6       10.981641   0.000000
    7       17.157417   0.000000
    8       17.157445   0.000000
    9       18.917749   0.000000
   10       18.917768   0.000000
   11       23.073972   0.000000
   12       23.073997   0.000000
 
 -0.3333333E+00  0.1666667E+00  0.1666667E+00  0.4629630E-02
    1      -15.599424   1.000000
    2      -15.599422   1.000000
    3        4.759371   0.000000
    4        4.759387   0.000000
    5       10.641056   0.000000
    6       10.641074   0.000000
    7       17.338298   0.000000
    8       17.338317   0.000000
    9       17.387890   0.000000
   10       17.387918   0.000000
   11       22.833249   0.000000
   12       22.833281   0.000000
 
 -0.1666667E+00  0.1666667E+00  0.1666667E+00  0.4629630E-02
    1      -15.909343   1.000000
    2      -15.909341   1.000000
    3        4.577982   0.000000
    4        4.577998   0.000000
    5       13.867151   0.000000
    6       13.867167   0.000000
    7       17.141152   0.000000
    8       17.141172   0.000000
    9       19.275270   0.000000
   10       19.275298   0.000000
   11       22.806478   0.000000
   12       22.806507   0.000000
 
  0.0000000E+00  0.3333333E+00  0.1666667E+00  0.4629630E-02
    1      -15.909344   1.000000
    2      -15.909342   1.000000
    3        4.577937   0.000000
    4        4.577953   0.000000
    5       13.867305   0.000000
    6       13.867326   0.000000
    7       17.141329   0.000000
    8       17.141346   0.000000
    9       19.274636   0.000000
   10       19.274658   0.000000
   11       22.807290   0.000000
   12       22.807309   0.000000
 
  0.1666667E+00  0.3333333E+00  0.1666667E+00  0.4629630E-02
    1      -16.054995   1.000000
    2      -16.054993   1.000000
    3        4.504244   0.000000
    4        4.504261   0.000000
    5       14.376390   0.000000
    6       14.376413   0.000000
    7       18.193343   0.000000
    8       18.193370   0.000000
    9       21.245220   0.000000
   10       21.245240   0.000000
   11       24.784306   0.000000
   12       24.784341   0.000000
 
  0.3333333E+00  0.3333333E+00  0.1666667E+00  0.4629630E-02
    1      -15.909348   1.000000
    2      -15.909346   1.000000
    3        4.577807   0.000000
    4        4.577823   0.000000
    5       13.867694   0.000000
    6       13.867715   0.000000
    7       17.141081   0.000000
    8       17.141098   0.000000
    9       19.275125   0.000000
   10       19.275147   0.000000
   11       22.806829   0.000000
   12       22.806851   0.000000
 
  0.5000000E+00  0.3333333E+00  0.1666667E+00  0.4629630E-02
    1      -15.625984   1.000000
    2      -15.625982   1.000000
    3        5.194774   0.000000
    4        5.194790   0.000000
    5       11.282041   0.000000
    6       11.282068   0.000000
    7       13.761883   0.000000
    8       13.761909   0.000000
    9       19.210900   0.000000
   10       19.210926   0.000000
   11       23.991080   0.000000
   12       23.991103   0.000000
 
 -0.3333333E+00  0.3333333E+00  0.1666667E+00  0.4629630E-02
    1      -15.472730   1.000000
    2      -15.472727   1.000000
    3        6.183692   0.000000
    4        6.183708   0.000000
    5        9.080421   0.000000
    6        9.080442   0.000000
    7       12.471035   0.000000
    8       12.471065   0.000000
    9       19.471963   0.000000
   10       19.471993   0.000000
   11       23.175326   0.000000
   12       23.175349   0.000000
 
 -0.1666667E+00  0.3333333E+00  0.1666667E+00  0.4629630E-02
    1      -15.625982   1.000000
    2      -15.625979   1.000000
    3        5.194943   0.000000
    4        5.194960   0.000000
    5       11.282035   0.000000
    6       11.282048   0.000000
    7       13.761406   0.000000
    8       13.761438   0.000000
    9       19.211021   0.000000
   10       19.211049   0.000000
   11       23.991014   0.000000
   12       23.991042   0.000000
 
  0.0000000E+00  0.5000000E+00  0.1666667E+00  0.4629630E-02
    1      -15.599424   1.000000
    2      -15.599422   1.000000
    3        4.759339   0.000000
    4        4.759355   0.000000
    5       10.641278   0.000000
    6       10.641299   0.000000
    7       17.338425   0.000000
    8       17.338442   0.000000
    9       17.387065   0.000000
   10       17.387085   0.000000
   11       22.833872   0.000000
   12       22.833898   0.000000
 
  0.1666667E+00  0.5000000E+00  0.1666667E+00  0.4629630E-02
    1      -15.675128   1.000000
    2      -15.675126   1.000000
    3        4.686968   0.000000
    4        4.686984   0.000000
    5       10.981618   0.000000
    6       10.981639   0.000000
    7       17.157419   0.000000
    8       17.157443   0.000000
    9       18.917748   0.000000
   10       18.917768   0.000000
   11       23.073971   0.000000
   12       23.073998   0.000000
 
  0.3333333E+00  0.5000000E+00  0.1666667E+00  0.4629630E-02
    1      -15.625984   1.000000
    2      -15.625982   1.000000
    3        5.194775   0.000000
    4        5.194790   0.000000
    5       11.282044   0.000000
    6       11.282065   0.000000
    7       13.761885   0.000000
    8       13.761907   0.000000
    9       19.210899   0.000000
   10       19.210928   0.000000
   11       23.991081   0.000000
   12       23.991102   0.000000
 
  0.5000000E+00  0.5000000E+00  0.1666667E+00  0.4629630E-02
    1      -15.487827   1.000000
    2      -15.487825   1.000000
    3        5.881131   0.000000
    4        5.881144   0.000000
    5       10.364780   0.000000
    6       10.364807   0.000000
    7       14.271108   0.000000
    8       14.271129   0.000000
    9       15.145592   0.000000
   10       15.145610   0.000000
   11       21.431357   0.000000
   12       21.431380   0.000000
 
 -0.3333333E+00  0.5000000E+00  0.1666667E+00  0.4629630E-02
    1      -15.425637   1.000000
    2      -15.425635   1.000000
    3        7.116699   0.000000
    4        7.116710   0.000000
    5        9.553213   0.000000
    6        9.553249   0.000000
    7       10.238350   0.000000
    8       10.238377   0.000000
    9       18.168177   0.000000
   10       18.168205   0.000000
   11       23.168147   0.000000
   12       23.168170   0.000000
 
 -0.1666667E+00  0.5000000E+00  0.1666667E+00  0.4629630E-02
    1      -15.472730   1.000000
    2      -15.472727   1.000000
    3        6.183670   0.000000
    4        6.183686   0.000000
    5        9.080767   0.000000
    6        9.080785   0.000000
    7       12.470561   0.000000
    8       12.470584   0.000000
    9       19.471829   0.000000
   10       19.471856   0.000000
   11       23.175511   0.000000
   12       23.175538   0.000000
 
  0.0000000E+00 -0.3333333E+00  0.1666667E+00  0.4629630E-02
    1      -15.675128   1.000000
    2      -15.675126   1.000000
    3        4.687034   0.000000
    4        4.687051   0.000000
    5       10.981765   0.000000
    6       10.981789   0.000000
    7       17.156468   0.000000
    8       17.156487   0.000000
    9       18.917816   0.000000
   10       18.917831   0.000000
   11       23.074462   0.000000
   12       23.074491   0.000000
 
  0.1666667E+00 -0.3333333E+00  0.1666667E+00  0.4629630E-02
    1      -15.599424   1.000000
    2      -15.599422   1.000000
    3        4.759371   0.000000
    4        4.759387   0.000000
    5       10.641056   0.000000
    6       10.641075   0.000000
    7       17.338297   0.000000
    8       17.338318   0.000000
    9       17.387892   0.000000
   10       17.387917   0.000000
   11       22.833255   0.000000
   12       22.833275   0.000000
 
  0.3333333E+00 -0.3333333E+00  0.1666667E+00  0.4629630E-02
    1      -15.472729   1.000000
    2      -15.472727   1.000000
    3        6.183692   0.000000
    4        6.183708   0.000000
    5        9.080425   0.000000
    6        9.080438   0.000000
    7       12.471036   0.000000
    8       12.471064   0.000000
    9       19.471962   0.000000
   10       19.471994   0.000000
   11       23.175324   0.000000
   12       23.175352   0.000000
 
  0.5000000E+00 -0.3333333E+00  0.1666667E+00  0.4629630E-02
    1      -15.425637   1.000000
    2      -15.425635   1.000000
    3        7.116699   0.000000
    4        7.116710   0.000000
    5        9.553217   0.000000
    6        9.553245   0.000000
    7       10.238354   0.000000
    8       10.238374   0.000000
    9       18.168175   0.000000
   10       18.168206   0.000000
   11       23.168148   0.000000
   12       23.168169   0.000000
 
 -0.3333333E+00 -0.3333333E+00  0.1666667E+00  0.4629630E-02
    1      -15.487826   1.000000
    2      -15.487824   1.000000
    3        5.881352   0.000000
    4        5.881367   0.000000
    5       10.364324   0.000000
    6       10.364346   0.000000
    7       14.271286   0.000000
    8       14.271308   0.000000
    9       15.145611   0.000000
   10       15.145628   0.000000
   11       21.431349   0.000000