 running on   32 total cores
 distrk:  each k-point on    8 cores,    4 groups
 distr:  one band on    4 cores,    2 groups
 using from now: INCAR     
 vasp.5.4.4.18Apr17-6-g9f103f2a35 (build Jul 09 2018 16:43:14) complex          
  
 POSCAR found type information on POSCAR  He
 POSCAR found :  1 types and       1 ions
 scaLAPACK will be used

 ----------------------------------------------------------------------------- 
|                                                                             |
|           W    W    AA    RRRRR   N    N  II  N    N   GGGG   !!!           |
|           W    W   A  A   R    R  NN   N  II  NN   N  G    G  !!!           |
|           W    W  A    A  R    R  N N  N  II  N N  N  G       !!!           |
|           W WW W  AAAAAA  RRRRR   N  N N  II  N  N N  G  GGG   !            |
|           WW  WW  A    A  R   R   N   NN  II  N   NN  G    G                |
|           W    W  A    A  R    R  N    N  II  N    N   GGGG   !!!           |
|                                                                             |
|      You have enabled k-point parallelism (KPAR>1).                         |
|      This developmental code was originally  written by Paul Kent at ORNL,  |
|      and carefully double checked in Vienna.                                |
|      GW as well as linear response parallelism added by Martijn Marsman     |
|      and Georg Kresse.                                                      |
|      Carefully verify results versus KPAR=1.                                |
|      Report problems to Paul Kent and Vienna.                               |
|                                                                             |
 ----------------------------------------------------------------------------- 

 LDA part: xc-table for Pade appr. of Perdew
 found WAVECAR, reading the header
 POSCAR, INCAR and KPOINTS ok, starting setup
 FFT: planning ...
 reading WAVECAR
 the WAVECAR file was read successfully
 initial charge from wavefunction
 entering main loop
       N       E                     dE             d eps       ncg     rms          rms(c)
DAV:   1    -0.375997109861E+00   -0.37600E+00   -0.67725E-02  5184   0.156E+00
DAV:   2    -0.376109807517E+00   -0.11270E-03   -0.11270E-03  5840   0.297E-01
DAV:   3    -0.376109950600E+00   -0.14308E-06   -0.14308E-06  5552   0.106E-02
DAV:   4    -0.376109950957E+00   -0.35629E-09   -0.35877E-09  5476   0.489E-04
DAV:   5    -0.376109950961E+00   -0.45759E-11   -0.27445E-11  4172   0.418E-05    0.167E-01
DAV:   6    -0.376475494018E+00   -0.36554E-03   -0.38349E-04  5192   0.136E-01    0.850E-02
DAV:   7    -0.375832502195E+00    0.64299E-03   -0.39074E-04  5204   0.151E-01    0.114E-02
DAV:   8    -0.375827469197E+00    0.50330E-05   -0.29866E-05  5288   0.452E-02    0.630E-03
DAV:   9    -0.375826873664E+00    0.59553E-06   -0.16179E-06  5860   0.784E-03    0.571E-04
DAV:  10    -0.375827076524E+00   -0.20286E-06   -0.20653E-07  5288   0.370E-03    0.229E-04
DAV:  11    -0.375827080724E+00   -0.41999E-08   -0.12128E-08  5988   0.870E-04
   1 F= -.37582708E+00 E0= -.37582708E+00  d E =0.000000E+00  mag=    -0.0000     0.0000     0.0000
 writing wavefunctions
 optical routines
 imaginary and real dielectric function

 ----------------------------------------------------------------------------- 
|                                                                             |
|           W    W    AA    RRRRR   N    N  II  N    N   GGGG   !!!           |
|           W    W   A  A   R    R  NN   N  II  NN   N  G    G  !!!           |
|           W    W  A    A  R    R  N N  N  II  N N  N  G       !!!           |
|           W WW W  AAAAAA  RRRRR   N  N N  II  N  N N  G  GGG   !            |
|           WW  WW  A    A  R   R   N   NN  II  N   NN  G    G                |
|           W    W  A    A  R    R  N    N  II  N    N   GGGG   !!!           |
|                                                                             |
|      You have switched on METAGGA and linear response routines.             |
|      This combination is currently not supported.                           |
|      If you have selected LOPTICS=.TRUE., VASP will continue but some       |
|      matrix elements [H,r] are neglected   (you might try to use            |
|      LPEAD=.TRUE. which works irrespective of H).                           |
|      In all other cases VASP will stop now. SOOO sorry...                   |
|                                                                             |
 ----------------------------------------------------------------------------- 

 direction            1
 direction            2
 direction            3
