   1   1   0   0
  0.2623385E+02  0.3242103E-09  0.3242103E-09  0.3242103E-09  0.1000000E-15
  1.000000000000000E-004
  CAR 
 Og_FCC                                  
    168.95723281    -17.24699327  301      0.79154113      1.00000000
    -17.247  0.0000E+00  0.0000E+00
    -16.626  0.0000E+00  0.0000E+00
    -16.006  0.0000E+00  0.0000E+00
    -15.385  0.0000E+00  0.0000E+00
    -14.764  0.0000E+00  0.0000E+00
    -14.144  0.0000E+00  0.0000E+00
    -13.523  0.0000E+00  0.0000E+00
    -12.902  0.0000E+00  0.0000E+00
    -12.282  0.0000E+00  0.0000E+00
    -11.661  0.0000E+00  0.0000E+00
    -11.040  0.0000E+00  0.0000E+00
    -10.420  0.0000E+00  0.0000E+00
     -9.799  0.0000E+00  0.0000E+00
     -9.178  0.0000E+00  0.0000E+00
     -8.557  0.5128E+00  0.1661E+01
     -7.937  0.0000E+00  0.4009E+01
     -7.316  0.0000E+00  0.4120E+01
     -6.695  0.0000E+00  0.4176E+01
     -6.075  0.0000E+00  0.4398E+01
     -5.454  0.0000E+00  0.5639E+01
     -4.833  0.0000E+00  0.7722E+01
     -4.213  0.7161E+00  0.9722E+01
     -3.592  0.0000E+00  0.1072E+02
     -2.971  0.0000E+00  0.1073E+02
     -2.351  0.0000E+00  0.1131E+02
     -1.730  0.0000E+00  0.1177E+02
     -1.109  0.0000E+00  0.1188E+02
     -0.489  0.0000E+00  0.1199E+02
      0.132  0.0000E+00  0.1199E+02
      0.753  0.0000E+00  0.1200E+02
      1.373  0.0000E+00  0.1200E+02
      1.994  0.0000E+00  0.1200E+02
      2.615  0.0000E+00  0.1200E+02
      3.235  0.0000E+00  0.1200E+02
      3.856  0.0000E+00  0.1206E+02
      4.477  0.0000E+00  0.1206E+02
      5.098  0.0000E+00  0.1217E+02
      5.718  0.0000E+00  0.1261E+02
      6.339  0.0000E+00  0.1314E+02
      6.960  0.0000E+00  0.1321E+02
      7.580  0.0000E+00  0.1332E+02
      8.201  0.0000E+00  0.1368E+02
      8.822  0.0000E+00  0.1368E+02
      9.442  0.0000E+00  0.1390E+02
     10.063  0.0000E+00  0.1423E+02
     10.684  0.0000E+00  0.1436E+02
     11.304  0.0000E+00  0.1442E+02
     11.925  0.0000E+00  0.1499E+02
     12.546  0.0000E+00  0.1532E+02
     13.166  0.6570E-01  0.1553E+02
     13.787  0.0000E+00  0.1584E+02
     14.408  0.0000E+00  0.1606E+02
     15.028  0.0000E+00  0.1629E+02
     15.649  0.0000E+00  0.1704E+02
     16.270  0.0000E+00  0.1737E+02
     16.890  0.0000E+00  0.1744E+02
     17.511  0.0000E+00  0.1789E+02
     18.132  0.0000E+00  0.1806E+02
     18.752  0.0000E+00  0.1844E+02
     19.373  0.6790E-04  0.1896E+02
     19.994  0.0000E+00  0.1908E+02
     20.615  0.0000E+00  0.1947E+02
     21.235  0.1101E-15  0.2025E+02
     21.856  0.0000E+00  0.2138E+02
     22.477  0.0000E+00  0.2162E+02
     23.097  0.0000E+00  0.2219E+02
     23.718  0.0000E+00  0.2288E+02
     24.339  0.0000E+00  0.2381E+02
     24.959  0.0000E+00  0.2417E+02
     25.580  0.0000E+00  0.2446E+02
     26.201  0.0000E+00  0.2581E+02
     26.821  0.0000E+00  0.2627E+02
     27.442  0.0000E+00  0.2679E+02
     28.063  0.0000E+00  0.2781E+02
     28.683  0.0000E+00  0.2828E+02
     29.304  0.0000E+00  0.2883E+02
     29.925  0.0000E+00  0.2934E+02
     30.545  0.0000E+00  0.3034E+02
     31.166  0.0000E+00  0.3066E+02
     31.787  0.0000E+00  0.3177E+02
     32.407  0.0000E+00  0.3269E+02
     33.028  0.1790E+00  0.3384E+02
     33.649  0.0000E+00  0.3440E+02
     34.270  0.0000E+00  0.3525E+02
     34.890  0.0000E+00  0.3548E+02
     35.511  0.0000E+00  0.3666E+02
     36.132  0.0000E+00  0.3710E+02
     36.752  0.0000E+00  0.3806E+02
     37.373  0.0000E+00  0.3830E+02
     37.994  0.0000E+00  0.3913E+02
     38.614  0.8951E-01  0.3952E+02
     39.235  0.0000E+00  0.4066E+02
     39.856  0.0000E+00  0.4118E+02
     40.476  0.0000E+00  0.4205E+02
     41.097  0.0000E+00  0.4310E+02
     41.718  0.1349E+00  0.4394E+02
     42.338  0.0000E+00  0.4486E+02
     42.959  0.0000E+00  0.4554E+02
     43.580  0.0000E+00  0.4581E+02
     44.200  0.0000E+00  0.4694E+02
     44.821  0.7343E-10  0.4769E+02
     45.442  0.3459E-02  0.4850E+02
     46.062  0.0000E+00  0.4980E+02
     46.683  0.0000E+00  0.5020E+02
     47.304  0.0000E+00  0.5148E+02
     47.924  0.1778E+00  0.5196E+02
     48.545  0.1660E-13  0.5219E+02
     49.166  0.0000E+00  0.5355E+02
     49.787  0.0000E+00  0.5475E+02
     50.407  0.0000E+00  0.5521E+02
     51.028  0.0000E+00  0.5597E+02
     51.649  0.0000E+00  0.5642E+02
     52.269  0.0000E+00  0.5814E+02
     52.890  0.5743E-02  0.5875E+02
     53.511  0.0000E+00  0.5947E+02
     54.131  0.0000E+00  0.6043E+02
     54.752  0.0000E+00  0.6078E+02
     55.373  0.0000E+00  0.6131E+02
     55.993  0.2032E-08  0.6234E+02
     56.614  0.0000E+00  0.6413E+02
     57.235  0.0000E+00  0.6515E+02
     57.855  0.0000E+00  0.6612E+02
     58.476  0.0000E+00  0.6669E+02
     59.097  0.0000E+00  0.6772E+02
     59.717  0.0000E+00  0.6841E+02
     60.338  0.0000E+00  0.6915E+02
     60.959  0.0000E+00  0.7028E+02
     61.579  0.0000E+00  0.7091E+02
     62.200  0.0000E+00  0.7209E+02
     62.821  0.3219E-04  0.7263E+02
     63.442  0.0000E+00  0.7394E+02
     64.062  0.0000E+00  0.7466E+02
     64.683  0.0000E+00  0.7558E+02
     65.304  0.0000E+00  0.7647E+02
     65.924  0.0000E+00  0.7681E+02
     66.545  0.0000E+00  0.7842E+02
     67.166  0.1790E+00  0.7958E+02
     67.786  0.0000E+00  0.8053E+02
     68.407  0.9915E-02  0.8155E+02
     69.028  0.0000E+00  0.8244E+02
     69.648  0.0000E+00  0.8404E+02
     70.269  0.0000E+00  0.8491E+02
     70.890  0.0000E+00  0.8581E+02
     71.510  0.0000E+00  0.8654E+02
     72.131  0.0000E+00  0.8798E+02
     72.752  0.0000E+00  0.8863E+02
     73.372  0.0000E+00  0.8877E+02
     73.993  0.1487E-01  0.8946E+02
     74.614  0.0000E+00  0.9019E+02
     75.234  0.0000E+00  0.9124E+02
     75.855  0.0000E+00  0.9274E+02
     76.476  0.0000E+00  0.9344E+02
     77.096  0.0000E+00  0.9568E+02
     77.717  0.0000E+00  0.9669E+02
     78.338  0.0000E+00  0.9773E+02
     78.959  0.2921E-12  0.9829E+02
     79.579  0.0000E+00  0.9950E+02
     80.200  0.1790E+00  0.1000E+03
     80.821  0.0000E+00  0.1020E+03
     81.441  0.0000E+00  0.1030E+03
     82.062  0.0000E+00  0.1041E+03
     82.683  0.0000E+00  0.1050E+03
     83.303  0.0000E+00  0.1063E+03
     83.924  0.0000E+00  0.1070E+03
     84.545  0.0000E+00  0.1073E+03
     85.165  0.0000E+00  0.1077E+03
     85.786  0.0000E+00  0.1086E+03
     86.407  0.0000E+00  0.1104E+03
     87.027  0.1133E-02  0.1117E+03
     87.648  0.0000E+00  0.1132E+03
     88.269  0.8951E-01  0.1139E+03
     88.889  0.0000E+00  0.1150E+03
     89.510  0.0000E+00  0.1157E+03
     90.131  0.0000E+00  0.1173E+03
     90.751  0.0000E+00  0.1181E+03
     91.372  0.0000E+00  0.1195E+03
     91.993  0.0000E+00  0.1213E+03
     92.614  0.0000E+00  0.1229E+03
     93.234  0.1492E-01  0.1252E+03
     93.855  0.0000E+00  0.1262E+03
     94.476  0.1603E+00  0.1274E+03
     95.096  0.1625E+00  0.1291E+03
     95.717  0.0000E+00  0.1296E+03
     96.338  0.0000E+00  0.1304E+03
     96.958  0.0000E+00  0.1314E+03
     97.579  0.0000E+00  0.1322E+03
     98.200  0.0000E+00  0.1331E+03
     98.820  0.0000E+00  0.1342E+03
     99.441  0.0000E+00  0.1357E+03
    100.062  0.0000E+00  0.1374E+03
    100.682  0.0000E+00  0.1384E+03
    101.303  0.0000E+00  0.1394E+03
    101.924  0.0000E+00  0.1404E+03
    102.544  0.5503E-02  0.1414E+03
    103.165  0.0000E+00  0.1434E+03
    103.786  0.1433E-02  0.1449E+03
    104.406  0.0000E+00  0.1460E+03
    105.027  0.0000E+00  0.1472E+03
    105.648  0.0000E+00  0.1484E+03
    106.268  0.0000E+00  0.1497E+03
    106.889  0.0000E+00  0.1513E+03
    107.510  0.0000E+00  0.1521E+03
    108.131  0.0000E+00  0.1533E+03
    108.751  0.1193E+00  0.1543E+03
    109.372  0.0000E+00  0.1551E+03
    109.993  0.0000E+00  0.1571E+03
    110.613  0.0000E+00  0.1574E+03
    111.234  0.0000E+00  0.1596E+03
    111.855  0.0000E+00  0.1607E+03
    112.475  0.0000E+00  0.1621E+03
    113.096  0.0000E+00  0.1630E+03
    113.717  0.2981E-16  0.1649E+03
    114.337  0.0000E+00  0.1661E+03
    114.958  0.0000E+00  0.1673E+03
    115.579  0.0000E+00  0.1683E+03
    116.199  0.0000E+00  0.1693E+03
    116.820  0.0000E+00  0.1705E+03
    117.441  0.0000E+00  0.1730E+03
    118.061  0.3336E-05  0.1740E+03
    118.682  0.0000E+00  0.1759E+03
    119.303  0.0000E+00  0.1767E+03
    119.923  0.0000E+00  0.1775E+03
    120.544  0.1790E+00  0.1789E+03
    121.165  0.8951E-01  0.1810E+03
    121.785  0.0000E+00  0.1839E+03
    122.406  0.0000E+00  0.1846E+03
    123.027  0.0000E+00  0.1858E+03
    123.648  0.0000E+00  0.1870E+03
    124.268  0.0000E+00  0.1882E+03
    124.889  0.0000E+00  0.1908E+03
    125.510  0.0000E+00  0.1918E+03
    126.130  0.0000E+00  0.1940E+03
    126.751  0.0000E+00  0.1952E+03
    127.372  0.0000E+00  0.1964E+03
    127.992  0.5453E-08  0.1972E+03
    128.613  0.0000E+00  0.1986E+03
    129.234  0.1790E+00  0.2000E+03
    129.854  0.0000E+00  0.2015E+03
    130.475  0.2910E+00  0.2039E+03
    131.096  0.1240E-02  0.2051E+03
    131.716  0.0000E+00  0.2069E+03
    132.337  0.0000E+00  0.2080E+03
    132.958  0.0000E+00  0.2085E+03
    133.578  0.0000E+00  0.2098E+03
    134.199  0.3580E+00  0.2114E+03
    134.820  0.0000E+00  0.2127E+03
    135.440  0.0000E+00  0.2134E+03
    136.061  0.1340E-02  0.2138E+03
    136.682  0.2582E-07  0.2148E+03
    137.303  0.1154E+00  0.2154E+03
    137.923  0.0000E+00  0.2162E+03
    138.544  0.0000E+00  0.2171E+03
    139.165  0.0000E+00  0.2185E+03
    139.785  0.0000E+00  0.2207E+03
    140.406  0.0000E+00  0.2215E+03
    141.027  0.0000E+00  0.2244E+03
    141.647  0.8951E-01  0.2260E+03
    142.268  0.0000E+00  0.2278E+03
    142.889  0.6515E-05  0.2298E+03
    143.509  0.1490E+00  0.2312E+03
    144.130  0.0000E+00  0.2331E+03
    144.751  0.1786E+00  0.2350E+03
    145.371  0.0000E+00  0.2360E+03
    145.992  0.0000E+00  0.2371E+03
    146.613  0.9937E-17  0.2391E+03
    147.233  0.0000E+00  0.2410E+03
    147.854  0.0000E+00  0.2423E+03
    148.475  0.0000E+00  0.2433E+03
    149.095  0.0000E+00  0.2435E+03
    149.716  0.0000E+00  0.2448E+03
    150.337  0.3053E-03  0.2452E+03
    150.957  0.0000E+00  0.2464E+03
    151.578  0.4805E-01  0.2465E+03
    152.199  0.0000E+00  0.2472E+03
    152.820  0.0000E+00  0.2488E+03
    153.440  0.0000E+00  0.2496E+03
    154.061  0.3580E+00  0.2510E+03
    154.682  0.0000E+00  0.2524E+03
    155.302  0.0000E+00  0.2527E+03
    155.923  0.0000E+00  0.2538E+03
    156.544  0.0000E+00  0.2542E+03
    157.164  0.0000E+00  0.2548E+03
    157.785  0.0000E+00  0.2557E+03
    158.406  0.0000E+00  0.2557E+03
    159.026  0.0000E+00  0.2560E+03
    159.647  0.0000E+00  0.2560E+03
    160.268  0.0000E+00  0.2560E+03
    160.888  0.0000E+00  0.2560E+03
    161.509  0.0000E+00  0.2560E+03
    162.130  0.0000E+00  0.2560E+03
    162.750  0.0000E+00  0.2560E+03
    163.371  0.0000E+00  0.2560E+03
    163.992  0.0000E+00  0.2560E+03
    164.612  0.0000E+00  0.2560E+03
    165.233  0.0000E+00  0.2560E+03
    165.854  0.0000E+00  0.2560E+03
    166.475  0.0000E+00  0.2560E+03
    167.095  0.0000E+00  0.2560E+03
    167.716  0.0000E+00  0.2560E+03
    168.337  0.0000E+00  0.2560E+03
    168.957  0.0000E+00  0.2560E+03
