    1    1    1    1
  0.2623385E+02  0.3242103E-09  0.3242103E-09  0.3242103E-09  0.1000000E-15
  1.000000000000000E-004
  CAR 
 Og_FCC                                  
     12    216    256
 
  0.0000000E+00  0.0000000E+00  0.0000000E+00  0.4629630E-02
    1       -8.783165   1.000000
    2       -8.783165   1.000000
    3       -8.595973   1.000000
    4       -8.595973   1.000000
    5       -8.595941   1.000000
    6       -8.595941   1.000000
    7       -5.340250   1.000000
    8       -5.340250   1.000000
    9       -4.624569   1.000000
   10       -4.624569   1.000000
   11       -4.624531   1.000000
   12       -4.624531   1.000000
   13       15.117050   0.000000
   14       15.117050   0.000000
   15       19.357024   0.000000
   16       19.357024   0.000000
   17       19.357100   0.000000
   18       19.357100   0.000000
   19       19.375015   0.000000
   20       19.375015   0.000000
   21       23.308362   0.000000
   22       23.308362   0.000000
   23       23.943066   0.000000
   24       23.943066   0.000000
   25       23.588665   0.000000
   26       23.588665   0.000000
   27       24.741019   0.000000
   28       24.741019   0.000000
   29       24.741090   0.000000
   30       24.741090   0.000000
   31       28.421281   0.000000
   32       28.421281   0.000000
   33       28.421337   0.000000
   34       28.421337   0.000000
   35       29.730105   0.000000
   36       29.730105   0.000000
   37       35.163118   0.000000
   38       35.163118   0.000000
   39       37.269721   0.000000
   40       37.269721   0.000000
   41       37.269929   0.000000
   42       37.269929   0.000000
   43       42.393964   0.000000
   44       42.393964   0.000000
   45       43.740285   0.000000
   46       43.740285   0.000000
   47       48.671005   0.000000
   48       48.671005   0.000000
   49       48.671016   0.000000
   50       48.671016   0.000000
   51       52.508202   0.000000
   52       52.508202   0.000000
   53       52.508202   0.000000
   54       52.508202   0.000000
   55       52.508404   0.000000
   56       52.508404   0.000000
   57       54.773239   0.000000
   58       54.773239   0.000000
   59       55.710071   0.000000
   60       55.710071   0.000000
   61       55.710416   0.000000
   62       55.710416   0.000000
   63       57.601041   0.000000
   64       57.601041   0.000000
   65       57.601041   0.000000
   66       57.601041   0.000000
   67       57.601251   0.000000
   68       57.601251   0.000000
   69       57.977297   0.000000
   70       57.977297   0.000000
   71       57.977565   0.000000
   72       57.977565   0.000000
   73       58.012769   0.000000
   74       58.012769   0.000000
   75       60.939872   0.000000
   76       60.939872   0.000000
   77       60.939872   0.000000
   78       60.939872   0.000000
   79       68.959446   0.000000
   80       68.959446   0.000000
   81       71.751304   0.000000
   82       71.751304   0.000000
   83       71.751662   0.000000
   84       71.751662   0.000000
   85       72.833956   0.000000
   86       72.833956   0.000000
   87       72.834296   0.000000
   88       72.834296   0.000000
   89       73.129546   0.000000
   90       73.129546   0.000000
   91       74.217628   0.000000
   92       74.217628   0.000000
   93       74.218161   0.000000
   94       74.218161   0.000000
   95       74.318298   0.000000
   96       74.318298   0.000000
   97       74.318299   0.000000
   98       74.318299   0.000000
   99       74.319182   0.000000
  100       74.319182   0.000000
  101       76.410746   0.000000
  102       76.410746   0.000000
  103       79.102258   0.000000
  104       79.102258   0.000000
  105       79.102315   0.000000
  106       79.102315   0.000000
  107       82.698385   0.000000
  108       82.698385   0.000000
  109       84.208468   0.000000
  110       84.208468   0.000000
  111       84.208497   0.000000
  112       84.208497   0.000000
  113       87.237359   0.000000
  114       87.237359   0.000000
  115       92.480451   0.000000
  116       92.480451   0.000000
  117       95.049083   0.000000
  118       95.049083   0.000000
  119       95.049304   0.000000
  120       95.049304   0.000000
  121       95.603281   0.000000
  122       95.603281   0.000000
  123       95.707563   0.000000
  124       95.707563   0.000000
  125       96.229611   0.000000
  126       96.229611   0.000000
  127       96.229706   0.000000
  128       96.229706   0.000000
  129       96.229706   0.000000
  130       96.229706   0.000000
  131       97.269958   0.000000
  132       97.269958   0.000000
  133       97.270065   0.000000
  134       97.270065   0.000000
  135       97.569658   0.000000
  136       97.569658   0.000000
  137       97.569794   0.000000
  138       97.569794   0.000000
  139       97.569795   0.000000
  140       97.569795   0.000000
  141      103.213163   0.000000
  142      103.213163   0.000000
  143      104.513928   0.000000
  144      104.513928   0.000000
  145      104.513954   0.000000
  146      104.513954   0.000000
  147      104.584639   0.000000
  148      104.584639   0.000000
  149      104.623356   0.000000
  150      104.623356   0.000000
  151      104.623356   0.000000
  152      104.623356   0.000000
  153      104.623472   0.000000
  154      104.623472   0.000000
  155      105.735330   0.000000
  156      105.735330   0.000000
  157      105.736234   0.000000
  158      105.736234   0.000000
  159      106.113925   0.000000
  160      106.113925   0.000000
  161      108.948060   0.000000
  162      108.948060   0.000000
  163      109.625998   0.000000
  164      109.625998   0.000000
  165      109.627202   0.000000
  166      109.627202   0.000000
  167      111.726992   0.000000
  168      111.726992   0.000000
  169      112.712512   0.000000
  170      112.712512   0.000000
  171      121.177282   0.000000
  172      121.177282   0.000000
  173      121.177283   0.000000
  174      121.177283   0.000000
  175      128.176522   0.000000
  176      128.176522   0.000000
  177      128.176812   0.000000
  178      128.176812   0.000000
  179      129.798366   0.000000
  180      129.798366   0.000000
  181      129.798829   0.000000
  182      129.798829   0.000000
  183      129.988460   0.000000
  184      129.988460   0.000000
  185      131.382014   0.000000
  186      131.382014   0.000000
  187      131.382020   0.000000
  188      131.382020   0.000000
  189      131.383139   0.000000
  190      131.383139   0.000000
  191      131.468668   0.000000
  192      131.468668   0.000000
  193      132.429061   0.000000
  194      132.429061   0.000000
  195      132.429262   0.000000
  196      132.429262   0.000000
  197      134.236378   0.000000
  198      134.236378   0.000000
  199      134.236378   0.000000
  200      134.236378   0.000000
  201      134.428026   0.000000
  202      134.428026   0.000000
  203      134.428026   0.000000
  204      134.428026   0.000000
  205      134.428805   0.000000
  206      134.428805   0.000000
  207      135.346604   0.000000
  208      135.346604   0.000000
  209      135.499975   0.000000
  210      135.499975   0.000000
  211      135.500437   0.000000
  212      135.500437   0.000000
  213      135.668420   0.000000
  214      135.668420   0.000000
  215      135.669420   0.000000
  216      135.669420   0.000000
  217      135.706262   0.000000
  218      135.706262   0.000000
  219      136.625564   0.000000
  220      136.625564   0.000000
  221      136.685116   0.000000
  222      136.685116   0.000000
  223      141.636776   0.000000
  224      141.636776   0.000000
  225      141.636779   0.000000
  226      141.636779   0.000000
  227      142.971205   0.000000
  228      142.971205   0.000000
  229      142.971205   0.000000
  230      142.971205   0.000000
  231      142.971406   0.000000
  232      142.971406   0.000000
  233      143.448668   0.000000
  234      143.448668   0.000000
  235      143.470903   0.000000
  236      143.470903   0.000000
  237      143.471585   0.000000
  238      143.471585   0.000000
  239      144.546288   0.000000
  240      144.546288   0.000000
  241      144.546288   0.000000
  242      144.546288   0.000000
  243      144.547265   0.000000
  244      144.547265   0.000000
  245      144.944582   0.000000
  246      144.944582   0.000000
  247      144.944744   0.000000
  248      144.944744   0.000000
  249      144.945863   0.000000
  250      144.945863   0.000000
  251      146.173334   0.000000
  252      146.173334   0.000000
  253      146.173334   0.000000
  254      146.173334   0.000000
  255      146.963355   0.000000
  256      146.963355   0.000000
 
  0.1666667E+00  0.0000000E+00  0.0000000E+00  0.4629630E-02
    1       -8.620670   1.000000
    2       -8.620664   1.000000
    3       -8.578135   1.000000
    4       -8.578131   1.000000
    5       -7.920224   1.000000
    6       -7.920200   1.000000
    7       -5.197298   1.000000
    8       -5.197291   1.000000
    9       -4.769670   1.000000
   10       -4.769663   1.000000
   11       -4.517324   1.000000
   12       -4.517321   1.000000
   13       12.741274   0.000000
   14       12.741283   0.000000
   15       17.681993   0.000000
   16       17.681996   0.000000
   17       19.097840   0.000000
   18       19.097841   0.000000
   19       19.601705   0.000000
   20       19.601713   0.000000
   21       20.037976   0.000000
   22       20.037977   0.000000
   23       21.809622   0.000000
   24       21.809624   0.000000
   25       25.848027   0.000000
   26       25.848027   0.000000
   27       26.239394   0.000000
   28       26.239394   0.000000
   29       27.263894   0.000000
   30       27.263894   0.000000
   31       28.787959   0.000000
   32       28.787959   0.000000
   33       29.562101   0.000000
   34       29.562101   0.000000
   35       31.767963   0.000000
   36       31.767963   0.000000
   37       34.946690   0.000000
   38       34.946690   0.000000
   39       36.526728   0.000000
   40       36.526728   0.000000
   41       38.542407   0.000000
   42       38.542407   0.000000
   43       44.455712   0.000000
   44       44.455712   0.000000
   45       44.635408   0.000000
   46       44.635408   0.000000
   47       45.476543   0.000000
   48       45.476543   0.000000
   49       46.741671   0.000000
   50       46.741671   0.000000
   51       47.567147   0.000000
   52       47.567147   0.000000
   53       50.137149   0.000000
   54       50.137149   0.000000
   55       51.919862   0.000000
   56       51.919862   0.000000
   57       53.236442   0.000000
   58       53.236442   0.000000
   59       55.692141   0.000000
   60       55.692141   0.000000
   61       55.735006   0.000000
   62       55.735006   0.000000
   63       56.368872   0.000000
   64       56.368872   0.000000
   65       57.744073   0.000000
   66       57.744073   0.000000
   67       59.448468   0.000000
   68       59.448468   0.000000
   69       59.875584   0.000000
   70       59.875584   0.000000
   71       60.647110   0.000000
   72       60.647110   0.000000
   73       62.877858   0.000000
   74       62.877858   0.000000
   75       64.808522   0.000000
   76       64.808522   0.000000
   77       65.249423   0.000000
   78       65.249423   0.000000
   79       67.162932   0.000000
   80       67.162932   0.000000
   81       67.444406   0.000000
   82       67.444406   0.000000
   83       67.794405   0.000000
   84       67.794405   0.000000
   85       68.408119   0.000000
   86       68.408119   0.000000
   87       69.072025   0.000000
   88       69.072025   0.000000
   89       71.210447   0.000000
   90       71.210447   0.000000
   91       71.370814   0.000000
   92       71.370814   0.000000
   93       75.137056   0.000000
   94       75.137056   0.000000
   95       75.488183   0.000000
   96       75.488183   0.000000
   97       78.294428   0.000000
   98       78.294428   0.000000
   99       80.270055   0.000000
  100       80.270055   0.000000
  101       81.009532   0.000000
  102       81.009532   0.000000
  103       81.165310   0.000000
  104       81.165310   0.000000
  105       83.019402   0.000000
  106       83.019402   0.000000
  107       83.988835   0.000000
  108       83.988835   0.000000
  109       86.046887   0.000000
  110       86.046887   0.000000
  111       86.155410   0.000000
  112       86.155410   0.000000
  113       86.701508   0.000000
  114       86.701508   0.000000
  115       87.118960   0.000000
  116       87.118960   0.000000
  117       88.200923   0.000000
  118       88.200923   0.000000
  119       91.476522   0.000000
  120       91.476522   0.000000
  121       92.559216   0.000000
  122       92.559216   0.000000
  123       92.623178   0.000000
  124       92.623178   0.000000
  125       93.062944   0.000000
  126       93.062944   0.000000
  127       94.922222   0.000000
  128       94.922222   0.000000
  129       95.095313   0.000000
  130       95.095313   0.000000
  131       95.488722   0.000000
  132       95.488722   0.000000
  133       95.933571   0.000000
  134       95.933571   0.000000
  135       96.392237   0.000000
  136       96.392237   0.000000
  137       99.035003   0.000000
  138       99.035003   0.000000
  139       99.774358   0.000000
  140       99.774358   0.000000
  141      103.552586   0.000000
  142      103.552586   0.000000
  143      103.865882   0.000000
  144      103.865882   0.000000
  145      106.293686   0.000000
  146      106.293686   0.000000
  147      106.541163   0.000000
  148      106.541163   0.000000
  149      106.707979   0.000000
  150      106.707979   0.000000
  151      107.445084   0.000000
  152      107.445084   0.000000
  153      108.178650   0.000000
  154      108.178650   0.000000
  155      109.583669   0.000000
  156      109.583669   0.000000
  157      109.884375   0.000000
  158      109.884375   0.000000
  159      110.645720   0.000000
  160      110.645720   0.000000
  161      111.161562   0.000000
  162      111.161562   0.000000
  163      114.480756   0.000000
  164      114.480756   0.000000
  165      116.497478   0.000000
  166      116.497478   0.000000
  167      116.939115   0.000000
  168      116.939115   0.000000
  169      117.205593   0.000000
  170      117.205593   0.000000
  171      118.396594   0.000000
  172      118.396594   0.000000
  173      119.181318   0.000000
  174      119.181318   0.000000
  175      120.511523   0.000000
  176      120.511523   0.000000
  177      120.984076   0.000000
  178      120.984076   0.000000
  179      121.135994   0.000000
  180      121.135994   0.000000
  181      122.581331   0.000000
  182      122.581331   0.000000
  183      123.314433   0.000000
  184      123.314433   0.000000
  185      124.752311   0.000000
  186      124.752311   0.000000
  187      126.873175   0.000000
  188      126.873175   0.000000
  189      128.239736   0.000000
  190      128.239736   0.000000
  191      128.560390   0.000000
  192      128.560390   0.000000
  193      129.449161   0.000000
  194      129.449161   0.000000
  195      129.779230   0.000000
  196      129.779230   0.000000
  197      130.247643   0.000000
  198      130.247643   0.000000
  199      130.992117   0.000000
  200      130.992117   0.000000
  201      131.212442   0.000000
  202      131.212442   0.000000
  203      131.605098   0.000000
  204      131.605098   0.000000
  205      131.691405   0.000000
  206      131.691405   0.000000
  207      132.947965   0.000000
  208      132.947965   0.000000
  209      133.153393   0.000000
  210      133.153393   0.000000
  211      135.573228   0.000000
  212      135.573228   0.000000
  213      136.383572   0.000000
  214      136.383572   0.000000
  215      137.366652   0.000000
  216      137.366652   0.000000
  217      137.984324   0.000000
  218      137.984324   0.000000
  219      138.122300   0.000000
  220      138.122300   0.000000
  221      138.676001   0.000000
  222      138.676001   0.000000
  223      141.506080   0.000000
  224      141.506080   0.000000
  225      142.058347   0.000000
  226      142.058347   0.000000
  227      142.355143   0.000000
  228      142.355143   0.000000
  229      142.672426   0.000000
  230      142.672426   0.000000
  231      142.716338   0.000000
  232      142.716338   0.000000
  233      142.954440   0.000000
  234      142.954440   0.000000
  235      143.941299   0.000000
  236      143.941299   0.000000
  237      144.392892   0.000000
  238      144.392892   0.000000
  239      145.280263   0.000000
  240      145.280263   0.000000
  241      145.658644   0.000000
  242      145.658644   0.000000
  243      146.761371   0.000000
  244      146.761371   0.000000
  245      147.458444   0.000000
  246      147.458444   0.000000
  247      148.149202   0.000000
  248      148.149202   0.000000
  249      148.185155   0.000000
  250      148.185155   0.000000
  251      150.940087   0.000000
  252      150.940087   0.000000
  253      151.724175   0.000000
  254      151.724175   0.000000
  255      151.983150   0.000000
  256      151.983150   0.000000
 
  0.3333333E+00  0.2775558E-16 -0.2775558E-16  0.4629630E-02
    1       -8.663661   1.000000
    2       -8.663660   1.000000
    3       -8.615740   1.000000
    4       -8.615739   1.000000
    5       -6.059006   1.000000
    6       -6.059006   1.000000
    7       -5.116729   1.000000
    8       -5.116729   1.000000
    9       -4.131376   1.000000
   10       -4.131376   1.000000
   11       -4.033634   1.000000
   12       -4.033634   1.000000
   13        7.358450   0.000000
   14        7.358451   0.000000
   15       14.445315   0.000000
   16       14.445315   0.000000
   17       16.975105   0.000000
   18       16.975105   0.000000
   19       19.213400   0.000000
   20       19.213400   0.000000
   21       21.319595   0.000000
   22       21.319596   0.000000
   23       23.477010   0.000000
   24       23.477011   0.000000
   25       24.147523   0.000000
   26       24.147523   0.000000
   27       28.595273   0.000000
   28       28.595273   0.000000
   29       29.541379   0.000000
   30       29.541379   0.000000
   31       30.905626   0.000000
   32       30.905626   0.000000
   33       31.483797   0.000000
   34       31.483797   0.000000
   35       33.024953   0.000000
   36       33.024953   0.000000
   37       34.898517   0.000000
   38       34.898517   0.000000
   39       38.818920   0.000000
   40       38.818920   0.000000
   41       40.285813   0.000000
   42       40.285813   0.000000
   43       40.833561   0.000000
   44       40.833561   0.000000
   45       41.717130   0.000000
   46       41.717130   0.000000
   47       42.595096   0.000000
   48       42.595096   0.000000
   49       43.701382   0.000000
   50       43.701382   0.000000
   51       49.268583   0.000000
   52       49.268583   0.000000
   53       49.876845   0.000000
   54       49.876845   0.000000
   55       52.043143   0.000000
   56       52.043143   0.000000
   57       52.401778   0.000000
   58       52.401778   0.000000
   59       55.561113   0.000000
   60       55.561113   0.000000
   61       55.820050   0.000000
   62       55.820050   0.000000
   63       56.894676   0.000000
   64       56.894676   0.000000
   65       57.509591   0.000000
   66       57.509591   0.000000
   67       58.720229   0.000000
   68       58.720229   0.000000
   69       60.563541   0.000000
   70       60.563541   0.000000
   71       61.371673   0.000000
   72       61.371673   0.000000
   73       62.337304   0.000000
   74       62.337304   0.000000
   75       63.112558   0.000000
   76       63.112558   0.000000
   77       66.207043   0.000000
   78       66.207043   0.000000
   79       66.269581   0.000000
   80       66.269581   0.000000
   81       66.717451   0.000000
   82       66.717451   0.000000
   83       67.063602   0.000000
   84       67.063602   0.000000
   85       71.665311   0.000000
   86       71.665311   0.000000
   87       72.405666   0.000000
   88       72.405666   0.000000
   89       74.396507   0.000000
   90       74.396507   0.000000
   91       75.741796   0.000000
   92       75.741796   0.000000
   93       76.688441   0.000000
   94       76.688441   0.000000
   95       77.807946   0.000000
   96       77.807946   0.000000
   97       78.238180   0.000000
   98       78.238180   0.000000
   99       79.269959   0.000000
  100       79.269959   0.000000
  101       79.536463   0.000000
  102       79.536463   0.000000
  103       79.721564   0.000000
  104       79.721564   0.000000
  105       80.109108   0.000000
  106       80.109108   0.000000
  107       80.700176   0.000000
  108       80.700176   0.000000
  109       81.164598   0.000000
  110       81.164598   0.000000
  111       82.947481   0.000000
  112       82.947481   0.000000
  113       89.154016   0.000000
  114       89.154016   0.000000
  115       89.257677   0.000000
  116       89.257677   0.000000
  117       89.542052   0.000000
  118       89.542052   0.000000
  119       89.929402   0.000000
  120       89.929402   0.000000
  121       90.826743   0.000000
  122       90.826743   0.000000
  123       91.644586   0.000000
  124       91.644586   0.000000
  125       92.919650   0.000000
  126       92.919650   0.000000
  127       94.971113   0.000000
  128       94.971113   0.000000
  129       95.164804   0.000000
  130       95.164804   0.000000
  131       98.489718   0.000000
  132       98.489718   0.000000
  133      100.075032   0.000000
  134      100.075032   0.000000
  135      101.767350   0.000000
  136      101.767350   0.000000
  137      102.673789   0.000000
  138      102.673789   0.000000
  139      102.916693   0.000000
  140      102.916693   0.000000
  141      103.563768   0.000000
  142      103.563768   0.000000
  143      104.087559   0.000000
  144      104.087559   0.000000
  145      104.632378   0.000000
  146      104.632378   0.000000
  147      106.131593   0.000000
  148      106.131593   0.000000
  149      106.252651   0.000000
  150      106.252651   0.000000
  151      106.984676   0.000000
  152      106.984676   0.000000
  153      109.208268   0.000000
  154      109.208268   0.000000
  155      109.443188   0.000000
  156      109.443188   0.000000
  157      111.131940   0.000000
  158      111.131940   0.000000
  159      111.341152   0.000000
  160      111.341152   0.000000
  161      111.651669   0.000000
  162      111.651669   0.000000
  163      111.864589   0.000000
  164      111.864589   0.000000
  165      112.229766   0.000000
  166      112.229766   0.000000
  167      114.237198   0.000000
  168      114.237198   0.000000
  169      115.635883   0.000000
  170      115.635883   0.000000
  171      118.986735   0.000000
  172      118.986735   0.000000
  173      119.524470   0.000000
  174      119.524470   0.000000
  175      119.731927   0.000000
  176      119.731927   0.000000
  177      120.541143   0.000000
  178      120.541143   0.000000
  179      120.548435   0.000000
  180      120.548435   0.000000
  181      121.008886   0.000000
  182      121.008886   0.000000
  183      121.293105   0.000000
  184      121.293105   0.000000
  185      121.384751   0.000000
  186      121.384751   0.000000
  187      125.259864   0.000000
  188      125.259864   0.000000
  189      125.819327   0.000000
  190      125.819327   0.000000
  191      125.949265   0.000000
  192      125.949265   0.000000
  193      126.541742   0.000000
  194      126.541742   0.000000
  195      127.036480   0.000000
  196      127.036480   0.000000
  197      127.201783   0.000000
  198      127.201783   0.000000
  199      128.398331   0.000000
  200      128.398331   0.000000
  201      129.659447   0.000000
  202      129.659447   0.000000
  203      130.600953   0.000000
  204      130.600953   0.000000
  205      130.794459   0.000000
  206      130.794459   0.000000
  207      131.102743   0.000000
  208      131.102743   0.000000
  209      131.687330   0.000000
  210      131.687330   0.000000
  211      132.284383   0.000000
  212      132.284383   0.000000
  213      132.740251   0.000000
  214      132.740251   0.000000
  215      137.036478   0.000000
  216      137.036478   0.000000
  217      137.203813   0.000000
  218      137.203813   0.000000
  219      138.805516   0.000000
  220      138.805516   0.000000
  221      138.892135   0.000000
  222      138.892135   0.000000
  223      139.177844   0.000000
  224      139.177844   0.000000
  225      140.595050   0.000000
  226      140.595050   0.000000
  227      141.401221   0.000000
  228      141.401221   0.000000
  229      145.871228   0.000000
  230      145.871228   0.000000
  231      146.298021   0.000000
  232      146.298021   0.000000
  233      146.628974   0.000000
  234      146.628974   0.000000
  235      147.054310   0.000000
  236      147.054310   0.000000
  237      147.390431   0.000000
  238      147.390431   0.000000
  239      148.207829   0.000000
  240      148.207829   0.000000
  241      149.042941   0.000000
  242      149.042941   0.000000
  243      149.114447   0.000000
  244      149.114447   0.000000
  245      149.147505   0.000000
  246      149.147505   0.000000
  247      149.316581   0.000000
  248      149.316581   0.000000
  249      150.588693   0.000000
  250      150.588693   0.000000
  251      150.651648   0.000000
  252      150.651648   0.000000
  253      156.966913   0.000000
  254      156.966913   0.000000
  255      157.473379   0.000000
  256      157.473379   0.000000
 
  0.5000000E+00  0.0000000E+00  0.0000000E+00  0.4629630E-02
    1       -8.701945   1.000000
    2       -8.701944   1.000000
    3       -8.674883   1.000000
    4       -8.674883   1.000000
    5       -5.513726   1.000000
    6       -5.513726   1.000000
    7       -5.149197   1.000000
    8       -5.149197   1.000000
    9       -3.808062   1.000000
   10       -3.808062   1.000000
   11       -1.765971   1.000000
   12       -1.765970   1.000000
   13        3.446227   0.000000
   14        3.446227   0.000000
   15       13.205900   0.000000
   16       13.205901   0.000000
   17       15.835620   0.000000
   18       15.835620   0.000000
   19       19.309281   0.000000
   20       19.309282   0.000000
   21       21.890498   0.000000
   22       21.890499   0.000000
   23       23.998972   0.000000
   24       23.998972   0.000000
   25       25.183478   0.000000
   26       25.183478   0.000000
   27       29.337956   0.000000
   28       29.337956   0.000000
   29       30.507190   0.000000
   30       30.507190   0.000000
   31       30.569750   0.000000
   32       30.569750   0.000000
   33       32.780630   0.000000
   34       32.780630   0.000000
   35       33.098474   0.000000
   36       33.098474   0.000000
   37       36.117676   0.000000
   38       36.117676   0.000000
   39       37.457683   0.000000
   40       37.457683   0.000000
   41       39.730680   0.000000
   42       39.730680   0.000000
   43       40.062808   0.000000
   44       40.062808   0.000000
   45       41.562831   0.000000
   46       41.562831   0.000000
   47       42.188778   0.000000
   48       42.188778   0.000000
   49       43.555164   0.000000
   50       43.555164   0.000000
   51       46.798535   0.000000
   52       46.798535   0.000000
   53       51.983600   0.000000
   54       51.983600   0.000000
   55       52.056345   0.000000
   56       52.056345   0.000000
   57       53.467987   0.000000
   58       53.467987   0.000000
   59       54.101774   0.000000
   60       54.101774   0.000000
   61       54.690275   0.000000
   62       54.690275   0.000000
   63       56.123826   0.000000
   64       56.123826   0.000000
   65       56.200940   0.000000
   66       56.200940   0.000000
   67       59.140121   0.000000
   68       59.140121   0.000000
   69       61.471111   0.000000
   70       61.471111   0.000000
   71       62.124274   0.000000
   72       62.124274   0.000000
   73       63.764467   0.000000
   74       63.764467   0.000000
   75       65.187369   0.000000
   76       65.187369   0.000000
   77       67.456783   0.000000
   78       67.456783   0.000000
   79       67.673227   0.000000
   80       67.673227   0.000000
   81       68.174676   0.000000
   82       68.174676   0.000000
   83       69.775584   0.000000
   84       69.775584   0.000000
   85       70.365532   0.000000
   86       70.365532   0.000000
   87       70.775630   0.000000
   88       70.775630   0.000000
   89       71.147509   0.000000
   90       71.147509   0.000000
   91       72.261355   0.000000
   92       72.261355   0.000000
   93       72.437410   0.000000
   94       72.437410   0.000000
   95       72.677826   0.000000
   96       72.677826   0.000000
   97       76.754310   0.000000
   98       76.754310   0.000000
   99       78.964067   0.000000
  100       78.964067   0.000000
  101       79.152974   0.000000
  102       79.152974   0.000000
  103       80.910000   0.000000
  104       80.910000   0.000000
  105       85.700147   0.000000
  106       85.700147   0.000000
  107       86.236631   0.000000
  108       86.236631   0.000000
  109       86.425996   0.000000
  110       86.425996   0.000000
  111       86.721024   0.000000
  112       86.721024   0.000000
  113       88.260993   0.000000
  114       88.260993   0.000000
  115       89.482714   0.000000
  116       89.482714   0.000000
  117       89.953898   0.000000
  118       89.953898   0.000000
  119       90.467724   0.000000
  120       90.467724   0.000000
  121       91.242045   0.000000
  122       91.242045   0.000000
  123       92.744805   0.000000
  124       92.744805   0.000000
  125       92.837911   0.000000
  126       92.837911   0.000000
  127       94.174658   0.000000