 vasp.5.4.4.18Apr17-6-g9f103f2a35 (build Nov 03 2018 10:20:46) complex          
  
 executed on             LinuxIFC date 2018.12.22  11:23:46
 running on   64 total cores
 distrk:  each k-point on    4 cores,   16 groups
 distr:  one band on NCORES_PER_BAND=   1 cores,    4 groups


--------------------------------------------------------------------------------------------------------


 INCAR:
 POTCAR:    Cn-PAW, fit to 4c-PBE, JanMewes Oct18 

 ----------------------------------------------------------------------------- 
|                                                                             |
|           W    W    AA    RRRRR   N    N  II  N    N   GGGG   !!!           |
|           W    W   A  A   R    R  NN   N  II  NN   N  G    G  !!!           |
|           W    W  A    A  R    R  N N  N  II  N N  N  G       !!!           |
|           W WW W  AAAAAA  RRRRR   N  N N  II  N  N N  G  GGG   !            |
|           WW  WW  A    A  R   R   N   NN  II  N   NN  G    G                |
|           W    W  A    A  R    R  N    N  II  N    N   GGGG   !!!           |
|                                                                             |
|      For optimal performance we recommend to set                            |
|        NCORE= 4 - approx SQRT( number of cores)                             |
|      NCORE specifies how many cores store one orbital (NPAR=cpu/NCORE).     |
|      This setting can  greatly improve the performance of VASP for DFT.     |
|      The default,   NCORE=1            might be grossly inefficient         |
|      on modern multi-core architectures or massively parallel machines.     |
|      Do your own testing !!!!                                               |
|      Unfortunately you need to use the default for GW and RPA calculations. |
|      (for HF NCORE is supported but not extensively tested yet)             |
|                                                                             |
 ----------------------------------------------------------------------------- 


 ----------------------------------------------------------------------------- 
|                                                                             |
|           W    W    AA    RRRRR   N    N  II  N    N   GGGG   !!!           |
|           W    W   A  A   R    R  NN   N  II  NN   N  G    G  !!!           |
|           W    W  A    A  R    R  N N  N  II  N N  N  G       !!!           |
|           W WW W  AAAAAA  RRRRR   N  N N  II  N  N N  G  GGG   !            |
|           WW  WW  A    A  R   R   N   NN  II  N   NN  G    G                |
|           W    W  A    A  R    R  N    N  II  N    N   GGGG   !!!           |
|                                                                             |
|      You have enabled k-point parallelism (KPAR>1).                         |
|      This developmental code was originally  written by Paul Kent at ORNL,  |
|      and carefully double checked in Vienna.                                |
|      GW as well as linear response parallelism added by Martijn Marsman     |
|      and Georg Kresse.                                                      |
|      Carefully verify results versus KPAR=1.                                |
|      Report problems to Paul Kent and Vienna.                               |
|                                                                             |
 ----------------------------------------------------------------------------- 

 POTCAR:    Cn-PAW, fit to 4c-PBE, JanMewes Oct18 
  local pseudopotential read in
  partial core-charges read in
  partial kinetic energy density read in
  kinetic energy density of atom read in
  atomic valenz-charges read in
  non local Contribution for L=           2  read in
    real space projection operators read in
  non local Contribution for L=           2  read in
    real space projection operators read in
  non local Contribution for L=           0  read in
    real space projection operators read in
  non local Contribution for L=           0  read in
    real space projection operators read in
  non local Contribution for L=           1  read in
    real space projection operators read in
  non local Contribution for L=           1  read in
    real space projection operators read in
    PAW grid and wavefunctions read in
 
   number of l-projection  operators is LMAX  =           6
   number of lm-projection operators is LMMAX =          18
 
  Cn-PAW, fit to 4c-PBE, JanMewes Oct18 :
 energy of atom  1       EATOM=-1021.7933
 kinetic energy error for atom=    0.0874 (will be added to EATOM!!)
 
 
 POSCAR: Cn BCC                                  
  positions in direct lattice
  velocities in cartesian coordinates
 exchange correlation table for  LEXCH =        8
   RHO(1)=    0.500       N(1)  =     2000
   RHO(2)=  100.500       N(2)  =     4000
 


--------------------------------------------------------------------------------------------------------


 ion  position               nearest neighbor table
   1  0.000  0.000  0.000-
 

IMPORTANT INFORMATION: All symmetrisations will be switched off!
NOSYMM: (Re-)initialisation of all symmetry stuff for point group C_1.

 
 
 KPOINTS: k-points                                

Automatic generation of k-mesh.
Space group operators:
 irot       det(A)        alpha          n_x          n_y          n_z        tau_x        tau_y        tau_z
    1     1.000000     0.000001     1.000000     0.000000     0.000000     0.000000     0.000000     0.000000
 
 Subroutine IBZKPT returns following result:
 ===========================================
 
 Found    216 irreducible k-points:
 
 Following reciprocal coordinates:
            Coordinates               Weight
  0.000000  0.000000  0.000000      1.000000
  0.166667  0.000000  0.000000      1.000000
  0.333333  0.000000 -0.000000      1.000000
  0.500000  0.000000  0.000000      1.000000
 -0.333333 -0.000000  0.000000      1.000000
 -0.166667  0.000000  0.000000      1.000000
  0.000000  0.166667  0.000000      1.000000
  0.166667  0.166667  0.000000      1.000000
  0.333333  0.166667  0.000000      1.000000
  0.500000  0.166667  0.000000      1.000000
 -0.333333  0.166667 -0.000000      1.000000
 -0.166667  0.166667 -0.000000      1.000000
  0.000000  0.333333  0.000000      1.000000
  0.166667  0.333333  0.000000      1.000000
  0.333333  0.333333  0.000000      1.000000
  0.500000  0.333333  0.000000      1.000000
 -0.333333  0.333333  0.000000      1.000000
 -0.166667  0.333333  0.000000      1.000000
  0.000000  0.500000 -0.000000      1.000000
  0.166667  0.500000  0.000000      1.000000
  0.333333  0.500000  0.000000      1.000000
  0.500000  0.500000 -0.000000      1.000000
 -0.333333  0.500000 -0.000000      1.000000
 -0.166667  0.500000  0.000000      1.000000
  0.000000 -0.333333 -0.000000      1.000000
  0.166667 -0.333333 -0.000000      1.000000
  0.333333 -0.333333 -0.000000      1.000000
  0.500000 -0.333333 -0.000000      1.000000
 -0.333333 -0.333333  0.000000      1.000000
 -0.166667 -0.333333 -0.000000      1.000000
  0.000000 -0.166667 -0.000000      1.000000
  0.166667 -0.166667  0.000000      1.000000
  0.333333 -0.166667  0.000000      1.000000
  0.500000 -0.166667  0.000000      1.000000
 -0.333333 -0.166667 -0.000000      1.000000
 -0.166667 -0.166667 -0.000000      1.000000
  0.000000  0.000000  0.166667      1.000000
  0.166667  0.000000  0.166667      1.000000
  0.333333  0.000000  0.166667      1.000000
  0.500000  0.000000  0.166667      1.000000
 -0.333333 -0.000000  0.166667      1.000000
 -0.166667  0.000000  0.166667      1.000000
  0.000000  0.166667  0.166667      1.000000
  0.166667  0.166667  0.166667      1.000000
  0.333333  0.166667  0.166667      1.000000
  0.500000  0.166667  0.166667      1.000000
 -0.333333  0.166667  0.166667      1.000000
 -0.166667  0.166667  0.166667      1.000000
  0.000000  0.333333  0.166667      1.000000
  0.166667  0.333333  0.166667      1.000000
  0.333333  0.333333  0.166667      1.000000
  0.500000  0.333333  0.166667      1.000000
 -0.333333  0.333333  0.166667      1.000000
 -0.166667  0.333333  0.166667      1.000000
  0.000000  0.500000  0.166667      1.000000
  0.166667  0.500000  0.166667      1.000000
  0.333333  0.500000  0.166667      1.000000
  0.500000  0.500000  0.166667      1.000000
 -0.333333  0.500000  0.166667      1.000000
 -0.166667  0.500000  0.166667      1.000000
  0.000000 -0.333333  0.166667      1.000000
  0.166667 -0.333333  0.166667      1.000000
  0.333333 -0.333333  0.166667      1.000000
  0.500000 -0.333333  0.166667      1.000000
 -0.333333 -0.333333  0.166667      1.000000
 -0.166667 -0.333333  0.166667      1.000000
  0.000000 -0.166667  0.166667      1.000000
  0.166667 -0.166667  0.166667      1.000000
  0.333333 -0.166667  0.166667      1.000000
  0.500000 -0.166667  0.166667      1.000000
 -0.333333 -0.166667  0.166667      1.000000
 -0.166667 -0.166667  0.166667      1.000000
  0.000000  0.000000  0.333333      1.000000
  0.166667  0.000000  0.333333      1.000000
  0.333333  0.000000  0.333333      1.000000
  0.500000  0.000000  0.333333      1.000000
 -0.333333 -0.000000  0.333333      1.000000
 -0.166667  0.000000  0.333333      1.000000
  0.000000  0.166667  0.333333      1.000000
  0.166667  0.166667  0.333333      1.000000
  0.333333  0.166667  0.333333      1.000000
  0.500000  0.166667  0.333333      1.000000
 -0.333333  0.166667  0.333333      1.000000
 -0.166667  0.166667  0.333333      1.000000
  0.000000  0.333333  0.333333      1.000000
  0.166667  0.333333  0.333333      1.000000
  0.333333  0.333333  0.333333      1.000000
  0.500000  0.333333  0.333333      1.000000
 -0.333333  0.333333  0.333333      1.000000
 -0.166667  0.333333  0.333333      1.000000
  0.000000  0.500000  0.333333      1.000000
  0.166667  0.500000  0.333333      1.000000
  0.333333  0.500000  0.333333      1.000000
  0.500000  0.500000  0.333333      1.000000
 -0.333333  0.500000  0.333333      1.000000
 -0.166667  0.500000  0.333333      1.000000
  0.000000 -0.333333  0.333333      1.000000
  0.166667 -0.333333  0.333333      1.000000
  0.333333 -0.333333  0.333333      1.000000
  0.500000 -0.333333  0.333333      1.000000
 -0.333333 -0.333333  0.333333      1.000000
 -0.166667 -0.333333  0.333333      1.000000
  0.000000 -0.166667  0.333333      1.000000
  0.166667 -0.166667  0.333333      1.000000
  0.333333 -0.166667  0.333333      1.000000
  0.500000 -0.166667  0.333333      1.000000
 -0.333333 -0.166667  0.333333      1.000000
 -0.166667 -0.166667  0.333333      1.000000
  0.000000  0.000000  0.500000      1.000000
  0.166667  0.000000  0.500000      1.000000
  0.333333  0.000000  0.500000      1.000000
  0.500000  0.000000  0.500000      1.000000
 -0.333333 -0.000000  0.500000      1.000000
 -0.166667  0.000000  0.500000      1.000000
  0.000000  0.166667  0.500000      1.000000
  0.166667  0.166667  0.500000      1.000000
  0.333333  0.166667  0.500000      1.000000
  0.500000  0.166667  0.500000      1.000000
 -0.333333  0.166667  0.500000      1.000000
 -0.166667  0.166667  0.500000      1.000000
  0.000000  0.333333  0.500000      1.000000
  0.166667  0.333333  0.500000      1.000000
  0.333333  0.333333  0.500000      1.000000
  0.500000  0.333333  0.500000      1.000000
 -0.333333  0.333333  0.500000      1.000000
 -0.166667  0.333333  0.500000      1.000000
  0.000000  0.500000  0.500000      1.000000
  0.166667  0.500000  0.500000      1.000000
  0.333333  0.500000  0.500000      1.000000
  0.500000  0.500000  0.500000      1.000000
 -0.333333  0.500000  0.500000      1.000000
 -0.166667  0.500000  0.500000      1.000000
  0.000000 -0.333333  0.500000      1.000000
  0.166667 -0.333333  0.500000      1.000000
  0.333333 -0.333333  0.500000      1.000000
  0.500000 -0.333333  0.500000      1.000000
 -0.333333 -0.333333  0.500000      1.000000
 -0.166667 -0.333333  0.500000      1.000000
  0.000000 -0.166667  0.500000      1.000000
  0.166667 -0.166667  0.500000      1.000000
  0.333333 -0.166667  0.500000      1.000000
  0.500000 -0.166667  0.500000      1.000000
 -0.333333 -0.166667  0.500000      1.000000
 -0.166667 -0.166667  0.500000      1.000000
  0.000000  0.000000 -0.333333      1.000000
  0.166667  0.000000 -0.333333      1.000000
  0.333333  0.000000 -0.333333      1.000000
  0.500000  0.000000 -0.333333      1.000000
 -0.333333 -0.000000 -0.333333      1.000000
 -0.166667  0.000000 -0.333333      1.000000
  0.000000  0.166667 -0.333333      1.000000
  0.166667  0.166667 -0.333333      1.000000
  0.333333  0.166667 -0.333333      1.000000
  0.500000  0.166667 -0.333333      1.000000
 -0.333333  0.166667 -0.333333      1.000000
 -0.166667  0.166667 -0.333333      1.000000
  0.000000  0.333333 -0.333333      1.000000
  0.166667  0.333333 -0.333333      1.000000
  0.333333  0.333333 -0.333333      1.000000
  0.500000  0.333333 -0.333333      1.000000
 -0.333333  0.333333 -0.333333      1.000000
 -0.166667  0.333333 -0.333333      1.000000
  0.000000  0.500000 -0.333333      1.000000
  0.166667  0.500000 -0.333333      1.000000
  0.333333  0.500000 -0.333333      1.000000
  0.500000  0.500000 -0.333333      1.000000
 -0.333333  0.500000 -0.333333      1.000000
 -0.166667  0.500000 -0.333333      1.000000
  0.000000 -0.333333 -0.333333      1.000000
  0.166667 -0.333333 -0.333333      1.000000
  0.333333 -0.333333 -0.333333      1.000000
  0.500000 -0.333333 -0.333333      1.000000
 -0.333333 -0.333333 -0.333333      1.000000
 -0.166667 -0.333333 -0.333333      1.000000
  0.000000 -0.166667 -0.333333      1.000000
  0.166667 -0.166667 -0.333333      1.000000
  0.333333 -0.166667 -0.333333      1.000000
  0.500000 -0.166667 -0.333333      1.000000
 -0.333333 -0.166667 -0.333333      1.000000
 -0.166667 -0.166667 -0.333333      1.000000
  0.000000  0.000000 -0.166667      1.000000
  0.166667  0.000000 -0.166667      1.000000
  0.333333  0.000000 -0.166667      1.000000
  0.500000  0.000000 -0.166667      1.000000
 -0.333333 -0.000000 -0.166667      1.000000
 -0.166667  0.000000 -0.166667      1.000000
  0.000000  0.166667 -0.166667      1.000000
  0.166667  0.166667 -0.166667      1.000000
  0.333333  0.166667 -0.166667      1.000000
  0.500000  0.166667 -0.166667      1.000000
 -0.333333  0.166667 -0.166667      1.000000
 -0.166667  0.166667 -0.166667      1.000000
  0.000000  0.333333 -0.166667      1.000000
  0.166667  0.333333 -0.166667      1.000000
  0.333333  0.333333 -0.166667      1.000000
  0.500000  0.333333 -0.166667      1.000000
 -0.333333  0.333333 -0.166667      1.000000
 -0.166667  0.333333 -0.166667      1.000000
  0.000000  0.500000 -0.166667      1.000000
  0.166667  0.500000 -0.166667      1.000000
  0.333333  0.500000 -0.166667      1.000000
  0.500000  0.500000 -0.166667      1.000000
 -0.333333  0.500000 -0.166667      1.000000
 -0.166667  0.500000 -0.166667      1.000000
  0.000000 -0.333333 -0.166667      1.000000
  0.166667 -0.333333 -0.166667      1.000000
  0.333333 -0.333333 -0.166667      1.000000
  0.500000 -0.333333 -0.166667      1.000000
 -0.333333 -0.333333 -0.166667      1.000000
 -0.166667 -0.333333 -0.166667      1.000000
  0.000000 -0.166667 -0.166667      1.000000
  0.166667 -0.166667 -0.166667      1.000000
  0.333333 -0.166667 -0.166667      1.000000
  0.500000 -0.166667 -0.166667      1.000000
 -0.333333 -0.166667 -0.166667      1.000000
 -0.166667 -0.166667 -0.166667      1.000000
 
 Following cartesian coordinates:
            Coordinates               Weight
  0.000000  0.000000  0.000000      1.000000
  0.051407  0.018175  0.031479      1.000000
  0.102814  0.036350  0.062959      1.000000
  0.154221  0.054525  0.094438      1.000000
 -0.102814 -0.036350 -0.062959      1.000000
 -0.051407 -0.018175 -0.031479      1.000000
  0.000000  0.054525  0.031479      1.000000
  0.051407  0.072700  0.062959      1.000000
  0.102814  0.090875  0.094438      1.000000
  0.154221  0.109050  0.125918      1.000000
 -0.102814  0.018175 -0.031479      1.000000
 -0.051407  0.036350  0.000000      1.000000
  0.000000  0.109050  0.062959      1.000000
  0.051407  0.127225  0.094438      1.000000
  0.102814  0.145400  0.125918      1.000000
  0.154221  0.163575  0.157397      1.000000
 -0.102814  0.072701  0.000000      1.000000
 -0.051407  0.090876  0.031479      1.000000
  0.000000  0.163576  0.094438      1.000000
  0.051407  0.181751  0.125918      1.000000
  0.102814  0.199926  0.157397      1.000000
  0.154221  0.218100  0.188877      1.000000
 -0.102814  0.127226  0.031479      1.000000
 -0.051407  0.145401  0.062959      1.000000
  0.000000 -0.109050 -0.062959      1.000000
  0.051407 -0.090876 -0.031479      1.000000
  0.102814 -0.072701 -0.000000      1.000000
  0.154221 -0.054526  0.031479      1.000000
 -0.102814 -0.145400 -0.125918      1.000000
 -0.051407 -0.127225 -0.094438      1.000000
  0.000000 -0.054525 -0.031479      1.000000
  0.051407 -0.036350 -0.000000      1.000000
  0.102814 -0.018175  0.031479      1.000000
  0.154221 -0.000001  0.062959      1.000000
 -0.102814 -0.090875 -0.094438      1.000000
 -0.051407 -0.072700 -0.062959      1.000000
  0.000000  0.000000  0.062960      1.000000
  0.051407  0.018175  0.094439      1.000000
  0.102814  0.036350  0.125919      1.000000
  0.154221  0.054525  0.157398      1.000000
 -0.102814 -0.036350  0.000001      1.000000
 -0.051407 -0.018175  0.031481      1.000000
  0.000000  0.054525  0.094439      1.000000
  0.051407  0.072700  0.125919      1.000000
  0.102814  0.090875  0.157398      1.000000
  0.154221  0.109050  0.188878      1.000000
 -0.102814  0.018175  0.031481      1.000000
 -0.051407  0.036350  0.062960      1.000000
  0.000000  0.109050  0.125919      1.000000
  0.051407  0.127225  0.157398      1.000000
  0.102814  0.145400  0.188878      1.000000
  0.154221  0.163575  0.220357      1.000000
 -0.102814  0.072701  0.062960      1.000000
 -0.051407  0.090876  0.094439      1.000000
  0.000000  0.163576  0.157398      1.000000
  0.051407  0.181751  0.188878      1.000000
  0.102814  0.199926  0.220357      1.000000
  0.154221  0.218100  0.251837      1.000000
 -0.102814  0.127226  0.094439      1.000000
 -0.051407  0.145401  0.125919      1.000000
  0.000000 -0.109050  0.000001      1.000000
  0.051407 -0.090876  0.031481      1.000000
  0.102814 -0.072701  0.062960      1.000000
  0.154221 -0.054526  0.094439      1.000000
 -0.102814 -0.145400 -0.062958      1.000000
 -0.051407 -0.127225 -0.031478      1.000000
  0.000000 -0.054525  0.031481      1.000000
  0.051407 -0.036350  0.062960      1.000000
  0.102814 -0.018175  0.094439      1.000000
  0.154221 -0.000001  0.125919      1.000000
 -0.102814 -0.090875 -0.031478      1.000000
 -0.051407 -0.072700  0.000001      1.000000
  0.000000  0.000000  0.125920      1.000000
  0.051407  0.018175  0.157399      1.000000
  0.102814  0.036350  0.188879      1.000000
  0.154221  0.054525  0.220358      1.000000
 -0.102814 -0.036350  0.062961      1.000000
 -0.051407 -0.018175  0.094440      1.000000
  0.000000  0.054525  0.157399      1.000000
  0.051407  0.072700  0.188879      1.000000
  0.102814  0.090875  0.220358      1.000000
  0.154221  0.109050  0.251838      1.000000
 -0.102814  0.018175  0.094440      1.000000
 -0.051407  0.036350  0.125920      1.000000
  0.000000  0.109050  0.188879      1.000000
  0.051407  0.127225  0.220358      1.000000
  0.102814  0.145400  0.251838      1.000000
  0.154221  0.163575  0.283317      1.000000
 -0.102814  0.072701  0.125920      1.000000
 -0.051407  0.090876  0.157399      1.000000
  0.000000  0.163576  0.220358      1.000000
  0.051407  0.181751  0.251838      1.000000
  0.102814  0.199926  0.283317      1.000000
  0.154221  0.218100  0.314797      1.000000
 -0.102814  0.127226  0.157399      1.000000
 -0.051407  0.145401  0.188879      1.000000
  0.000000 -0.109050  0.062961      1.000000
  0.051407 -0.090876  0.094440      1.000000
  0.102814 -0.072701  0.125920      1.000000
  0.154221 -0.054526  0.157399      1.000000
 -0.102814 -0.145400  0.000002      1.000000
 -0.051407 -0.127225  0.031482      1.000000
  0.000000 -0.054525  0.094440      1.000000
  0.051407 -0.036350  0.125920      1.000000
  0.102814 -0.018175  0.157399      1.000000
  0.154221 -0.000001  0.188879      1.000000
 -0.102814 -0.090875  0.031482      1.000000
 -0.051407 -0.072700  0.062961      1.000000
  0.000000  0.000000  0.188880      1.000000
  0.051407  0.018175  0.220359      1.000000
  0.102814  0.036350  0.251839      1.000000
  0.154221  0.054525  0.283318      1.000000
 -0.102814 -0.036350  0.125921      1.000000
 -0.051407 -0.018175  0.157400      1.000000
  0.000000  0.054525  0.220359      1.000000
  0.051407  0.072700  0.251839      1.000000
  0.102814  0.090875  0.283318      1.000000
  0.154221  0.109050  0.314798      1.000000
 -0.102814  0.018175  0.157400      1.000000
 -0.051407  0.036350  0.188880      1.000000
  0.000000  0.109050  0.251839      1.000000
  0.051407  0.127225  0.283318      1.000000
  0.102814  0.145400  0.314798      1.000000
  0.154221  0.163575  0.346277      1.000000
 -0.102814  0.072701  0.188880      1.000000
 -0.051407  0.090876  0.220359      1.000000
  0.000000  0.163576  0.283318      1.000000
  0.051407  0.181751  0.314798      1.000000
  0.102814  0.199926  0.346277      1.000000
  0.154221  0.218100  0.377757      1.000000
 -0.102814  0.127226  0.220359      1.000000
 -0.051407  0.145401  0.251839      1.000000
  0.000000 -0.109050  0.125921      1.000000
  0.051407 -0.090876  0.157400      1.000000
  0.102814 -0.072701  0.188880      1.000000
  0.154221 -0.054526  0.220359      1.000000
 -0.102814 -0.145400  0.062962      1.000000
 -0.051407 -0.127225  0.094442      1.000000
  0.000000 -0.054525  0.157400      1.000000
  0.051407 -0.036350  0.188880      1.000000
  0.102814 -0.018175  0.220359      1.000000
  0.154221 -0.000001  0.251839      1.000000
 -0.102814 -0.090875  0.094442      1.000000
 -0.051407 -0.072700  0.125921      1.000000
  0.000000  0.000000 -0.125920      1.000000
  0.051407  0.018175 -0.094440      1.000000
  0.102814  0.036350 -0.062961      1.000000
  0.154221  0.054525 -0.031482      1.000000
 -0.102814 -0.036350 -0.188879      1.000000
 -0.051407 -0.018175 -0.157399      1.000000
  0.000000  0.054525 -0.094440      1.000000
  0.051407  0.072700 -0.062961      1.000000
  0.102814  0.090875 -0.031482      1.000000
  0.154221  0.109050 -0.000002      1.000000
 -0.102814  0.018175 -0.157399      1.000000
 -0.051407  0.036350 -0.125920      1.000000
  0.000000  0.109050 -0.062961      1.000000
  0.051407  0.127225 -0.031482      1.000000
  0.102814  0.145400 -0.000002      1.000000
  0.154221  0.163575  0.031477      1.000000
 -0.102814  0.072701 -0.125920      1.000000
 -0.051407  0.090876 -0.094440      1.000000
  0.000000  0.163576 -0.031482      1.000000
  0.051407  0.181751 -0.000002      1.000000
  0.102814  0.199926  0.031477      1.000000
  0.154221  0.218100  0.062957      1.000000
 -0.102814  0.127226 -0.094440      1.000000
 -0.051407  0.145401 -0.062961      1.000000
  0.000000 -0.109050 -0.188879      1.000000
  0.051407 -0.090876 -0.157399      1.000000
  0.102814 -0.072701 -0.125920      1.000000
  0.154221 -0.054526 -0.094440      1.000000
 -0.102814 -0.145400 -0.251838      1.000000
 -0.051407 -0.127225 -0.220358      1.000000
  0.000000 -0.054525 -0.157399      1.000000
  0.051407 -0.036350 -0.125920      1.000000
  0.102814 -0.018175 -0.094440      1.000000
  0.154221 -0.000001 -0.062961      1.000000
 -0.102814 -0.090875 -0.220358      1.000000
 -0.051407 -0.072700 -0.188879      1.000000
  0.000000  0.000000 -0.062960      1.000000
  0.051407  0.018175 -0.031481      1.000000
  0.102814  0.036350 -0.000001      1.000000
  0.154221  0.054525  0.031478      1.000000
 -0.102814 -0.036350 -0.125919      1.000000
 -0.051407 -0.018175 -0.094439      1.000000
  0.000000  0.054525 -0.031481      1.000000
  0.051407  0.072700 -0.000001      1.000000
  0.102814  0.090875  0.031478      1.000000
  0.154221  0.109050  0.062958      1.000000
 -0.102814  0.018175 -0.094439      1.000000
 -0.051407  0.036350 -0.062960      1.000000
  0.000000  0.109050 -0.000001      1.000000
  0.051407  0.127225  0.031478      1.000000
  0.102814  0.145400  0.062958      1.000000
  0.154221  0.163575  0.094437      1.000000
 -0.102814  0.072701 -0.062960      1.000000
 -0.051407  0.090876 -0.031481      1.000000
  0.000000  0.163576  0.031478      1.000000
  0.051407  0.181751  0.062958      1.000000
  0.102814  0.199926  0.094437      1.000000
  0.154221  0.218100  0.125917      1.000000
 -0.102814  0.127226 -0.031481      1.000000
 -0.051407  0.145401 -0.000001      1.000000
  0.000000 -0.109050 -0.125919      1.000000
  0.051407 -0.090876 -0.094439      1.000000
  0.102814 -0.072701 -0.062960      1.000000
  0.154221 -0.054526 -0.031481      1.000000
 -0.102814 -0.145400 -0.188878      1.000000
 -0.051407 -0.127225 -0.157398      1.000000
  0.000000 -0.054525 -0.094439      1.000000
  0.051407 -0.036350 -0.062960      1.000000
  0.102814 -0.018175 -0.031481      1.000000
  0.154221 -0.000001 -0.000001      1.000000
 -0.102814 -0.090875 -0.157398      1.000000
 -0.051407 -0.072700 -0.125919      1.000000
 
 
 Subroutine IBZKPT_HF returns following result:
 ==============================================
 
 Found    216 k-points in 1st BZ
 the following    216 k-points will be used (e.g. in the exchange kernel)
 Following reciprocal coordinates:   # in IRBZ
  0.000000  0.000000  0.000000    0.00462963   1 t-inv F
  0.166667  0.000000  0.000000    0.00462963   2 t-inv F
  0.333333  0.000000 -0.000000    0.00462963   3 t-inv F
  0.500000  0.000000  0.000000    0.00462963   4 t-inv F
 -0.333333 -0.000000  0.000000    0.00462963   5 t-inv F
 -0.166667  0.000000  0.000000    0.00462963   6 t-inv F
  0.000000  0.166667  0.000000    0.00462963   7 t-inv F
  0.166667  0.166667  0.000000    0.00462963   8 t-inv F
  0.333333  0.166667  0.000000    0.00462963   9 t-inv F
  0.500000  0.166667  0.000000    0.00462963  10 t-inv F
 -0.333333  0.166667 -0.000000    0.00462963  11 t-inv F
 -0.166667  0.166667 -0.000000    0.00462963  12 t-inv F
  0.000000  0.333333  0.000000    0.00462963  13 t-inv F
  0.166667  0.333333  0.000000    0.00462963  14 t-inv F
  0.333333  0.333333  0.000000    0.00462963  15 t-inv F
  0.500000  0.333333  0.000000    0.00462963  16 t-inv F
 -0.333333  0.333333  0.000000    0.00462963  17 t-inv F
 -0.166667  0.333333  0.000000    0.00462963  18 t-inv F
  0.000000  0.500000 -0.000000    0.00462963  19 t-inv F
  0.166667  0.500000  0.000000    0.00462963  20 t-inv F
  0.333333  0.500000  0.000000    0.00462963  21 t-inv F
  0.500000  0.500000 -0.000000    0.00462963  22 t-inv F
 -0.333333  0.500000 -0.000000    0.00462963  23 t-inv F
 -0.166667  0.500000  0.000000    0.00462963  24 t-inv F
  0.000000 -0.333333 -0.000000    0.00462963  25 t-inv F
  0.166667 -0.333333 -0.000000    0.00462963  26 t-inv F
  0.333333 -0.333333 -0.000000    0.00462963  27 t-inv F
  0.500000 -0.333333 -0.000000    0.00462963  28 t-inv F
 -0.333333 -0.333333  0.000000    0.00462963  29 t-inv F
 -0.166667 -0.333333 -0.000000    0.00462963  30 t-inv F
  0.000000 -0.166667 -0.000000    0.00462963  31 t-inv F
  0.166667 -0.166667  0.000000    0.00462963  32 t-inv F
  0.333333 -0.166667  0.000000    0.00462963  33 t-inv F
  0.500000 -0.166667  0.000000    0.00462963  34 t-inv F
 -0.333333 -0.166667 -0.000000    0.00462963  35 t-inv F
 -0.166667 -0.166667 -0.000000    0.00462963  36 t-inv F
  0.000000  0.000000  0.166667    0.00462963  37 t-inv F
  0.166667  0.000000  0.166667    0.00462963  38 t-inv F
  0.333333  0.000000  0.166667    0.00462963  39 t-inv F
  0.500000  0.000000  0.166667    0.00462963  40 t-inv F
 -0.333333 -0.000000  0.166667    0.00462963  41 t-inv F
 -0.166667  0.000000  0.166667    0.00462963  42 t-inv F
  0.000000  0.166667  0.166667    0.00462963  43 t-inv F
  0.166667  0.166667  0.166667    0.00462963  44 t-inv F
  0.333333  0.166667  0.166667    0.00462963  45 t-inv F
  0.500000  0.166667  0.166667    0.00462963  46 t-inv F
 -0.333333  0.166667  0.166667    0.00462963  47 t-inv F
 -0.166667  0.166667  0.166667    0.00462963  48 t-inv F
  0.000000  0.333333  0.166667    0.00462963  49 t-inv F
  0.166667  0.333333  0.166667    0.00462963  50 t-inv F
  0.333333  0.333333  0.166667    0.00462963  51 t-inv F
  0.500000  0.333333  0.166667    0.00462963  52 t-inv F
 -0.333333  0.333333  0.166667    0.00462963  53 t-inv F
 -0.166667  0.333333  0.166667    0.00462963  54 t-inv F
  0.000000  0.500000  0.166667    0.00462963  55 t-inv F
  0.166667  0.500000  0.166667    0.00462963  56 t-inv F
  0.333333  0.500000  0.166667    0.00462963  57 t-inv F
  0.500000  0.500000  0.166667    0.00462963  58 t-inv F
 -0.333333  0.500000  0.166667    0.00462963  59 t-inv F
 -0.166667  0.500000  0.166667    0.00462963  60 t-inv F
  0.000000 -0.333333  0.166667    0.00462963  61 t-inv F
  0.166667 -0.333333  0.166667    0.00462963  62 t-inv F
  0.333333 -0.333333  0.166667    0.00462963  63 t-inv F
  0.500000 -0.333333  0.166667    0.00462963  64 t-inv F
 -0.333333 -0.333333  0.166667    0.00462963  65 t-inv F
 -0.166667 -0.333333  0.166667    0.00462963  66 t-inv F
  0.000000 -0.166667  0.166667    0.00462963  67 t-inv F
  0.166667 -0.166667  0.166667    0.00462963  68 t-inv F
  0.333333 -0.166667  0.166667    0.00462963  69 t-inv F
  0.500000 -0.166667  0.166667    0.00462963  70 t-inv F
 -0.333333 -0.166667  0.166667    0.00462963  71 t-inv F
 -0.166667 -0.166667  0.166667    0.00462963  72 t-inv F
  0.000000  0.000000  0.333333    0.00462963  73 t-inv F
  0.166667  0.000000  0.333333    0.00462963  74 t-inv F
  0.333333  0.000000  0.333333    0.00462963  75 t-inv F
  0.500000  0.000000  0.333333    0.00462963  76 t-inv F
 -0.333333 -0.000000  0.333333    0.00462963  77 t-inv F
 -0.166667  0.000000  0.333333    0.00462963  78 t-inv F
  0.000000  0.166667  0.333333    0.00462963  79 t-inv F
  0.166667  0.166667  0.333333    0.00462963  80 t-inv F
  0.333333  0.166667  0.333333    0.00462963  81 t-inv F
  0.500000  0.166667  0.333333    0.00462963  82 t-inv F
 -0.333333  0.166667  0.333333    0.00462963  83 t-inv F
 -0.166667  0.166667  0.333333    0.00462963  84 t-inv F
  0.000000  0.333333  0.333333    0.00462963  85 t-inv F
  0.166667  0.333333  0.333333    0.00462963  86 t-inv F
  0.333333  0.333333  0.333333    0.00462963  87 t-inv F
  0.500000  0.333333  0.333333    0.00462963  88 t-inv F
 -0.333333  0.333333  0.333333    0.00462963  89 t-inv F
 -0.166667  0.333333  0.333333    0.00462963  90 t-inv F
  0.000000  0.500000  0.333333    0.00462963  91 t-inv F
  0.166667  0.500000  0.333333    0.00462963  92 t-inv F
  0.333333  0.500000  0.333333    0.00462963  93 t-inv F
  0.500000  0.500000  0.333333    0.00462963  94 t-inv F
 -0.333333  0.500000  0.333333    0.00462963  95 t-inv F
 -0.166667  0.500000  0.333333    0.00462963  96 t-inv F
  0.000000 -0.333333  0.333333    0.00462963  97 t-inv F
  0.166667 -0.333333  0.333333    0.00462963  98 t-inv F
  0.333333 -0.333333  0.333333    0.00462963  99 t-inv F
  0.500000 -0.333333  0.333333    0.00462963 100 t-inv F
 -0.333333 -0.333333  0.333333    0.00462963 101 t-inv F
 -0.166667 -0.333333  0.333333    0.00462963 102 t-inv F
  0.000000 -0.166667  0.333333    0.00462963 103 t-inv F
  0.166667 -0.166667  0.333333    0.00462963 104 t-inv F
  0.333333 -0.166667  0.333333    0.00462963 105 t-inv F
  0.500000 -0.166667  0.333333    0.00462963 106 t-inv F
 -0.333333 -0.166667  0.333333    0.00462963 107 t-inv F
 -0.166667 -0.166667  0.333333    0.00462963 108 t-inv F
  0.000000  0.000000  0.500000    0.00462963 109 t-inv F
  0.166667  0.000000  0.500000    0.00462963 110 t-inv F
  0.333333  0.000000  0.500000    0.00462963 111 t-inv F
  0.500000  0.000000  0.500000    0.00462963 112 t-inv F
 -0.333333 -0.000000  0.500000    0.00462963 113 t-inv F
 -0.166667  0.000000  0.500000    0.00462963 114 t-inv F
  0.000000  0.166667  0.500000    0.00462963 115 t-inv F
  0.166667  0.166667  0.500000    0.00462963 116 t-inv F
  0.333333  0.166667  0.500000    0.00462963 117 t-inv F
  0.500000  0.166667  0.500000    0.00462963 118 t-inv F
 -0.333333  0.166667  0.500000    0.00462963 119 t-inv F
 -0.166667  0.166667  0.500000    0.00462963 120 t-inv F
  0.000000  0.333333  0.500000    0.00462963 121 t-inv F
  0.166667  0.333333  0.500000    0.00462963 122 t-inv F
  0.333333  0.333333  0.500000    0.00462963 123 t-inv F
  0.500000  0.333333  0.500000    0.00462963 124 t-inv F
 -0.333333  0.333333  0.500000    0.00462963 125 t-inv F
 -0.166667  0.333333  0.500000    0.00462963 126 t-inv F
  0.000000  0.500000  0.500000    0.00462963 127 t-inv F
  0.166667  0.500000  0.500000    0.00462963 128 t-inv F
  0.333333  0.500000  0.500000    0.00462963 129 t-inv F
  0.500000  0.500000  0.500000    0.00462963 130 t-inv F
 -0.333333  0.500000  0.500000    0.00462963 131 t-inv F
 -0.166667  0.500000  0.500000    0.00462963 132 t-inv F
  0.000000 -0.333333  0.500000    0.00462963 133 t-inv F
  0.166667 -0.333333  0.500000    0.00462963 134 t-inv F
  0.333333 -0.333333  0.500000    0.00462963 135 t-inv F
  0.500000 -0.333333  0.500000    0.00462963 136 t-inv F
 -0.333333 -0.333333  0.500000    0.00462963 137 t-inv F
 -0.166667 -0.333333  0.500000    0.00462963 138 t-inv F
  0.000000 -0.166667  0.500000    0.00462963 139 t-inv F
  0.166667 -0.166667  0.500000    0.00462963 140 t-inv F
  0.333333 -0.166667  0.500000    0.00462963 141 t-inv F
  0.500000 -0.166667  0.500000    0.00462963 142 t-inv F
 -0.333333 -0.166667  0.500000    0.00462963 143 t-inv F
 -0.166667 -0.166667  0.500000    0.00462963 144 t-inv F
  0.000000  0.000000 -0.333333    0.00462963 145 t-inv F
  0.166667  0.000000 -0.333333    0.00462963 146 t-inv F
  0.333333  0.000000 -0.333333    0.00462963 147 t-inv F
  0.500000  0.000000 -0.333333    0.00462963 148 t-inv F
 -0.333333 -0.000000 -0.333333    0.00462963 149 t-inv F
 -0.166667  0.000000 -0.333333    0.00462963 150 t-inv F
  0.000000  0.166667 -0.333333    0.00462963 151 t-inv F
  0.166667  0.166667 -0.333333    0.00462963 152 t-inv F
  0.333333  0.166667 -0.333333    0.00462963 153 t-inv F
  0.500000  0.166667 -0.333333    0.00462963 154 t-inv F
 -0.333333  0.166667 -0.333333    0.00462963 155 t-inv F
 -0.166667  0.166667 -0.333333    0.00462963 156 t-inv F
  0.000000  0.333333 -0.333333    0.00462963 157 t-inv F
  0.166667  0.333333 -0.333333    0.00462963 158 t-inv F
  0.333333  0.333333 -0.333333    0.00462963 159 t-inv F
  0.500000  0.333333 -0.333333    0.00462963 160 t-inv F
 -0.333333  0.333333 -0.333333    0.00462963 161 t-inv F
 -0.166667  0.333333 -0.333333    0.00462963 162 t-inv F
  0.000000  0.500000 -0.333333    0.00462963 163 t-inv F
  0.166667  0.500000 -0.333333    0.00462963 164 t-inv F
  0.333333  0.500000 -0.333333    0.00462963 165 t-inv F
  0.500000  0.500000 -0.333333    0.00462963 166 t-inv F
 -0.333333  0.500000 -0.333333    0.00462963 167 t-inv F
 -0.166667  0.500000 -0.333333    0.00462963 168 t-inv F
  0.000000 -0.333333 -0.333333    0.00462963 169 t-inv F
  0.166667 -0.333333 -0.333333    0.00462963 170 t-inv F
  0.333333 -0.333333 -0.333333    0.00462963 171 t-inv F
  0.500000 -0.333333 -0.333333    0.00462963 172 t-inv F
 -0.333333 -0.333333 -0.333333    0.00462963 173 t-inv F
 -0.166667 -0.333333 -0.333333    0.00462963 174 t-inv F
  0.000000 -0.166667 -0.333333    0.00462963 175 t-inv F
  0.166667 -0.166667 -0.333333    0.00462963 176 t-inv F
  0.333333 -0.166667 -0.333333    0.00462963 177 t-inv F
  0.500000 -0.166667 -0.333333    0.00462963 178 t-inv F
 -0.333333 -0.166667 -0.333333    0.00462963 179 t-inv F
 -0.166667 -0.166667 -0.333333    0.00462963 180 t-inv F
  0.000000  0.000000 -0.166667    0.00462963 181 t-inv F
  0.166667  0.000000 -0.166667    0.00462963 182 t-inv F
  0.333333  0.000000 -0.166667    0.00462963 183 t-inv F
  0.500000  0.000000 -0.166667    0.00462963 184 t-inv F
 -0.333333 -0.000000 -0.166667    0.00462963 185 t-inv F
 -0.166667  0.000000 -0.166667    0.00462963 186 t-inv F
  0.000000  0.166667 -0.166667    0.00462963 187 t-inv F
  0.166667  0.166667 -0.166667    0.00462963 188 t-inv F
  0.333333  0.166667 -0.166667    0.00462963 189 t-inv F
  0.500000  0.166667 -0.166667    0.00462963 190 t-inv F
 -0.333333  0.166667 -0.166667    0.00462963 191 t-inv F
 -0.166667  0.166667 -0.166667    0.00462963 192 t-inv F
  0.000000  0.333333 -0.166667    0.00462963 193 t-inv F
  0.166667  0.333333 -0.166667    0.00462963 194 t-inv F
  0.333333  0.333333 -0.166667    0.00462963 195 t-inv F
  0.500000  0.333333 -0.166667    0.00462963 196 t-inv F
 -0.333333  0.333333 -0.166667    0.00462963 197 t-inv F
 -0.166667  0.333333 -0.166667    0.00462963 198 t-inv F
  0.000000  0.500000 -0.166667    0.00462963 199 t-inv F
  0.166667  0.500000 -0.166667    0.00462963 200 t-inv F
  0.333333  0.500000 -0.166667    0.00462963 201 t-inv F
  0.500000  0.500000 -0.166667    0.00462963 202 t-inv F
 -0.333333  0.500000 -0.166667    0.00462963 203 t-inv F
 -0.166667  0.500000 -0.166667    0.00462963 204 t-inv F
  0.000000 -0.333333 -0.166667    0.00462963 205 t-inv F
  0.166667 -0.333333 -0.166667    0.00462963 206 t-inv F
  0.333333 -0.333333 -0.166667    0.00462963 207 t-inv F
  0.500000 -0.333333 -0.166667    0.00462963 208 t-inv F
 -0.333333 -0.333333 -0.166667    0.00462963 209 t-inv F
 -0.166667 -0.333333 -0.166667    0.00462963 210 t-inv F
  0.000000 -0.166667 -0.166667    0.00462963 211 t-inv F
  0.166667 -0.166667 -0.166667    0.00462963 212 t-inv F
  0.333333 -0.166667 -0.166667    0.00462963 213 t-inv F
  0.500000 -0.166667 -0.166667    0.00462963 214 t-inv F
 -0.333333 -0.166667 -0.166667    0.00462963 215 t-inv F
 -0.166667 -0.166667 -0.166667    0.00462963 216 t-inv F


--------------------------------------------------------------------------------------------------------




 Dimension of arrays:
   k-points           NKPTS =    216   k-points in BZ     NKDIM =    216   number of bands    NBANDS=    256
   number of dos      NEDOS =    301   number of ions     NIONS =      1
   non local maximal  LDIM  =      6   non local SUM 2l+1 LMDIM =     18
   total plane-waves  NPLWV =   5832
   max r-space proj   IRMAX =      1   max aug-charges    IRDMAX= 106984
   dimension x,y,z NGX =    18 NGY =   18 NGZ =   18
   dimension x,y,z NGXF=    36 NGYF=   36 NGZF=   36
   support grid    NGXF=    72 NGYF=   72 NGZF=   72
   ions per type =               1
   NGX,Y,Z   is equivalent  to a cutoff of   9.23,  9.23,  9.23 a.u.
   NGXF,Y,Z  is equivalent  to a cutoff of  18.46, 18.46, 18.46 a.u.

 SYSTEM =  Og_FCC                                  
 POSCAR =  Cn BCC                                  

 Startparameter for this run:
   NWRITE =      1    write-flag & timer
   PREC   = accura    normal or accurate (medium, high low for compatibility)
   ISTART =      1    job   : 0-new  1-cont  2-samecut
   ICHARG =      0    charge: 1-file 2-atom 10-const
   ISPIN  =      1    spin polarized calculation?
   LNONCOLLINEAR =      T non collinear calculations
   LSORBIT =      T    spin-orbit coupling
   INIWAV =      1    electr: 0-lowe 1-rand  2-diag
   LASPH  =      F    aspherical Exc in radial PAW
   METAGGA=      F    non-selfconsistent MetaGGA calc.

 Electronic Relaxation 1
   ENCUT  =  300.0 eV  22.05 Ry    4.70 a.u.   4.58  4.58  4.58*2*pi/ulx,y,z
   ENINI  =  300.0     initial cutoff
   ENAUG  =  361.0 eV  augmentation charge cutoff
   NELM   =      1;   NELMIN=  2; NELMDL=  0     # of ELM steps 
   EDIFF  = 0.1E-07   stopping-criterion for ELM
   LREAL  =      F    real-space projection
   NLSPLINE    = F    spline interpolate recip. space projectors
   LCOMPAT=      F    compatible to vasp.4.4
   GGA_COMPAT  = F    GGA compatible to vasp.4.4-vasp.4.6
   LMAXPAW     = -100 max onsite density
   LMAXMIX     =    2 max onsite mixed and CHGCAR
   VOSKOWN=      0    Vosko Wilk Nusair interpolation
   ROPT   =    0.00000
 Ionic relaxation
   EDIFFG = 0.1E-04   stopping-criterion for IOM
   NSW    =      1    number of steps for IOM
   NBLOCK =      1;   KBLOCK =      1    inner block; outer block 
   IBRION =     -1    ionic relax: 0-MD 1-quasi-New 2-CG
   NFREE  =      5    steps in history (QN), initial steepest desc. (CG)
   ISIF   =      3    stress and relaxation
   IWAVPR =     10    prediction:  0-non 1-charg 2-wave 3-comb
   ISYM   =      0    0-nonsym 1-usesym 2-fastsym
   LCORR  =      T    Harris-Foulkes like correction to forces

   POTIM  = 0.1000    time-step for ionic-motion
   TEIN   =    0.0    initial temperature
   TEBEG  =    0.0;   TEEND  =   0.0 temperature during run
   SMASS  =  -3.00    Nose mass-parameter (am)
   estimated Nose-frequenzy (Omega)   =  0.10E-29 period in steps =****** mass=  -0.240E-27a.u.
   SCALEE = 1.0000    scale energy and forces
   NPACO  =    256;   APACO  = 16.0  distance and # of slots for P.C.
   PSTRESS=    0.0 pullay stress

  Mass of Ions in am
   POMASS =   0.01
  Ionic Valenz
   ZVAL   =  12.00
  Atomic Wigner-Seitz radii
   RWIGS  =  -1.00
  virtual crystal weights 
   VCA    =   1.00
   NELECT =      12.0000    total number of electrons
   NUPDOWN=      -1.0000    fix difference up-down

 DOS related values:
   EMIN   =  10.00;   EMAX   =-10.00  energy-range for DOS
   EFERMI =   0.00
   ISMEAR =     0;   SIGMA  =   0.00  broadening in eV -4-tet -1-fermi 0-gaus

 Electronic relaxation 2 (details)
   IALGO  =     38    algorithm
   LDIAG  =      T    sub-space diagonalisation (order eigenvalues)
   LSUBROT=      F    optimize rotation matrix (better conditioning)
   TURBO    =      0    0=normal 1=particle mesh
   IRESTART =      0    0=no restart 2=restart with 2 vectors
   NREBOOT  =      0    no. of reboots
   NMIN     =      0    reboot dimension
   EREF     =   0.00    reference energy to select bands
   IMIX   =      1    mixing-type and parameters
     AMIX     =   0.40;   BMIX     =  1.00
     AMIX_MAG =   1.60;   BMIX_MAG =  1.00
     AMIN     =   0.10
     WC   =   100.;   INIMIX=   1;  MIXPRE=   1;  MAXMIX=  50

 Intra band minimization:
   WEIMIN = 0.0000     energy-eigenvalue tresh-hold
   EBREAK =  0.98E-11  absolut break condition
   DEPER  =   0.30     relativ break condition  

   TIME   =   0.40     timestep for ELM

  volume/ion in A,a.u.               =      26.23       177.03
  Fermi-wavevector in a.u.,A,eV,Ry     =   1.261386  2.383673 21.648148  1.591094
  Thomas-Fermi vector in A             =   2.394847
 
 Write flags
   LWAVE        =      T    write WAVECAR
   LDOWNSAMPLE  =      F    k-point downsampling of WAVECAR
   LCHARG       =      F    write CHGCAR
   LVTOT        =      F    write LOCPOT, total local potential
   LVHAR        =      F    write LOCPOT, Hartree potential only
   LELF         =      F    write electronic localiz. function (ELF)
   LORBIT       =      0    0 simple, 1 ext, 2 COOP (PROOUT), +10 PAW based schemes


 Dipole corrections
   LMONO  =      F    monopole corrections only (constant potential shift)
   LDIPOL =      F    correct potential (dipole corrections)
   IDIPOL =      0    1-x, 2-y, 3-z, 4-all directions 
   EPSILON=  1.0000000 bulk dielectric constant

 Exchange correlation treatment:
   GGA     =    PE    GGA type
   LEXCH   =     8    internal setting for exchange type
   VOSKOWN=      0    Vosko Wilk Nusair interpolation
   EXXOEP  =     0    0=HF, 1=EXX-LHF (local Hartree Fock) 2=EXX OEP
   LHFCALC =     T    Hartree Fock is set to
   LSYMGRAD=     F    symmetrize gradient (conserves proper symmetry)
   PRECFOCK=normal    Normal, Fast or Accurate (Low or Medium for compatibility)
   LRHFCALC=     F    long range Hartree Fock
   LRSCOR  =     F    long range correlation only (use DFT for short range part)
   LTHOMAS =     F    Thomas Fermi screening in HF
   LMODELHF=     F    short range full HF, long range fraction AEXX
   ENCUT4O =  -1.0   cutoff for four orbital integrals eV
   LMAXFOCK=     4    L truncation for augmentation on plane wave grid
   LMAXFOCKAE=   4    L truncation for all-electron charge restoration on plane wave grid
   NMAXFOCKAE=   1    number of basis functions for all-electron charge restoration
   LFOCKAEDFT=     F  apply the AE augmentation even for DFT
   NKREDX  =     1    reduce k-point grid by
   NKREDY  =     1    reduce k-point grid by
   NKREDZ  =     1    reduce k-point grid by
   SHIFTRED=     F    shift reduced grid of Gamma
   HFKIDENT=     F    idential grid for each k-point
   ODDONLY =     F    use only odd q-grid points
   EVENONLY=     F    use only even q-grid points
   HFALPHA =   -1.0000 decay constant for conv. correction
   MCALPHA =    0.0000 extent of test-charge in conv. correction in multipole expansion
   AEXX    =    1.0000 exact exchange contribution
   HFSCREEN=    0.0000 screening length (either q_TF or 0.3 A-1)
   HFSCREENC=   0.0000 screening length for correlation (either q_TF or 0.3 A-1)
   HFRCUT  =    0.0000 spherical cutoff for potential kernel
   ALDAX   =    0.0000 LDA exchange part
   AGGAX   =    0.0000 GGA exchange part
   ALDAC   =    0.0000 LDA correlation
   AGGAC   =    0.0000 GGA correlation
   ENCUTFOCK=  -1.0 apply spherical cutoff to Coloumb kernel
   NBANDSGWLOW=     1    first orbital included in HF term
   NBLOCK_FOCK=    64    blocking factor in FOCK_ACC
 Linear response parameters
   LEPSILON=     F    determine dielectric tensor
   LRPA    =     F    only Hartree local field effects (RPA)
   LNABLA  =     F    use nabla operator in PAW spheres
   LVEL    =     F    velocity operator in full k-point grid
   LINTERFAST=   F  fast interpolation
   KINTER  =     0    interpolate to denser k-point grid
   CSHIFT  =0.1000    complex shift for real part using Kramers Kronig
   OMEGAMAX=  -1.0    maximum frequency
   DEG_THRESHOLD= 0.2000000E-02 threshold for treating states as degnerate
   RTIME   =   -0.100 relaxation time in fs
  (WPLASMAI=    0.000 imaginary part of plasma frequency in eV, 0.658/RTIME)
   DFIELD  = 0.0000000 0.0000000 0.0000000 field for delta impulse in time
 
 Orbital magnetization related:
   ORBITALMAG=     F  switch on orbital magnetization
   LCHIMAG   =     F  perturbation theory with respect to B field
   DQ        =  0.001000  dq finite difference perturbation B field
   LLRAUG    =     F  two centre corrections for induced B field

 Response functions by sum over occupied states:
   ALGO    =QPGW       execute GW part
   LFXC    =     F    include DFT xc kernel in TD-HF and W
   LADDER  =     F    particle hole ladder diagrams for BSE/TD-HF and W (Nano-quanta)
   LRPAFORCE=     F   calculate RPA forces
   LHARTREE=     T    include Hartree terms (bubbles-RPA) in BSE/TD-HF
   IBSE    =     0    BSE modus: 0 exact, 1 time-evolution (store matrix), 10 time-evolution (implicit)
   KPOINT  =    -1   0   0   0    k-point index at which BSE equation is solved (and G at which response is eval.)
   LTRIPLET=     F    triplet instead of singlet excitation (BSE only)
   LRSRPA  =     F    range separated RPA (total - short) in ACFDT
   LTCTE   =     F    use test-charge test-electron dielectric function
   LTETE   =     F    use test-electron test-electron dielectric function
   LFXCEPS =     F    determine f_xc=epsilon-1/Xi Sharma and Gross kernel
   LFXHEG  =     F    model exchange using f_x(G,k_F) from free electron gas
   NATURALO=     2    0 natural orbitals, 1 only virtual, 2 only occupied-virtual rotation
   L2ORDER =     F    2nd order terms only
   LMP2LT   =     F    use LT MP2
   LUSEW   =     F    use screened W from WXXXX.tmp files instead of (screened) HF kernel
   ENCUTGW = 200.0    cutoff for response function in eV
   ENCUTGWSOFT = 200.0 soft cutoff for Coulomb kernel in GW response function in eV
   ENCUTLF =  -1.0    cutoff for local field effects
   LMAXMP2 =    -1    maximum L for one center terms
   SCISSOR =   0.0    scissor correction
   NOMEGA  =    50    number of frequencies
   NOMEGAR =    50    number of frequencies along real axis
   NBANDSGW=    -1    number of bands for which selfenergy shift is calculated
   NBANDSGWLOW=     1 lowest band included in GW (to exclude core correlation)
   NBANDSO =    -1    number of bands for electron-hole treatment (occupied)
   NBANDSV =    -1    number of bands for electron-hole treatment (virtual)
   NELM    =     1    number of iterations in solving QP/BSE equation
   NELMHF  =     1    number of iterations in the inner HF iteration
   DIM     =     3    dimensionality of system (0=0D molecules, 3=3D)
   ANTIRES =     0    antiresonant part (0) no TDA (1) w=0 exact (2) accurate
   OMEGAMAX= -30.0    maximum frequency
   OMEGAMIN= -30.000    minimum frequency
   OMEGATL =-200.0    maximum frequency of tail
   OMEGAGRID=     0    grid type (0 default)
   CSHIFT  =-0.100    complex shift used in evaluation of response functions
   SELFENERGY=   F    calculate selfenergy instead of QP shifts
   LSPECTRAL =   T    use spectral functions                   
   LSPECTRALGW=   F   use spectral functions to calculate int dz G(w-z) W(z) (more accurate)
   LSINGLES  =   F   calculate the singles contribution to the correlation energy
   LFERMIGW  =   F   update Fermi-energy in the Greens function

   ODDONLYGW =   F    avoid all even points for polarizability 
   EVENONLYGW=   F    avoid all odd  points for polarizability 
   NKREDLFX  =   1   NKREDLFY  =   1   NKREDLFZ  =   1

   TELESCOPE =   0   use telescope k-point sampling
   TAUPAR    =   1   number of TAU groups used in imaginary time calculation
   OMEGAPAR  =  -1   number of OMEGA groups used in imaginary frequency calculation



--------------------------------------------------------------------------------------------------------


 Static calculation
 charge density and potential will be updated during run
 non collinear spin polarized calculation
 Variant of blocked Davidson
 Davidson routine will perform the subspace rotation
 perform sub-space diagonalisation
    after iterative eigenvector-optimisation
 Kerker-like  mixing scheme
 using additional bands          250
 reciprocal scheme for non local part
 use partial core corrections
 calculate Harris-corrections to forces 
   (improved forces if not selfconsistent)
 use gradient corrections 
 use of overlap-Matrix (Vanderbilt PP)
 Gauss-broadening in eV      SIGMA  =   0.00


--------------------------------------------------------------------------------------------------------


  energy-cutoff  :      300.00
  volume of cell :       26.23
      direct lattice vectors                 reciprocal lattice vectors
     3.242102804  0.000000000  0.000000000     0.308441792  0.109049309  0.188876893
    -1.080689200  3.056687986  0.000000000     0.000000000  0.327151481  0.188876893
    -1.080689200 -1.528319100  2.647183819     0.000000000  0.000000000  0.377759940

  length of vectors
     3.242102804  3.242102804  3.242102804     0.377759940  0.377759940  0.377759940


 
 old parameters found on file WAVECAR:
  energy-cutoff  :      300.00
  volume of cell :       26.23
      direct lattice vectors                 reciprocal lattice vectors
     3.242102804  0.000000000  0.000000000     0.308441792  0.109049309  0.188876893
    -1.080689200  3.056687986  0.000000000     0.000000000  0.327151481  0.188876893
    -1.080689200 -1.528319100  2.647183819     0.000000000  0.000000000  0.377759940

  length of vectors

 
 k-points in units of 2pi/SCALE and weight: k-points                                
   0.00000000  0.00000000  0.00000000       0.005
   0.05140697  0.01817488  0.03147948       0.005
   0.10281393  0.03634977  0.06295896       0.005
   0.15422090  0.05452465  0.09443845       0.005
  -0.10281393 -0.03634977 -0.06295896       0.005
  -0.05140697 -0.01817488 -0.03147948       0.005
   0.00000000  0.05452525  0.03147948       0.005
   0.05140697  0.07270013  0.06295896       0.005
   0.10281393  0.09087502  0.09443845       0.005
   0.15422090  0.10904990  0.12591793       0.005
  -0.10281393  0.01817548 -0.03147948       0.005
  -0.05140697  0.03635036  0.00000000       0.005
   0.00000000  0.10905049  0.06295896       0.005
   0.05140697  0.12722538  0.09443845       0.005
   0.10281393  0.14540026  0.12591793       0.005
   0.15422090  0.16357515  0.15739741       0.005
  -0.10281393  0.07270072  0.00000000       0.005
  -0.05140697  0.09087561  0.03147948       0.005
   0.00000000  0.16357574  0.09443845       0.005
   0.05140697  0.18175063  0.12591793       0.005
   0.10281393  0.19992551  0.15739741       0.005
   0.15422090  0.21810039  0.18887689       0.005
  -0.10281393  0.12722597  0.03147948       0.005
  -0.05140697  0.14540086  0.06295896       0.005
   0.00000000 -0.10905049 -0.06295896       0.005
   0.05140697 -0.09087561 -0.03147948       0.005
   0.10281393 -0.07270072 -0.00000000       0.005
   0.15422090 -0.05452584  0.03147948       0.005
  -0.10281393 -0.14540026 -0.12591793       0.005
  -0.05140697 -0.12722538 -0.09443845       0.005
   0.00000000 -0.05452525 -0.03147948       0.005
   0.05140697 -0.03635036 -0.00000000       0.005
   0.10281393 -0.01817548  0.03147948       0.005
   0.15422090 -0.00000059  0.06295896       0.005
  -0.10281393 -0.09087502 -0.09443845       0.005
  -0.05140697 -0.07270013 -0.06295896       0.005
   0.00000000  0.00000000  0.06295999       0.005
   0.05140697  0.01817488  0.09443947       0.005
   0.10281393  0.03634977  0.12591895       0.005
   0.15422090  0.05452465  0.15739844       0.005
  -0.10281393 -0.03634977  0.00000103       0.005
  -0.05140697 -0.01817488  0.03148051       0.005
   0.00000000  0.05452525  0.09443947       0.005
   0.05140697  0.07270013  0.12591895       0.005
   0.10281393  0.09087502  0.15739844       0.005
   0.15422090  0.10904990  0.18887792       0.005
  -0.10281393  0.01817548  0.03148051       0.005
  -0.05140697  0.03635036  0.06295999       0.005
   0.00000000  0.10905049  0.12591895       0.005
   0.05140697  0.12722538  0.15739844       0.005
   0.10281393  0.14540026  0.18887792       0.005
   0.15422090  0.16357515  0.22035740       0.005
  -0.10281393  0.07270072  0.06295999       0.005
  -0.05140697  0.09087561  0.09443947       0.005
   0.00000000  0.16357574  0.15739844       0.005
   0.05140697  0.18175063  0.18887792       0.005
   0.10281393  0.19992551  0.22035740       0.005
   0.15422090  0.21810039  0.25183688       0.005
  -0.10281393  0.12722597  0.09443947       0.005
  -0.05140697  0.14540086  0.12591895       0.005
   0.00000000 -0.10905049  0.00000103       0.005
   0.05140697 -0.09087561  0.03148051       0.005
   0.10281393 -0.07270072  0.06295999       0.005
   0.15422090 -0.05452584  0.09443947       0.005
  -0.10281393 -0.14540026 -0.06295794       0.005
  -0.05140697 -0.12722538 -0.03147846       0.005
   0.00000000 -0.05452525  0.03148051       0.005
   0.05140697 -0.03635036  0.06295999       0.005
   0.10281393 -0.01817548  0.09443947       0.005
   0.15422090 -0.00000059  0.12591895       0.005
  -0.10281393 -0.09087502 -0.03147846       0.005
  -0.05140697 -0.07270013  0.00000103       0.005
   0.00000000  0.00000000  0.12591998       0.005
   0.05140697  0.01817488  0.15739946       0.005
   0.10281393  0.03634977  0.18887894       0.005
   0.15422090  0.05452465  0.22035843       0.005
  -0.10281393 -0.03634977  0.06296102       0.005
  -0.05140697 -0.01817488  0.09444050       0.005
   0.00000000  0.05452525  0.15739946       0.005
   0.05140697  0.07270013  0.18887894       0.005
   0.10281393  0.09087502  0.22035843       0.005
   0.15422090  0.10904990  0.25183791       0.005
  -0.10281393  0.01817548  0.09444050       0.005
  -0.05140697  0.03635036  0.12591998       0.005
   0.00000000  0.10905049  0.18887894       0.005
   0.05140697  0.12722538  0.22035843       0.005
   0.10281393  0.14540026  0.25183791       0.005
   0.15422090  0.16357515  0.28331739       0.005
  -0.10281393  0.07270072  0.12591998       0.005
  -0.05140697  0.09087561  0.15739946       0.005
   0.00000000  0.16357574  0.22035843       0.005
   0.05140697  0.18175063  0.25183791       0.005
   0.10281393  0.19992551  0.28331739       0.005
   0.15422090  0.21810039  0.31479687       0.005
  -0.10281393  0.12722597  0.15739946       0.005
  -0.05140697  0.14540086  0.18887894       0.005
   0.00000000 -0.10905049  0.06296102       0.005
   0.05140697 -0.09087561  0.09444050       0.005
   0.10281393 -0.07270072  0.12591998       0.005
   0.15422090 -0.05452584  0.15739946       0.005
  -0.10281393 -0.14540026  0.00000205       0.005
  -0.05140697 -0.12722538  0.03148153       0.005
   0.00000000 -0.05452525  0.09444050       0.005
   0.05140697 -0.03635036  0.12591998       0.005
   0.10281393 -0.01817548  0.15739946       0.005
   0.15422090 -0.00000059  0.18887894       0.005
  -0.10281393 -0.09087502  0.03148153       0.005
  -0.05140697 -0.07270013  0.06296102       0.005
   0.00000000  0.00000000  0.18887997       0.005
   0.05140697  0.01817488  0.22035945       0.005
   0.10281393  0.03634977  0.25183893       0.005
   0.15422090  0.05452465  0.28331842       0.005
  -0.10281393 -0.03634977  0.12592101       0.005
  -0.05140697 -0.01817488  0.15740049       0.005
   0.00000000  0.05452525  0.22035945       0.005
   0.05140697  0.07270013  0.25183893       0.005
   0.10281393  0.09087502  0.28331842       0.005
   0.15422090  0.10904990  0.31479790       0.005
  -0.10281393  0.01817548  0.15740049       0.005
  -0.05140697  0.03635036  0.18887997       0.005
   0.00000000  0.10905049  0.25183893       0.005
   0.05140697  0.12722538  0.28331842       0.005
   0.10281393  0.14540026  0.31479790       0.005
   0.15422090  0.16357515  0.34627738       0.005
  -0.10281393  0.07270072  0.18887997       0.005
  -0.05140697  0.09087561  0.22035945       0.005
   0.00000000  0.16357574  0.28331842       0.005
   0.05140697  0.18175063  0.31479790       0.005
   0.10281393  0.19992551  0.34627738       0.005
   0.15422090  0.21810039  0.37775686       0.005
  -0.10281393  0.12722597  0.22035945       0.005
  -0.05140697  0.14540086  0.25183893       0.005
   0.00000000 -0.10905049  0.12592101       0.005
   0.05140697 -0.09087561  0.15740049       0.005
   0.10281393 -0.07270072  0.18887997       0.005
   0.15422090 -0.05452584  0.22035945       0.005
  -0.10281393 -0.14540026  0.06296204       0.005
  -0.05140697 -0.12722538  0.09444152       0.005
   0.00000000 -0.05452525  0.15740049       0.005
   0.05140697 -0.03635036  0.18887997       0.005
   0.10281393 -0.01817548  0.22035945       0.005
   0.15422090 -0.00000059  0.25183893       0.005
  -0.10281393 -0.09087502  0.09444152       0.005
  -0.05140697 -0.07270013  0.12592101       0.005
   0.00000000  0.00000000 -0.12591998       0.005
   0.05140697  0.01817488 -0.09444050       0.005
   0.10281393  0.03634977 -0.06296102       0.005
   0.15422090  0.05452465 -0.03148153       0.005
  -0.10281393 -0.03634977 -0.18887894       0.005
  -0.05140697 -0.01817488 -0.15739946       0.005
   0.00000000  0.05452525 -0.09444050       0.005
   0.05140697  0.07270013 -0.06296102       0.005
   0.10281393  0.09087502 -0.03148153       0.005
   0.15422090  0.10904990 -0.00000205       0.005
  -0.10281393  0.01817548 -0.15739946       0.005
  -0.05140697  0.03635036 -0.12591998       0.005
   0.00000000  0.10905049 -0.06296102       0.005
   0.05140697  0.12722538 -0.03148153       0.005
   0.10281393  0.14540026 -0.00000205       0.005
   0.15422090  0.16357515  0.03147743       0.005
  -0.10281393  0.07270072 -0.12591998       0.005
  -0.05140697  0.09087561 -0.09444050       0.005
   0.00000000  0.16357574 -0.03148153       0.005
   0.05140697  0.18175063 -0.00000205       0.005
   0.10281393  0.19992551  0.03147743       0.005
   0.15422090  0.21810039  0.06295691       0.005
  -0.10281393  0.12722597 -0.09444050       0.005
  -0.05140697  0.14540086 -0.06296102       0.005
   0.00000000 -0.10905049 -0.18887894       0.005
   0.05140697 -0.09087561 -0.15739946       0.005
   0.10281393 -0.07270072 -0.12591998       0.005
   0.15422090 -0.05452584 -0.09444050       0.005
  -0.10281393 -0.14540026 -0.25183791       0.005
  -0.05140697 -0.12722538 -0.22035843       0.005
   0.00000000 -0.05452525 -0.15739946       0.005
   0.05140697 -0.03635036 -0.12591998       0.005
   0.10281393 -0.01817548 -0.09444050       0.005
   0.15422090 -0.00000059 -0.06296102       0.005
  -0.10281393 -0.09087502 -0.22035843       0.005
  -0.05140697 -0.07270013 -0.18887894       0.005
   0.00000000  0.00000000 -0.06295999       0.005
   0.05140697  0.01817488 -0.03148051       0.005
   0.10281393  0.03634977 -0.00000103       0.005
   0.15422090  0.05452465  0.03147846       0.005
  -0.10281393 -0.03634977 -0.12591895       0.005
  -0.05140697 -0.01817488 -0.09443947       0.005
   0.00000000  0.05452525 -0.03148051       0.005
   0.05140697  0.07270013 -0.00000103       0.005
   0.10281393  0.09087502  0.03147846       0.005
   0.15422090  0.10904990  0.06295794       0.005
  -0.10281393  0.01817548 -0.09443947       0.005
  -0.05140697  0.03635036 -0.06295999       0.005
   0.00000000  0.10905049 -0.00000103       0.005
   0.05140697  0.12722538  0.03147846       0.005
   0.10281393  0.14540026  0.06295794       0.005
   0.15422090  0.16357515  0.09443742       0.005
  -0.10281393  0.07270072 -0.06295999       0.005
  -0.05140697  0.09087561 -0.03148051       0.005
   0.00000000  0.16357574  0.03147846       0.005
   0.05140697  0.18175063  0.06295794       0.005
   0.10281393  0.19992551  0.09443742       0.005
   0.15422090  0.21810039  0.12591690       0.005
  -0.10281393  0.12722597 -0.03148051       0.005
  -0.05140697  0.14540086 -0.00000103       0.005
   0.00000000 -0.10905049 -0.12591895       0.005
   0.05140697 -0.09087561 -0.09443947       0.005
   0.10281393 -0.07270072 -0.06295999       0.005
   0.15422090 -0.05452584 -0.03148051       0.005
  -0.10281393 -0.14540026 -0.18887792       0.005
  -0.05140697 -0.12722538 -0.15739844       0.005
   0.00000000 -0.05452525 -0.09443947       0.005
   0.05140697 -0.03635036 -0.06295999       0.005
   0.10281393 -0.01817548 -0.03148051       0.005
   0.15422090 -0.00000059 -0.00000103       0.005
  -0.10281393 -0.09087502 -0.15739844       0.005
  -0.05140697 -0.07270013 -0.12591895       0.005
 
 k-points in reciprocal lattice and weights: k-points                                
   0.00000000  0.00000000  0.00000000       0.005
   0.16666667  0.00000000  0.00000000       0.005
   0.33333333  0.00000000 -0.00000000       0.005
   0.50000000  0.00000000  0.00000000       0.005
  -0.33333333 -0.00000000  0.00000000       0.005
  -0.16666667  0.00000000  0.00000000       0.005
   0.00000000  0.16666667  0.00000000       0.005
   0.16666667  0.16666667  0.00000000       0.005
   0.33333333  0.16666667  0.00000000       0.005
   0.50000000  0.16666667  0.00000000       0.005
  -0.33333333  0.16666667 -0.00000000       0.005
  -0.16666667  0.16666667 -0.00000000       0.005
   0.00000000  0.33333333  0.00000000       0.005
   0.16666667  0.33333333  0.00000000       0.005
   0.33333333  0.33333333  0.00000000       0.005
   0.50000000  0.33333333  0.00000000       0.005
  -0.33333333  0.33333333  0.00000000       0.005
  -0.16666667  0.33333333  0.00000000       0.005
   0.00000000  0.50000000 -0.00000000       0.005
   0.16666667  0.50000000  0.00000000       0.005
   0.33333333  0.50000000  0.00000000       0.005
   0.50000000  0.50000000 -0.00000000       0.005
  -0.33333333  0.50000000 -0.00000000       0.005
  -0.16666667  0.50000000  0.00000000       0.005
   0.00000000 -0.33333333 -0.00000000       0.005
   0.16666667 -0.33333333 -0.00000000       0.005
   0.33333333 -0.33333333 -0.00000000       0.005
   0.50000000 -0.33333333 -0.00000000       0.005
  -0.33333333 -0.33333333  0.00000000       0.005
  -0.16666667 -0.33333333 -0.00000000       0.005
   0.00000000 -0.16666667 -0.00000000       0.005
   0.16666667 -0.16666667  0.00000000       0.005
   0.33333333 -0.16666667  0.00000000       0.005
   0.50000000 -0.16666667  0.00000000       0.005
  -0.33333333 -0.16666667 -0.00000000       0.005
  -0.16666667 -0.16666667 -0.00000000       0.005
   0.00000000  0.00000000  0.16666667       0.005
   0.16666667  0.00000000  0.16666667       0.005
   0.33333333  0.00000000  0.16666667       0.005
   0.50000000  0.00000000  0.16666667       0.005
  -0.33333333 -0.00000000  0.16666667       0.005
  -0.16666667  0.00000000  0.16666667       0.005
   0.00000000  0.16666667  0.16666667       0.005
   0.16666667  0.16666667  0.16666667       0.005
   0.33333333  0.16666667  0.16666667       0.005
   0.50000000  0.16666667  0.16666667       0.005
  -0.33333333  0.16666667  0.16666667       0.005
  -0.16666667  0.16666667  0.16666667       0.005
   0.00000000  0.33333333  0.16666667       0.005
   0.16666667  0.33333333  0.16666667       0.005
   0.33333333  0.33333333  0.16666667       0.005
   0.50000000  0.33333333  0.16666667       0.005
  -0.33333333  0.33333333  0.16666667       0.005
  -0.16666667  0.33333333  0.16666667       0.005
   0.00000000  0.50000000  0.16666667       0.005
   0.16666667  0.50000000  0.16666667       0.005
   0.33333333  0.50000000  0.16666667       0.005
   0.50000000  0.50000000  0.16666667       0.005
  -0.33333333  0.50000000  0.16666667       0.005
  -0.16666667  0.50000000  0.16666667       0.005
   0.00000000 -0.33333333  0.16666667       0.005
   0.16666667 -0.33333333  0.16666667       0.005
   0.33333333 -0.33333333  0.16666667       0.005
   0.50000000 -0.33333333  0.16666667       0.005
  -0.33333333 -0.33333333  0.16666667       0.005
  -0.16666667 -0.33333333  0.16666667       0.005
   0.00000000 -0.16666667  0.16666667       0.005
   0.16666667 -0.16666667  0.16666667       0.005
   0.33333333 -0.16666667  0.16666667       0.005
   0.50000000 -0.16666667  0.16666667       0.005
  -0.33333333 -0.16666667  0.16666667       0.005
  -0.16666667 -0.16666667  0.16666667       0.005
   0.00000000  0.00000000  0.33333333       0.005
   0.16666667  0.00000000  0.33333333       0.005
   0.33333333  0.00000000  0.33333333       0.005
   0.50000000  0.00000000  0.33333333       0.005
  -0.33333333 -0.00000000  0.33333333       0.005
  -0.16666667  0.00000000  0.33333333       0.005
   0.00000000  0.16666667  0.33333333       0.005
   0.16666667  0.16666667  0.33333333       0.005
   0.33333333  0.16666667  0.33333333       0.005
   0.50000000  0.16666667  0.33333333       0.005
  -0.33333333  0.16666667  0.33333333       0.005
  -0.16666667  0.16666667  0.33333333       0.005
   0.00000000  0.33333333  0.33333333       0.005
   0.16666667  0.33333333  0.33333333       0.005
   0.33333333  0.33333333  0.33333333       0.005
   0.50000000  0.33333333  0.33333333       0.005
  -0.33333333  0.33333333  0.33333333       0.005
  -0.16666667  0.33333333  0.33333333       0.005
   0.00000000  0.50000000  0.33333333       0.005
   0.16666667  0.50000000  0.33333333       0.005
   0.33333333  0.50000000  0.33333333       0.005
   0.50000000  0.50000000  0.33333333       0.005
  -0.33333333  0.50000000  0.33333333       0.005
  -0.16666667  0.50000000  0.33333333       0.005
   0.00000000 -0.33333333  0.33333333       0.005
   0.16666667 -0.33333333  0.33333333       0.005
   0.33333333 -0.33333333  0.33333333       0.005
   0.50000000 -0.33333333  0.33333333       0.005
  -0.33333333 -0.33333333  0.33333333       0.005
  -0.16666667 -0.33333333  0.33333333       0.005
   0.00000000 -0.16666667  0.33333333       0.005
   0.16666667 -0.16666667  0.33333333       0.005
   0.33333333 -0.16666667  0.33333333       0.005
   0.50000000 -0.16666667  0.33333333       0.005
  -0.33333333 -0.16666667  0.33333333       0.005
  -0.16666667 -0.16666667  0.33333333       0.005
   0.00000000  0.00000000  0.50000000       0.005
   0.16666667  0.00000000  0.50000000       0.005
   0.33333333  0.00000000  0.50000000       0.005
   0.50000000  0.00000000  0.50000000       0.005
  -0.33333333 -0.00000000  0.50000000       0.005
  -0.16666667  0.00000000  0.50000000       0.005
   0.00000000  0.16666667  0.50000000       0.005
   0.16666667  0.16666667  0.50000000       0.005
   0.33333333  0.16666667  0.50000000       0.005
   0.50000000  0.16666667  0.50000000       0.005
  -0.33333333  0.16666667  0.50000000       0.005
  -0.16666667  0.16666667  0.50000000       0.005
   0.00000000  0.33333333  0.50000000       0.005
   0.16666667  0.33333333  0.50000000       0.005
   0.33333333  0.33333333  0.50000000       0.005
   0.50000000  0.33333333  0.50000000       0.005
  -0.33333333  0.33333333  0.50000000       0.005
  -0.16666667  0.33333333  0.50000000       0.005
   0.00000000  0.50000000  0.50000000       0.005
   0.16666667  0.50000000  0.50000000       0.005
   0.33333333  0.50000000  0.50000000       0.005
   0.50000000  0.50000000  0.50000000       0.005
  -0.33333333  0.50000000  0.50000000       0.005
  -0.16666667  0.50000000  0.50000000       0.005
   0.00000000 -0.33333333  0.50000000       0.005
   0.16666667 -0.33333333  0.50000000       0.005
   0.33333333 -0.33333333  0.50000000       0.005
   0.50000000 -0.33333333  0.50000000       0.005
  -0.33333333 -0.33333333  0.50000000       0.005
  -0.16666667 -0.33333333  0.50000000       0.005
   0.00000000 -0.16666667  0.50000000       0.005
   0.16666667 -0.16666667  0.50000000       0.005
   0.33333333 -0.16666667  0.50000000       0.005
   0.50000000 -0.16666667  0.50000000       0.005
  -0.33333333 -0.16666667  0.50000000       0.005
  -0.16666667 -0.16666667  0.50000000       0.005
   0.00000000  0.00000000 -0.33333333       0.005
   0.16666667  0.00000000 -0.33333333       0.005
   0.33333333  0.00000000 -0.33333333       0.005
   0.50000000  0.00000000 -0.33333333       0.005
  -0.33333333 -0.00000000 -0.33333333       0.005
  -0.16666667  0.00000000 -0.33333333       0.005
   0.00000000  0.16666667 -0.33333333       0.005
   0.16666667  0.16666667 -0.33333333       0.005
   0.33333333  0.16666667 -0.33333333       0.005
   0.50000000  0.16666667 -0.33333333       0.005
  -0.33333333  0.16666667 -0.33333333       0.005
  -0.16666667  0.16666667 -0.33333333       0.005
   0.00000000  0.33333333 -0.33333333       0.005
   0.16666667  0.33333333 -0.33333333       0.005
   0.33333333  0.33333333 -0.33333333       0.005
   0.50000000  0.33333333 -0.33333333       0.005
  -0.33333333  0.33333333 -0.33333333       0.005
  -0.16666667  0.33333333 -0.33333333       0.005
   0.00000000  0.50000000 -0.33333333       0.005
   0.16666667  0.50000000 -0.33333333       0.005
   0.33333333  0.50000000 -0.33333333       0.005
   0.50000000  0.50000000 -0.33333333       0.005
  -0.33333333  0.50000000 -0.33333333       0.005
  -0.16666667  0.50000000 -0.33333333       0.005
   0.00000000 -0.33333333 -0.33333333       0.005
   0.16666667 -0.33333333 -0.33333333       0.005
   0.33333333 -0.33333333 -0.33333333       0.005
   0.50000000 -0.33333333 -0.33333333       0.005
  -0.33333333 -0.33333333 -0.33333333       0.005
  -0.16666667 -0.33333333 -0.33333333       0.005
   0.00000000 -0.16666667 -0.33333333       0.005
   0.16666667 -0.16666667 -0.33333333       0.005
   0.33333333 -0.16666667 -0.33333333       0.005
   0.50000000 -0.16666667 -0.33333333       0.005
  -0.33333333 -0.16666667 -0.33333333       0.005
  -0.16666667 -0.16666667 -0.33333333       0.005
   0.00000000  0.00000000 -0.16666667       0.005
   0.16666667  0.00000000 -0.16666667       0.005
   0.33333333  0.00000000 -0.16666667       0.005
   0.50000000  0.00000000 -0.16666667       0.005
  -0.33333333 -0.00000000 -0.16666667       0.005
  -0.16666667  0.00000000 -0.16666667       0.005
   0.00000000  0.16666667 -0.16666667       0.005
   0.16666667  0.16666667 -0.16666667       0.005
   0.33333333  0.16666667 -0.16666667       0.005
   0.50000000  0.16666667 -0.16666667       0.005
  -0.33333333  0.16666667 -0.16666667       0.005
  -0.16666667  0.16666667 -0.16666667       0.005
   0.00000000  0.33333333 -0.16666667       0.005
   0.16666667  0.33333333 -0.16666667       0.005
   0.33333333  0.33333333 -0.16666667       0.005
   0.50000000  0.33333333 -0.16666667       0.005
  -0.33333333  0.33333333 -0.16666667       0.005
  -0.16666667  0.33333333 -0.16666667       0.005
   0.00000000  0.50000000 -0.16666667       0.005
   0.16666667  0.50000000 -0.16666667       0.005
   0.33333333  0.50000000 -0.16666667       0.005
   0.50000000  0.50000000 -0.16666667       0.005
  -0.33333333  0.50000000 -0.16666667       0.005
  -0.16666667  0.50000000 -0.16666667       0.005
   0.00000000 -0.33333333 -0.16666667       0.005
   0.16666667 -0.33333333 -0.16666667       0.005
   0.33333333 -0.33333333 -0.16666667       0.005
   0.50000000 -0.33333333 -0.16666667       0.005
  -0.33333333 -0.33333333 -0.16666667       0.005
  -0.16666667 -0.33333333 -0.16666667       0.005
   0.00000000 -0.16666667 -0.16666667       0.005
   0.16666667 -0.16666667 -0.16666667       0.005
   0.33333333 -0.16666667 -0.16666667       0.005
   0.50000000 -0.16666667 -0.16666667       0.005
  -0.33333333 -0.16666667 -0.16666667       0.005
  -0.16666667 -0.16666667 -0.16666667       0.005
 
 position of ions in fractional coordinates (direct lattice) 
   0.00000000  0.00000000  0.00000000
 
 position of ions in cartesian coordinates  (Angst):
   0.00000000  0.00000000  0.00000000
 
 Euler angles ALPHA=     0.0000000  BETA=     0.0000000

 transformation matrix from SAXIS to cartesian coordinates
 ---------------------------------------------------------
     1.0000000 m_x     0.0000000 m_y     0.0000000 m_z
     0.0000000 m_x     1.0000000 m_y     0.0000000 m_z
     0.0000000 m_x     0.0000000 m_y     1.0000000 m_z

 transformation matrix from cartesian coordinates to SAXIS
 ---------------------------------------------------------
     1.0000000 m_x     0.0000000 m_y     0.0000000 m_z
     0.0000000 m_x     1.0000000 m_y     0.0000000 m_z
     0.0000000 m_x     0.0000000 m_y     1.0000000 m_z




--------------------------------------------------------------------------------------------------------


 k-point  1 :   0.0000 0.0000 0.0000  plane waves:     642
 k-point  2 :   0.1667 0.0000 0.0000  plane waves:     638
 k-point  3 :   0.3333 0.0000-0.0000  plane waves:     612
 k-point  4 :   0.5000 0.0000 0.0000  plane waves:     624
 k-point  5 :  -0.3333-0.0000 0.0000  plane waves:     612
 k-point  6 :  -0.1667 0.0000 0.0000  plane waves:     638
 k-point  7 :   0.0000 0.1667 0.0000  plane waves:     638
 k-point  8 :   0.1667 0.1667 0.0000  plane waves:     628
 k-point  9 :   0.3333 0.1667 0.0000  plane waves:     614
 k-point 10 :   0.5000 0.1667 0.0000  plane waves:     614
 k-point 11 :  -0.3333 0.1667-0.0000  plane waves:     628
 k-point 12 :  -0.1667 0.1667-0.0000  plane waves:     638
 k-point 13 :   0.0000 0.3333 0.0000  plane waves:     612
 k-point 14 :   0.1667 0.3333 0.0000  plane waves:     614
 k-point 15 :   0.3333 0.3333 0.0000  plane waves:     618
 k-point 16 :   0.5000 0.3333 0.0000  plane waves:     614
 k-point 17 :  -0.3333 0.3333 0.0000  plane waves:     612
 k-point 18 :  -0.1667 0.3333 0.0000  plane waves:     628
 k-point 19 :   0.0000 0.5000-0.0000  plane waves:     624
 k-point 20 :   0.1667 0.5000 0.0000  plane waves:     614
 k-point 21 :   0.3333 0.5000 0.0000  plane waves:     614
 k-point 22 :   0.5000 0.5000-0.0000  plane waves:     624
 k-point 23 :  -0.3333 0.5000-0.0000  plane waves:     614
 k-point 24 :  -0.1667 0.5000 0.0000  plane waves:     614
 k-point 25 :   0.0000-0.3333-0.0000  plane waves:     612
 k-point 26 :   0.1667-0.3333-0.0000  plane waves:     628
 k-point 27 :   0.3333-0.3333-0.0000  plane waves:     612
 k-point 28 :   0.5000-0.3333-0.0000  plane waves:     614
 k-point 29 :  -0.3333-0.3333 0.0000  plane waves:     618
 k-point 30 :  -0.1667-0.3333-0.0000  plane waves:     614
 k-point 31 :   0.0000-0.1667-0.0000  plane waves:     638
 k-point 32 :   0.1667-0.1667 0.0000  plane waves:     638
 k-point 33 :   0.3333-0.1667 0.0000  plane waves:     628
 k-point 34 :   0.5000-0.1667 0.0000  plane waves:     614
 k-point 35 :  -0.3333-0.1667-0.0000  plane waves:     614
 k-point 36 :  -0.1667-0.1667-0.0000  plane waves:     628
 k-point 37 :   0.0000 0.0000 0.1667  plane waves:     638
 k-point 38 :   0.1667 0.0000 0.1667  plane waves:     628
 k-point 39 :   0.3333 0.0000 0.1667  plane waves:     614
 k-point 40 :   0.5000 0.0000 0.1667  plane waves:     614
 k-point 41 :  -0.3333-0.0000 0.1667  plane waves:     628
 k-point 42 :  -0.1667 0.0000 0.1667  plane waves:     638
 k-point 43 :   0.0000 0.1667 0.1667  plane waves:     628
 k-point 44 :   0.1667 0.1667 0.1667  plane waves:     636
 k-point 45 :   0.3333 0.1667 0.1667  plane waves:     632
 k-point 46 :   0.5000 0.1667 0.1667  plane waves:     636
 k-point 47 :  -0.3333 0.1667 0.1667  plane waves:     628
 k-point 48 :  -0.1667 0.1667 0.1667  plane waves:     618
 k-point 49 :   0.0000 0.3333 0.1667  plane waves:     614
 k-point 50 :   0.1667 0.3333 0.1667  plane waves:     632
 k-point 51 :   0.3333 0.3333 0.1667  plane waves:     632
 k-point 52 :   0.5000 0.3333 0.1667  plane waves:     614
 k-point 53 :  -0.3333 0.3333 0.1667  plane waves:     622
 k-point 54 :  -0.1667 0.3333 0.1667  plane waves:     622
 k-point 55 :   0.0000 0.5000 0.1667  plane waves:     614
 k-point 56 :   0.1667 0.5000 0.1667  plane waves:     636
 k-point 57 :   0.3333 0.5000 0.1667  plane waves:     614
 k-point 58 :   0.5000 0.5000 0.1667  plane waves:     624
 k-point 59 :  -0.3333 0.5000 0.1667  plane waves:     608
 k-point 60 :  -0.1667 0.5000 0.1667  plane waves:     624
 k-point 61 :   0.0000-0.3333 0.1667  plane waves:     628
 k-point 62 :   0.1667-0.3333 0.1667  plane waves:     628
 k-point 63 :   0.3333-0.3333 0.1667  plane waves:     622
 k-point 64 :   0.5000-0.3333 0.1667  plane waves:     608
 k-point 65 :  -0.3333-0.3333 0.1667  plane waves:     608
 k-point 66 :  -0.1667-0.3333 0.1667  plane waves:     622
 k-point 67 :   0.0000-0.1667 0.1667  plane waves:     638
 k-point 68 :   0.1667-0.1667 0.1667  plane waves:     618
 k-point 69 :   0.3333-0.1667 0.1667  plane waves:     622
 k-point 70 :   0.5000-0.1667 0.1667  plane waves:     624
 k-point 71 :  -0.3333-0.1667 0.1667  plane waves:     622
 k-point 72 :  -0.1667-0.1667 0.1667  plane waves:     618
 k-point 73 :   0.0000 0.0000 0.3333  plane waves:     612
 k-point 74 :   0.1667 0.0000 0.3333  plane waves:     614
 k-point 75 :   0.3333 0.0000 0.3333  plane waves:     618
 k-point 76 :   0.5000 0.0000 0.3333  plane waves:     614
 k-point 77 :  -0.3333-0.0000 0.3333  plane waves:     612
 k-point 78 :  -0.1667 0.0000 0.3333  plane waves:     628
 k-point 79 :   0.0000 0.1667 0.3333  plane waves:     614
 k-point 80 :   0.1667 0.1667 0.3333  plane waves:     632
 k-point 81 :   0.3333 0.1667 0.3333  plane waves:     632
 k-point 82 :   0.5000 0.1667 0.3333  plane waves:     614
 k-point 83 :  -0.3333 0.1667 0.3333  plane waves:     622
 k-point 84 :  -0.1667 0.1667 0.3333  plane waves:     622
 k-point 85 :   0.0000 0.3333 0.3333  plane waves:     618
 k-point 86 :   0.1667 0.3333 0.3333  plane waves:     632
 k-point 87 :   0.3333 0.3333 0.3333  plane waves:     618
 k-point 88 :   0.5000 0.3333 0.3333  plane waves:     608
 k-point 89 :  -0.3333 0.3333 0.3333  plane waves:     642
 k-point 90 :  -0.1667 0.3333 0.3333  plane waves:     608
 k-point 91 :   0.0000 0.5000 0.3333  plane waves:     614
 k-point 92 :   0.1667 0.5000 0.3333  plane waves:     614
 k-point 93 :   0.3333 0.5000 0.3333  plane waves:     608
 k-point 94 :   0.5000 0.5000 0.3333  plane waves:     612
 k-point 95 :  -0.3333 0.5000 0.3333  plane waves:     612
 k-point 96 :  -0.1667 0.5000 0.3333  plane waves:     608
 k-point 97 :   0.0000-0.3333 0.3333  plane waves:     612
 k-point 98 :   0.1667-0.3333 0.3333  plane waves:     622
 k-point 99 :   0.3333-0.3333 0.3333  plane waves:     642
[...]
      7      -4.4349      -4.8024      -4.8023      -4.8747       0.8354       1.0000
      8      -4.4346      -4.8023      -4.8024      -4.8747       0.8357       1.0000
      9      -3.8663      -4.2176      -4.2171      -4.2846       0.8385       1.0000
     10      -3.8660      -4.2174      -4.2173      -4.2847       0.8390       1.0000
     11      -2.0448      -2.2205      -2.2211      -2.2497       0.8604       1.0000
     12      -2.0446      -2.2204      -2.2212      -2.2497       0.8608       1.0000
     13       5.6813       5.8161       5.8162       5.8367       0.8680       0.0000
     14       5.6814       5.8161       5.8162       5.8367       0.8679       0.0000
     15       9.4713       9.6232       9.6229       9.6476       0.8596       0.0000
     16       9.4713       9.6232       9.6229       9.6476       0.8597       0.0000
     17      11.7297      11.8703      11.8701      11.8928       0.8606       0.0000
     18      11.7298      11.8703      11.8700      11.8928       0.8602       0.0000
     19      23.8803      24.0350      24.0346      24.0608       0.8546       0.0000
     20      23.8804      24.0350      24.0346      24.0608       0.8545       0.0000
     21      24.4877      24.6396      24.6387      24.6635       0.8588       0.0000
     22      24.4877      24.6396      24.6387      24.6635       0.8588       0.0000
     23      25.7514      25.9075      25.9071      25.9333       0.8557       0.0000
     24      25.7514      25.9075      25.9070      25.9333       0.8554       0.0000
 

 k-point 210 :      -0.1667   -0.3333   -0.1667
  band No. DFT-energies  QP-energies  QP-e(diag)   sigma(DFT)    Z            occupation

      1      -8.0536      -8.4336      -8.4332      -8.5152       0.8224       1.0000
      2      -8.0533      -8.4335      -8.4334      -8.5153       0.8227       1.0000
      3      -7.9527      -8.3220      -8.3217      -8.3986       0.8276       1.0000
      4      -7.9525      -8.3220      -8.3218      -8.3986       0.8277       1.0000
      5      -4.8484      -5.2024      -5.2010      -5.2733       0.8297       1.0000
      6      -4.8477      -5.2021      -5.2012      -5.2734       0.8304       1.0000
      7      -4.4349      -4.8025      -4.8023      -4.8747       0.8354       1.0000
      8      -4.4344      -4.8023      -4.8025      -4.8748       0.8359       1.0000
      9      -3.8661      -4.2176      -4.2172      -4.2847       0.8387       1.0000
     10      -3.8658      -4.2174      -4.2173      -4.2847       0.8391       1.0000
     11      -2.0447      -2.2206      -2.2212      -2.2498       0.8607       1.0000
     12      -2.0445      -2.2206      -2.2213      -2.2498       0.8611       1.0000
     13       5.6815       5.8160       5.8161       5.8366       0.8677       0.0000
     14       5.6815       5.8160       5.8160       5.8366       0.8676       0.0000
     15       9.4712       9.6232       9.6230       9.6477       0.8599       0.0000
     16       9.4713       9.6232       9.6229       9.6477       0.8598       0.0000
     17      11.7297      11.8704      11.8701      11.8929       0.8603       0.0000
     18      11.7297      11.8704      11.8701      11.8929       0.8603       0.0000
     19      23.8804      24.0351      24.0347      24.0609       0.8544       0.0000
     20      23.8804      24.0351      24.0347      24.0609       0.8544       0.0000
     21      24.4877      24.6396      24.6388      24.6636       0.8587       0.0000
     22      24.4877      24.6396      24.6388      24.6636       0.8587       0.0000
     23      25.7514      25.9076      25.9071      25.9335       0.8554       0.0000
     24      25.7515      25.9076      25.9071      25.9334       0.8553       0.0000
 

 k-point 211 :       0.0000   -0.1667   -0.1667
  band No. DFT-energies  QP-energies  QP-e(diag)   sigma(DFT)    Z            occupation

      1      -8.1305      -8.5131      -8.5122      -8.5973       0.8178       1.0000
      2      -8.1301      -8.5128      -8.5125      -8.5975       0.8181       1.0000
      3      -8.0440      -8.4193      -8.4186      -8.4992       0.8230       1.0000
      4      -8.0435      -8.4191      -8.4188      -8.4993       0.8234       1.0000
      5      -6.2320      -6.5167      -6.5138      -6.5735       0.8251       1.0000
      6      -6.2315      -6.5161      -6.5142      -6.5737       0.8259       1.0000
      7      -4.5102      -4.8848      -4.8847      -4.9601       0.8325       1.0000
      8      -4.5098      -4.8846      -4.8849      -4.9602       0.8329       1.0000
      9      -4.3367      -4.7004      -4.7007      -4.7724       0.8355       1.0000
     10      -4.3364      -4.7002      -4.7009      -4.7726       0.8358       1.0000
     11      -3.6369      -3.9725      -3.9733      -4.0365       0.8420       1.0000
     12      -3.6367      -3.9723      -3.9735      -4.0366       0.8423       1.0000
     13       9.1067       9.3114       9.3122       9.3478       0.8524       0.0000
     14       9.1069       9.3115       9.3120       9.3476       0.8520       0.0000
     15      13.8582      14.0175      14.0176      14.0438       0.8587       0.0000
     16      13.8584      14.0178      14.0173      14.0436       0.8583       0.0000
     17      16.6928      16.8463      16.8464      16.8714       0.8599       0.0000
     18      16.6932      16.8466      16.8462      16.8711       0.8598       0.0000
     19      20.0305      20.1733      20.1729      20.1960       0.8601       0.0000
     20      20.0311      20.1734      20.1729      20.1961       0.8599       0.0000
     21      21.1829      21.3210      21.3201      21.3416       0.8644       0.0000
     22      21.1835      21.3212      21.3201      21.3415       0.8642       0.0000
     23      23.2024      23.3421      23.3415      23.3632       0.8649       0.0000
     24      23.2037      23.3424      23.3417      23.3632       0.8649       0.0000
 

 k-point 212 :       0.1667   -0.1667   -0.1667
  band No. DFT-energies  QP-energies  QP-e(diag)   sigma(DFT)    Z            occupation

      1      -8.0581      -8.4309      -8.4304      -8.5104       0.8231       1.0000
      2      -8.0581      -8.4307      -8.4306      -8.5105       0.8235       1.0000
      3      -8.0393      -8.4159      -8.4153      -8.4954       0.8245       1.0000
      4      -8.0392      -8.4158      -8.4153      -8.4954       0.8245       1.0000
      5      -6.8404      -7.1199      -7.1187      -7.1800       0.8195       1.0000
      6      -6.8403      -7.1199      -7.1187      -7.1800       0.8195       1.0000
      7      -4.6037      -4.9871      -4.9867      -5.0654       0.8296       1.0000
      8      -4.6035      -4.9870      -4.9867      -5.0654       0.8297       1.0000
      9      -4.3624      -4.7367      -4.7365      -4.8109       0.8341       1.0000
     10      -4.3623      -4.7366      -4.7365      -4.8109       0.8342       1.0000
     11      -4.0204      -4.3778      -4.3781      -4.4472       0.8381       1.0000
     12      -4.0203      -4.3778      -4.3781      -4.4472       0.8381       1.0000
     13      11.3158      11.5786      11.5786      11.6284       0.8407       0.0000
     14      11.3158      11.5786      11.5786      11.6284       0.8407       0.0000
     15      15.7758      15.9345      15.9334      15.9582       0.8641       0.0000
     16      15.7758      15.9345      15.9334      15.9582       0.8641       0.0000
     17      17.4410      17.5773      17.5770      17.5986       0.8624       0.0000
     18      17.4410      17.5773      17.5770      17.5986       0.8624       0.0000
     19      18.2507      18.4023      18.4021      18.4261       0.8634       0.0000
     20      18.2507      18.4023      18.4021      18.4260       0.8634       0.0000
     21      21.0292      21.1751      21.1749      21.1989       0.8583       0.0000
     22      21.0292      21.1751      21.1749      21.1989       0.8583       0.0000
     23      22.3876      22.5360      22.5359      22.5602       0.8592       0.0000
     24      22.3876      22.5360      22.5359      22.5602       0.8592       0.0000
 

 k-point 213 :       0.3333   -0.1667   -0.1667
  band No. DFT-energies  QP-energies  QP-e(diag)   sigma(DFT)    Z            occupation

      1      -8.1302      -8.5132      -8.5123      -8.5973       0.8180       1.0000
      2      -8.1298      -8.5129      -8.5126      -8.5975       0.8184       1.0000
      3      -8.0435      -8.4194      -8.4186      -8.4992       0.8231       1.0000
      4      -8.0431      -8.4191      -8.4189      -8.4994       0.8237       1.0000
      5      -6.2315      -6.5166      -6.5140      -6.5736       0.8260       1.0000
      6      -6.2313      -6.5163      -6.5141      -6.5737       0.8259       1.0000
      7      -4.5102      -4.8848      -4.8847      -4.9601       0.8325       1.0000
      8      -4.5098      -4.8846      -4.8849      -4.9602       0.8329       1.0000
      9      -4.3368      -4.7003      -4.7007      -4.7723       0.8354       1.0000
     10      -4.3365      -4.7002      -4.7009      -4.7725       0.8357       1.0000
     11      -3.6374      -3.9722      -3.9732      -4.0364       0.8416       1.0000
     12      -3.6371      -3.9721      -3.9732      -4.0364       0.8418       1.0000
     13       9.1065       9.3116       9.3124       9.3479       0.8528       0.0000
     14       9.1068       9.3116       9.3121       9.3477       0.8523       0.0000
     15      13.8584      14.0177      14.0177      14.0439       0.8586       0.0000
     16      13.8585      14.0179      14.0175      14.0437       0.8583       0.0000
     17      16.6926      16.8462      16.8463      16.8713       0.8601       0.0000
     18      16.6931      16.8465      16.8461      16.8710       0.8600       0.0000
     19      20.0303      20.1731      20.1727      20.1958       0.8602       0.0000
     20      20.0308      20.1732      20.1727      20.1958       0.8601       0.0000
     21      21.1828      21.3209      21.3199      21.3414       0.8645       0.0000
     22      21.1833      21.3210      21.3199      21.3413       0.8644       0.0000
     23      23.2023      23.3421      23.3414      23.3632       0.8649       0.0000
     24      23.2036      23.3424      23.3416      23.3632       0.8649       0.0000
 

 k-point 214 :       0.5000   -0.1667   -0.1667
  band No. DFT-energies  QP-energies  QP-e(diag)   sigma(DFT)    Z            occupation

      1      -8.0664      -8.4452      -8.4449      -8.5274       0.8211       1.0000
      2      -8.0663      -8.4450      -8.4449      -8.5274       0.8211       1.0000
      3      -8.0094      -8.3826      -8.3822      -8.4604       0.8266       1.0000
      4      -8.0089      -8.3826      -8.3822      -8.4604       0.8267       1.0000
      5      -5.2857      -5.6087      -5.6053      -5.6717       0.8279       1.0000
      6      -5.2856      -5.6087      -5.6053      -5.6717       0.8279       1.0000
      7      -4.4405      -4.8118      -4.8118      -4.8853       0.8346       1.0000
      8      -4.4403      -4.8117      -4.8119      -4.8855       0.8347       1.0000
      9      -4.1943      -4.5434      -4.5437      -4.6118       0.8367       1.0000
     10      -4.1942      -4.5434      -4.5437      -4.6118       0.8368       1.0000
     11      -2.4808      -2.7199      -2.7225      -2.7636       0.8548       1.0000
     12      -2.4808      -2.7199      -2.7225      -2.7636       0.8548       1.0000
     13       6.3712       6.5207       6.5212       6.5446       0.8653       0.0000
     14       6.3713       6.5207       6.5212       6.5446       0.8653       0.0000
     15      11.2627      11.4318      11.4319      11.4603       0.8559       0.0000
     16      11.2627      11.4318      11.4319      11.4603       0.8559       0.0000
     17      12.9659      13.1021      13.1017      13.1237       0.8605       0.0000
     18      12.9662      13.1023      13.1019      13.1239       0.8604       0.0000
     19      22.6672      22.8207      22.8207      22.8472       0.8527       0.0000
     20      22.6672      22.8207      22.8207      22.8472       0.8527       0.0000
     21      24.0025      24.1586      24.1571      24.1828       0.8573       0.0000
     22      24.0026      24.1586      24.1571      24.1828       0.8573       0.0000
     23      25.6486      25.7969      25.7959      25.8198       0.8602       0.0000
     24      25.6486      25.7969      25.7959      25.8198       0.8602       0.0000
 

 k-point 215 :      -0.3333   -0.1667   -0.1667
  band No. DFT-energies  QP-energies  QP-e(diag)   sigma(DFT)    Z            occupation

      1      -8.0537      -8.4336      -8.4332      -8.5152       0.8223       1.0000
      2      -8.0533      -8.4335      -8.4334      -8.5153       0.8227       1.0000
      3      -7.9527      -8.3221      -8.3217      -8.3986       0.8275       1.0000
      4      -7.9525      -8.3220      -8.3218      -8.3986       0.8278       1.0000
      5      -4.8483      -5.2023      -5.2010      -5.2733       0.8299       1.0000
      6      -4.8480      -5.2022      -5.2011      -5.2734       0.8302       1.0000
      7      -4.4346      -4.8025      -4.8024      -4.8747       0.8357       1.0000
      8      -4.4344      -4.8024      -4.8025      -4.8747       0.8359       1.0000
      9      -3.8663      -4.2176      -4.2171      -4.2847       0.8386       1.0000
     10      -3.8659      -4.2174      -4.2173      -4.2847       0.8390       1.0000
     11      -2.0449      -2.2206      -2.2211      -2.2498       0.8601       1.0000
     12      -2.0445      -2.2205      -2.2213      -2.2498       0.8611       1.0000
     13       5.6815       5.8159       5.8161       5.8366       0.8677       0.0000
     14       5.6816       5.8160       5.8160       5.8366       0.8675       0.0000
     15       9.4713       9.6232       9.6229       9.6477       0.8598       0.0000
     16       9.4713       9.6232       9.6229       9.6477       0.8596       0.0000
     17      11.7297      11.8704      11.8702      11.8929       0.8607       0.0000
     18      11.7297      11.8704      11.8701      11.8929       0.8605       0.0000
     19      23.8804      24.0351      24.0347      24.0610       0.8545       0.0000
     20      23.8804      24.0351      24.0347      24.0610       0.8545       0.0000
     21      24.4877      24.6396      24.6388      24.6636       0.8587       0.0000
     22      24.4877      24.6396      24.6387      24.6636       0.8587       0.0000
     23      25.7514      25.9076      25.9072      25.9335       0.8555       0.0000
     24      25.7514      25.9076      25.9071      25.9335       0.8554       0.0000
 

 k-point 216 :      -0.1667   -0.1667   -0.1667
  band No. DFT-energies  QP-energies  QP-e(diag)   sigma(DFT)    Z            occupation

      1      -8.0665      -8.4451      -8.4447      -8.5272       0.8209       1.0000
      2      -8.0664      -8.4449      -8.4449      -8.5274       0.8211       1.0000
      3      -8.0092      -8.3827      -8.3822      -8.4605       0.8266       1.0000
      4      -8.0091      -8.3827      -8.3822      -8.4605       0.8267       1.0000
      5      -5.2858      -5.6087      -5.6053      -5.6718       0.8279       1.0000
      6      -5.2857      -5.6087      -5.6053      -5.6718       0.8279       1.0000
      7      -4.4405      -4.8118      -4.8118      -4.8853       0.8346       1.0000
      8      -4.4404      -4.8117      -4.8119      -4.8854       0.8347       1.0000
      9      -4.1943      -4.5434      -4.5436      -4.6118       0.8367       1.0000
     10      -4.1942      -4.5433      -4.5437      -4.6118       0.8368       1.0000
     11      -2.4810      -2.7201      -2.7228      -2.7638       0.8548       1.0000
     12      -2.4810      -2.7201      -2.7228      -2.7638       0.8548       1.0000
     13       6.3713       6.5208       6.5213       6.5446       0.8653       0.0000
     14       6.3713       6.5208       6.5213       6.5446       0.8653       0.0000
     15      11.2626      11.4318      11.4318      11.4603       0.8559       0.0000
     16      11.2626      11.4318      11.4318      11.4603       0.8559       0.0000
     17      12.9659      13.1021      13.1017      13.1237       0.8605       0.0000
     18      12.9663      13.1023      13.1019      13.1239       0.8604       0.0000
     19      22.6673      22.8208      22.8208      22.8473       0.8527       0.0000
     20      22.6673      22.8208      22.8208      22.8473       0.8527       0.0000
     21      24.0027      24.1588      24.1572      24.1830       0.8572       0.0000
     22      24.0027      24.1588      24.1572      24.1830       0.8572       0.0000
     23      25.6487      25.7970      25.7960      25.8199       0.8602       0.0000
     24      25.6488      25.7970      25.7960      25.8199       0.8602       0.0000
 


--------------------------------------------------------------------------------------------------------



IMPORTANT INFORMATION: All symmetrisations will be switched off!
NOSYMM: (Re-)initialisation of all symmetry stuff for point group C_1.

   GW_DIAG:  cpu time    4.7893: real time    4.7899
    GWLOOP:  cpu time 2480.4046: real time 2483.6241
 writing wavefunctions
    --------------------------------------------
   GWTOTAL:  cpu time 2482.5143: real time 2486.1815
    4ORBIT:  cpu time    0.0000: real time    0.0000

 Spin-Orbit-Coupling matrix elements

 Ion:    1  E_soc:     -1.8948828
 l=   1
     0.0000000    -0.0356104    -0.0356110
    -0.0356104     0.0000000    -0.0356105
    -0.0356110    -0.0356105     0.0000000
 l=   2
     0.0000000    -0.0556522     0.0000000    -0.0550057    -0.2245517
    -0.0556522     0.0000000    -0.1688977    -0.0556521    -0.0562995
     0.0000000    -0.1688977     0.0000000    -0.1679278     0.0000000
    -0.0550057    -0.0556521    -0.1679278     0.0000000    -0.0566230
    -0.2245517    -0.0562995     0.0000000    -0.0566230     0.0000000
 l=   3
     0.0000000     0.0000000     0.0000000     0.0000000     0.0000000     0.0000000     0.0000000
     0.0000000     0.0000000     0.0000000     0.0000000     0.0000000     0.0000000     0.0000000
     0.0000000     0.0000000     0.0000000     0.0000000     0.0000000     0.0000000     0.0000000
     0.0000000     0.0000000     0.0000000     0.0000000     0.0000000     0.0000000     0.0000000
     0.0000000     0.0000000     0.0000000     0.0000000     0.0000000     0.0000000     0.0000000
     0.0000000     0.0000000     0.0000000     0.0000000     0.0000000     0.0000000     0.0000000
     0.0000000     0.0000000     0.0000000     0.0000000     0.0000000     0.0000000     0.0000000

 total amount of memory used by VASP MPI-rank0   199589. kBytes
=======================================================================

   base      :      30000. kBytes
   nonl-proj :      10082. kBytes
   fftplans  :       3441. kBytes
   grid      :       3359. kBytes
   one-center:         62. kBytes
   HF        :        129. kBytes
   nonlr-proj:        342. kBytes
   wavefun   :     152174. kBytes
   2eintegral:          0. kBytes
   fockhandle:          0. kBytes
   response  :          0. kBytes
   cacher    :          0. kBytes
 
  
  
 General timing and accounting informations for this job:
 ========================================================
  
                  Total CPU time used (sec):     2490.788
                            User time (sec):     2483.964
                          System time (sec):        6.825
                         Elapsed time (sec):     2495.365
  
                   Maximum memory used (kb):     1956396.
                   Average memory used (kb):           0.
  
                          Minor page faults:       260900
                          Major page faults:            0
                 Voluntary context switches:         7223
