   1   1   0   0
  0.6156630E+02  0.4432200E-09  0.4432200E-09  0.4432200E-09  0.1000000E-15
  1.000000000000000E-004
  CAR 
 Og_FCC                                  
     17.21372549    -19.93176646  301     -4.19910289      1.00000000
    -19.932  0.0000E+00  0.0000E+00
    -19.808  0.0000E+00  0.0000E+00
    -19.684  0.0000E+00  0.0000E+00
    -19.560  0.0000E+00  0.0000E+00
    -19.436  0.0000E+00  0.0000E+00
    -19.313  0.0000E+00  0.0000E+00
    -19.189  0.0000E+00  0.0000E+00
    -19.065  0.0000E+00  0.0000E+00
    -18.941  0.0000E+00  0.0000E+00
    -18.817  0.0000E+00  0.0000E+00
    -18.694  0.0000E+00  0.0000E+00
    -18.570  0.0000E+00  0.0000E+00
    -18.446  0.3727E-09  0.4615E-10
    -18.322  0.1035E-02  0.1282E-03
    -18.198  0.4442E+00  0.5513E-01
    -18.074  0.3516E+01  0.4904E+00
    -17.951  0.1070E+02  0.1816E+01
    -17.827  0.1490E+01  0.2000E+01
    -17.703  0.1122E-03  0.2000E+01
    -17.579  0.1502E-12  0.2000E+01
    -17.455  0.0000E+00  0.2000E+01
    -17.332  0.0000E+00  0.2000E+01
    -17.208  0.0000E+00  0.2000E+01
    -17.084  0.0000E+00  0.2000E+01
    -16.960  0.0000E+00  0.2000E+01
    -16.836  0.0000E+00  0.2000E+01
    -16.712  0.0000E+00  0.2000E+01
    -16.589  0.0000E+00  0.2000E+01
    -16.465  0.0000E+00  0.2000E+01
    -16.341  0.0000E+00  0.2000E+01
    -16.217  0.0000E+00  0.2000E+01
    -16.093  0.0000E+00  0.2000E+01
    -15.970  0.0000E+00  0.2000E+01
    -15.846  0.0000E+00  0.2000E+01
    -15.722  0.0000E+00  0.2000E+01
    -15.598  0.0000E+00  0.2000E+01
    -15.474  0.0000E+00  0.2000E+01
    -15.350  0.0000E+00  0.2000E+01
    -15.227  0.0000E+00  0.2000E+01
    -15.103  0.0000E+00  0.2000E+01
    -14.979  0.0000E+00  0.2000E+01
    -14.855  0.0000E+00  0.2000E+01
    -14.731  0.0000E+00  0.2000E+01
    -14.608  0.0000E+00  0.2000E+01
    -14.484  0.0000E+00  0.2000E+01
    -14.360  0.0000E+00  0.2000E+01
    -14.236  0.0000E+00  0.2000E+01
    -14.112  0.0000E+00  0.2000E+01
    -13.988  0.0000E+00  0.2000E+01
    -13.865  0.0000E+00  0.2000E+01
    -13.741  0.0000E+00  0.2000E+01
    -13.617  0.0000E+00  0.2000E+01
    -13.493  0.0000E+00  0.2000E+01
    -13.369  0.0000E+00  0.2000E+01
    -13.246  0.0000E+00  0.2000E+01
    -13.122  0.0000E+00  0.2000E+01
    -12.998  0.0000E+00  0.2000E+01
    -12.874  0.0000E+00  0.2000E+01
    -12.750  0.0000E+00  0.2000E+01
    -12.626  0.0000E+00  0.2000E+01
    -12.503  0.0000E+00  0.2000E+01
    -12.379  0.0000E+00  0.2000E+01
    -12.255  0.0000E+00  0.2000E+01
    -12.131  0.0000E+00  0.2000E+01
    -12.007  0.0000E+00  0.2000E+01
    -11.884  0.0000E+00  0.2000E+01
    -11.760  0.0000E+00  0.2000E+01
    -11.636  0.0000E+00  0.2000E+01
    -11.512  0.0000E+00  0.2000E+01
    -11.388  0.0000E+00  0.2000E+01
    -11.264  0.0000E+00  0.2000E+01
    -11.141  0.0000E+00  0.2000E+01
    -11.017  0.0000E+00  0.2000E+01
    -10.893  0.0000E+00  0.2000E+01
    -10.769  0.0000E+00  0.2000E+01
    -10.645  0.0000E+00  0.2000E+01
    -10.522  0.0000E+00  0.2000E+01
    -10.398  0.0000E+00  0.2000E+01
    -10.274  0.0000E+00  0.2000E+01
    -10.150  0.0000E+00  0.2000E+01
    -10.026  0.0000E+00  0.2000E+01
     -9.902  0.0000E+00  0.2000E+01
     -9.779  0.0000E+00  0.2000E+01
     -9.655  0.0000E+00  0.2000E+01
     -9.531  0.0000E+00  0.2000E+01
     -9.407  0.0000E+00  0.2000E+01
     -9.283  0.0000E+00  0.2000E+01
     -9.160  0.0000E+00  0.2000E+01
     -9.036  0.0000E+00  0.2000E+01
     -8.912  0.0000E+00  0.2000E+01
     -8.788  0.0000E+00  0.2000E+01
     -8.664  0.0000E+00  0.2000E+01
     -8.540  0.0000E+00  0.2000E+01
     -8.417  0.0000E+00  0.2000E+01
     -8.293  0.0000E+00  0.2000E+01
     -8.169  0.0000E+00  0.2000E+01
     -8.045  0.0000E+00  0.2000E+01
     -7.921  0.0000E+00  0.2000E+01
     -7.798  0.0000E+00  0.2000E+01
     -7.674  0.0000E+00  0.2000E+01
     -7.550  0.0000E+00  0.2000E+01
     -7.426  0.0000E+00  0.2000E+01
     -7.302  0.0000E+00  0.2000E+01
     -7.178  0.0000E+00  0.2000E+01
     -7.055  0.2553E-14  0.2000E+01
     -6.931  0.4722E-05  0.2000E+01
     -6.807  0.9996E-01  0.2012E+01
     -6.683  0.4012E+01  0.2509E+01
     -6.559  0.7067E+01  0.3384E+01
     -6.436  0.1675E+01  0.3592E+01
     -6.312  0.1630E+01  0.3793E+01
     -6.188  0.5496E+00  0.3861E+01
     -6.064  0.6640E+00  0.3944E+01
     -5.940  0.3852E+00  0.3991E+01
     -5.816  0.6845E-01  0.4000E+01
     -5.693  0.1281E+00  0.4016E+01
     -5.569  0.3704E+01  0.4474E+01
     -5.445  0.4809E+01  0.5070E+01
     -5.321  0.3016E+01  0.5443E+01
     -5.197  0.2668E+01  0.5773E+01
     -5.074  0.4929E+01  0.6384E+01
     -4.950  0.3229E+01  0.6784E+01
     -4.826  0.4051E+01  0.7285E+01
     -4.702  0.3233E+01  0.7685E+01
     -4.578  0.1887E+01  0.7919E+01
     -4.454  0.6328E+00  0.7997E+01
     -4.331  0.2039E-01  0.8000E+01
     -4.207  0.2146E-06  0.8000E+01
     -4.083  0.0000E+00  0.8000E+01
     -3.959  0.0000E+00  0.8000E+01
     -3.835  0.0000E+00  0.8000E+01
     -3.712  0.0000E+00  0.8000E+01
     -3.588  0.0000E+00  0.8000E+01
     -3.464  0.0000E+00  0.8000E+01
     -3.340  0.0000E+00  0.8000E+01
     -3.216  0.0000E+00  0.8000E+01
     -3.092  0.0000E+00  0.8000E+01
     -2.969  0.0000E+00  0.8000E+01
     -2.845  0.0000E+00  0.8000E+01
     -2.721  0.0000E+00  0.8000E+01
     -2.597  0.0000E+00  0.8000E+01
     -2.473  0.0000E+00  0.8000E+01
     -2.350  0.0000E+00  0.8000E+01
     -2.226  0.0000E+00  0.8000E+01
     -2.102  0.0000E+00  0.8000E+01
     -1.978  0.0000E+00  0.8000E+01
     -1.854  0.0000E+00  0.8000E+01
     -1.730  0.0000E+00  0.8000E+01
     -1.607  0.0000E+00  0.8000E+01
     -1.483  0.0000E+00  0.8000E+01
     -1.359  0.0000E+00  0.8000E+01
     -1.235  0.0000E+00  0.8000E+01
     -1.111  0.0000E+00  0.8000E+01
     -0.988  0.0000E+00  0.8000E+01
     -0.864  0.0000E+00  0.8000E+01
     -0.740  0.0000E+00  0.8000E+01
     -0.616  0.0000E+00  0.8000E+01
     -0.492  0.0000E+00  0.8000E+01
     -0.368  0.0000E+00  0.8000E+01
     -0.245  0.0000E+00  0.8000E+01
     -0.121  0.0000E+00  0.8000E+01
      0.003  0.0000E+00  0.8000E+01
      0.127  0.0000E+00  0.8000E+01
      0.251  0.0000E+00  0.8000E+01
      0.374  0.0000E+00  0.8000E+01
      0.498  0.0000E+00  0.8000E+01
      0.622  0.0000E+00  0.8000E+01
      0.746  0.0000E+00  0.8000E+01
      0.870  0.0000E+00  0.8000E+01
      0.994  0.0000E+00  0.8000E+01
      1.117  0.0000E+00  0.8000E+01
      1.241  0.0000E+00  0.8000E+01
      1.365  0.0000E+00  0.8000E+01
      1.489  0.0000E+00  0.8000E+01
      1.613  0.0000E+00  0.8000E+01
      1.736  0.0000E+00  0.8000E+01
      1.860  0.0000E+00  0.8000E+01
      1.984  0.0000E+00  0.8000E+01
      2.108  0.0000E+00  0.8000E+01
      2.232  0.5598E-12  0.8000E+01
      2.356  0.4375E-04  0.8000E+01
      2.479  0.4490E-01  0.8006E+01
      2.603  0.2983E-01  0.8009E+01
      2.727  0.6400E-05  0.8009E+01
      2.851  0.1448E-13  0.8009E+01
      2.975  0.5712E-06  0.8009E+01
      3.098  0.6205E-01  0.8017E+01
      3.222  0.5287E+00  0.8082E+01
      3.346  0.1108E+00  0.8096E+01
      3.470  0.3441E+00  0.8139E+01
      3.594  0.1780E-02  0.8139E+01
      3.718  0.1666E+00  0.8160E+01
      3.841  0.5740E-01  0.8167E+01
      3.965  0.3768E+00  0.8213E+01
      4.089  0.1591E+01  0.8410E+01
      4.213  0.2183E+01  0.8681E+01
      4.337  0.1688E+01  0.8890E+01
      4.460  0.8239E+00  0.8992E+01
      4.584  0.1501E+01  0.9178E+01
      4.708  0.2260E+01  0.9457E+01
      4.832  0.1440E+01  0.9636E+01
      4.956  0.1582E+01  0.9832E+01
      5.080  0.2604E+01  0.1015E+02
      5.203  0.1224E+01  0.1031E+02
      5.327  0.1074E+00  0.1032E+02
      5.451  0.8284E+00  0.1042E+02
      5.575  0.1903E+01  0.1066E+02
      5.699  0.2208E+01  0.1093E+02
      5.822  0.3849E+01  0.1141E+02
      5.946  0.1081E+01  0.1154E+02
      6.070  0.3287E+01  0.1195E+02
      6.194  0.6470E+00  0.1203E+02
      6.318  0.6258E-04  0.1203E+02
      6.442  0.1333E+00  0.1204E+02
      6.565  0.2907E+01  0.1240E+02
      6.689  0.3250E+01  0.1281E+02
      6.813  0.1259E+01  0.1296E+02
      6.937  0.1732E+01  0.1318E+02
      7.061  0.2175E+01  0.1345E+02
      7.184  0.1126E+01  0.1359E+02
      7.308  0.2150E+01  0.1385E+02
      7.432  0.5185E+01  0.1449E+02
      7.556  0.6845E+00  0.1458E+02
      7.680  0.6828E+00  0.1466E+02
      7.804  0.1352E+01  0.1483E+02
      7.927  0.4045E+01  0.1533E+02
      8.051  0.4634E+00  0.1539E+02
      8.175  0.5567E+00  0.1546E+02
      8.299  0.1216E+01  0.1561E+02
      8.423  0.1610E+01  0.1581E+02
      8.546  0.2768E+00  0.1584E+02
      8.670  0.1541E+00  0.1586E+02
      8.794  0.5777E-01  0.1587E+02
      8.918  0.2154E+01  0.1613E+02
      9.042  0.1974E+01  0.1638E+02
      9.166  0.1005E+01  0.1650E+02
      9.289  0.1071E+01  0.1664E+02
      9.413  0.3000E+01  0.1701E+02
      9.537  0.1621E+00  0.1703E+02
      9.661  0.4747E+00  0.1709E+02
      9.785  0.2545E+01  0.1740E+02
      9.908  0.1210E+01  0.1755E+02
     10.032  0.2235E+01  0.1783E+02
     10.156  0.7881E+00  0.1793E+02
     10.280  0.2256E+01  0.1821E+02
     10.404  0.2955E+01  0.1857E+02
     10.528  0.2987E+00  0.1861E+02
     10.651  0.7526E+00  0.1870E+02
     10.775  0.2072E-01  0.1870E+02
     10.899  0.1957E-01  0.1871E+02
     11.023  0.1963E+00  0.1873E+02
     11.147  0.1900E+00  0.1875E+02
     11.270  0.2062E+01  0.1901E+02
     11.394  0.2845E+01  0.1936E+02
     11.518  0.4959E+01  0.1998E+02
     11.642  0.2504E+01  0.2029E+02
     11.766  0.2532E+01  0.2060E+02
     11.890  0.2677E+01  0.2093E+02
     12.013  0.1826E+01  0.2116E+02
     12.137  0.1611E+01  0.2136E+02
     12.261  0.2435E+01  0.2166E+02
     12.385  0.1203E+01  0.2181E+02
     12.509  0.1643E+01  0.2201E+02
     12.632  0.2397E+01  0.2231E+02
     12.756  0.1073E+01  0.2244E+02
     12.880  0.4108E+00  0.2249E+02
     13.004  0.6031E+00  0.2257E+02
     13.128  0.1308E+01  0.2273E+02
     13.252  0.1105E+01  0.2286E+02
     13.375  0.1080E+01  0.2300E+02
     13.499  0.1076E+01  0.2313E+02
     13.623  0.5966E+00  0.2320E+02
     13.747  0.5058E+00  0.2327E+02
     13.871  0.5929E+00  0.2334E+02
     13.994  0.7710E+00  0.2344E+02
     14.118  0.1061E+01  0.2357E+02
     14.242  0.6746E+00  0.2365E+02
     14.366  0.4007E+00  0.2370E+02
     14.490  0.6406E+00  0.2378E+02
     14.614  0.3789E+00  0.2383E+02
     14.737  0.2576E+00  0.2386E+02
     14.861  0.3779E+00  0.2391E+02
     14.985  0.3617E+00  0.2395E+02
     15.109  0.1876E+00  0.2397E+02
     15.233  0.1370E+00  0.2399E+02
     15.356  0.4317E-02  0.2399E+02
     15.480  0.3687E-01  0.2400E+02
     15.604  0.3359E-01  0.2400E+02
     15.728  0.4831E-03  0.2400E+02
     15.852  0.1870E-09  0.2400E+02
     15.976  0.0000E+00  0.2400E+02
     16.099  0.0000E+00  0.2400E+02
     16.223  0.0000E+00  0.2400E+02
     16.347  0.0000E+00  0.2400E+02
     16.471  0.0000E+00  0.2400E+02
     16.595  0.0000E+00  0.2400E+02
     16.718  0.0000E+00  0.2400E+02
     16.842  0.0000E+00  0.2400E+02
     16.966  0.0000E+00  0.2400E+02
     17.090  0.0000E+00  0.2400E+02
     17.214  0.0000E+00  0.2400E+02
