   1   1   0   0
  0.5764366E+02  0.4335996E-09  0.4335996E-09  0.4335996E-09  0.1000000E-15
  1.000000000000000E-004
  CAR 
 Og_FCC                                  
     14.37457082    -19.59581824  301     -3.84912748      1.00000000
    -19.596  0.0000E+00  0.0000E+00
    -19.483  0.0000E+00  0.0000E+00
    -19.369  0.0000E+00  0.0000E+00
    -19.256  0.0000E+00  0.0000E+00
    -19.143  0.0000E+00  0.0000E+00
    -19.030  0.0000E+00  0.0000E+00
    -18.916  0.0000E+00  0.0000E+00
    -18.803  0.0000E+00  0.0000E+00
    -18.690  0.0000E+00  0.0000E+00
    -18.577  0.0000E+00  0.0000E+00
    -18.463  0.0000E+00  0.0000E+00
    -18.350  0.0000E+00  0.0000E+00
    -18.237  0.6520E-08  0.7383E-09
    -18.124  0.1738E-02  0.1968E-03
    -18.011  0.2932E+00  0.3340E-01
    -17.897  0.1802E+01  0.2375E+00
    -17.784  0.5726E+01  0.8858E+00
    -17.671  0.9249E+01  0.1933E+01
    -17.558  0.5906E+00  0.2000E+01
    -17.444  0.3894E-04  0.2000E+01
    -17.331  0.2721E-12  0.2000E+01
    -17.218  0.0000E+00  0.2000E+01
    -17.105  0.0000E+00  0.2000E+01
    -16.991  0.0000E+00  0.2000E+01
    -16.878  0.0000E+00  0.2000E+01
    -16.765  0.0000E+00  0.2000E+01
    -16.652  0.0000E+00  0.2000E+01
    -16.538  0.0000E+00  0.2000E+01
    -16.425  0.0000E+00  0.2000E+01
    -16.312  0.0000E+00  0.2000E+01
    -16.199  0.0000E+00  0.2000E+01
    -16.086  0.0000E+00  0.2000E+01
    -15.972  0.0000E+00  0.2000E+01
    -15.859  0.0000E+00  0.2000E+01
    -15.746  0.0000E+00  0.2000E+01
    -15.633  0.0000E+00  0.2000E+01
    -15.519  0.0000E+00  0.2000E+01
    -15.406  0.0000E+00  0.2000E+01
    -15.293  0.0000E+00  0.2000E+01
    -15.180  0.0000E+00  0.2000E+01
    -15.066  0.0000E+00  0.2000E+01
    -14.953  0.0000E+00  0.2000E+01
    -14.840  0.0000E+00  0.2000E+01
    -14.727  0.0000E+00  0.2000E+01
    -14.613  0.0000E+00  0.2000E+01
    -14.500  0.0000E+00  0.2000E+01
    -14.387  0.0000E+00  0.2000E+01
    -14.274  0.0000E+00  0.2000E+01
    -14.161  0.0000E+00  0.2000E+01
    -14.047  0.0000E+00  0.2000E+01
    -13.934  0.0000E+00  0.2000E+01
    -13.821  0.0000E+00  0.2000E+01
    -13.708  0.0000E+00  0.2000E+01
    -13.594  0.0000E+00  0.2000E+01
    -13.481  0.0000E+00  0.2000E+01
    -13.368  0.0000E+00  0.2000E+01
    -13.255  0.0000E+00  0.2000E+01
    -13.141  0.0000E+00  0.2000E+01
    -13.028  0.0000E+00  0.2000E+01
    -12.915  0.0000E+00  0.2000E+01
    -12.802  0.0000E+00  0.2000E+01
    -12.689  0.0000E+00  0.2000E+01
    -12.575  0.0000E+00  0.2000E+01
    -12.462  0.0000E+00  0.2000E+01
    -12.349  0.0000E+00  0.2000E+01
    -12.236  0.0000E+00  0.2000E+01
    -12.122  0.0000E+00  0.2000E+01
    -12.009  0.0000E+00  0.2000E+01
    -11.896  0.0000E+00  0.2000E+01
    -11.783  0.0000E+00  0.2000E+01
    -11.669  0.0000E+00  0.2000E+01
    -11.556  0.0000E+00  0.2000E+01
    -11.443  0.0000E+00  0.2000E+01
    -11.330  0.0000E+00  0.2000E+01
    -11.216  0.0000E+00  0.2000E+01
    -11.103  0.0000E+00  0.2000E+01
    -10.990  0.0000E+00  0.2000E+01
    -10.877  0.0000E+00  0.2000E+01
    -10.764  0.0000E+00  0.2000E+01
    -10.650  0.0000E+00  0.2000E+01
    -10.537  0.0000E+00  0.2000E+01
    -10.424  0.0000E+00  0.2000E+01
    -10.311  0.0000E+00  0.2000E+01
    -10.197  0.0000E+00  0.2000E+01
    -10.084  0.0000E+00  0.2000E+01
     -9.971  0.0000E+00  0.2000E+01
     -9.858  0.0000E+00  0.2000E+01
     -9.744  0.0000E+00  0.2000E+01
     -9.631  0.0000E+00  0.2000E+01
     -9.518  0.0000E+00  0.2000E+01
     -9.405  0.0000E+00  0.2000E+01
     -9.291  0.0000E+00  0.2000E+01
     -9.178  0.0000E+00  0.2000E+01
     -9.065  0.0000E+00  0.2000E+01
     -8.952  0.0000E+00  0.2000E+01
     -8.839  0.0000E+00  0.2000E+01
     -8.725  0.0000E+00  0.2000E+01
     -8.612  0.0000E+00  0.2000E+01
     -8.499  0.0000E+00  0.2000E+01
     -8.386  0.0000E+00  0.2000E+01
     -8.272  0.0000E+00  0.2000E+01
     -8.159  0.0000E+00  0.2000E+01
     -8.046  0.0000E+00  0.2000E+01
     -7.933  0.0000E+00  0.2000E+01
     -7.819  0.0000E+00  0.2000E+01
     -7.706  0.0000E+00  0.2000E+01
     -7.593  0.0000E+00  0.2000E+01
     -7.480  0.0000E+00  0.2000E+01
     -7.366  0.0000E+00  0.2000E+01
     -7.253  0.0000E+00  0.2000E+01
     -7.140  0.0000E+00  0.2000E+01
     -7.027  0.0000E+00  0.2000E+01
     -6.914  0.4585E-14  0.2000E+01
     -6.800  0.1736E-05  0.2000E+01
     -6.687  0.3870E-01  0.2004E+01
     -6.574  0.8220E+00  0.2097E+01
     -6.461  0.6775E+01  0.2865E+01
     -6.347  0.4897E+01  0.3419E+01
     -6.234  0.1143E+01  0.3549E+01
     -6.121  0.1745E+01  0.3746E+01
     -6.008  0.9065E+00  0.3849E+01
     -5.894  0.1107E+00  0.3861E+01
     -5.781  0.5516E+00  0.3924E+01
     -5.668  0.5884E+00  0.3990E+01
     -5.555  0.5747E-01  0.3997E+01
     -5.441  0.1467E+01  0.4163E+01
     -5.328  0.4067E+01  0.4624E+01
     -5.215  0.3757E+01  0.5049E+01
     -5.102  0.3227E+01  0.5414E+01
     -4.989  0.1351E+01  0.5567E+01
     -4.875  0.3615E+01  0.5977E+01
     -4.762  0.5025E+01  0.6546E+01
     -4.649  0.2405E+01  0.6818E+01
     -4.536  0.3505E+01  0.7215E+01
     -4.422  0.3593E+01  0.7622E+01
     -4.309  0.1993E+01  0.7848E+01
     -4.196  0.9024E+00  0.7950E+01
     -4.083  0.4356E+00  0.7999E+01
     -3.969  0.8096E-02  0.8000E+01
     -3.856  0.9184E-07  0.8000E+01
     -3.743  0.5447E-16  0.8000E+01
     -3.630  0.0000E+00  0.8000E+01
     -3.517  0.0000E+00  0.8000E+01
     -3.403  0.0000E+00  0.8000E+01
     -3.290  0.0000E+00  0.8000E+01
     -3.177  0.0000E+00  0.8000E+01
     -3.064  0.0000E+00  0.8000E+01
     -2.950  0.0000E+00  0.8000E+01
     -2.837  0.0000E+00  0.8000E+01
     -2.724  0.0000E+00  0.8000E+01
     -2.611  0.0000E+00  0.8000E+01
     -2.497  0.0000E+00  0.8000E+01
     -2.384  0.0000E+00  0.8000E+01
     -2.271  0.0000E+00  0.8000E+01
     -2.158  0.0000E+00  0.8000E+01
     -2.044  0.0000E+00  0.8000E+01
     -1.931  0.0000E+00  0.8000E+01
     -1.818  0.0000E+00  0.8000E+01
     -1.705  0.0000E+00  0.8000E+01
     -1.592  0.0000E+00  0.8000E+01
     -1.478  0.0000E+00  0.8000E+01
     -1.365  0.0000E+00  0.8000E+01
     -1.252  0.0000E+00  0.8000E+01
     -1.139  0.0000E+00  0.8000E+01
     -1.025  0.0000E+00  0.8000E+01
     -0.912  0.0000E+00  0.8000E+01
     -0.799  0.0000E+00  0.8000E+01
     -0.686  0.0000E+00  0.8000E+01
     -0.572  0.0000E+00  0.8000E+01
     -0.459  0.0000E+00  0.8000E+01
     -0.346  0.0000E+00  0.8000E+01
     -0.233  0.0000E+00  0.8000E+01
     -0.119  0.0000E+00  0.8000E+01
     -0.006  0.0000E+00  0.8000E+01
      0.107  0.0000E+00  0.8000E+01
      0.220  0.0000E+00  0.8000E+01
      0.333  0.0000E+00  0.8000E+01
      0.447  0.0000E+00  0.8000E+01
      0.560  0.0000E+00  0.8000E+01
      0.673  0.0000E+00  0.8000E+01
      0.786  0.0000E+00  0.8000E+01
      0.900  0.0000E+00  0.8000E+01
      1.013  0.0000E+00  0.8000E+01
      1.126  0.0000E+00  0.8000E+01
      1.239  0.0000E+00  0.8000E+01
      1.353  0.0000E+00  0.8000E+01
      1.466  0.0000E+00  0.8000E+01
      1.579  0.0000E+00  0.8000E+01
      1.692  0.0000E+00  0.8000E+01
      1.806  0.0000E+00  0.8000E+01
      1.919  0.0000E+00  0.8000E+01
      2.032  0.0000E+00  0.8000E+01
      2.145  0.0000E+00  0.8000E+01
      2.258  0.0000E+00  0.8000E+01
      2.372  0.0000E+00  0.8000E+01
      2.485  0.0000E+00  0.8000E+01
      2.598  0.1677E-12  0.8000E+01
      2.711  0.7802E-05  0.8000E+01
      2.825  0.2442E-01  0.8003E+01
      2.938  0.5704E-01  0.8009E+01
      3.051  0.3058E-03  0.8009E+01
      3.164  0.1704E-09  0.8009E+01
      3.278  0.1089E-15  0.8009E+01
      3.391  0.2502E-06  0.8009E+01
      3.504  0.2670E-01  0.8012E+01
      3.617  0.5804E+00  0.8078E+01
      3.731  0.5106E-01  0.8084E+01
      3.844  0.3996E+00  0.8129E+01
      3.957  0.3218E+00  0.8165E+01
      4.070  0.1050E-01  0.8167E+01
      4.183  0.6778E-04  0.8167E+01
      4.297  0.2641E+00  0.8197E+01
      4.410  0.2066E+01  0.8431E+01
      4.523  0.1943E+01  0.8651E+01
      4.636  0.6284E+00  0.8722E+01
      4.750  0.2471E+01  0.9002E+01
      4.863  0.6123E+00  0.9071E+01
      4.976  0.2051E+01  0.9303E+01
      5.089  0.2174E+01  0.9549E+01
      5.203  0.1320E+01  0.9699E+01
      5.316  0.2173E+01  0.9945E+01
      5.429  0.3140E+01  0.1030E+02
      5.542  0.4606E-01  0.1031E+02
      5.656  0.3207E+00  0.1034E+02
      5.769  0.6577E+00  0.1042E+02
      5.882  0.7703E+00  0.1050E+02
      5.995  0.3219E+01  0.1087E+02
      6.108  0.3171E+01  0.1123E+02
      6.222  0.1707E+01  0.1142E+02
      6.335  0.2152E+01  0.1166E+02
      6.448  0.2628E+01  0.1196E+02
      6.561  0.5836E+00  0.1203E+02
      6.675  0.2136E-03  0.1203E+02
      6.788  0.1930E+00  0.1205E+02
      6.901  0.1495E+01  0.1222E+02
      7.014  0.1767E+01  0.1242E+02
      7.128  0.2856E+01  0.1274E+02
      7.241  0.2493E+01  0.1302E+02
      7.354  0.9655E+00  0.1313E+02
      7.467  0.2130E+01  0.1338E+02
      7.580  0.1428E+01  0.1354E+02
      7.694  0.1631E+01  0.1372E+02
      7.807  0.4628E+01  0.1425E+02
      7.920  0.1130E+01  0.1437E+02
      8.033  0.2141E+01  0.1462E+02
      8.147  0.7885E+00  0.1471E+02
      8.260  0.2879E+01  0.1503E+02
      8.373  0.2547E+01  0.1532E+02
      8.486  0.4992E+00  0.1538E+02
      8.600  0.1134E+00  0.1539E+02
      8.713  0.1606E+01  0.1557E+02
      8.826  0.4207E+00  0.1562E+02
      8.939  0.1769E+01  0.1582E+02
      9.053  0.8801E-01  0.1583E+02
      9.166  0.3215E-01  0.1583E+02
      9.279  0.2528E+00  0.1586E+02
      9.392  0.8560E+00  0.1596E+02
      9.505  0.1320E+01  0.1611E+02
      9.619  0.1604E+01  0.1629E+02
      9.732  0.6051E+00  0.1636E+02
      9.845  0.2361E+01  0.1662E+02
      9.958  0.1236E+01  0.1676E+02
     10.072  0.2289E+00  0.1679E+02
     10.185  0.6636E+00  0.1687E+02
     10.298  0.8356E+00  0.1696E+02
     10.411  0.8186E+00  0.1705E+02
     10.525  0.1618E+01  0.1724E+02
     10.638  0.4258E+00  0.1728E+02
     10.751  0.3107E+00  0.1732E+02
     10.864  0.7220E+00  0.1740E+02
     10.978  0.7985E+00  0.1749E+02
     11.091  0.6788E+00  0.1757E+02
     11.204  0.4693E+00  0.1762E+02
     11.317  0.2593E+00  0.1765E+02
     11.430  0.2143E+00  0.1768E+02
     11.544  0.4616E+00  0.1773E+02
     11.657  0.2017E+00  0.1775E+02
     11.770  0.3399E+00  0.1779E+02
     11.883  0.2105E+00  0.1781E+02
     11.997  0.2217E+00  0.1784E+02
     12.110  0.2963E+00  0.1787E+02
     12.223  0.3256E+00  0.1791E+02
     12.336  0.2144E+00  0.1793E+02
     12.450  0.1809E+00  0.1795E+02
     12.563  0.2072E+00  0.1798E+02
     12.676  0.1025E+00  0.1799E+02
     12.789  0.6545E-01  0.1800E+02
     12.903  0.3561E-01  0.1800E+02
     13.016  0.8491E-03  0.1800E+02
     13.129  0.3267E-08  0.1800E+02
     13.242  0.0000E+00  0.1800E+02
     13.355  0.0000E+00  0.1800E+02
     13.469  0.0000E+00  0.1800E+02
     13.582  0.0000E+00  0.1800E+02
     13.695  0.0000E+00  0.1800E+02
     13.808  0.0000E+00  0.1800E+02
     13.922  0.0000E+00  0.1800E+02
     14.035  0.0000E+00  0.1800E+02
     14.148  0.0000E+00  0.1800E+02
     14.261  0.0000E+00  0.1800E+02
     14.375  0.0000E+00  0.1800E+02
