    1    1    1    1
  0.5764366E+02  0.4335996E-09  0.4335996E-09  0.4335996E-09  0.1000000E-15
  1.000000000000000E-004
  CAR 
 Og_FCC                                  
      8    216     18
 
  0.0000000E+00  0.0000000E+00  0.0000000E+00  0.4629630E-02
    1      -18.051710   1.000000
    2      -18.051681   1.000000
    3       -5.550091   1.000000
    4       -5.550082   1.000000
    5       -4.141589   1.000000
    6       -4.141580   1.000000
    7       -4.141572   1.000000
    8       -4.141563   1.000000
    9        2.843307   0.000000
   10        2.843312   0.000000
   11        7.459098   0.000000
   12        7.459102   0.000000
   13        7.459103   0.000000
   14        7.459104   0.000000
   15        7.503082   0.000000
   16        7.503091   0.000000
   17        9.860445   0.000000
   18        9.892330   0.000000
 
  0.1666667E+00  0.1535160E-17  0.2775558E-16  0.4629630E-02
    1      -17.987769   1.000000
    2      -17.987740   1.000000
    3       -5.762639   1.000000
    4       -5.762627   1.000000
    5       -4.512238   1.000000
    6       -4.512227   1.000000
    7       -4.200933   1.000000
    8       -4.200933   1.000000
    9        3.565611   0.000000
   10        3.565615   0.000000
   11        6.807157   0.000000
   12        6.807158   0.000000
   13        7.680678   0.000000
   14        7.680808   0.000000
   15        7.722934   0.000000
   16        7.723089   0.000000
   17        9.293694   0.000000
   18        9.298913   0.000000
 
  0.3333333E+00 -0.5244083E-16 -0.1387779E-16  0.4629630E-02
    1      -17.857739   1.000000
    2      -17.857709   1.000000
    3       -6.329954   1.000000
    4       -6.329944   1.000000
    5       -4.944070   1.000000
    6       -4.944068   1.000000
    7       -4.320093   1.000000
    8       -4.320093   1.000000
    9        4.321204   0.000000
   10        4.321215   0.000000
   11        7.062511   0.000000
   12        7.062529   0.000000
   13        7.378017   0.000000
   14        7.378023   0.000000
   15        7.425151   0.000000
   16        7.425167   0.000000
   17       10.161868   0.000000
   18       10.171725   0.000000
 
  0.5000000E+00 -0.7866125E-16 -0.2775558E-16  0.4629630E-02
    1      -17.787436   1.000000
    2      -17.787404   1.000000
    3       -6.644590   1.000000
    4       -6.644582   1.000000
    5       -5.070465   1.000000
    6       -5.070464   1.000000
    7       -4.376595   1.000000
    8       -4.376595   1.000000
    9        4.314144   0.000000
   10        4.314159   0.000000
   11        7.106746   0.000000
   12        7.106764   0.000000
   13        7.150382   0.000000
   14        7.150385   0.000000
   15        7.781868   0.000000
   16        7.781911   0.000000
   17       10.322500   0.000000
   18       11.444326   0.000000
 
 -0.3333333E+00  0.5244083E-16  0.1387779E-16  0.4629630E-02
    1      -17.857739   1.000000
    2      -17.857709   1.000000
    3       -6.329954   1.000000
    4       -6.329944   1.000000
    5       -4.944070   1.000000
    6       -4.944068   1.000000
    7       -4.320093   1.000000
    8       -4.320093   1.000000
    9        4.321204   0.000000
   10        4.321215   0.000000
   11        7.062510   0.000000
   12        7.062518   0.000000
   13        7.378017   0.000000
   14        7.378019   0.000000
   15        7.425166   0.000000
   16        7.425167   0.000000
   17       10.168288   0.000000
   18       10.178069   0.000000
 
 -0.1666667E+00 -0.1535160E-17 -0.2775558E-16  0.4629630E-02
    1      -17.987769   1.000000
    2      -17.987740   1.000000
    3       -5.762639   1.000000
    4       -5.762627   1.000000
    5       -4.512238   1.000000
    6       -4.512227   1.000000
    7       -4.200933   1.000000
    8       -4.200933   1.000000
    9        3.565611   0.000000
   10        3.565615   0.000000
   11        6.807153   0.000000
   12        6.807162   0.000000
   13        7.680660   0.000000
   14        7.680681   0.000000
   15        7.723077   0.000000
   16        7.723094   0.000000
   17        9.293769   0.000000
   18        9.312045   0.000000
 
  0.0000000E+00  0.1666667E+00  0.0000000E+00  0.4629630E-02
    1      -17.987769   1.000000
    2      -17.987740   1.000000
    3       -5.762638   1.000000
    4       -5.762628   1.000000
    5       -4.512237   1.000000
    6       -4.512228   1.000000
    7       -4.200937   1.000000
    8       -4.200928   1.000000
    9        3.565611   0.000000
   10        3.565615   0.000000
   11        6.807154   0.000000
   12        6.807164   0.000000
   13        7.680660   0.000000
   14        7.680990   0.000000
   15        7.722765   0.000000
   16        7.723095   0.000000
   17        9.293549   0.000000
   18        9.314756   0.000000
 
  0.1666667E+00  0.1666667E+00  0.4163336E-16  0.4629630E-02
    1      -17.966542   1.000000
    2      -17.966512   1.000000
    3       -5.802805   1.000000
    4       -5.802795   1.000000
    5       -4.557757   1.000000
    6       -4.557746   1.000000
    7       -4.323306   1.000000
    8       -4.323298   1.000000
    9        3.815472   0.000000
   10        3.815473   0.000000
   11        6.341311   0.000000
   12        6.341324   0.000000
   13        7.941764   0.000000
   14        7.953913   0.000000
   15        8.060867   0.000000
   16        8.065480   0.000000
   17        8.111614   0.000000
   18        8.130053   0.000000
 
  0.3333333E+00  0.1666667E+00  0.0000000E+00  0.4629630E-02
    1      -17.858188   1.000000
    2      -17.858156   1.000000
    3       -6.187891   1.000000
    4       -6.187881   1.000000
    5       -4.964757   1.000000
    6       -4.964752   1.000000
    7       -4.476628   1.000000
    8       -4.476624   1.000000
    9        4.669777   0.000000
   10        4.669779   0.000000
   11        6.048884   0.000000
   12        6.048893   0.000000
   13        6.898605   0.000000
   14        6.898614   0.000000
   15        8.235332   0.000000
   16        8.235462   0.000000
   17        9.418987   0.000000
   18       10.165926   0.000000
 
  0.5000000E+00  0.1666667E+00  0.8326673E-16  0.4629630E-02
    1      -17.766142   1.000000
    2      -17.766109   1.000000
    3       -6.537622   1.000000
    4       -6.537614   1.000000
    5       -5.208696   1.000000
    6       -5.208690   1.000000
    7       -4.588179   1.000000
    8       -4.588172   1.000000
    9        4.893275   0.000000
   10        4.893287   0.000000
   11        6.092035   0.000000
   12        6.092036   0.000000
   13        7.477854   0.000000
   14        7.477854   0.000000
   15        7.780731   0.000000
   16        7.780741   0.000000
   17       10.758284   0.000000
   18       11.491489   0.000000
 
 -0.3333333E+00  0.1666667E+00  0.0000000E+00  0.4629630E-02
    1      -17.789632   1.000000
    2      -17.789600   1.000000
    3       -6.446811   1.000000
    4       -6.446801   1.000000
    5       -5.192256   1.000000
    6       -5.192246   1.000000
    7       -4.532959   1.000000
    8       -4.532946   1.000000
    9        5.053220   0.000000
   10        5.053231   0.000000
   11        6.275168   0.000000
   12        6.275171   0.000000
   13        7.141098   0.000000
   14        7.141098   0.000000
   15        7.691298   0.000000
   16        7.691308   0.000000
   17        9.838393   0.000000
   18        9.838401   0.000000
 
 -0.1666667E+00  0.1666667E+00  0.3218561E-17  0.4629630E-02
    1      -17.901177   1.000000
    2      -17.901146   1.000000
    3       -6.050965   1.000000
    4       -6.050953   1.000000
    5       -4.860801   1.000000
    6       -4.860788   1.000000
    7       -4.353389   1.000000
    8       -4.353376   1.000000
    9        4.485438   0.000000
   10        4.485440   0.000000
   11        6.381120   0.000000
   12        6.381132   0.000000
   13        7.173858   0.000000
   14        7.173863   0.000000
   15        8.208802   0.000000
   16        8.208813   0.000000
   17        8.258101   0.000000
   18        8.258104   0.000000
 
  0.0000000E+00  0.3333333E+00  0.1387779E-16  0.4629630E-02
    1      -17.857739   1.000000
    2      -17.857709   1.000000
    3       -6.329953   1.000000
    4       -6.329944   1.000000
    5       -4.944072   1.000000
    6       -4.944066   1.000000
    7       -4.320097   1.000000
    8       -4.320088   1.000000
    9        4.321204   0.000000
   10        4.321214   0.000000
   11        7.062515   0.000000
   12        7.062518   0.000000
   13        7.378015   0.000000
   14        7.378019   0.000000
   15        7.425165   0.000000
   16        7.425169   0.000000
   17       10.162933   0.000000
   18       10.195557   0.000000
 
  0.1666667E+00  0.3333333E+00  0.5551115E-16  0.4629630E-02
    1      -17.858188   1.000000
    2      -17.858156   1.000000
    3       -6.187890   1.000000
    4       -6.187881   1.000000
    5       -4.964757   1.000000
    6       -4.964751   1.000000
    7       -4.476630   1.000000
    8       -4.476621   1.000000
    9        4.669777   0.000000
   10        4.669779   0.000000
   11        6.048884   0.000000
   12        6.048894   0.000000
   13        6.898609   0.000000
   14        6.898618   0.000000
   15        8.235330   0.000000
   16        8.236008   0.000000
   17        9.419004   0.000000
   18        9.644563   0.000000
 
  0.3333333E+00  0.3333333E+00  0.5551115E-16  0.4629630E-02
    1      -17.794299   1.000000
    2      -17.794268   1.000000
    3       -6.332948   1.000000
    4       -6.332939   1.000000
    5       -5.139960   1.000000
    6       -5.139956   1.000000
    7       -4.667580   1.000000
    8       -4.667573   1.000000
    9        4.394398   0.000000
   10        4.394398   0.000000
   11        5.186442   0.000000
   12        5.186459   0.000000
   13        7.759306   0.000000
   14        7.759306   0.000000
   15        9.644590   0.000000
   16        9.645481   0.000000
   17        9.781877   0.000000
   18        9.782280   0.000000
 
  0.5000000E+00  0.3333333E+00  0.0000000E+00  0.4629630E-02
    1      -17.723923   1.000000
    2      -17.723890   1.000000
    3       -6.501159   1.000000
    4       -6.501151   1.000000
    5       -5.346161   1.000000
    6       -5.346152   1.000000
    7       -4.830051   1.000000
    8       -4.830041   1.000000
    9        4.408632   0.000000
   10        4.408635   0.000000
   11        5.354195   0.000000
   12        5.354208   0.000000
   13        7.961762   0.000000
   14        7.961781   0.000000
   15        9.529247   0.000000
   16        9.529276   0.000000
   17       11.146643   0.000000
   18       12.338124   0.000000
 
 -0.3333333E+00  0.3333333E+00  0.9626754E-17  0.4629630E-02
    1      -17.724646   1.000000
    2      -17.724614   1.000000
    3       -6.461382   1.000000
    4       -6.461373   1.000000
    5       -5.481146   1.000000
    6       -5.481135   1.000000
    7       -4.796942   1.000000
    8       -4.796924   1.000000
    9        4.978903   0.000000
   10        4.978910   0.000000
   11        6.175567   0.000000
   12        6.175568   0.000000
   13        7.327233   0.000000
   14        7.327234   0.000000
   15        8.686148   0.000000
   16        8.686149   0.000000
   17       10.264534   0.000000
   18       10.271398   0.000000
 
 -0.1666667E+00  0.3333333E+00 -0.6938894E-17  0.4629630E-02
    1      -17.789632   1.000000
    2      -17.789600   1.000000
    3       -6.446810   1.000000
    4       -6.446801   1.000000
    5       -5.192257   1.000000
    6       -5.192246   1.000000
    7       -4.532960   1.000000
    8       -4.532946   1.000000
    9        5.053220   0.000000
   10        5.053230   0.000000
   11        6.275165   0.000000
   12        6.275165   0.000000
   13        7.141097   0.000000
   14        7.141098   0.000000
   15        7.691301   0.000000
   16        7.691314   0.000000
   17        9.838395   0.000000
   18        9.941567   0.000000
 
  0.0000000E+00  0.5000000E+00  0.2775558E-16  0.4629630E-02
    1      -17.787436   1.000000
    2      -17.787404   1.000000
    3       -6.644590   1.000000
    4       -6.644582   1.000000
    5       -5.070468   1.000000
    6       -5.070461   1.000000
    7       -4.376599   1.000000
    8       -4.376590   1.000000
    9        4.314143   0.000000
   10        4.314159   0.000000
   11        7.106744   0.000000
   12        7.106748   0.000000
   13        7.150383   0.000000
   14        7.150387   0.000000
   15        7.781851   0.000000
   16        7.781867   0.000000
   17       10.327162   0.000000
   18       10.564763   0.000000
 
  0.1666667E+00  0.5000000E+00  0.0000000E+00  0.4629630E-02
    1      -17.766142   1.000000
    2      -17.766109   1.000000
    3       -6.537622   1.000000
    4       -6.537614   1.000000
    5       -5.208697   1.000000
    6       -5.208689   1.000000
    7       -4.588181   1.000000
    8       -4.588170   1.000000
    9        4.893274   0.000000
   10        4.893287   0.000000
   11        6.092035   0.000000
   12        6.092035   0.000000
   13        7.477854   0.000000
   14        7.477854   0.000000
   15        7.780731   0.000000
   16        7.780740   0.000000
   17       10.752759   0.000000
   18       10.968599   0.000000
 
  0.3333333E+00  0.5000000E+00  0.0000000E+00  0.4629630E-02
    1      -17.723923   1.000000
    2      -17.723890   1.000000
    3       -6.501159   1.000000
    4       -6.501151   1.000000
    5       -5.346161   1.000000
    6       -5.346152   1.000000
    7       -4.830051   1.000000
    8       -4.830040   1.000000
    9        4.408632   0.000000
   10        4.408635   0.000000
   11        5.354195   0.000000
   12        5.354208   0.000000
   13        7.961766   0.000000
   14        7.961768   0.000000
   15        9.529447   0.000000
   16        9.531518   0.000000
   17       10.975272   0.000000
   18       11.515281   0.000000
 
  0.5000000E+00  0.5000000E+00  0.1110223E-15  0.4629630E-02
    1      -17.700931   1.000000
    2      -17.700897   1.000000
    3       -6.595178   1.000000
    4       -6.595171   1.000000
    5       -5.356457   1.000000
    6       -5.356452   1.000000
    7       -4.826475   1.000000
    8       -4.826468   1.000000
    9        3.896187   0.000000
   10        3.896192   0.000000
   11        4.777958   0.000000
   12        4.777977   0.000000
   13        9.289473   0.000000
   14        9.296982   0.000000
   15       11.693397   0.000000
   16       11.784720   0.000000
   17       11.896180   0.000000
   18       12.042739   0.000000
 
 -0.3333333E+00  0.5000000E+00 -0.2775558E-16  0.4629630E-02
    1      -17.723923   1.000000
    2      -17.723890   1.000000
    3       -6.501159   1.000000
    4       -6.501151   1.000000
    5       -5.346161   1.000000
    6       -5.346152   1.000000
    7       -4.830051   1.000000
    8       -4.830040   1.000000
    9        4.408632   0.000000
   10        4.408635   0.000000
   11        5.354195   0.000000
   12        5.354208   0.000000
   13        7.961760   0.000000
   14        7.961761   0.000000
   15        9.529215   0.000000
   16        9.529253   0.000000
   17       10.989219   0.000000
   18       11.198444   0.000000
 
 -0.1666667E+00  0.5000000E+00 -0.4163336E-16  0.4629630E-02
    1      -17.766142   1.000000
    2      -17.766109   1.000000
    3       -6.537622   1.000000
    4       -6.537614   1.000000
    5       -5.208697   1.000000
    6       -5.208688   1.000000
    7       -4.588181   1.000000
    8       -4.588170   1.000000
    9        4.893274   0.000000
   10        4.893287   0.000000
   11        6.092034   0.000000
   12        6.092036   0.000000
   13        7.477854   0.000000
   14        7.477854   0.000000
   15        7.780731   0.000000
   16        7.780740   0.000000
   17       10.752545   0.000000
   18       11.311838   0.000000
 
  0.0000000E+00 -0.3333333E+00 -0.1387779E-16  0.4629630E-02
    1      -17.857739   1.000000
    2      -17.857709   1.000000
    3       -6.329953   1.000000
    4       -6.329944   1.000000
    5       -4.944072   1.000000
    6       -4.944066   1.000000
    7       -4.320097   1.000000
    8       -4.320088   1.000000
    9        4.321204   0.000000
   10        4.321214   0.000000
   11        7.062512   0.000000
   12        7.062517   0.000000
   13        7.378016   0.000000
   14        7.378019   0.000000
   15        7.425166   0.000000
   16        7.425168   0.000000
   17       10.176530   0.000000
   18       10.193393   0.000000
 
  0.1666667E+00 -0.3333333E+00  0.6938894E-17  0.4629630E-02
    1      -17.789632   1.000000
    2      -17.789600   1.000000
    3       -6.446810   1.000000
    4       -6.446801   1.000000
    5       -5.192257   1.000000
    6       -5.192246   1.000000
    7       -4.532960   1.000000
    8       -4.532946   1.000000
    9        5.053220   0.000000
   10        5.053231   0.000000
   11        6.275165   0.000000
   12        6.275165   0.000000
   13        7.141100   0.000000
   14        7.141103   0.000000
   15        7.691299   0.000000
   16        7.691310   0.000000
   17        9.838397   0.000000
   18       11.322553   0.000000
 
  0.3333333E+00 -0.3333333E+00 -0.9626754E-17  0.4629630E-02
    1      -17.724646   1.000000
    2      -17.724614   1.000000
    3       -6.461382   1.000000
    4       -6.461373   1.000000
    5       -5.481146   1.000000
    6       -5.481135   1.000000
    7       -4.796942   1.000000
    8       -4.796924   1.000000
    9        4.978903   0.000000
   10        4.978910   0.000000
   11        6.175568   0.000000
   12        6.175571   0.000000
   13        7.327231   0.000000
   14        7.327236   0.000000
   15        8.686149   0.000000
   16        8.686150   0.000000
   17       10.269497   0.000000
   18       10.369716   0.000000
 
  0.5000000E+00 -0.3333333E+00 -0.3469447E-16  0.4629630E-02
    1      -17.723923   1.000000
    2      -17.723890   1.000000
    3       -6.501159   1.000000
    4       -6.501151   1.000000
    5       -5.346161   1.000000
    6       -5.346153   1.000000
    7       -4.830050   1.000000
    8       -4.830041   1.000000
    9        4.408632   0.000000
   10        4.408636   0.000000
   11        5.354195   0.000000
   12        5.354208   0.000000
   13        7.961761   0.000000
   14        7.962026   0.000000
   15        9.529223   0.000000
   16        9.584302   0.000000
   17       10.960064   0.000000
   18       11.454404   0.000000
 
 -0.3333333E+00 -0.3333333E+00 -0.5551115E-16  0.4629630E-02
    1      -17.794299   1.000000
    2      -17.794268   1.000000
    3       -6.332948   1.000000
    4       -6.332939   1.000000
    5       -5.139961   1.000000
    6       -5.139956   1.000000
    7       -4.667580   1.000000
    8       -4.667574   1.000000
    9        4.394398   0.000000
   10        4.394398   0.000000
   11        5.186442   0.000000
   12        5.186459   0.000000
   13        7.759306   0.000000
   14        7.759311   0.000000
   15        9.643987   0.000000
   16        9.702894   0.000000
   17        9.782490   0.000000
   18       10.098096   0.000000
 
 -0.1666667E+00 -0.3333333E+00 -0.5551115E-16  0.4629630E-02
    1      -17.858188   1.000000
    2      -17.858156   1.000000
    3       -6.187890   1.000000
    4       -6.187881   1.000000
    5       -4.964757   1.000000
    6       -4.964751   1.000000
    7       -4.476630   1.000000
    8       -4.476621   1.000000
    9        4.669777   0.000000
   10        4.669779   0.000000
   11        6.048884   0.000000
   12        6.048893   0.000000
   13        6.898604   0.000000
   14        6.898613   0.000000
   15        8.235330   0.000000
   16        8.235354   0.000000
   17        9.419124   0.000000
   18        9.441675   0.000000
 
  0.0000000E+00 -0.1666667E+00  0.0000000E+00  0.4629630E-02
    1      -17.987769   1.000000
    2      -17.987740   1.000000
    3       -5.762638   1.000000
    4       -5.762628   1.000000
    5       -4.512237   1.000000
    6       -4.512228   1.000000
    7       -4.200937   1.000000
    8       -4.200928   1.000000
    9        3.565611   0.000000
   10        3.565615   0.000000
   11        6.807157   0.000000
   12        6.807159   0.000000
   13        7.680671   0.000000
   14        7.680761   0.000000
   15        7.723002   0.000000
   16        7.723076   0.000000
   17        9.289689   0.000000
   18        9.307921   0.000000
 
  0.1666667E+00 -0.1666667E+00 -0.3218561E-17  0.4629630E-02
    1      -17.901177   1.000000
    2      -17.901146   1.000000
    3       -6.050965   1.000000
    4       -6.050953   1.000000
    5       -4.860801   1.000000
    6       -4.860788   1.000000
    7       -4.353389   1.000000
    8       -4.353376   1.000000
    9        4.485438   0.000000
   10        4.485440   0.000000
   11        6.381121   0.000000
   12        6.381141   0.000000
   13        7.173862   0.000000
   14        7.173903   0.000000
   15        8.208808   0.000000
   16        8.230644   0.000000
   17        8.249605   0.000000
   18        8.258108   0.000000
 
  0.3333333E+00 -0.1666667E+00  0.0000000E+00  0.4629630E-02
    1      -17.789632   1.000000
    2      -17.789600   1.000000
    3       -6.446810   1.000000
    4       -6.446801   1.000000
    5       -5.192256   1.000000
    6       -5.192246   1.000000
    7       -4.532959   1.000000
    8       -4.532946   1.000000
    9        5.053220   0.000000
   10        5.053231   0.000000
   11        6.275165   0.000000
   12        6.275165   0.000000
   13        7.141097   0.000000
   14        7.141098   0.000000
   15        7.691303   0.000000
   16        7.691314   0.000000
   17        9.842475   0.000000
   18       10.339212   0.000000
 
  0.5000000E+00 -0.1666667E+00  0.2775558E-16  0.4629630E-02
    1      -17.766142   1.000000
    2      -17.766109   1.000000
    3       -6.537622   1.000000
    4       -6.537614   1.000000
    5       -5.208696   1.000000
    6       -5.208690   1.000000
    7       -4.588179   1.000000
    8       -4.588172   1.000000
    9        4.893275   0.000000
   10        4.893287   0.000000
   11        6.092035   0.000000
   12        6.092036   0.000000
   13        7.477855   0.000000
   14        7.477857   0.000000
   15        7.780731   0.000000
   16        7.780741   0.000000
   17       10.851365   0.000000
   18       11.131091   0.000000
 
 -0.3333333E+00 -0.1666667E+00  0.0000000E+00  0.4629630E-02
    1      -17.858188   1.000000
    2      -17.858156   1.000000
    3       -6.187891   1.000000
    4       -6.187881   1.000000
    5       -4.964757   1.000000
    6       -4.964752   1.000000
    7       -4.476628   1.000000
    8       -4.476624   1.000000
    9        4.669777   0.000000
   10        4.669779   0.000000
   11        6.048884   0.000000
   12        6.048893   0.000000
   13        6.898606   0.000000
   14        6.898614   0.000000
   15        8.235338   0.000000
   16        8.236046   0.000000
   17        9.419044   0.000000
   18       10.110732   0.000000
 
 -0.1666667E+00 -0.1666667E+00 -0.4163336E-16  0.4629630E-02
    1      -17.966542   1.000000
    2      -17.966512   1.000000
    3       -5.802805   1.000000
    4       -5.802795   1.000000
    5       -4.557757   1.000000
    6       -4.557746   1.000000
    7       -4.323306   1.000000
    8       -4.323298   1.000000
    9        3.815472   0.000000
   10        3.815473   0.000000
   11        6.341308   0.000000
   12        6.341349   0.000000
   13        7.941758   0.000000
   14        7.951868   0.000000
   15        8.060853   0.000000
   16        8.097106   0.000000
   17        8.111613   0.000000
   18        8.651398   0.000000
 
  0.1540744E-32  0.7703720E-33  0.1666667E+00  0.4629630E-02
    1      -17.987769   1.000000
    2      -17.987739   1.000000
    3       -5.762638   1.000000
    4       -5.762628   1.000000
    5       -4.512237   1.000000
    6       -4.512228   1.000000
    7       -4.200940   1.000000
    8       -4.200926   1.000000
    9        3.565611   0.000000
   10        3.565615   0.000000
   11        6.807153   0.000000
   12        6.807162   0.000000
   13        7.680663   0.000000
   14        7.680704   0.000000
   15        7.723068   0.000000
   16        7.723075   0.000000
   17        9.296868   0.000000
   18        9.312687   0.000000
 
  0.1666667E+00  0.1080747E-16  0.1666667E+00  0.4629630E-02
    1      -17.966542   1.000000
    2      -17.966512   1.000000
    3       -5.802804   1.000000
    4       -5.802795   1.000000
    5       -4.557757   1.000000
    6       -4.557747   1.000000
    7       -4.323308   1.000000
    8       -4.323296   1.000000
    9        3.815472   0.000000
   10        3.815473   0.000000
   11        6.341313   0.000000
   12        6.341331   0.000000
   13        7.941784   0.000000
   14        7.944428   0.000000
   15        8.060854   0.000000
   16        8.086437   0.000000
   17        8.111617   0.000000
   18        8.848375   0.000000
 
  0.3333333E+00 -0.5704631E-16  0.1666667E+00  0.4629630E-02
    1      -17.858188   1.000000
    2      -17.858156   1.000000
    3       -6.187891   1.000000
    4       -6.187881   1.000000
    5       -4.964757   1.000000
    6       -4.964752   1.000000
    7       -4.476629   1.000000
    8       -4.476623   1.000000
    9        4.669777   0.000000
   10        4.669779   0.000000
   11        6.048883   0.000000
   12        6.048892   0.000000
   13        6.898604   0.000000
   14        6.898619   0.000000
   15        8.235336   0.000000
   16        8.235645   0.000000
   17        9.418993   0.000000
   18       10.095751   0.000000
 
  0.5000000E+00 -0.8326673E-16  0.1666667E+00  0.4629630E-02
    1      -17.766142   1.000000
    2      -17.766109   1.000000
    3       -6.537622   1.000000
    4       -6.537614   1.000000
    5       -5.208696   1.000000
    6       -5.208690   1.000000
    7       -4.588179   1.000000
    8       -4.588172   1.000000
    9        4.893275   0.000000
   10        4.893287   0.000000
   11        6.092035   0.000000
   12        6.092036   0.000000
   13        7.477853   0.000000
   14        7.477854   0.000000
   15        7.780731   0.000000
   16        7.780741   0.000000
   17       10.970021   0.000000
   18       11.476175   0.000000
 
 -0.3333333E+00  0.4783535E-16  0.1666667E+00  0.4629630E-02
    1      -17.789632   1.000000
    2      -17.789600   1.000000
    3       -6.446810   1.000000
    4       -6.446801   1.000000
    5       -5.192256   1.000000
    6       -5.192247   1.000000
    7       -4.532959   1.000000
    8       -4.532946   1.000000
    9        5.053220   0.000000
   10        5.053231   0.000000
   11        6.275165   0.000000
   12        6.275176   0.000000
   13        7.141097   0.000000
   14        7.141097   0.000000
   15        7.691305   0.000000
   16        7.691307   0.000000
   17        9.838409   0.000000
   18       11.613581   0.000000
 
 -0.1666667E+00  0.2161493E-16  0.1666667E+00  0.4629630E-02
    1      -17.901177   1.000000
    2      -17.901146   1.000000
    3       -6.050964   1.000000
    4       -6.050954   1.000000
    5       -4.860800   1.000000
    6       -4.860788   1.000000
    7       -4.353389   1.000000
    8       -4.353375   1.000000
    9        4.485439   0.000000
   10        4.485440   0.000000
   11        6.381121   0.000000
   12        6.381187   0.000000
   13        7.173862   0.000000
   14        7.174512   0.000000
   15        8.208802   0.000000
   16        8.217544   0.000000
   17        8.257372   0.000000
   18        8.258114   0.000000
 
  0.7703720E-33  0.1666667E+00  0.1666667E+00  0.4629630E-02
    1      -17.966542   1.000000
    2      -17.966512   1.000000
    3       -5.802803   1.000000
    4       -5.802796   1.000000
    5       -4.557755   1.000000
    6       -4.557748   1.000000
    7       -4.323312   1.000000
    8       -4.323292   1.000000
    9        3.815472   0.000000
   10        3.815473   0.000000
   11        6.341302   0.000000
   12        6.341317   0.000000
   13        7.941770   0.000000
   14        7.945567   0.000000
   15        8.060856   0.000000
   16        8.074876   0.000000
   17        8.095112   0.000000
   18        8.111616   0.000000
 
  0.1666667E+00  0.1666667E+00  0.1666667E+00  0.4629630E-02
    1      -17.987769   1.000000
    2      -17.987739   1.000000
    3       -5.762635   1.000000
    4       -5.762631   1.000000
    5       -4.512235   1.000000
    6       -4.512230   1.000000
    7       -4.200945   1.000000
    8       -4.200921   1.000000
    9        3.565611   0.000000
   10        3.565615   0.000000
   11        6.807157   0.000000
   12        6.807159   0.000000
   13        7.680666   0.000000
   14        7.680721   0.000000
   15        7.723040   0.000000
   16        7.723083   0.000000
   17        9.297868   0.000000
   18        9.310723   0.000000
 
  0.3333333E+00  0.1666667E+00  0.1666667E+00  0.4629630E-02
    1      -17.901178   1.000000
    2      -17.901146   1.000000
    3       -6.050963   1.000000
    4       -6.050955   1.000000
    5       -4.860797   1.000000
    6       -4.860791   1.000000
    7       -4.353391   1.000000
    8       -4.353373   1.000000
    9        4.485438   0.000000
   10        4.485440   0.000000
   11        6.381120   0.000000
   12        6.381132   0.000000
   13        7.173864   0.000000
   14        7.173879   0.000000
   15        8.208799   0.000000
   16        8.208807   0.000000
   17        8.258098   0.000000
   18        8.258114   0.000000
 
  0.5000000E+00  0.1666667E+00  0.1666667E+00  0.4629630E-02
    1      -17.789632   1.000000
    2      -17.789600   1.000000
    3       -6.446810   1.000000
    4       -6.446802   1.000000
    5       -5.192255   1.000000