    1    1    1    1
  0.6156630E+02  0.4432200E-09  0.4432200E-09  0.4432200E-09  0.1000000E-15
  1.000000000000000E-004
  CAR 
 Og_FCC                                  
      8    216     24
 
  0.0000000E+00  0.0000000E+00  0.0000000E+00  0.4629630E-02
    1      -18.243335   1.000000
    2      -18.243292   1.000000
    3       -5.885985   1.000000
    4       -5.885972   1.000000
    5       -4.496147   1.000000
    6       -4.496135   1.000000
    7       -4.496123   1.000000
    8       -4.496111   1.000000
    9        2.470293   0.000000
   10        2.470296   0.000000
   11        7.107765   0.000000
   12        7.107771   0.000000
   13        7.107777   0.000000
   14        7.107783   0.000000
   15        7.148836   0.000000
   16        7.148841   0.000000
   17        9.366261   0.000000
   18        9.366262   0.000000
   19        9.366264   0.000000
   20        9.366266   0.000000
   21        9.806337   0.000000
   22        9.806341   0.000000
   23       11.945895   0.000000
   24       11.969519   0.000000
 
  0.1666667E+00  0.1535160E-17  0.6938894E-17  0.4629630E-02
    1      -18.191324   1.000000
    2      -18.191278   1.000000
    3       -6.062703   1.000000
    4       -6.062687   1.000000
    5       -4.818970   1.000000
    6       -4.818954   1.000000
    7       -4.547565   1.000000
    8       -4.547564   1.000000
    9        3.143009   0.000000
   10        3.143009   0.000000
   11        6.469106   0.000000
   12        6.469121   0.000000
   13        7.314724   0.000000
   14        7.314724   0.000000
   15        7.354459   0.000000
   16        7.354459   0.000000
   17        8.844008   0.000000
   18        8.844009   0.000000
   19        8.870447   0.000000
   20        8.870453   0.000000
   21       10.533584   0.000000
   22       10.533588   0.000000
   23       11.694431   0.000000
   24       11.694680   0.000000
 
  0.3333333E+00 -0.2468525E-16  0.2775558E-16  0.4629630E-02
    1      -18.087436   1.000000
    2      -18.087390   1.000000
    3       -6.524036   1.000000
    4       -6.524021   1.000000
    5       -5.223540   1.000000
    6       -5.223537   1.000000
    7       -4.650924   1.000000
    8       -4.650924   1.000000
    9        3.966289   0.000000
   10        3.966298   0.000000
   11        6.551486   0.000000
   12        6.551500   0.000000
   13        7.030991   0.000000
   14        7.030991   0.000000
   15        7.074798   0.000000
   16        7.074798   0.000000
   17        9.672220   0.000000
   18        9.672220   0.000000
   19        9.721080   0.000000
   20        9.721080   0.000000
   21        9.754083   0.000000
   22        9.754088   0.000000
   23       14.860492   0.000000
   24       15.401245   0.000000
 
  0.5000000E+00  0.4605481E-17  0.5551115E-16  0.4629630E-02
    1      -18.030830   1.000000
    2      -18.030781   1.000000
    3       -6.783436   1.000000
    4       -6.783424   1.000000
    5       -5.348165   1.000000
    6       -5.348164   1.000000
    7       -4.700125   1.000000
    8       -4.700124   1.000000
    9        4.020663   0.000000
   10        4.020680   0.000000
   11        6.775166   0.000000
   12        6.775166   0.000000
   13        6.815908   0.000000
   14        6.815908   0.000000
   15        7.184810   0.000000
   16        7.184848   0.000000
   17        9.862392   0.000000
   18        9.862396   0.000000
   19       11.248549   0.000000
   20       11.265161   0.000000
   21       11.313741   0.000000
   22       11.405359   0.000000
   23       12.908962   0.000000
   24       12.961905   0.000000
 
 -0.3333333E+00 -0.3070321E-17 -0.1387779E-16  0.4629630E-02
    1      -18.087436   1.000000
    2      -18.087390   1.000000
    3       -6.524036   1.000000
    4       -6.524021   1.000000
    5       -5.223540   1.000000
    6       -5.223537   1.000000
    7       -4.650924   1.000000
    8       -4.650924   1.000000
    9        3.966289   0.000000
   10        3.966298   0.000000
   11        6.551487   0.000000
   12        6.551498   0.000000
   13        7.030991   0.000000
   14        7.030991   0.000000
   15        7.074798   0.000000
   16        7.074798   0.000000
   17        9.672220   0.000000
   18        9.672220   0.000000
   19        9.721080   0.000000
   20        9.721080   0.000000
   21        9.754083   0.000000
   22        9.754087   0.000000
   23       14.803808   0.000000
   24       15.018226   0.000000
 
 -0.1666667E+00 -0.1535160E-17 -0.6938894E-17  0.4629630E-02
    1      -18.191324   1.000000
    2      -18.191278   1.000000
    3       -6.062703   1.000000
    4       -6.062687   1.000000
    5       -4.818970   1.000000
    6       -4.818954   1.000000
    7       -4.547565   1.000000
    8       -4.547564   1.000000
    9        3.143009   0.000000
   10        3.143009   0.000000
   11        6.469106   0.000000
   12        6.469121   0.000000
   13        7.314724   0.000000
   14        7.314724   0.000000
   15        7.354459   0.000000
   16        7.354459   0.000000
   17        8.844008   0.000000
   18        8.844013   0.000000
   19        8.870441   0.000000
   20        8.870446   0.000000
   21       10.533585   0.000000
   22       10.534374   0.000000
   23       11.694431   0.000000
   24       13.011505   0.000000
 
 -0.1925930E-33  0.1666667E+00  0.0000000E+00  0.4629630E-02
    1      -18.191325   1.000000
    2      -18.191278   1.000000
    3       -6.062703   1.000000
    4       -6.062687   1.000000
    5       -4.818969   1.000000
    6       -4.818955   1.000000
    7       -4.547571   1.000000
    8       -4.547558   1.000000
    9        3.143009   0.000000
   10        3.143009   0.000000
   11        6.469106   0.000000
   12        6.469121   0.000000
   13        7.314721   0.000000
   14        7.314727   0.000000
   15        7.354457   0.000000
   16        7.354462   0.000000
   17        8.844007   0.000000
   18        8.844009   0.000000
   19        8.870444   0.000000
   20        8.870448   0.000000
   21       10.533584   0.000000
   22       10.533589   0.000000
   23       11.694433   0.000000
   24       11.694763   0.000000
 
  0.1666667E+00  0.1666667E+00  0.2775558E-16  0.4629630E-02
    1      -18.173995   1.000000
    2      -18.173948   1.000000
    3       -6.099230   1.000000
    4       -6.099216   1.000000
    5       -4.856159   1.000000
    6       -4.856142   1.000000
    7       -4.652015   1.000000
    8       -4.652004   1.000000
    9        3.372171   0.000000
   10        3.372174   0.000000
   11        6.057987   0.000000
   12        6.058007   0.000000
   13        7.563353   0.000000
   14        7.563361   0.000000
   15        7.661159   0.000000
   16        7.661162   0.000000
   17        7.704700   0.000000
   18        7.704705   0.000000
   19        9.696714   0.000000
   20        9.696723   0.000000
   21       11.625166   0.000000
   22       12.175847   0.000000
   23       12.594158   0.000000
   24       12.650003   0.000000
 
  0.3333333E+00  0.1666667E+00  0.5551115E-16  0.4629630E-02
    1      -18.087324   1.000000
    2      -18.087276   1.000000
    3       -6.415924   1.000000
    4       -6.415908   1.000000
    5       -5.224244   1.000000
    6       -5.224236   1.000000
    7       -4.784385   1.000000
    8       -4.784380   1.000000
    9        4.247194   0.000000
   10        4.247197   0.000000
   11        5.727236   0.000000
   12        5.727248   0.000000
   13        6.548087   0.000000
   14        6.548098   0.000000
   15        7.820285   0.000000
   16        7.820299   0.000000
   17        8.908913   0.000000
   18        8.908917   0.000000
   19       10.323491   0.000000
   20       10.323500   0.000000
   21       11.449616   0.000000
   22       11.449621   0.000000
   23       13.989041   0.000000
   24       14.263940   0.000000
 
  0.5000000E+00  0.1666667E+00  0.2775558E-16  0.4629630E-02
    1      -18.014130   1.000000
    2      -18.014079   1.000000
    3       -6.702473   1.000000
    4       -6.702459   1.000000
    5       -5.450410   1.000000
    6       -5.450401   1.000000
    7       -4.882269   1.000000
    8       -4.882259   1.000000
    9        4.564385   0.000000
   10        4.564398   0.000000
   11        5.759119   0.000000
   12        5.759123   0.000000
   13        6.970249   0.000000
   14        6.970252   0.000000
   15        7.398481   0.000000
   16        7.398494   0.000000
   17       10.204281   0.000000
   18       10.204301   0.000000
   19       11.323956   0.000000
   20       11.349603   0.000000
   21       11.506385   0.000000
   22       11.568120   0.000000
   23       12.470271   0.000000
   24       12.680253   0.000000
 
 -0.3333333E+00  0.1666667E+00 -0.2081668E-16  0.4629630E-02
    1      -18.032710   1.000000
    2      -18.032661   1.000000
    3       -6.628284   1.000000
    4       -6.628269   1.000000
    5       -5.428093   1.000000
    6       -5.428079   1.000000
    7       -4.837425   1.000000
    8       -4.837408   1.000000
    9        4.676867   0.000000
   10        4.676878   0.000000
   11        5.942106   0.000000
   12        5.942111   0.000000
   13        6.654424   0.000000
   14        6.654425   0.000000
   15        7.323447   0.000000
   16        7.323461   0.000000
   17        9.363865   0.000000
   18        9.363877   0.000000
   19       11.192702   0.000000
   20       11.192798   0.000000
   21       11.722861   0.000000
   22       11.723798   0.000000
   23       12.177677   0.000000
   24       12.189176   0.000000
 
 -0.1666667E+00  0.1666667E+00  0.6132823E-18  0.4629630E-02
    1      -18.121891   1.000000
    2      -18.121843   1.000000
    3       -6.302185   1.000000
    4       -6.302169   1.000000
    5       -5.126373   1.000000
    6       -5.126355   1.000000
    7       -4.681051   1.000000
    8       -4.681034   1.000000
    9        4.015869   0.000000
   10        4.015872   0.000000
   11        6.052201   0.000000
   12        6.052216   0.000000
   13        6.821146   0.000000
   14        6.821152   0.000000
   15        7.821461   0.000000
   16        7.821473   0.000000
   17        7.869607   0.000000
   18        7.869625   0.000000
   19       10.050860   0.000000
   20       10.050866   0.000000
   21       11.789859   0.000000
   22       11.789861   0.000000
   23       12.064523   0.000000
   24       12.064527   0.000000
 
 -0.3851860E-33  0.3333333E+00  0.0000000E+00  0.4629630E-02
    1      -18.087436   1.000000
    2      -18.087390   1.000000
    3       -6.524036   1.000000
    4       -6.524022   1.000000
    5       -5.223543   1.000000
    6       -5.223534   1.000000
    7       -4.650930   1.000000
    8       -4.650918   1.000000
    9        3.966289   0.000000
   10        3.966298   0.000000
   11        6.551486   0.000000
   12        6.551499   0.000000
   13        7.030988   0.000000
   14        7.030993   0.000000
   15        7.074796   0.000000
   16        7.074801   0.000000
   17        9.672218   0.000000
   18        9.672222   0.000000
   19        9.721078   0.000000
   20        9.721082   0.000000
   21        9.754083   0.000000
   22        9.754088   0.000000
   23       14.767599   0.000000
   24       15.026546   0.000000
 
  0.1666667E+00  0.3333333E+00  0.2775558E-16  0.4629630E-02
    1      -18.087324   1.000000
    2      -18.087276   1.000000
    3       -6.415923   1.000000
    4       -6.415909   1.000000
    5       -5.224244   1.000000
    6       -5.224235   1.000000
    7       -4.784389   1.000000
    8       -4.784377   1.000000
    9        4.247194   0.000000
   10        4.247197   0.000000
   11        5.727236   0.000000
   12        5.727248   0.000000
   13        6.548087   0.000000
   14        6.548097   0.000000
   15        7.820285   0.000000
   16        7.820298   0.000000
   17        8.908911   0.000000
   18        8.908916   0.000000
   19       10.323491   0.000000
   20       10.323500   0.000000
   21       11.449617   0.000000
   22       11.449620   0.000000
   23       13.949221   0.000000
   24       14.432069   0.000000
 
  0.3333333E+00  0.3333333E+00  0.2775558E-16  0.4629630E-02
    1      -18.035940   1.000000
    2      -18.035893   1.000000
    3       -6.541676   1.000000
    4       -6.541662   1.000000
    5       -5.376853   1.000000
    6       -5.376846   1.000000
    7       -4.949554   1.000000
    8       -4.949545   1.000000
    9        4.098633   0.000000
   10        4.098637   0.000000
   11        4.959418   0.000000
   12        4.959438   0.000000
   13        7.182868   0.000000
   14        7.182872   0.000000
   15        9.121471   0.000000
   16        9.121474   0.000000
   17        9.253272   0.000000
   18        9.253295   0.000000
   19       10.591633   0.000000
   20       10.591643   0.000000
   21       13.979866   0.000000
   22       14.096086   0.000000
   23       14.240913   0.000000
   24       14.371862   0.000000
 
  0.5000000E+00  0.3333333E+00  0.1110223E-15  0.4629630E-02
    1      -17.980182   1.000000
    2      -17.980132   1.000000
    3       -6.684434   1.000000
    4       -6.684421   1.000000
    5       -5.554305   1.000000
    6       -5.554293   1.000000
    7       -5.091704   1.000000
    8       -5.091691   1.000000
    9        4.167935   0.000000
   10        4.167935   0.000000
   11        5.080123   0.000000
   12        5.080138   0.000000
   13        7.386774   0.000000
   14        7.386779   0.000000
   15        9.026931   0.000000
   16        9.026965   0.000000
   17       10.303806   0.000000
   18       10.303815   0.000000
   19       11.570876   0.000000
   20       11.573259   0.000000
   21       12.538378   0.000000
   22       12.700125   0.000000
   23       13.067121   0.000000
   24       13.943484   0.000000
 
 -0.3333333E+00  0.3333333E+00 -0.3713229E-16  0.4629630E-02
    1      -17.980702   1.000000
    2      -17.980654   1.000000
    3       -6.656887   1.000000
    4       -6.656873   1.000000
    5       -5.652277   1.000000
    6       -5.652260   1.000000
    7       -5.070732   1.000000
    8       -5.070708   1.000000
    9        4.732539   0.000000
   10        4.732545   0.000000
   11        5.737929   0.000000
   12        5.737935   0.000000
   13        6.839190   0.000000
   14        6.839190   0.000000
   15        8.239044   0.000000
   16        8.239051   0.000000
   17        9.694481   0.000000
   18        9.694490   0.000000
   19        9.949791   0.000000
   20        9.949803   0.000000
   21       13.811429   0.000000
   22       14.041526   0.000000
   23       14.661894   0.000000
   24       14.908207   0.000000
 
 -0.1666667E+00  0.3333333E+00  0.2081668E-16  0.4629630E-02
    1      -18.032710   1.000000
    2      -18.032661   1.000000
    3       -6.628283   1.000000
    4       -6.628269   1.000000
    5       -5.428093   1.000000
    6       -5.428078   1.000000
    7       -4.837426   1.000000
    8       -4.837407   1.000000
    9        4.676867   0.000000
   10        4.676878   0.000000
   11        5.942105   0.000000
   12        5.942111   0.000000
   13        6.654424   0.000000
   14        6.654425   0.000000
   15        7.323447   0.000000
   16        7.323461   0.000000
   17        9.363866   0.000000
   18        9.363877   0.000000
   19       11.192711   0.000000
   20       11.193092   0.000000
   21       11.722861   0.000000
   22       11.723714   0.000000
   23       12.177678   0.000000
   24       12.403773   0.000000
 
  0.7703720E-33  0.5000000E+00  0.0000000E+00  0.4629630E-02
    1      -18.030830   1.000000
    2      -18.030781   1.000000
    3       -6.783436   1.000000
    4       -6.783424   1.000000
    5       -5.348170   1.000000
    6       -5.348160   1.000000
    7       -4.700130   1.000000
    8       -4.700118   1.000000
    9        4.020663   0.000000
   10        4.020680   0.000000
   11        6.775163   0.000000
   12        6.775168   0.000000
   13        6.815906   0.000000
   14        6.815911   0.000000
   15        7.184810   0.000000
   16        7.184848   0.000000
   17        9.862392   0.000000
   18        9.862419   0.000000
   19       11.252267   0.000000
   20       11.278794   0.000000
   21       11.343908   0.000000
   22       12.043915   0.000000
   23       12.915949   0.000000
   24       12.992380   0.000000
 
  0.1666667E+00  0.5000000E+00  0.8326673E-16  0.4629630E-02
    1      -18.014130   1.000000
    2      -18.014079   1.000000
    3       -6.702473   1.000000
    4       -6.702459   1.000000
    5       -5.450411   1.000000
    6       -5.450399   1.000000
    7       -4.882271   1.000000
    8       -4.882257   1.000000
    9        4.564385   0.000000
   10        4.564398   0.000000
   11        5.759119   0.000000
   12        5.759123   0.000000
   13        6.970249   0.000000
   14        6.970252   0.000000
   15        7.398481   0.000000
   16        7.398494   0.000000
   17       10.204283   0.000000
   18       10.204349   0.000000
   19       11.330324   0.000000
   20       11.378231   0.000000
   21       11.482778   0.000000
   22       11.680968   0.000000
   23       12.522113   0.000000
   24       12.601327   0.000000
 
  0.3333333E+00  0.5000000E+00  0.1110223E-15  0.4629630E-02
    1      -17.980182   1.000000
    2      -17.980132   1.000000
    3       -6.684434   1.000000
    4       -6.684421   1.000000
    5       -5.554305   1.000000
    6       -5.554292   1.000000
    7       -5.091705   1.000000
    8       -5.091690   1.000000
    9        4.167935   0.000000
   10        4.167935   0.000000
   11        5.080123   0.000000
   12        5.080139   0.000000
   13        7.386773   0.000000
   14        7.386778   0.000000
   15        9.026925   0.000000
   16        9.026930   0.000000
   17       10.303809   0.000000
   18       10.303817   0.000000
   19       11.570472   0.000000
   20       11.574139   0.000000
   21       12.561113   0.000000
   22       12.648401   0.000000
   23       13.112492   0.000000
   24       13.772137   0.000000
 
  0.5000000E+00  0.5000000E+00  0.5551115E-16  0.4629630E-02
    1      -17.961992   1.000000
    2      -17.961941   1.000000
    3       -6.760230   1.000000
    4       -6.760218   1.000000
    5       -5.574545   1.000000
    6       -5.574539   1.000000
    7       -5.088190   1.000000
    8       -5.088182   1.000000
    9        3.694274   0.000000
   10        3.694275   0.000000
   11        4.570228   0.000000
   12        4.570250   0.000000
   13        8.563797   0.000000
   14        8.563810   0.000000
   15       10.940188   0.000000
   16       10.959764   0.000000
   17       11.185529   0.000000
   18       11.208492   0.000000
   19       11.329137   0.000000
   20       11.443264   0.000000
   21       11.936561   0.000000
   22       11.978476   0.000000
   23       12.258699   0.000000
   24       13.222223   0.000000
 
 -0.3333333E+00  0.5000000E+00  0.2775558E-16  0.4629630E-02
    1      -17.980182   1.000000
    2      -17.980132   1.000000
    3       -6.684434   1.000000
    4       -6.684421   1.000000
    5       -5.554305   1.000000
    6       -5.554292   1.000000
    7       -5.091705   1.000000
    8       -5.091690   1.000000
    9        4.167935   0.000000
   10        4.167935   0.000000
   11        5.080123   0.000000
   12        5.080139   0.000000
   13        7.386775   0.000000
   14        7.386779   0.000000
   15        9.026929   0.000000
   16        9.027016   0.000000
   17       10.303807   0.000000
   18       10.303840   0.000000
   19       11.572269   0.000000
   20       11.605541   0.000000
   21       12.609953   0.000000
   22       12.740068   0.000000
   23       13.135344   0.000000
   24       13.942662   0.000000
 
 -0.1666667E+00  0.5000000E+00 -0.2775558E-16  0.4629630E-02
    1      -18.014130   1.000000
    2      -18.014079   1.000000
    3       -6.702472   1.000000
    4       -6.702459   1.000000
    5       -5.450411   1.000000
    6       -5.450399   1.000000
    7       -4.882271   1.000000
    8       -4.882257   1.000000
    9        4.564385   0.000000
   10        4.564398   0.000000
   11        5.759119   0.000000
   12        5.759123   0.000000
   13        6.970249   0.000000
   14        6.970252   0.000000
   15        7.398481   0.000000
   16        7.398494   0.000000
   17       10.204278   0.000000
   18       10.204293   0.000000
   19       11.323983   0.000000
   20       11.338611   0.000000
   21       11.476919   0.000000
   22       11.521857   0.000000
   23       12.475414   0.000000
   24       12.650531   0.000000
 
  0.3851860E-33 -0.3333333E+00  0.0000000E+00  0.4629630E-02
    1      -18.087436   1.000000
    2      -18.087390   1.000000
    3       -6.524036   1.000000
    4       -6.524022   1.000000
    5       -5.223543   1.000000
    6       -5.223534   1.000000
    7       -4.650930   1.000000
    8       -4.650918   1.000000
    9        3.966289   0.000000
   10        3.966298   0.000000
   11        6.551486   0.000000
   12        6.551501   0.000000
   13        7.030988   0.000000
   14        7.030993   0.000000
   15        7.074796   0.000000
   16        7.074801   0.000000
   17        9.672218   0.000000
   18        9.672222   0.000000
   19        9.721079   0.000000
   20        9.721082   0.000000
   21        9.754083   0.000000
   22        9.754088   0.000000
   23       14.807371   0.000000
   24       15.525294   0.000000
 
  0.1666667E+00 -0.3333333E+00  0.3469447E-16  0.4629630E-02
    1      -18.032710   1.000000
    2      -18.032661   1.000000
    3       -6.628283   1.000000
    4       -6.628269   1.000000
    5       -5.428093   1.000000
    6       -5.428078   1.000000
    7       -4.837426   1.000000
    8       -4.837407   1.000000
    9        4.676867   0.000000
   10        4.676878   0.000000
   11        5.942105   0.000000
   12        5.942111   0.000000
   13        6.654424   0.000000
   14        6.654425   0.000000
   15        7.323447   0.000000
   16        7.323461   0.000000
   17        9.363869   0.000000
   18        9.363895   0.000000
   19       11.192702   0.000000
   20       11.193026   0.000000
   21       11.722861   0.000000
   22       11.727727   0.000000
   23       12.177678   0.000000
   24       12.451091   0.000000
 
  0.3333333E+00 -0.3333333E+00  0.3377038E-16  0.4629630E-02
    1      -17.980702   1.000000
    2      -17.980654   1.000000
    3       -6.656887   1.000000
    4       -6.656873   1.000000
    5       -5.652277   1.000000
    6       -5.652260   1.000000
    7       -5.070732   1.000000
    8       -5.070708   1.000000
    9        4.732539   0.000000
   10        4.732545   0.000000
   11        5.737929   0.000000
   12        5.737935   0.000000
   13        6.839190   0.000000
   14        6.839191   0.000000
   15        8.239044   0.000000
   16        8.239051   0.000000
   17        9.694481   0.000000
   18        9.694490   0.000000
   19        9.949791   0.000000
   20        9.949803   0.000000
   21       13.795335   0.000000
   22       14.129831   0.000000
   23       14.757387   0.000000
   24       14.956529   0.000000
 
  0.5000000E+00 -0.3333333E+00  0.6938894E-17  0.4629630E-02
    1      -17.980182   1.000000
    2      -17.980132   1.000000
    3       -6.684434   1.000000
    4       -6.684421   1.000000
    5       -5.554305   1.000000
    6       -5.554293   1.000000
    7       -5.091704   1.000000
    8       -5.091691   1.000000
    9        4.167935   0.000000
   10        4.167935   0.000000
   11        5.080123   0.000000
   12        5.080138   0.000000
   13        7.386774   0.000000
   14        7.386777   0.000000
   15        9.026930   0.000000
   16        9.026934   0.000000
   17       10.303806   0.000000
   18       10.303809   0.000000
   19       11.570286   0.000000
   20       11.579452   0.000000
   21       12.537355   0.000000
   22       12.666904   0.000000
   23       13.041953   0.000000
   24       14.036737   0.000000
 
 -0.3333333E+00 -0.3333333E+00 -0.5551115E-16  0.4629630E-02
    1      -18.035940   1.000000
    2      -18.035893   1.000000
    3       -6.541676   1.000000
    4       -6.541662   1.000000
    5       -5.376853   1.000000
    6       -5.376847   1.000000
    7       -4.949554   1.000000
    8       -4.949545   1.000000
    9        4.098633   0.000000
   10        4.098637   0.000000
   11        4.959418   0.000000
   12        4.959438   0.000000
   13        7.182868   0.000000
   14        7.182871   0.000000
   15        9.121464   0.000000
   16        9.121483   0.000000
   17        9.253270   0.000000
   18        9.253271   0.000000
   19       10.591634   0.000000
   20       10.591642   0.000000
   21       13.970570   0.000000
   22       14.089805   0.000000
   23       14.260643   0.000000
   24       15.134283   0.000000
 
 -0.1666667E+00 -0.3333333E+00 -0.5551115E-16  0.4629630E-02
    1      -18.087324   1.000000
    2      -18.087276   1.000000
    3       -6.415923   1.000000
    4       -6.415909   1.000000
    5       -5.224244   1.000000
    6       -5.224235   1.000000
    7       -4.784389   1.000000
    8       -4.784377   1.000000
    9        4.247194   0.000000
   10        4.247197   0.000000
   11        5.727236   0.000000
   12        5.727248   0.000000
   13        6.548087   0.000000
   14        6.548097   0.000000
   15        7.820286   0.000000
   16        7.820298   0.000000
   17        8.908910   0.000000
   18        8.908916   0.000000
   19       10.323491   0.000000
   20       10.323500   0.000000
   21       11.449616   0.000000
   22       11.449620   0.000000
   23       14.034883   0.000000
   24       14.386462   0.000000
 
  0.1925930E-33 -0.1666667E+00  0.0000000E+00  0.4629630E-02
    1      -18.191325   1.000000
    2      -18.191278   1.000000
    3       -6.062703   1.000000
    4       -6.062687   1.000000
    5       -4.818969   1.000000
    6       -4.818955   1.000000
    7       -4.547571   1.000000
    8       -4.547558   1.000000
    9        3.143009   0.000000
   10        3.143009   0.000000
   11        6.469106   0.000000
   12        6.469121   0.000000
   13        7.314721   0.000000
   14        7.314727   0.000000
   15        7.354456   0.000000
   16        7.354462   0.000000
   17        8.844006   0.000000
   18        8.844010   0.000000
   19        8.870445   0.000000
   20        8.870447   0.000000
   21       10.533584   0.000000
   22       10.533585   0.000000
   23       11.694431   0.000000
   24       11.694432   0.000000
 
  0.1666667E+00 -0.1666667E+00 -0.6132823E-18  0.4629630E-02
    1      -18.121891   1.000000
    2      -18.121843   1.000000
    3       -6.302185   1.000000
    4       -6.302169   1.000000
    5       -5.126373   1.000000
    6       -5.126355   1.000000
    7       -4.681051   1.000000
    8       -4.681034   1.000000
    9        4.015869   0.000000
   10        4.015872   0.000000
   11        6.052201   0.000000
   12        6.052216   0.000000
   13        6.821146   0.000000
   14        6.821152   0.000000
   15        7.821461   0.000000
   16        7.821474   0.000000
   17        7.869607   0.000000
   18        7.869625   0.000000
   19       10.050864   0.000000
   20       10.051151   0.000000
   21       11.789865   0.000000
   22       11.825447   0.000000
   23       12.064529   0.000000
   24       13.156065   0.000000
 
  0.3333333E+00 -0.1666667E+00  0.2775558E-16  0.4629630E-02
    1      -18.032710   1.000000
    2      -18.032661   1.000000
    3       -6.628284   1.000000
    4       -6.628269   1.000000
    5       -5.428093   1.000000
    6       -5.428079   1.000000
    7       -4.837425   1.000000
    8       -4.837408   1.000000
    9        4.676867   0.000000
   10        4.676878   0.000000
   11        5.942106   0.000000
   12        5.942111   0.000000
   13        6.654424   0.000000
   14        6.654425   0.000000
   15        7.323447   0.000000
   16        7.323461   0.000000
   17        9.363865   0.000000
   18        9.363876   0.000000
   19       11.192724   0.000000
   20       11.192724   0.000000
   21       11.722952   0.000000
   22       11.723078   0.000000
   23       12.177674   0.000000
   24       12.200408   0.000000
 
  0.5000000E+00 -0.1666667E+00  0.2775558E-16  0.4629630E-02
    1      -18.014130   1.000000
    2      -18.014079   1.000000
    3       -6.702473   1.000000
    4       -6.702459   1.000000
    5       -5.450410   1.000000
    6       -5.450401   1.000000
    7       -4.882269   1.000000
    8       -4.882259   1.000000
    9        4.564385   0.000000
   10        4.564399   0.000000
   11        5.759119   0.000000
   12        5.759123   0.000000
   13        6.970249   0.000000
   14        6.970252   0.000000
   15        7.398481   0.000000
   16        7.398494   0.000000
   17       10.204299   0.000000
   18       10.204345   0.000000
   19       11.332791   0.000000
   20       11.397124   0.000000
   21       11.489408   0.000000
   22       11.554924   0.000000
   23       12.470531   0.000000
   24       12.593803   0.000000
 
 -0.3333333E+00 -0.1666667E+00 -0.5551115E-16  0.4629630E-02
    1      -18.087324   1.000000
    2      -18.087276   1.000000
    3       -6.415924   1.000000
    4       -6.415908   1.000000
    5       -5.224244   1.000000
    6       -5.224236   1.000000
    7       -4.784385   1.000000
    8       -4.784380   1.000000
    9        4.247194   0.000000
   10        4.247197   0.000000
   11        5.727236   0.000000
   12        5.727248   0.000000
   13        6.548086   0.000000
   14        6.548098   0.000000
   15        7.820285   0.000000
   16        7.820299   0.000000
   17        8.908916   0.000000
   18        8.908919   0.000000
   19       10.323492   0.000000
   20       10.323500   0.000000