       N       E                     dE             d eps       ncg     rms          ort
DAV:   1     0.541057366323E+02    0.54106E+02   -0.24375E+03  5184   0.382E+02
DAV:   2     0.177083765909E+02   -0.36397E+02   -0.31041E+02  5184   0.851E+01
DAV:   3     0.138117030794E+02   -0.38967E+01   -0.37266E+01  5184   0.335E+01
DAV:   4     0.134681142314E+02   -0.34359E+00   -0.33616E+00  5184   0.976E+00
DAV:   5     0.134470183514E+02   -0.21096E-01   -0.20858E-01  5184   0.255E+00
SDA:   6     0.379612600669E+00   -0.13067E+02   -0.86054E+00  5184   0.143E+01 0.000E+00
DMP:   7    -0.608264690435E-01   -0.44044E+00   -0.13545E+00  5184   0.214E+00 0.412E-01
DMP:   8    -0.142132279357E+00   -0.81306E-01   -0.85222E-01  5184   0.128E+00 0.476E-01
DMP:   9    -0.189448946840E+00   -0.47317E-01   -0.16258E-01  5184   0.225E-01 0.158E-01
DMP:  10    -0.199604588807E+00   -0.10156E-01   -0.67424E-02  5184   0.923E-02 0.687E-02
DMP:  11    -0.203592457701E+00   -0.39879E-02   -0.12784E-02  5184   0.153E-02 0.207E-02
DMP:  12    -0.204285753108E+00   -0.69330E-03   -0.43480E-03  5184   0.675E-03 0.169E-03
DMP:  13    -0.204534284751E+00   -0.24853E-03   -0.95228E-04  5184   0.128E-03 0.104E-03
DMP:  14    -0.204578222358E+00   -0.43938E-04   -0.28372E-04  5184   0.505E-04-0.108E-04
DMP:  15    -0.204595558058E+00   -0.17336E-04   -0.99245E-05  5184   0.138E-04 0.923E-05
DMP:  16    -0.204601272634E+00   -0.57146E-05   -0.30093E-05  5184   0.450E-05 0.177E-05
DMP:  17    -0.204603096226E+00   -0.18236E-05   -0.11946E-05  5184   0.161E-05 0.129E-05
DMP:  18    -0.204603717575E+00   -0.62135E-06   -0.33437E-06  5184   0.419E-06 0.472E-06
DMP:  19    -0.204603895261E+00   -0.17769E-06   -0.11416E-06  5184   0.140E-06 0.170E-06
DMP:  20    -0.204603966731E+00   -0.71470E-07   -0.31418E-07  5184   0.355E-07 0.576E-07
   1 F= -.20460397E+00 E0= -.20460397E+00  d E =-.822655E-20  mag=    -0.0000    -0.0000    -0.0000
