<?xml version="1.0" encoding="ISO-8859-1"?>
<modeling>
 <generator>
  <i name="program" type="string">vasp </i>
  <i name="version" type="string">5.4.4.18Apr17-6-g9f103f2a35  </i>
  <i name="subversion" type="string">(build Jul 09 2018 16:43:14) complex            parallel </i>
  <i name="platform" type="string">LinuxIFC </i>
  <i name="date" type="string">2018 11 22 </i>
  <i name="time" type="string">03:32:27 </i>
 </generator>
 <incar>
  <i type="string" name="SYSTEM">   Og_FCC</i>
  <i type="string" name="PREC">accurate</i>
  <i type="string" name="ALGO"> DAMPED</i>
  <i type="logical" name="ADDGRID"> T  </i>
  <i type="logical" name="LSORBIT"> T  </i>
  <i type="int" name="ISPIN">     1</i>
  <i type="int" name="MAXMIX">    50</i>
  <i type="int" name="NELM">    50</i>
  <i type="int" name="NELMDL">    -5</i>
  <i type="int" name="NELMIN">     2</i>
  <i type="int" name="IBRION">    -1</i>
  <i type="int" name="NFREE">     5</i>
  <i name="EDIFF">      0.00000010</i>
  <i name="EDIFFG">      0.00001000</i>
  <i type="int" name="NSW">     1</i>
  <i type="int" name="ISIF">     3</i>
  <i type="int" name="ISYM">     0</i>
  <i name="SYMPREC">      0.00000010</i>
  <i name="ENCUT">    300.00000000</i>
  <i name="POTIM">      0.10000000</i>
  <i type="logical" name="LREAL"> F  </i>
  <i name="TIME">      0.60000000</i>
  <i type="int" name="ISMEAR">     0</i>
  <i name="SIGMA">      0.05000000</i>
  <i type="int" name="NWRITE">     2</i>
  <i type="logical" name="LWAVE"> T  </i>
  <i type="logical" name="LCHARG"> F  </i>
  <i type="logical" name="LVTOT"> F  </i>
  <i type="logical" name="GGA_COMPAT"> F  </i>
  <v type="int" name="KPOINT_BSE">    -1     0     0     0</v>
  <i type="int" name="NELM">    50</i>
  <i type="logical" name="LHFCALC"> T  </i>
  <i type="string" name="GGA"> PE</i>
  <i type="int" name="NKRED">     2</i>
  <i name="HFSCREEN">      0.20000000</i>
  <i type="string" name="PRECFOCK">normal</i>
 </incar>
 <structure name="primitive_cell" >
  <crystal>
   <varray name="basis" >
    <v>       4.43220013       0.00000000       0.00000000 </v>
    <v>       2.21610006       3.83839790      -0.00000000 </v>
    <v>       2.21610006       1.27946597       3.61887625 </v>
   </varray>
   <i name="volume">     61.56630471 </i>
   <varray name="rec_basis" >
    <v>       0.22562158      -0.13026268      -0.09210962 </v>
    <v>       0.00000000       0.26052536      -0.09210962 </v>
    <v>      -0.00000000       0.00000000       0.27632887 </v>
   </varray>
  </crystal>
  <varray name="positions" >
   <v>       0.00000000       0.00000000       0.00000000 </v>
  </varray>
 </structure>
 <varray name="primitive_index" >
  <v type="int" >        1 </v>
 </varray>
 <kpoints>
  <generation param="Gamma">
   <v type="int" name="divisions">       6        6        6 </v>
   <v name="usershift">      0.00000000       0.00000000       0.00000000 </v>
   <v name="genvec1">      0.16666667       0.00000000       0.00000000 </v>
   <v name="genvec2">     -0.00000000       0.16666667       0.00000000 </v>
   <v name="genvec3">      0.00000000       0.00000000       0.16666667 </v>
   <v name="shift">      0.00000000       0.00000000       0.00000000 </v>
  </generation>
  <varray name="kpointlist" >
   <v>       0.00000000       0.00000000       0.00000000 </v>
   <v>       0.16666667       0.00000000       0.00000000 </v>
   <v>       0.33333333      -0.00000000       0.00000000 </v>
   <v>       0.50000000       0.00000000       0.00000000 </v>
   <v>      -0.33333333      -0.00000000      -0.00000000 </v>
   <v>      -0.16666667      -0.00000000      -0.00000000 </v>
   <v>      -0.00000000       0.16666667       0.00000000 </v>
   <v>       0.16666667       0.16666667       0.00000000 </v>
   <v>       0.33333333       0.16666667       0.00000000 </v>
   <v>       0.50000000       0.16666667       0.00000000 </v>
   <v>      -0.33333333       0.16666667      -0.00000000 </v>
   <v>      -0.16666667       0.16666667       0.00000000 </v>
   <v>      -0.00000000       0.33333333       0.00000000 </v>
   <v>       0.16666667       0.33333333       0.00000000 </v>
   <v>       0.33333333       0.33333333       0.00000000 </v>
   <v>       0.50000000       0.33333333       0.00000000 </v>
   <v>      -0.33333333       0.33333333      -0.00000000 </v>
   <v>      -0.16666667       0.33333333       0.00000000 </v>
   <v>       0.00000000       0.50000000       0.00000000 </v>
   <v>       0.16666667       0.50000000       0.00000000 </v>
   <v>       0.33333333       0.50000000       0.00000000 </v>
   <v>       0.50000000       0.50000000       0.00000000 </v>
   <v>      -0.33333333       0.50000000       0.00000000 </v>
   <v>      -0.16666667       0.50000000      -0.00000000 </v>
   <v>       0.00000000      -0.33333333       0.00000000 </v>
   <v>       0.16666667      -0.33333333       0.00000000 </v>
   <v>       0.33333333      -0.33333333       0.00000000 </v>
   <v>       0.50000000      -0.33333333       0.00000000 </v>
   <v>      -0.33333333      -0.33333333      -0.00000000 </v>
   <v>      -0.16666667      -0.33333333      -0.00000000 </v>
   <v>       0.00000000      -0.16666667       0.00000000 </v>
   <v>       0.16666667      -0.16666667      -0.00000000 </v>
   <v>       0.33333333      -0.16666667       0.00000000 </v>
   <v>       0.50000000      -0.16666667       0.00000000 </v>
   <v>      -0.33333333      -0.16666667      -0.00000000 </v>
   <v>      -0.16666667      -0.16666667      -0.00000000 </v>
   <v>      -0.00000000      -0.00000000       0.16666667 </v>
   <v>       0.16666667       0.00000000       0.16666667 </v>
   <v>       0.33333333      -0.00000000       0.16666667 </v>
   <v>       0.50000000       0.00000000       0.16666667 </v>
   <v>      -0.33333333      -0.00000000       0.16666667 </v>
   <v>      -0.16666667       0.00000000       0.16666667 </v>
   <v>      -0.00000000       0.16666667       0.16666667 </v>
   <v>       0.16666667       0.16666667       0.16666667 </v>
   <v>       0.33333333       0.16666667       0.16666667 </v>
   <v>       0.50000000       0.16666667       0.16666667 </v>
   <v>      -0.33333333       0.16666667       0.16666667 </v>
   <v>      -0.16666667       0.16666667       0.16666667 </v>
   <v>      -0.00000000       0.33333333       0.16666667 </v>
   <v>       0.16666667       0.33333333       0.16666667 </v>
   <v>       0.33333333       0.33333333       0.16666667 </v>
   <v>       0.50000000       0.33333333       0.16666667 </v>
   <v>      -0.33333333       0.33333333       0.16666667 </v>
   <v>      -0.16666667       0.33333333       0.16666667 </v>
   <v>      -0.00000000       0.50000000       0.16666667 </v>
   <v>       0.16666667       0.50000000       0.16666667 </v>
   <v>       0.33333333       0.50000000       0.16666667 </v>
   <v>       0.50000000       0.50000000       0.16666667 </v>
   <v>      -0.33333333       0.50000000       0.16666667 </v>
   <v>      -0.16666667       0.50000000       0.16666667 </v>
   <v>      -0.00000000      -0.33333333       0.16666667 </v>
   <v>       0.16666667      -0.33333333       0.16666667 </v>
   <v>       0.33333333      -0.33333333       0.16666667 </v>
   <v>       0.50000000      -0.33333333       0.16666667 </v>
   <v>      -0.33333333      -0.33333333       0.16666667 </v>
   <v>      -0.16666667      -0.33333333       0.16666667 </v>
   <v>       0.00000000      -0.16666667       0.16666667 </v>
   <v>       0.16666667      -0.16666667       0.16666667 </v>
   <v>       0.33333333      -0.16666667       0.16666667 </v>
   <v>       0.50000000      -0.16666667       0.16666667 </v>
   <v>      -0.33333333      -0.16666667       0.16666667 </v>
   <v>      -0.16666667      -0.16666667       0.16666667 </v>
   <v>      -0.00000000       0.00000000       0.33333333 </v>
   <v>       0.16666667      -0.00000000       0.33333333 </v>
   <v>       0.33333333       0.00000000       0.33333333 </v>
   <v>       0.50000000      -0.00000000       0.33333333 </v>
   <v>      -0.33333333       0.00000000       0.33333333 </v>
   <v>      -0.16666667       0.00000000       0.33333333 </v>
   <v>      -0.00000000       0.16666667       0.33333333 </v>
   <v>       0.16666667       0.16666667       0.33333333 </v>
   <v>       0.33333333       0.16666667       0.33333333 </v>
   <v>       0.50000000       0.16666667       0.33333333 </v>
   <v>      -0.33333333       0.16666667       0.33333333 </v>
   <v>      -0.16666667       0.16666667       0.33333333 </v>
   <v>      -0.00000000       0.33333333       0.33333333 </v>
   <v>       0.16666667       0.33333333       0.33333333 </v>
   <v>       0.33333333       0.33333333       0.33333333 </v>
   <v>       0.50000000       0.33333333       0.33333333 </v>
   <v>      -0.33333333       0.33333333       0.33333333 </v>
   <v>      -0.16666667       0.33333333       0.33333333 </v>
   <v>       0.00000000       0.50000000       0.33333333 </v>
   <v>       0.16666667       0.50000000       0.33333333 </v>
   <v>       0.33333333       0.50000000       0.33333333 </v>
   <v>       0.50000000       0.50000000       0.33333333 </v>
   <v>      -0.33333333       0.50000000       0.33333333 </v>
   <v>      -0.16666667       0.50000000       0.33333333 </v>
   <v>      -0.00000000      -0.33333333       0.33333333 </v>
   <v>       0.16666667      -0.33333333       0.33333333 </v>
   <v>       0.33333333      -0.33333333       0.33333333 </v>
   <v>       0.50000000      -0.33333333       0.33333333 </v>
   <v>      -0.33333333      -0.33333333       0.33333333 </v>
   <v>      -0.16666667      -0.33333333       0.33333333 </v>
   <v>      -0.00000000      -0.16666667       0.33333333 </v>
   <v>       0.16666667      -0.16666667       0.33333333 </v>
   <v>       0.33333333      -0.16666667       0.33333333 </v>
   <v>       0.50000000      -0.16666667       0.33333333 </v>
   <v>      -0.33333333      -0.16666667       0.33333333 </v>
   <v>      -0.16666667      -0.16666667       0.33333333 </v>
   <v>       0.00000000      -0.00000000       0.50000000 </v>
   <v>       0.16666667       0.00000000       0.50000000 </v>
   <v>       0.33333333       0.00000000       0.50000000 </v>
   <v>       0.50000000      -0.00000000       0.50000000 </v>
   <v>      -0.33333333       0.00000000       0.50000000 </v>
   <v>      -0.16666667       0.00000000       0.50000000 </v>
   <v>       0.00000000       0.16666667       0.50000000 </v>
   <v>       0.16666667       0.16666667       0.50000000 </v>
   <v>       0.33333333       0.16666667       0.50000000 </v>
   <v>       0.50000000       0.16666667       0.50000000 </v>
   <v>      -0.33333333       0.16666667       0.50000000 </v>
   <v>      -0.16666667       0.16666667       0.50000000 </v>
   <v>       0.00000000       0.33333333       0.50000000 </v>
   <v>       0.16666667       0.33333333       0.50000000 </v>
   <v>       0.33333333       0.33333333       0.50000000 </v>
   <v>       0.50000000       0.33333333       0.50000000 </v>
   <v>      -0.33333333       0.33333333       0.50000000 </v>
   <v>      -0.16666667       0.33333333       0.50000000 </v>
   <v>       0.00000000       0.50000000       0.50000000 </v>
   <v>       0.16666667       0.50000000       0.50000000 </v>
   <v>       0.33333333       0.50000000       0.50000000 </v>
   <v>       0.50000000       0.50000000       0.50000000 </v>
   <v>      -0.33333333       0.50000000       0.50000000 </v>
   <v>      -0.16666667       0.50000000       0.50000000 </v>
   <v>       0.00000000      -0.33333333       0.50000000 </v>
   <v>       0.16666667      -0.33333333       0.50000000 </v>
   <v>       0.33333333      -0.33333333       0.50000000 </v>
   <v>       0.50000000      -0.33333333       0.50000000 </v>
   <v>      -0.33333333      -0.33333333       0.50000000 </v>
   <v>      -0.16666667      -0.33333333       0.50000000 </v>
   <v>       0.00000000      -0.16666667       0.50000000 </v>
   <v>       0.16666667      -0.16666667       0.50000000 </v>
   <v>       0.33333333      -0.16666667       0.50000000 </v>
   <v>       0.50000000      -0.16666667       0.50000000 </v>
   <v>      -0.33333333      -0.16666667       0.50000000 </v>
   <v>      -0.16666667      -0.16666667       0.50000000 </v>
   <v>       0.00000000       0.00000000      -0.33333333 </v>
   <v>       0.16666667      -0.00000000      -0.33333333 </v>
   <v>       0.33333333      -0.00000000      -0.33333333 </v>
   <v>       0.50000000       0.00000000      -0.33333333 </v>
   <v>      -0.33333333      -0.00000000      -0.33333333 </v>
   <v>      -0.16666667       0.00000000      -0.33333333 </v>
   <v>       0.00000000       0.16666667      -0.33333333 </v>
   <v>       0.16666667       0.16666667      -0.33333333 </v>
   <v>       0.33333333       0.16666667      -0.33333333 </v>
   <v>       0.50000000       0.16666667      -0.33333333 </v>
   <v>      -0.33333333       0.16666667      -0.33333333 </v>
   <v>      -0.16666667       0.16666667      -0.33333333 </v>
   <v>       0.00000000       0.33333333      -0.33333333 </v>
   <v>       0.16666667       0.33333333      -0.33333333 </v>
   <v>       0.33333333       0.33333333      -0.33333333 </v>
   <v>       0.50000000       0.33333333      -0.33333333 </v>
   <v>      -0.33333333       0.33333333      -0.33333333 </v>
   <v>      -0.16666667       0.33333333      -0.33333333 </v>
   <v>       0.00000000       0.50000000      -0.33333333 </v>
   <v>       0.16666667       0.50000000      -0.33333333 </v>
   <v>       0.33333333       0.50000000      -0.33333333 </v>
   <v>       0.50000000       0.50000000      -0.33333333 </v>
   <v>      -0.33333333       0.50000000      -0.33333333 </v>
   <v>      -0.16666667       0.50000000      -0.33333333 </v>
   <v>       0.00000000      -0.33333333      -0.33333333 </v>
   <v>       0.16666667      -0.33333333      -0.33333333 </v>
   <v>       0.33333333      -0.33333333      -0.33333333 </v>
   <v>       0.50000000      -0.33333333      -0.33333333 </v>
   <v>      -0.33333333      -0.33333333      -0.33333333 </v>
   <v>      -0.16666667      -0.33333333      -0.33333333 </v>
   <v>       0.00000000      -0.16666667      -0.33333333 </v>
   <v>       0.16666667      -0.16666667      -0.33333333 </v>
   <v>       0.33333333      -0.16666667      -0.33333333 </v>
   <v>       0.50000000      -0.16666667      -0.33333333 </v>
   <v>      -0.33333333      -0.16666667      -0.33333333 </v>
   <v>      -0.16666667      -0.16666667      -0.33333333 </v>
   <v>       0.00000000       0.00000000      -0.16666667 </v>
   <v>       0.16666667      -0.00000000      -0.16666667 </v>
   <v>       0.33333333       0.00000000      -0.16666667 </v>
   <v>       0.50000000       0.00000000      -0.16666667 </v>
   <v>      -0.33333333       0.00000000      -0.16666667 </v>
   <v>      -0.16666667      -0.00000000      -0.16666667 </v>
   <v>      -0.00000000       0.16666667      -0.16666667 </v>
   <v>       0.16666667       0.16666667      -0.16666667 </v>
   <v>       0.33333333       0.16666667      -0.16666667 </v>
   <v>       0.50000000       0.16666667      -0.16666667 </v>
   <v>      -0.33333333       0.16666667      -0.16666667 </v>
   <v>      -0.16666667       0.16666667      -0.16666667 </v>
   <v>       0.00000000       0.33333333      -0.16666667 </v>
   <v>       0.16666667       0.33333333      -0.16666667 </v>
   <v>       0.33333333       0.33333333      -0.16666667 </v>
   <v>       0.50000000       0.33333333      -0.16666667 </v>
   <v>      -0.33333333       0.33333333      -0.16666667 </v>
   <v>      -0.16666667       0.33333333      -0.16666667 </v>
   <v>       0.00000000       0.50000000      -0.16666667 </v>
   <v>       0.16666667       0.50000000      -0.16666667 </v>
   <v>       0.33333333       0.50000000      -0.16666667 </v>
   <v>       0.50000000       0.50000000      -0.16666667 </v>
   <v>      -0.33333333       0.50000000      -0.16666667 </v>
   <v>      -0.16666667       0.50000000      -0.16666667 </v>
   <v>       0.00000000      -0.33333333      -0.16666667 </v>
   <v>       0.16666667      -0.33333333      -0.16666667 </v>
   <v>       0.33333333      -0.33333333      -0.16666667 </v>
   <v>       0.50000000      -0.33333333      -0.16666667 </v>
   <v>      -0.33333333      -0.33333333      -0.16666667 </v>
   <v>      -0.16666667      -0.33333333      -0.16666667 </v>
   <v>       0.00000000      -0.16666667      -0.16666667 </v>
   <v>       0.16666667      -0.16666667      -0.16666667 </v>
   <v>       0.33333333      -0.16666667      -0.16666667 </v>
   <v>       0.50000000      -0.16666667      -0.16666667 </v>
   <v>      -0.33333333      -0.16666667      -0.16666667 </v>
   <v>      -0.16666667      -0.16666667      -0.16666667 </v>
  </varray>
  <varray name="weights" >
   <v>       0.00462963 </v>
   <v>       0.00462963 </v>
   <v>       0.00462963 </v>
   <v>       0.00462963 </v>
   <v>       0.00462963 </v>
   <v>       0.00462963 </v>
   <v>       0.00462963 </v>
   <v>       0.00462963 </v>
   <v>       0.00462963 </v>
   <v>       0.00462963 </v>
   <v>       0.00462963 </v>
   <v>       0.00462963 </v>
   <v>       0.00462963 </v>
   <v>       0.00462963 </v>
   <v>       0.00462963 </v>
   <v>       0.00462963 </v>
   <v>       0.00462963 </v>
   <v>       0.00462963 </v>
   <v>       0.00462963 </v>
   <v>       0.00462963 </v>
   <v>       0.00462963 </v>
   <v>       0.00462963 </v>
   <v>       0.00462963 </v>
   <v>       0.00462963 </v>
   <v>       0.00462963 </v>
   <v>       0.00462963 </v>
   <v>       0.00462963 </v>
   <v>       0.00462963 </v>
   <v>       0.00462963 </v>
   <v>       0.00462963 </v>
   <v>       0.00462963 </v>
   <v>       0.00462963 </v>
   <v>       0.00462963 </v>
   <v>       0.00462963 </v>
   <v>       0.00462963 </v>
   <v>       0.00462963 </v>
   <v>       0.00462963 </v>
   <v>       0.00462963 </v>
   <v>       0.00462963 </v>
   <v>       0.00462963 </v>
   <v>       0.00462963 </v>
   <v>       0.00462963 </v>
   <v>       0.00462963 </v>
   <v>       0.00462963 </v>
   <v>       0.00462963 </v>
   <v>       0.00462963 </v>
   <v>       0.00462963 </v>
   <v>       0.00462963 </v>
   <v>       0.00462963 </v>
   <v>       0.00462963 </v>
   <v>       0.00462963 </v>
   <v>       0.00462963 </v>
   <v>       0.00462963 </v>
   <v>       0.00462963 </v>
   <v>       0.00462963 </v>
   <v>       0.00462963 </v>
   <v>       0.00462963 </v>
   <v>       0.00462963 </v>
   <v>       0.00462963 </v>
   <v>       0.00462963 </v>
   <v>       0.00462963 </v>
   <v>       0.00462963 </v>
   <v>       0.00462963 </v>
   <v>       0.00462963 </v>
   <v>       0.00462963 </v>
   <v>       0.00462963 </v>
   <v>       0.00462963 </v>
   <v>       0.00462963 </v>
   <v>       0.00462963 </v>
   <v>       0.00462963 </v>
   <v>       0.00462963 </v>
   <v>       0.00462963 </v>
   <v>       0.00462963 </v>
   <v>       0.00462963 </v>
   <v>       0.00462963 </v>
   <v>       0.00462963 </v>
   <v>       0.00462963 </v>
   <v>       0.00462963 </v>
   <v>       0.00462963 </v>
   <v>       0.00462963 </v>
   <v>       0.00462963 </v>
   <v>       0.00462963 </v>
   <v>       0.00462963 </v>
   <v>       0.00462963 </v>
   <v>       0.00462963 </v>
   <v>       0.00462963 </v>
   <v>       0.00462963 </v>
   <v>       0.00462963 </v>
   <v>       0.00462963 </v>
   <v>       0.00462963 </v>
   <v>       0.00462963 </v>
   <v>       0.00462963 </v>
   <v>       0.00462963 </v>
   <v>       0.00462963 </v>
   <v>       0.00462963 </v>
   <v>       0.00462963 </v>
   <v>       0.00462963 </v>
   <v>       0.00462963 </v>
   <v>       0.00462963 </v>
   <v>       0.00462963 </v>
   <v>       0.00462963 </v>
   <v>       0.00462963 </v>
   <v>       0.00462963 </v>
   <v>       0.00462963 </v>
   <v>       0.00462963 </v>
   <v>       0.00462963 </v>
   <v>       0.00462963 </v>
   <v>       0.00462963 </v>
   <v>       0.00462963 </v>
   <v>       0.00462963 </v>
   <v>       0.00462963 </v>
   <v>       0.00462963 </v>
   <v>       0.00462963 </v>
   <v>       0.00462963 </v>
   <v>       0.00462963 </v>
   <v>       0.00462963 </v>
   <v>       0.00462963 </v>
   <v>       0.00462963 </v>
   <v>       0.00462963 </v>
   <v>       0.00462963 </v>
   <v>       0.00462963 </v>
   <v>       0.00462963 </v>
   <v>       0.00462963 </v>
   <v>       0.00462963 </v>
   <v>       0.00462963 </v>
   <v>       0.00462963 </v>
   <v>       0.00462963 </v>
   <v>       0.00462963 </v>
   <v>       0.00462963 </v>
   <v>       0.00462963 </v>
   <v>       0.00462963 </v>
   <v>       0.00462963 </v>
   <v>       0.00462963 </v>
   <v>       0.00462963 </v>
   <v>       0.00462963 </v>
   <v>       0.00462963 </v>
   <v>       0.00462963 </v>
   <v>       0.00462963 </v>
   <v>       0.00462963 </v>
   <v>       0.00462963 </v>
   <v>       0.00462963 </v>
   <v>       0.00462963 </v>
   <v>       0.00462963 </v>
   <v>       0.00462963 </v>
   <v>       0.00462963 </v>
   <v>       0.00462963 </v>
   <v>       0.00462963 </v>
   <v>       0.00462963 </v>
   <v>       0.00462963 </v>
   <v>       0.00462963 </v>
   <v>       0.00462963 </v>
   <v>       0.00462963 </v>
   <v>       0.00462963 </v>
   <v>       0.00462963 </v>
   <v>       0.00462963 </v>
   <v>       0.00462963 </v>
   <v>       0.00462963 </v>
   <v>       0.00462963 </v>
   <v>       0.00462963 </v>
   <v>       0.00462963 </v>
   <v>       0.00462963 </v>
   <v>       0.00462963 </v>
   <v>       0.00462963 </v>
   <v>       0.00462963 </v>
   <v>       0.00462963 </v>
   <v>       0.00462963 </v>
   <v>       0.00462963 </v>
   <v>       0.00462963 </v>
   <v>       0.00462963 </v>
   <v>       0.00462963 </v>
   <v>       0.00462963 </v>
   <v>       0.00462963 </v>
   <v>       0.00462963 </v>
   <v>       0.00462963 </v>
   <v>       0.00462963 </v>
   <v>       0.00462963 </v>
   <v>       0.00462963 </v>
   <v>       0.00462963 </v>
   <v>       0.00462963 </v>
   <v>       0.00462963 </v>
   <v>       0.00462963 </v>
   <v>       0.00462963 </v>
   <v>       0.00462963 </v>
   <v>       0.00462963 </v>
   <v>       0.00462963 </v>
   <v>       0.00462963 </v>
   <v>       0.00462963 </v>
   <v>       0.00462963 </v>
   <v>       0.00462963 </v>
   <v>       0.00462963 </v>
   <v>       0.00462963 </v>
   <v>       0.00462963 </v>
   <v>       0.00462963 </v>
   <v>       0.00462963 </v>
   <v>       0.00462963 </v>
   <v>       0.00462963 </v>
   <v>       0.00462963 </v>
   <v>       0.00462963 </v>
   <v>       0.00462963 </v>
   <v>       0.00462963 </v>
   <v>       0.00462963 </v>
   <v>       0.00462963 </v>
   <v>       0.00462963 </v>
   <v>       0.00462963 </v>
   <v>       0.00462963 </v>
   <v>       0.00462963 </v>
   <v>       0.00462963 </v>
   <v>       0.00462963 </v>
   <v>       0.00462963 </v>
   <v>       0.00462963 </v>
   <v>       0.00462963 </v>
   <v>       0.00462963 </v>
   <v>       0.00462963 </v>
   <v>       0.00462963 </v>
   <v>       0.00462963 </v>
   <v>       0.00462963 </v>
  </varray>
 </kpoints>
 <parameters>
  <separator name="general" >
   <i type="string" name="SYSTEM">Og_FCC</i>
   <i type="logical" name="LCOMPAT"> F  </i>
  </separator>
  <separator name="electronic" >
   <i type="string" name="PREC">accura</i>
   <i name="ENMAX">    300.00000000</i>
   <i name="ENAUG">    605.90000000</i>
   <i name="EDIFF">      0.00000010</i>
   <i type="int" name="IALGO">    53</i>
   <i type="int" name="IWAVPR">    10</i>
   <i type="int" name="NBANDS">    24</i>
   <i name="NELECT">      8.00000000</i>
   <i type="int" name="TURBO">     0</i>
   <i type="int" name="IRESTART">     0</i>
   <i type="int" name="NREBOOT">     0</i>
   <i type="int" name="NMIN">     0</i>
   <i name="EREF">      0.00000000</i>
   <separator name="electronic smearing" >
    <i type="int" name="ISMEAR">     0</i>
    <i name="SIGMA">      0.05000000</i>
    <i name="KSPACING">      0.50000000</i>
    <i type="logical" name="KGAMMA"> T  </i>
   </separator>
   <separator name="electronic projectors" >
    <i type="logical" name="LREAL"> F  </i>
    <v name="ROPT">      0.00000000</v>
    <i type="int" name="LMAXPAW">  -100</i>
    <i type="int" name="LMAXMIX">     2</i>
    <i type="logical" name="NLSPLINE"> F  </i>
   </separator>
   <separator name="electronic startup" >
    <i type="int" name="ISTART">     0</i>
    <i type="int" name="ICHARG">     2</i>
    <i type="int" name="INIWAV">     1</i>
   </separator>
   <separator name="electronic spin" >
    <i type="int" name="ISPIN">     1</i>
    <i type="logical" name="LNONCOLLINEAR"> T  </i>
    <v name="MAGMOM">      1.00000000      1.00000000      1.00000000</v>
    <i name="NUPDOWN">     -1.00000000</i>
    <i type="logical" name="LSORBIT"> T  </i>
    <v name="SAXIS">      0.00000000      0.00000000      1.00000000</v>
    <i type="logical" name="LSPIRAL"> F  </i>
    <v name="QSPIRAL">      0.00000000      0.00000000      0.00000000</v>
    <i type="logical" name="LZEROZ"> F  </i>
   </separator>
   <separator name="electronic exchange-correlation" >
    <i type="logical" name="LASPH"> F  </i>
    <i type="logical" name="LMETAGGA"> F  </i>
   </separator>
   <separator name="electronic convergence" >
    <i type="int" name="NELM">    50</i>
    <i type="int" name="NELMDL">    -5</i>
    <i type="int" name="NELMIN">     2</i>
    <i name="ENINI">    300.00000000</i>
    <separator name="electronic convergence detail" >
     <i type="logical" name="LDIAG"> T  </i>
     <i type="logical" name="LSUBROT"> F  </i>
     <i name="WEIMIN">      0.00000000</i>
     <i name="EBREAK">      0.00000000</i>
     <i name="DEPER">      0.30000000</i>
     <i type="int" name="NRMM">     4</i>
     <i name="TIME">      0.60000000</i>
    </separator>
   </separator>
   <separator name="electronic mixer" >
    <i name="AMIX">      0.40000000</i>
    <i name="BMIX">      1.00000000</i>
    <i name="AMIN">      0.10000000</i>
    <i name="AMIX_MAG">      1.60000000</i>
    <i name="BMIX_MAG">      1.00000000</i>
    <separator name="electronic mixer details" >
     <i type="int" name="IMIX">     4</i>
     <i type="logical" name="MIXFIRST"> F  </i>
     <i type="int" name="MAXMIX">    50</i>
     <i name="WC">    100.00000000</i>
     <i type="int" name="INIMIX">     1</i>
     <i type="int" name="MIXPRE">     1</i>
     <i type="int" name="MREMOVE">     5</i>
    </separator>
   </separator>
   <separator name="electronic dipolcorrection" >
    <i type="logical" name="LDIPOL"> F  </i>
    <i type="logical" name="LMONO"> F  </i>
    <i type="int" name="IDIPOL">     0</i>
    <i name="EPSILON">      1.00000000</i>
    <v name="DIPOL">   -100.00000000   -100.00000000   -100.00000000</v>
    <i name="EFIELD">      0.00000000</i>
   </separator>
  </separator>
  <separator name="grids" >
   <i type="int" name="NGX">    28</i>
   <i type="int" name="NGY">    28</i>
   <i type="int" name="NGZ">    28</i>
   <i type="int" name="NGXF">    56</i>
   <i type="int" name="NGYF">    56</i>
   <i type="int" name="NGZF">    56</i>
   <i type="logical" name="ADDGRID"> T  </i>
  </separator>
  <separator name="ionic" >
   <i type="int" name="NSW">     1</i>
   <i type="int" name="IBRION">    -1</i>
   <i type="int" name="MDALGO">     0</i>
   <i type="int" name="ISIF">     3</i>
   <i name="PSTRESS">      0.00000000</i>
   <i name="EDIFFG">      0.00001000</i>
   <i type="int" name="NFREE">     5</i>
   <i name="POTIM">      0.10000000</i>
   <i name="SMASS">     -3.00000000</i>
   <i name="SCALEE">      1.00000000</i>
  </separator>
  <separator name="ionic md" >
   <i name="TEBEG">      0.00010000</i>
   <i name="TEEND">      0.00010000</i>
   <i type="int" name="NBLOCK">     1</i>
   <i type="int" name="KBLOCK">     1</i>
   <i type="int" name="NPACO">   256</i>
   <i name="APACO">     16.00000000</i>
  </separator>
  <separator name="symmetry" >
   <i type="int" name="ISYM">     0</i>
   <i name="SYMPREC">      0.00000010</i>
  </separator>
  <separator name="dos" >
   <i type="int" name="LORBIT">     0</i>
   <v name="RWIGS">     -1.00000000</v>
   <i type="int" name="NEDOS">   301</i>
   <i name="EMIN">     10.00000000</i>
   <i name="EMAX">    -10.00000000</i>
   <i name="EFERMI">      0.00000000</i>
  </separator>
  <separator name="writing" >
   <i type="int" name="NWRITE">     2</i>
   <i type="logical" name="LWAVE"> T  </i>
   <i type="logical" name="LDOWNSAMPLE"> F  </i>
   <i type="logical" name="LCHARG"> F  </i>
   <i type="logical" name="LPARD"> F  </i>
   <i type="logical" name="LVTOT"> F  </i>
   <i type="logical" name="LVHAR"> F  </i>
   <i type="logical" name="LELF"> F  </i>
   <i type="logical" name="LOPTICS"> F  </i>
   <v name="STM">      0.00000000      0.00000000      0.00000000      0.00000000      0.00000000      0.00000000      0.00000000</v>
  </separator>
  <separator name="performance" >
   <i type="int" name="NPAR">     8</i>
   <i type="int" name="NSIM">     4</i>
   <i type="int" name="NBLK">    -1</i>
   <i type="logical" name="LPLANE"> T  </i>
   <i type="logical" name="LSCALAPACK"> T  </i>
   <i type="logical" name="LSCAAWARE"> F  </i>
   <i type="logical" name="LSCALU"> F  </i>
   <i type="logical" name="LASYNC"> F  </i>
   <i type="logical" name="LORBITALREAL"> F  </i>
  </separator>
  <separator name="miscellaneous" >
   <i type="int" name="IDIOT">     3</i>
   <i type="int" name="ISPECIAL">     0</i>
   <i type="logical" name="LMUSIC"> F  </i>
   <v name="POMASS">    131.29400000</v>
   <v name="DARWINR">      0.00000000</v>
   <v name="DARWINV">      1.00000000</v>
   <i type="logical" name="LCORR"> T  </i>
  </separator>
  <i type="logical" name="GGA_COMPAT"> F  </i>
  <i type="logical" name="LBERRY"> F  </i>
  <i type="int" name="ICORELEVEL">     0</i>
  <i type="logical" name="LDAU"> F  </i>
  <i type="int" name="I_CONSTRAINED_M">     0</i>
  <separator name="electronic exchange-correlation" >
   <i type="string" name="GGA">PE</i>
   <i type="int" name="VOSKOWN">     0</i>
   <i type="logical" name="LHFCALC"> T  </i>
   <i type="string" name="PRECFOCK">normal</i>
   <i type="logical" name="LSYMGRAD"> F  </i>
   <i type="logical" name="LHFONE"> F  </i>
   <i type="logical" name="LRHFCALC"> F  </i>
   <i type="logical" name="LTHOMAS"> F  </i>
   <i type="logical" name="LMODELHF"> F  </i>
   <i name="ENCUT4O">     -1.00000000</i>
   <i type="int" name="EXXOEP">     0</i>
   <i type="int" name="FOURORBIT">     0</i>
   <i name="AEXX">      0.25000000</i>
   <i name="HFALPHA">     -1.00000000</i>
   <i name="MCALPHA">      0.00000000</i>
   <i name="ALDAX">      0.75000000</i>
   <i name="AGGAX">      0.75000000</i>
   <i name="ALDAC">      1.00000000</i>
   <i name="AGGAC">      1.00000000</i>
   <i type="int" name="NKREDX">     2</i>
   <i type="int" name="NKREDY">     2</i>
   <i type="int" name="NKREDZ">     2</i>
   <i type="logical" name="SHIFTRED"> F  </i>
   <i type="logical" name="ODDONLY"> F  </i>
   <i type="logical" name="EVENONLY"> F  </i>
   <i type="int" name="LMAXFOCK">     4</i>
   <i type="int" name="NMAXFOCKAE">     1</i>
   <i type="logical" name="LFOCKAEDFT"> F  </i>
   <i name="HFSCREEN">      0.20000000</i>
   <i name="HFSCREENC">      0.20000000</i>
   <i type="int" name="NBANDSGWLOW">     1</i>
  </separator>
  <separator name="vdW DFT" >
   <i type="logical" name="LUSE_VDW"> F  </i>
   <i name="Zab_VDW">     -0.84910000</i>
   <i name="PARAM1">      0.12340000</i>
   <i name="PARAM2">      1.00000000</i>
   <i name="PARAM3">      0.00000000</i>
  </separator>
  <separator name="model GW" >
   <i type="int" name="MODEL_GW">     0</i>
   <i name="MODEL_EPS0">     36.93978283</i>
   <i name="MODEL_ALPHA">      1.00000000</i>
  </separator>
  <separator name="linear response parameters" >
   <i type="logical" name="LEPSILON"> F  </i>
   <i type="logical" name="LRPA"> F  </i>
   <i type="logical" name="LNABLA"> F  </i>
   <i type="logical" name="LVEL"> F  </i>
   <i type="int" name="KINTER">     0</i>
   <i name="CSHIFT">      0.10000000</i>
   <i name="OMEGAMAX">     -1.00000000</i>
   <i name="DEG_THRESHOLD">      0.00200000</i>
   <i name="RTIME">     -0.10000000</i>
   <i name="WPLASMAI">      0.00000000</i>
   <v name="DFIELD">      0.00000000      0.00000000      0.00000000</v>
   <v name="WPLASMA">      0.00000000      0.00000000      0.00000000      0.00000000      0.00000000      0.00000000      0.00000000      0.00000000      0.00000000</v>
  </separator>
  <separator name="orbital magnetization" >
   <i type="logical" name="NUCIND"> F  </i>
   <v name="MAGPOS">      0.00000000      0.00000000      0.00000000</v>
   <i type="logical" name="LNICSALL"> T  </i>
   <i type="logical" name="ORBITALMAG"> F  </i>
   <i type="logical" name="LMAGBLOCH"> F  </i>
   <i type="logical" name="LCHIMAG"> F  </i>
   <i type="logical" name="LGAUGE"> T  </i>
   <i type="int" name="MAGATOM">     0</i>
   <v name="MAGDIPOL">      0.00000000      0.00000000      0.00000000</v>
   <v name="AVECCONST">      0.00000000      0.00000000      0.00000000</v>
  </separator>
  <separator name="response functions" >
   <i type="logical" name="LADDER"> F  </i>
   <i type="logical" name="LRPAFORCE"> F  </i>
   <i type="logical" name="LFXC"> F  </i>
   <i type="logical" name="LHARTREE"> T  </i>
   <i type="int" name="IBSE">     0</i>
   <v type="int" name="KPOINT">    -1     0     0     0</v>
   <i type="logical" name="LTCTE"> F  </i>
   <i type="logical" name="LTETE"> F  </i>
   <i type="logical" name="LTRIPLET"> F  </i>
   <i type="logical" name="LFXCEPS"> F  </i>
   <i type="logical" name="LFXHEG"> F  </i>
   <i type="int" name="NATURALO">     2</i>
   <i type="logical" name="L2ORDER"> F  </i>
   <i type="logical" name="LMP2LT"> F  </i>
   <i type="logical" name="LUSEW"> F  </i>
   <i name="ENCUTGW">     -2.00000000</i>
   <i name="ENCUTGWSOFT">     -2.00000000</i>
   <i name="ENCUTLF">     -1.00000000</i>
   <i type="int" name="LMAXMP2">    -1</i>
   <i name="SCISSOR">      0.00000000</i>
   <i type="int" name="NOMEGA">     0</i>
   <i type="int" name="NOMEGAR">     0</i>
   <i type="int" name="NBANDSGW">    -1</i>
   <i type="int" name="NBANDSO">    -1</i>
   <i type="int" name="NBANDSV">    -1</i>
   <i type="int" name="NELM">    50</i>
   <i type="int" name="NELMHF">     1</i>
   <i type="int" name="DIM">     3</i>
   <i type="int" name="ANTIRES">     0</i>
   <i name="OMEGAMAX">    -30.00000000</i>
   <i name="OMEGAMIN">    -30.00000000</i>
   <i name="OMEGATL">   -200.00000000</i>
   <i type="int" name="OMEGAGRID">   140</i>
   <i name="CSHIFT">     -0.10000000</i>
   <i type="logical" name="SELFENERGY"> F  </i>
   <i type="logical" name="LSPECTRAL"> F  </i>
   <i type="logical" name="LSPECTRALGW"> F  </i>
   <i type="logical" name="LSINGLES"> F  </i>
   <i type="logical" name="LFERMIGW"> F  </i>
   <i type="logical" name="ODDONLYGW"> F  </i>
   <i type="logical" name="EVENONLYGW"> F  </i>
   <i type="int" name="NKREDLFX">     1</i>
   <i type="int" name="NKREDLFY">     1</i>
   <i type="int" name="NKREDLFZ">     1</i>
   <i type="int" name="MAXMEM">  2800</i>
   <i type="int" name="TELESCOPE">     0</i>
   <i type="int" name="TAUPAR">     1</i>
   <i type="int" name="OMEGAPAR">    -1</i>
   <i name="LAMBDA">      1.00000000</i>
  </separator>
  <separator name="External order field" >
   <i name="OFIELD_KAPPA">      0.00000000</i>
   <v name="OFIELD_K">      0.00000000      0.00000000      0.00000000</v>
   <i name="OFIELD_Q6_NEAR">      0.00000000</i>
   <i name="OFIELD_Q6_FAR">      0.00000000</i>
   <i name="OFIELD_A">      0.00000000</i>
  </separator>
 </parameters>
 <atominfo>
  <atoms>       1 </atoms>
  <types>       1 </types>
  <array name="atoms" >
   <dimension dim="1">ion</dimension>
   <field type="string">element</field>
   <field type="int">atomtype</field>
   <set>
    <rc><c>Xe</c><c>   1</c></rc>
   </set>
  </array>
  <array name="atomtypes" >
   <dimension dim="1">type</dimension>
   <field type="int">atomspertype</field>
   <field type="string">element</field>
   <field>mass</field>
   <field>valence</field>
   <field type="string">pseudopotential</field>
   <set>
    <rc><c>   1</c><c>Xe</c><c>    131.29400000</c><c>      8.00000000</c><c>  PAW_PBE Xe_GW 08Jan2009               </c></rc>
   </set>
  </array>
 </atominfo>
 <structure name="initialpos" >
  <crystal>
   <varray name="basis" >
    <v>       4.43220013       0.00000000       0.00000000 </v>
    <v>       2.21610006       3.83839790      -0.00000000 </v>
    <v>       2.21610006       1.27946597       3.61887625 </v>
   </varray>
   <i name="volume">     61.56630471 </i>
   <varray name="rec_basis" >
    <v>       0.22562158      -0.13026268      -0.09210962 </v>
    <v>       0.00000000       0.26052536      -0.09210962 </v>
    <v>      -0.00000000       0.00000000       0.27632887 </v>
   </varray>
  </crystal>
  <varray name="positions" >
   <v>       0.00000000       0.00000000       0.00000000 </v>
  </varray>
  <varray name="velocities" >
   <v>       0.00000000       0.00000000       0.00000000 </v>
  </varray>
 </structure>
 <calculation>
  <scstep>
   <time name="total">    1.33    1.34</time>
   <energy>
    <i name="alphaZ">     21.17661221 </i>
    <i name="ewald">   -337.05282163 </i>
    <i name="hartreedc">    -68.63715467 </i>
    <i name="XCdc">    -57.58963093 </i>
    <i name="pawpsdc">    413.53463069 </i>
    <i name="pawaedc">   -344.07404496 </i>
    <i name="eentropy">     -0.00115431 </i>
    <i name="bandstr">     -2.19509070 </i>
    <i name="atom">    428.94439095 </i>
    <i name="e_fr_energy">     54.10573663 </i>
    <i name="e_wo_entrp">     54.10689094 </i>
    <i name="e_0_energy">     54.10631379 </i>
   </energy>
  </scstep>
  <scstep>
   <time name="total">    1.04    1.05</time>
   <energy>
    <i name="e_fr_energy">     17.70837659 </i>
    <i name="e_wo_entrp">     17.70837659 </i>
    <i name="e_0_energy">     17.70837659 </i>
   </energy>
  </scstep>
  <scstep>
   <time name="total">    1.03    1.03</time>
   <energy>
    <i name="e_fr_energy">     13.81170308 </i>
    <i name="e_wo_entrp">     13.81170308 </i>
    <i name="e_0_energy">     13.81170308 </i>
   </energy>
  </scstep>
  <scstep>
   <time name="total">    1.04    1.04</time>
   <energy>
    <i name="e_fr_energy">     13.46811423 </i>
    <i name="e_wo_entrp">     13.46811423 </i>
    <i name="e_0_energy">     13.46811423 </i>
   </energy>
  </scstep>
  <scstep>
   <time name="total">    1.08    1.08</time>
   <energy>
    <i name="e_fr_energy">     13.44701835 </i>
    <i name="e_wo_entrp">     13.44701835 </i>
    <i name="e_0_energy">     13.44701835 </i>
   </energy>
  </scstep>
  <scstep>
   <time name="total">    9.71    9.72</time>
   <energy>
    <i name="e_fr_energy">      0.37961260 </i>
    <i name="e_wo_entrp">      0.37961260 </i>
    <i name="e_0_energy">      0.37961260 </i>
   </energy>
  </scstep>
  <scstep>
   <time name="total">   10.19   10.19</time>
   <energy>
    <i name="e_fr_energy">     -0.06082647 </i>
    <i name="e_wo_entrp">     -0.06082647 </i>
    <i name="e_0_energy">     -0.06082647 </i>
   </energy>
  </scstep>
  <scstep>
   <time name="total">    9.39    9.39</time>
   <energy>
    <i name="e_fr_energy">     -0.14213228 </i>
    <i name="e_wo_entrp">     -0.14213228 </i>
    <i name="e_0_energy">     -0.14213228 </i>
   </energy>
  </scstep>
  <scstep>
   <time name="total">    9.35    9.36</time>
   <energy>
    <i name="e_fr_energy">     -0.18944895 </i>
    <i name="e_wo_entrp">     -0.18944895 </i>
    <i name="e_0_energy">     -0.18944895 </i>
   </energy>
  </scstep>
  <scstep>
   <time name="total">    9.42    9.43</time>
   <energy>
    <i name="e_fr_energy">     -0.19960459 </i>
    <i name="e_wo_entrp">     -0.19960459 </i>
    <i name="e_0_energy">     -0.19960459 </i>
   </energy>
  </scstep>
  <scstep>
   <time name="total">    9.36    9.37</time>
   <energy>
    <i name="e_fr_energy">     -0.20359246 </i>
    <i name="e_wo_entrp">     -0.20359246 </i>
    <i name="e_0_energy">     -0.20359246 </i>
   </energy>
  </scstep>
  <scstep>
   <time name="total">    9.37    9.37</time>
   <energy>
    <i name="e_fr_energy">     -0.20428575 </i>
    <i name="e_wo_entrp">     -0.20428575 </i>
    <i name="e_0_energy">     -0.20428575 </i>
   </energy>
  </scstep>
  <scstep>
   <time name="total">    9.36    9.36</time>
   <energy>
    <i name="e_fr_energy">     -0.20453428 </i>
    <i name="e_wo_entrp">     -0.20453428 </i>
    <i name="e_0_energy">     -0.20453428 </i>
   </energy>
  </scstep>
  <scstep>
   <time name="total">    9.34    9.34</time>
   <energy>
    <i name="e_fr_energy">     -0.20457822 </i>
    <i name="e_wo_entrp">     -0.20457822 </i>
    <i name="e_0_energy">     -0.20457822 </i>
   </energy>
  </scstep>
  <scstep>
   <time name="total">    9.36    9.37</time>
   <energy>
    <i name="e_fr_energy">     -0.20459556 </i>
    <i name="e_wo_entrp">     -0.20459556 </i>
    <i name="e_0_energy">     -0.20459556 </i>
   </energy>
  </scstep>
  <scstep>
   <time name="total">    9.41    9.42</time>
   <energy>
    <i name="e_fr_energy">     -0.20460127 </i>
    <i name="e_wo_entrp">     -0.20460127 </i>
    <i name="e_0_energy">     -0.20460127 </i>
   </energy>
  </scstep>
  <scstep>
   <time name="total">   10.10   10.10</time>
   <energy>
    <i name="e_fr_energy">     -0.20460310 </i>
    <i name="e_wo_entrp">     -0.20460310 </i>
    <i name="e_0_energy">     -0.20460310 </i>
   </energy>
  </scstep>
  <scstep>
   <time name="total">    9.57    9.58</time>
   <energy>
    <i name="e_fr_energy">     -0.20460372 </i>
    <i name="e_wo_entrp">     -0.20460372 </i>
    <i name="e_0_energy">     -0.20460372 </i>
   </energy>
  </scstep>
  <scstep>
   <time name="total">    9.78    9.78</time>
   <energy>
    <i name="e_fr_energy">     -0.20460390 </i>
    <i name="e_wo_entrp">     -0.20460390 </i>
    <i name="e_0_energy">     -0.20460390 </i>
   </energy>
  </scstep>
  <scstep>
   <time name="total">   18.79   18.79</time>
   <energy>
    <i name="alphaZ">     21.17661221 </i>
    <i name="ewald">   -337.05282163 </i>
    <i name="hartreedc">    -68.94701600 </i>
    <i name="XCdc">    -57.63638360 </i>
    <i name="pawpsdc">    519.55010653 </i>
    <i name="pawaedc">   -450.06616795 </i>
    <i name="eentropy">     -0.00000000 </i>
    <i name="bandstr">    -69.83387072 </i>
    <i name="atom">    428.94439095 </i>
    <i name="e_fr_energy">     -0.20460397 </i>
    <i name="e_wo_entrp">     -0.20460397 </i>
    <i name="e_0_energy">     -0.20460397 </i>
   </energy>
  </scstep>
  <structure>
   <crystal>
    <varray name="basis" >
     <v>       4.43220013       0.00000000       0.00000000 </v>
     <v>       2.21610006       3.83839790      -0.00000000 </v>
     <v>       2.21610006       1.27946597       3.61887625 </v>
    </varray>
    <i name="volume">     61.56630471 </i>
    <varray name="rec_basis" >
     <v>       0.22562158      -0.13026268      -0.09210962 </v>
     <v>       0.00000000       0.26052536      -0.09210962 </v>
     <v>      -0.00000000       0.00000000       0.27632887 </v>
    </varray>
   </crystal>
   <varray name="positions" >
    <v>       0.00000000       0.00000000       0.00000000 </v>
   </varray>
  </structure>
  <varray name="forces" >
   <v>      -0.00000038      -0.00000228       0.00000084 </v>
  </varray>
  <varray name="stress" >
   <v>       4.35852392       0.00000329       0.00003532 </v>
   <v>       0.00000273       4.35848290      -0.00003314 </v>
   <v>       0.00003507      -0.00003336       4.35847259 </v>
  </varray>
  <energy>
   <i name="e_fr_energy">     -0.20460397 </i>
   <i name="e_wo_entrp">     -0.20460397 </i>
   <i name="e_0_energy">     -0.00000000 </i>
  </energy>
  <time name="totalsc">  169.98  170.10</time>
  <eigenvalues>
   <array>
    <dimension dim="1">band</dimension>
    <dimension dim="2">kpoint</dimension>
    <dimension dim="3">spin</dimension>
    <field>eigene</field>
    <field>occ</field>
    <set>
     <set comment="spin 1">
      <set comment="kpoint 1">
       <r>  -18.2433    1.0000 </r>
       <r>  -18.2433    1.0000 </r>
       <r>   -5.8860    1.0000 </r>
       <r>   -5.8860    1.0000 </r>
       <r>   -4.4961    1.0000 </r>
       <r>   -4.4961    1.0000 </r>
       <r>   -4.4961    1.0000 </r>
       <r>   -4.4961    1.0000 </r>
       <r>    2.4703    0.0000 </r>
       <r>    2.4703    0.0000 </r>
       <r>    7.1078    0.0000 </r>
       <r>    7.1078    0.0000 </r>
       <r>    7.1078    0.0000 </r>
       <r>    7.1078    0.0000 </r>
       <r>    7.1488    0.0000 </r>
       <r>    7.1488    0.0000 </r>
       <r>    9.3663    0.0000 </r>
       <r>    9.3663    0.0000 </r>
       <r>    9.3663    0.0000 </r>
       <r>    9.3663    0.0000 </r>
       <r>    9.8063    0.0000 </r>
       <r>    9.8063    0.0000 </r>
       <r>   11.9459    0.0000 </r>
       <r>   11.9695    0.0000 </r>
      </set>
      <set comment="kpoint 2">
       <r>  -18.1913    1.0000 </r>
       <r>  -18.1913    1.0000 </r>
       <r>   -6.0627    1.0000 </r>
       <r>   -6.0627    1.0000 </r>
       <r>   -4.8190    1.0000 </r>
       <r>   -4.8190    1.0000 </r>
       <r>   -4.5476    1.0000 </r>
       <r>   -4.5476    1.0000 </r>
       <r>    3.1430    0.0000 </r>
       <r>    3.1430    0.0000 </r>
       <r>    6.4691    0.0000 </r>
       <r>    6.4691    0.0000 </r>
       <r>    7.3147    0.0000 </r>
       <r>    7.3147    0.0000 </r>
       <r>    7.3545    0.0000 </r>
       <r>    7.3545    0.0000 </r>
       <r>    8.8440    0.0000 </r>
       <r>    8.8440    0.0000 </r>
       <r>    8.8704    0.0000 </r>
       <r>    8.8705    0.0000 </r>
       <r>   10.5336    0.0000 </r>
       <r>   10.5336    0.0000 </r>
       <r>   11.6944    0.0000 </r>
       <r>   11.6947    0.0000 </r>
      </set>
      <set comment="kpoint 3">
       <r>  -18.0874    1.0000 </r>
       <r>  -18.0874    1.0000 </r>
       <r>   -6.5240    1.0000 </r>
       <r>   -6.5240    1.0000 </r>
       <r>   -5.2235    1.0000 </r>
       <r>   -5.2235    1.0000 </r>
       <r>   -4.6509    1.0000 </r>
       <r>   -4.6509    1.0000 </r>
       <r>    3.9663    0.0000 </r>
       <r>    3.9663    0.0000 </r>
       <r>    6.5515    0.0000 </r>
       <r>    6.5515    0.0000 </r>
       <r>    7.0310    0.0000 </r>
       <r>    7.0310    0.0000 </r>
       <r>    7.0748    0.0000 </r>
       <r>    7.0748    0.0000 </r>
       <r>    9.6722    0.0000 </r>
       <r>    9.6722    0.0000 </r>
       <r>    9.7211    0.0000 </r>
       <r>    9.7211    0.0000 </r>
       <r>    9.7541    0.0000 </r>
       <r>    9.7541    0.0000 </r>
       <r>   14.8605    0.0000 </r>
       <r>   15.4012    0.0000 </r>
      </set>
      <set comment="kpoint 4">
       <r>  -18.0308    1.0000 </r>
       <r>  -18.0308    1.0000 </r>
       <r>   -6.7834    1.0000 </r>
       <r>   -6.7834    1.0000 </r>
       <r>   -5.3482    1.0000 </r>
       <r>   -5.3482    1.0000 </r>
       <r>   -4.7001    1.0000 </r>
       <r>   -4.7001    1.0000 </r>
       <r>    4.0207    0.0000 </r>
       <r>    4.0207    0.0000 </r>
       <r>    6.7752    0.0000 </r>
       <r>    6.7752    0.0000 </r>
       <r>    6.8159    0.0000 </r>
       <r>    6.8159    0.0000 </r>
       <r>    7.1848    0.0000 </r>
       <r>    7.1848    0.0000 </r>
       <r>    9.8624    0.0000 </r>
       <r>    9.8624    0.0000 </r>
       <r>   11.2485    0.0000 </r>
       <r>   11.2652    0.0000 </r>
       <r>   11.3137    0.0000 </r>
       <r>   11.4054    0.0000 </r>
       <r>   12.9090    0.0000 </r>
       <r>   12.9619    0.0000 </r>
      </set>
      <set comment="kpoint 5">
       <r>  -18.0874    1.0000 </r>
       <r>  -18.0874    1.0000 </r>
       <r>   -6.5240    1.0000 </r>
       <r>   -6.5240    1.0000 </r>
       <r>   -5.2235    1.0000 </r>
       <r>   -5.2235    1.0000 </r>
       <r>   -4.6509    1.0000 </r>
       <r>   -4.6509    1.0000 </r>
       <r>    3.9663    0.0000 </r>
       <r>    3.9663    0.0000 </r>
       <r>    6.5515    0.0000 </r>
       <r>    6.5515    0.0000 </r>
       <r>    7.0310    0.0000 </r>
       <r>    7.0310    0.0000 </r>
       <r>    7.0748    0.0000 </r>
       <r>    7.0748    0.0000 </r>
       <r>    9.6722    0.0000 </r>
       <r>    9.6722    0.0000 </r>
       <r>    9.7211    0.0000 </r>
       <r>    9.7211    0.0000 </r>
       <r>    9.7541    0.0000 </r>
       <r>    9.7541    0.0000 </r>
       <r>   14.8038    0.0000 </r>
       <r>   15.0182    0.0000 </r>
      </set>
      <set comment="kpoint 6">
       <r>  -18.1913    1.0000 </r>
       <r>  -18.1913    1.0000 </r>
       <r>   -6.0627    1.0000 </r>
       <r>   -6.0627    1.0000 </r>
       <r>   -4.8190    1.0000 </r>
       <r>   -4.8190    1.0000 </r>
       <r>   -4.5476    1.0000 </r>
       <r>   -4.5476    1.0000 </r>
       <r>    3.1430    0.0000 </r>
       <r>    3.1430    0.0000 </r>
       <r>    6.4691    0.0000 </r>
       <r>    6.4691    0.0000 </r>
       <r>    7.3147    0.0000 </r>
       <r>    7.3147    0.0000 </r>
       <r>    7.3545    0.0000 </r>
       <r>    7.3545    0.0000 </r>
       <r>    8.8440    0.0000 </r>
       <r>    8.8440    0.0000 </r>
       <r>    8.8704    0.0000 </r>
       <r>    8.8704    0.0000 </r>
       <r>   10.5336    0.0000 </r>
       <r>   10.5344    0.0000 </r>
       <r>   11.6944    0.0000 </r>
       <r>   13.0115    0.0000 </r>
      </set>
      <set comment="kpoint 7">
       <r>  -18.1913    1.0000 </r>
       <r>  -18.1913    1.0000 </r>
       <r>   -6.0627    1.0000 </r>
       <r>   -6.0627    1.0000 </r>
       <r>   -4.8190    1.0000 </r>
       <r>   -4.8190    1.0000 </r>
       <r>   -4.5476    1.0000 </r>
       <r>   -4.5476    1.0000 </r>
       <r>    3.1430    0.0000 </r>
       <r>    3.1430    0.0000 </r>
       <r>    6.4691    0.0000 </r>
       <r>    6.4691    0.0000 </r>
       <r>    7.3147    0.0000 </r>
       <r>    7.3147    0.0000 </r>
       <r>    7.3545    0.0000 </r>
       <r>    7.3545    0.0000 </r>
       <r>    8.8440    0.0000 </r>
       <r>    8.8440    0.0000 </r>
       <r>    8.8704    0.0000 </r>
       <r>    8.8704    0.0000 </r>
       <r>   10.5336    0.0000 </r>
       <r>   10.5336    0.0000 </r>
       <r>   11.6944    0.0000 </r>
       <r>   11.6948    0.0000 </r>
      </set>
      <set comment="kpoint 8">
       <r>  -18.1740    1.0000 </r>
       <r>  -18.1739    1.0000 </r>
       <r>   -6.0992    1.0000 </r>
       <r>   -6.0992    1.0000 </r>
       <r>   -4.8562    1.0000 </r>
       <r>   -4.8561    1.0000 </r>
       <r>   -4.6520    1.0000 </r>
       <r>   -4.6520    1.0000 </r>
       <r>    3.3722    0.0000 </r>
       <r>    3.3722    0.0000 </r>
       <r>    6.0580    0.0000 </r>
       <r>    6.0580    0.0000 </r>
       <r>    7.5634    0.0000 </r>
       <r>    7.5634    0.0000 </r>
       <r>    7.6612    0.0000 </r>
       <r>    7.6612    0.0000 </r>
       <r>    7.7047    0.0000 </r>
       <r>    7.7047    0.0000 </r>
       <r>    9.6967    0.0000 </r>
       <r>    9.6967    0.0000 </r>
       <r>   11.6252    0.0000 </r>
       <r>   12.1758    0.0000 </r>
       <r>   12.5942    0.0000 </r>
       <r>   12.6500    0.0000 </r>
      </set>
      <set comment="kpoint 9">
       <r>  -18.0873    1.0000 </r>
       <r>  -18.0873    1.0000 </r>
       <r>   -6.4159    1.0000 </r>
       <r>   -6.4159    1.0000 </r>
       <r>   -5.2242    1.0000 </r>
       <r>   -5.2242    1.0000 </r>
       <r>   -4.7844    1.0000 </r>
       <r>   -4.7844    1.0000 </r>
       <r>    4.2472    0.0000 </r>
       <r>    4.2472    0.0000 </r>
       <r>    5.7272    0.0000 </r>
       <r>    5.7272    0.0000 </r>
       <r>    6.5481    0.0000 </r>
       <r>    6.5481    0.0000 </r>
       <r>    7.8203    0.0000 </r>
       <r>    7.8203    0.0000 </r>
       <r>    8.9089    0.0000 </r>
       <r>    8.9089    0.0000 </r>
       <r>   10.3235    0.0000 </r>
       <r>   10.3235    0.0000 </r>
       <r>   11.4496    0.0000 </r>
       <r>   11.4496    0.0000 </r>
       <r>   13.9890    0.0000 </r>
       <r>   14.2639    0.0000 </r>
      </set>
      <set comment="kpoint 10">
       <r>  -18.0141    1.0000 </r>
       <r>  -18.0141    1.0000 </r>
       <r>   -6.7025    1.0000 </r>
       <r>   -6.7025    1.0000 </r>
       <r>   -5.4504    1.0000 </r>
       <r>   -5.4504    1.0000 </r>
       <r>   -4.8823    1.0000 </r>
       <r>   -4.8823    1.0000 </r>
       <r>    4.5644    0.0000 </r>
       <r>    4.5644    0.0000 </r>
       <r>    5.7591    0.0000 </r>
       <r>    5.7591    0.0000 </r>
       <r>    6.9702    0.0000 </r>
       <r>    6.9703    0.0000 </r>
       <r>    7.3985    0.0000 </r>
       <r>    7.3985    0.0000 </r>
       <r>   10.2043    0.0000 </r>
       <r>   10.2043    0.0000 </r>
       <r>   11.3240    0.0000 </r>
       <r>   11.3496    0.0000 </r>
       <r>   11.5064    0.0000 </r>
       <r>   11.5681    0.0000 </r>
       <r>   12.4703    0.0000 </r>
       <r>   12.6803    0.0000 </r>
      </set>
      <set comment="kpoint 11">
       <r>  -18.0327    1.0000 </r>
       <r>  -18.0327    1.0000 </r>
       <r>   -6.6283    1.0000 </r>
       <r>   -6.6283    1.0000 </r>
       <r>   -5.4281    1.0000 </r>
       <r>   -5.4281    1.0000 </r>
       <r>   -4.8374    1.0000 </r>
       <r>   -4.8374    1.0000 </r>
       <r>    4.6769    0.0000 </r>
       <r>    4.6769    0.0000 </r>
       <r>    5.9421    0.0000 </r>
       <r>    5.9421    0.0000 </r>
       <r>    6.6544    0.0000 </r>
       <r>    6.6544    0.0000 </r>
       <r>    7.3234    0.0000 </r>
       <r>    7.3235    0.0000 </r>
       <r>    9.3639    0.0000 </r>
       <r>    9.3639    0.0000 </r>
       <r>   11.1927    0.0000 </r>
       <r>   11.1928    0.0000 </r>
       <r>   11.7229    0.0000 </r>
       <r>   11.7238    0.0000 </r>
       <r>   12.1777    0.0000 </r>
       <r>   12.1892    0.0000 </r>
      </set>
      <set comment="kpoint 12">
       <r>  -18.1219    1.0000 </r>
       <r>  -18.1218    1.0000 </r>
       <r>   -6.3022    1.0000 </r>
       <r>   -6.3022    1.0000 </r>
       <r>   -5.1264    1.0000 </r>
       <r>   -5.1264    1.0000 </r>
       <r>   -4.6811    1.0000 </r>
       <r>   -4.6810    1.0000 </r>
       <r>    4.0159    0.0000 </r>
       <r>    4.0159    0.0000 </r>
       <r>    6.0522    0.0000 </r>
       <r>    6.0522    0.0000 </r>
       <r>    6.8211    0.0000 </r>
       <r>    6.8212    0.0000 </r>
       <r>    7.8215    0.0000 </r>
       <r>    7.8215    0.0000 </r>
       <r>    7.8696    0.0000 </r>
       <r>    7.8696    0.0000 </r>
       <r>   10.0509    0.0000 </r>
       <r>   10.0509    0.0000 </r>
       <r>   11.7899    0.0000 </r>
       <r>   11.7899    0.0000 </r>
       <r>   12.0645    0.0000 </r>
       <r>   12.0645    0.0000 </r>
      </set>
      <set comment="kpoint 13">
       <r>  -18.0874    1.0000 </r>
       <r>  -18.0874    1.0000 </r>
       <r>   -6.5240    1.0000 </r>
       <r>   -6.5240    1.0000 </r>
       <r>   -5.2235    1.0000 </r>
       <r>   -5.2235    1.0000 </r>
       <r>   -4.6509    1.0000 </r>
       <r>   -4.6509    1.0000 </r>
       <r>    3.9663    0.0000 </r>
       <r>    3.9663    0.0000 </r>
       <r>    6.5515    0.0000 </r>
       <r>    6.5515    0.0000 </r>
       <r>    7.0310    0.0000 </r>
       <r>    7.0310    0.0000 </r>
       <r>    7.0748    0.0000 </r>
       <r>    7.0748    0.0000 </r>
       <r>    9.6722    0.0000 </r>
       <r>    9.6722    0.0000 </r>
       <r>    9.7211    0.0000 </r>
       <r>    9.7211    0.0000 </r>
       <r>    9.7541    0.0000 </r>
       <r>    9.7541    0.0000 </r>
       <r>   14.7676    0.0000 </r>
       <r>   15.0265    0.0000 </r>
      </set>
      <set comment="kpoint 14">
       <r>  -18.0873    1.0000 </r>
       <r>  -18.0873    1.0000 </r>
       <r>   -6.4159    1.0000 </r>
       <r>   -6.4159    1.0000 </r>
       <r>   -5.2242    1.0000 </r>
       <r>   -5.2242    1.0000 </r>
       <r>   -4.7844    1.0000 </r>
       <r>   -4.7844    1.0000 </r>
       <r>    4.2472    0.0000 </r>
       <r>    4.2472    0.0000 </r>
       <r>    5.7272    0.0000 </r>
       <r>    5.7272    0.0000 </r>
       <r>    6.5481    0.0000 </r>
       <r>    6.5481    0.0000 </r>
       <r>    7.8203    0.0000 </r>
       <r>    7.8203    0.0000 </r>
       <r>    8.9089    0.0000 </r>
       <r>    8.9089    0.0000 </r>
       <r>   10.3235    0.0000 </r>
       <r>   10.3235    0.0000 </r>
       <r>   11.4496    0.0000 </r>
       <r>   11.4496    0.0000 </r>
       <r>   13.9492    0.0000 </r>
       <r>   14.4321    0.0000 </r>
      </set>
      <set comment="kpoint 15">
       <r>  -18.0359    1.0000 </r>
       <r>  -18.0359    1.0000 </r>
       <r>   -6.5417    1.0000 </r>
       <r>   -6.5417    1.0000 </r>
       <r>   -5.3769    1.0000 </r>
       <r>   -5.3768    1.0000 </r>
       <r>   -4.9496    1.0000 </r>
       <r>   -4.9495    1.0000 </r>
       <r>    4.0986    0.0000 </r>
       <r>    4.0986    0.0000 </r>
       <r>    4.9594    0.0000 </r>
       <r>    4.9594    0.0000 </r>
       <r>    7.1829    0.0000 </r>
       <r>    7.1829    0.0000 </r>
       <r>    9.1215    0.0000 </r>
       <r>    9.1215    0.0000 </r>
       <r>    9.2533    0.0000 </r>
       <r>    9.2533    0.0000 </r>
       <r>   10.5916    0.0000 </r>
       <r>   10.5916    0.0000 </r>
       <r>   13.9799    0.0000 </r>
       <r>   14.0961    0.0000 </r>
       <r>   14.2409    0.0000 </r>
       <r>   14.3719    0.0000 </r>
      </set>
      <set comment="kpoint 16">
       <r>  -17.9802    1.0000 </r>
       <r>  -17.9801    1.0000 </r>
       <r>   -6.6844    1.0000 </r>
       <r>   -6.6844    1.0000 </r>
       <r>   -5.5543    1.0000 </r>
       <r>   -5.5543    1.0000 </r>
       <r>   -5.0917    1.0000 </r>
       <r>   -5.0917    1.0000 </r>
       <r>    4.1679    0.0000 </r>
       <r>    4.1679    0.0000 </r>
       <r>    5.0801    0.0000 </r>
       <r>    5.0801    0.0000 </r>
       <r>    7.3868    0.0000 </r>
       <r>    7.3868    0.0000 </r>
       <r>    9.0269    0.0000 </r>
       <r>    9.0270    0.0000 </r>
       <r>   10.3038    0.0000 </r>
       <r>   10.3038    0.0000 </r>
       <r>   11.5709    0.0000 </r>
       <r>   11.5733    0.0000 </r>
       <r>   12.5384    0.0000 </r>
       <r>   12.7001    0.0000 </r>
       <r>   13.0671    0.0000 </r>
       <r>   13.9435    0.0000 </r>
      </set>
      <set comment="kpoint 17">
       <r>  -17.9807    1.0000 </r>
       <r>  -17.9807    1.0000 </r>
       <r>   -6.6569    1.0000 </r>
       <r>   -6.6569    1.0000 </r>
       <r>   -5.6523    1.0000 </r>
       <r>   -5.6523    1.0000 </r>
       <r>   -5.0707    1.0000 </r>
       <r>   -5.0707    1.0000 </r>
       <r>    4.7325    0.0000 </r>
       <r>    4.7325    0.0000 </r>
       <r>    5.7379    0.0000 </r>
       <r>    5.7379    0.0000 </r>
       <r>    6.8392    0.0000 </r>
       <r>    6.8392    0.0000 </r>
       <r>    8.2390    0.0000 </r>
       <r>    8.2391    0.0000 </r>
       <r>    9.6945    0.0000 </r>
       <r>    9.6945    0.0000 </r>
       <r>    9.9498    0.0000 </r>
       <r>    9.9498    0.0000 </r>
       <r>   13.8114    0.0000 </r>
       <r>   14.0415    0.0000 </r>
       <r>   14.6619    0.0000 </r>
       <r>   14.9082    0.0000 </r>
      </set>
      <set comment="kpoint 18">
       <r>  -18.0327    1.0000 </r>
       <r>  -18.0327    1.0000 </r>
       <r>   -6.6283    1.0000 </r>
       <r>   -6.6283    1.0000 </r>
       <r>   -5.4281    1.0000 </r>
       <r>   -5.4281    1.0000 </r>
       <r>   -4.8374    1.0000 </r>
       <r>   -4.8374    1.0000 </r>
       <r>    4.6769    0.0000 </r>
       <r>    4.6769    0.0000 </r>
       <r>    5.9421    0.0000 </r>
       <r>    5.9421    0.0000 </r>
       <r>    6.6544    0.0000 </r>
       <r>    6.6544    0.0000 </r>
       <r>    7.3234    0.0000 </r>
       <r>    7.3235    0.0000 </r>
       <r>    9.3639    0.0000 </r>
       <r>    9.3639    0.0000 </r>
       <r>   11.1927    0.0000 </r>
       <r>   11.1931    0.0000 </r>
       <r>   11.7229    0.0000 </r>
       <r>   11.7237    0.0000 </r>
       <r>   12.1777    0.0000 </r>
       <r>   12.4038    0.0000 </r>
      </set>
      <set comment="kpoint 19">
       <r>  -18.0308    1.0000 </r>
       <r>  -18.0308    1.0000 </r>
       <r>   -6.7834    1.0000 </r>
       <r>   -6.7834    1.0000 </r>
       <r>   -5.3482    1.0000 </r>
       <r>   -5.3482    1.0000 </r>
       <r>   -4.7001    1.0000 </r>
       <r>   -4.7001    1.0000 </r>
       <r>    4.0207    0.0000 </r>
       <r>    4.0207    0.0000 </r>
       <r>    6.7752    0.0000 </r>
       <r>    6.7752    0.0000 </r>
       <r>    6.8159    0.0000 </r>
       <r>    6.8159    0.0000 </r>
       <r>    7.1848    0.0000 </r>
       <r>    7.1848    0.0000 </r>
       <r>    9.8624    0.0000 </r>
       <r>    9.8624    0.0000 </r>
       <r>   11.2523    0.0000 </r>
       <r>   11.2788    0.0000 </r>
       <r>   11.3439    0.0000 </r>
       <r>   12.0439    0.0000 </r>
       <r>   12.9159    0.0000 </r>
       <r>   12.9924    0.0000 </r>
      </set>
      <set comment="kpoint 20">
       <r>  -18.0141    1.0000 </r>
       <r>  -18.0141    1.0000 </r>
       <r>   -6.7025    1.0000 </r>
       <r>   -6.7025    1.0000 </r>
       <r>   -5.4504    1.0000 </r>
       <r>   -5.4504    1.0000 </r>
       <r>   -4.8823    1.0000 </r>
       <r>   -4.8823    1.0000 </r>
       <r>    4.5644    0.0000 </r>
       <r>    4.5644    0.0000 </r>
       <r>    5.7591    0.0000 </r>
       <r>    5.7591    0.0000 </r>
       <r>    6.9702    0.0000 </r>
       <r>    6.9703    0.0000 </r>
       <r>    7.3985    0.0000 </r>
       <r>    7.3985    0.0000 </r>
       <r>   10.2043    0.0000 </r>
       <r>   10.2043    0.0000 </r>
       <r>   11.3303    0.0000 </r>
       <r>   11.3782    0.0000 </r>
       <r>   11.4828    0.0000 </r>
       <r>   11.6810    0.0000 </r>
       <r>   12.5221    0.0000 </r>
       <r>   12.6013    0.0000 </r>
      </set>
      <set comment="kpoint 21">
       <r>  -17.9802    1.0000 </r>
       <r>  -17.9801    1.0000 </r>
       <r>   -6.6844    1.0000 </r>
       <r>   -6.6844    1.0000 </r>
       <r>   -5.5543    1.0000 </r>
       <r>   -5.5543    1.0000 </r>
       <r>   -5.0917    1.0000 </r>
       <r>   -5.0917    1.0000 </r>
       <r>    4.1679    0.0000 </r>
       <r>    4.1679    0.0000 </r>
       <r>    5.0801    0.0000 </r>
       <r>    5.0801    0.0000 </r>
       <r>    7.3868    0.0000 </r>
       <r>    7.3868    0.0000 </r>
       <r>    9.0269    0.0000 </r>
       <r>    9.0269    0.0000 </r>
       <r>   10.3038    0.0000 </r>
       <r>   10.3038    0.0000 </r>
       <r>   11.5705    0.0000 </r>
       <r>   11.5741    0.0000 </r>
       <r>   12.5611    0.0000 </r>
       <r>   12.6484    0.0000 </r>
       <r>   13.1125    0.0000 </r>
       <r>   13.7721    0.0000 </r>
      </set>
      <set comment="kpoint 22">
       <r>  -17.9620    1.0000 </r>
       <r>  -17.9619    1.0000 </r>
       <r>   -6.7602    1.0000 </r>
       <r>   -6.7602    1.0000 </r>
       <r>   -5.5745    1.0000 </r>
       <r>   -5.5745    1.0000 </r>
       <r>   -5.0882    1.0000 </r>
       <r>   -5.0882    1.0000 </r>
       <r>    3.6943    0.0000 </r>
       <r>    3.6943    0.0000 </r>
       <r>    4.5702    0.0000 </r>
       <r>    4.5703    0.0000 </r>
       <r>    8.5638    0.0000 </r>
       <r>    8.5638    0.0000 </r>
       <r>   10.9402    0.0000 </r>
       <r>   10.9598    0.0000 </r>
       <r>   11.1855    0.0000 </r>
       <r>   11.2085    0.0000 </r>
       <r>   11.3291    0.0000 </r>
       <r>   11.4433    0.0000 </r>
       <r>   11.9366    0.0000 </r>
       <r>   11.9785    0.0000 </r>
       <r>   12.2587    0.0000 </r>
       <r>   13.2222    0.0000 </r>
      </set>
      <set comment="kpoint 23">
       <r>  -17.9802    1.0000 </r>
       <r>  -17.9801    1.0000 </r>
       <r>   -6.6844    1.0000 </r>
       <r>   -6.6844    1.0000 </r>
       <r>   -5.5543    1.0000 </r>
       <r>   -5.5543    1.0000 </r>
       <r>   -5.0917    1.0000 </r>
       <r>   -5.0917    1.0000 </r>
       <r>    4.1679    0.0000 </r>
       <r>    4.1679    0.0000 </r>
       <r>    5.0801    0.0000 </r>
       <r>    5.0801    0.0000 </r>
       <r>    7.3868    0.0000 </r>
       <r>    7.3868    0.0000 </r>
       <r>    9.0269    0.0000 </r>
       <r>    9.0270    0.0000 </r>
       <r>   10.3038    0.0000 </r>
       <r>   10.3038    0.0000 </r>
       <r>   11.5723    0.0000 </r>
       <r>   11.6055    0.0000 </r>
       <r>   12.6100    0.0000 </r>
       <r>   12.7401    0.0000 </r>
       <r>   13.1353    0.0000 </r>
       <r>   13.9427    0.0000 </r>
      </set>
      <set comment="kpoint 24">
       <r>  -18.0141    1.0000 </r>
       <r>  -18.0141    1.0000 </r>
       <r>   -6.7025    1.0000 </r>
       <r>   -6.7025    1.0000 </r>
       <r>   -5.4504    1.0000 </r>
       <r>   -5.4504    1.0000 </r>
       <r>   -4.8823    1.0000 </r>
       <r>   -4.8823    1.0000 </r>
       <r>    4.5644    0.0000 </r>
       <r>    4.5644    0.0000 </r>
       <r>    5.7591    0.0000 </r>
       <r>    5.7591    0.0000 </r>
       <r>    6.9702    0.0000 </r>
       <r>    6.9703    0.0000 </r>
       <r>    7.3985    0.0000 </r>
       <r>    7.3985    0.0000 </r>
       <r>   10.2043    0.0000 </r>
       <r>   10.2043    0.0000 </r>
       <r>   11.3240    0.0000 </r>
       <r>   11.3386    0.0000 </r>
       <r>   11.4769    0.0000 </r>
       <r>   11.5219    0.0000 </r>
       <r>   12.4754    0.0000 </r>
       <r>   12.6505    0.0000 </r>
      </set>
      <set comment="kpoint 25">
       <r>  -18.0874    1.0000 </r>
       <r>  -18.0874    1.0000 </r>
       <r>   -6.5240    1.0000 </r>
       <r>   -6.5240    1.0000 </r>
       <r>   -5.2235    1.0000 </r>
       <r>   -5.2235    1.0000 </r>
       <r>   -4.6509    1.0000 </r>
       <r>   -4.6509    1.0000 </r>
       <r>    3.9663    0.0000 </r>
       <r>    3.9663    0.0000 </r>
       <r>    6.5515    0.0000 </r>
       <r>    6.5515    0.0000 </r>
       <r>    7.0310    0.0000 </r>
       <r>    7.0310    0.0000 </r>
       <r>    7.0748    0.0000 </r>
       <r>    7.0748    0.0000 </r>
       <r>    9.6722    0.0000 </r>
       <r>    9.6722    0.0000 </r>
       <r>    9.7211    0.0000 </r>
       <r>    9.7211    0.0000 </r>
       <r>    9.7541    0.0000 </r>
       <r>    9.7541    0.0000 </r>
       <r>   14.8074    0.0000 </r>
       <r>   15.5253    0.0000 </r>
      </set>
      <set comment="kpoint 26">
       <r>  -18.0327    1.0000 </r>
       <r>  -18.0327    1.0000 </r>
       <r>   -6.6283    1.0000 </r>
       <r>   -6.6283    1.0000 </r>
       <r>   -5.4281    1.0000 </r>
       <r>   -5.4281    1.0000 </r>
       <r>   -4.8374    1.0000 </r>
       <r>   -4.8374    1.0000 </r>
       <r>    4.6769    0.0000 </r>
       <r>    4.6769    0.0000 </r>
       <r>    5.9421    0.0000 </r>
       <r>    5.9421    0.0000 </r>
       <r>    6.6544    0.0000 </r>
       <r>    6.6544    0.0000 </r>
       <r>    7.3234    0.0000 </r>
       <r>    7.3235    0.0000 </r>
       <r>    9.3639    0.0000 </r>
       <r>    9.3639    0.0000 </r>
       <r>   11.1927    0.0000 </r>
       <r>   11.1930    0.0000 </r>
       <r>   11.7229    0.0000 </r>
       <r>   11.7277    0.0000 </r>
       <r>   12.1777    0.0000 </r>
       <r>   12.4511    0.0000 </r>
      </set>
      <set comment="kpoint 27">
       <r>  -17.9807    1.0000 </r>
       <r>  -17.9807    1.0000 </r>
       <r>   -6.6569    1.0000 </r>
       <r>   -6.6569    1.0000 </r>
       <r>   -5.6523    1.0000 </r>
       <r>   -5.6523    1.0000 </r>
       <r>   -5.0707    1.0000 </r>
       <r>   -5.0707    1.0000 </r>
       <r>    4.7325    0.0000 </r>
       <r>    4.7325    0.0000 </r>
       <r>    5.7379    0.0000 </r>
       <r>    5.7379    0.0000 </r>
       <r>    6.8392    0.0000 </r>
       <r>    6.8392    0.0000 </r>
       <r>    8.2390    0.0000 </r>
       <r>    8.2391    0.0000 </r>
       <r>    9.6945    0.0000 </r>
       <r>    9.6945    0.0000 </r>
       <r>    9.9498    0.0000 </r>
       <r>    9.9498    0.0000 </r>
       <r>   13.7953    0.0000 </r>
       <r>   14.1298    0.0000 </r>
       <r>   14.7574    0.0000 </r>
       <r>   14.9565    0.0000 </r>
      </set>
      <set comment="kpoint 28">
       <r>  -17.9802    1.0000 </r>
       <r>  -17.9801    1.0000 </r>
       <r>   -6.6844    1.0000 </r>
       <r>   -6.6844    1.0000 </r>
       <r>   -5.5543    1.0000 </r>
       <r>   -5.5543    1.0000 </r>
       <r>   -5.0917    1.0000 </r>
       <r>   -5.0917    1.0000 </r>
       <r>    4.1679    0.0000 </r>
       <r>    4.1679    0.0000 </r>
       <r>    5.0801    0.0000 </r>
       <r>    5.0801    0.0000 </r>
       <r>    7.3868    0.0000 </r>
       <r>    7.3868    0.0000 </r>
       <r>    9.0269    0.0000 </r>
       <r>    9.0269    0.0000 </r>
       <r>   10.3038    0.0000 </r>
       <r>   10.3038    0.0000 </r>
       <r>   11.5703    0.0000 </r>
       <r>   11.5795    0.0000 </r>
       <r>   12.5374    0.0000 </r>
       <r>   12.6669    0.0000 </r>
       <r>   13.0420    0.0000 </r>
       <r>   14.0367    0.0000 </r>
      </set>
      <set comment="kpoint 29">
       <r>  -18.0359    1.0000 </r>
       <r>  -18.0359    1.0000 </r>
       <r>   -6.5417    1.0000 </r>
       <r>   -6.5417    1.0000 </r>
       <r>   -5.3769    1.0000 </r>
       <r>   -5.3768    1.0000 </r>
       <r>   -4.9496    1.0000 </r>
       <r>   -4.9495    1.0000 </r>
       <r>    4.0986    0.0000 </r>
       <r>    4.0986    0.0000 </r>
       <r>    4.9594    0.0000 </r>
       <r>    4.9594    0.0000 </r>
       <r>    7.1829    0.0000 </r>
       <r>    7.1829    0.0000 </r>
       <r>    9.1215    0.0000 </r>
       <r>    9.1215    0.0000 </r>
       <r>    9.2533    0.0000 </r>
       <r>    9.2533    0.0000 </r>
       <r>   10.5916    0.0000 </r>
       <r>   10.5916    0.0000 </r>
       <r>   13.9706    0.0000 </r>
       <r>   14.0898    0.0000 </r>
       <r>   14.2606    0.0000 </r>
       <r>   15.1343    0.0000 </r>
      </set>
      <set comment="kpoint 30">
       <r>  -18.0873    1.0000 </r>
       <r>  -18.0873    1.0000 </r>
       <r>   -6.4159    1.0000 </r>
       <r>   -6.4159    1.0000 </r>
       <r>   -5.2242    1.0000 </r>
       <r>   -5.2242    1.0000 </r>
       <r>   -4.7844    1.0000 </r>
       <r>   -4.7844    1.0000 </r>
       <r>    4.2472    0.0000 </r>
       <r>    4.2472    0.0000 </r>
       <r>    5.7272    0.0000 </r>
       <r>    5.7272    0.0000 </r>
       <r>    6.5481    0.0000 </r>
       <r>    6.5481    0.0000 </r>
       <r>    7.8203    0.0000 </r>
       <r>    7.8203    0.0000 </r>
       <r>    8.9089    0.0000 </r>
       <r>    8.9089    0.0000 </r>
       <r>   10.3235    0.0000 </r>
       <r>   10.3235    0.0000 </r>
       <r>   11.4496    0.0000 </r>
       <r>   11.4496    0.0000 </r>
       <r>   14.0349    0.0000 </r>
       <r>   14.3865    0.0000 </r>
      </set>
      <set comment="kpoint 31">
       <r>  -18.1913    1.0000 </r>
       <r>  -18.1913    1.0000 </r>
       <r>   -6.0627    1.0000 </r>
       <r>   -6.0627    1.0000 </r>
       <r>   -4.8190    1.0000 </r>
       <r>   -4.8190    1.0000 </r>
       <r>   -4.5476    1.0000 </r>
       <r>   -4.5476    1.0000 </r>
       <r>    3.1430    0.0000 </r>
       <r>    3.1430    0.0000 </r>
       <r>    6.4691    0.0000 </r>
       <r>    6.4691    0.0000 </r>
       <r>    7.3147    0.0000 </r>
       <r>    7.3147    0.0000 </r>
       <r>    7.3545    0.0000 </r>
       <r>    7.3545    0.0000 </r>
       <r>    8.8440    0.0000 </r>
       <r>    8.8440    0.0000 </r>
       <r>    8.8704    0.0000 </r>
       <r>    8.8704    0.0000 </r>
       <r>   10.5336    0.0000 </r>
       <r>   10.5336    0.0000 </r>
       <r>   11.6944    0.0000 </r>
       <r>   11.6944    0.0000 </r>
      </set>
      <set comment="kpoint 32">
       <r>  -18.1219    1.0000 </r>
       <r>  -18.1218    1.0000 </r>
       <r>   -6.3022    1.0000 </r>
       <r>   -6.3022    1.0000 </r>
       <r>   -5.1264    1.0000 </r>
       <r>   -5.1264    1.0000 </r>
       <r>   -4.6811    1.0000 </r>
       <r>   -4.6810    1.0000 </r>
       <r>    4.0159    0.0000 </r>
       <r>    4.0159    0.0000 </r>
       <r>    6.0522    0.0000 </r>
       <r>    6.0522    0.0000 </r>
       <r>    6.8211    0.0000 </r>
       <r>    6.8212    0.0000 </r>
       <r>    7.8215    0.0000 </r>
       <r>    7.8215    0.0000 </r>
       <r>    7.8696    0.0000 </r>
       <r>    7.8696    0.0000 </r>
       <r>   10.0509    0.0000 </r>
       <r>   10.0512    0.0000 </r>
       <r>   11.7899    0.0000 </r>
       <r>   11.8254    0.0000 </r>
       <r>   12.0645    0.0000 </r>
       <r>   13.1561    0.0000 </r>
      </set>
      <set comment="kpoint 33">
       <r>  -18.0327    1.0000 </r>
       <r>  -18.0327    1.0000 </r>
       <r>   -6.6283    1.0000 </r>
       <r>   -6.6283    1.0000 </r>
       <r>   -5.4281    1.0000 </r>
       <r>   -5.4281    1.0000 </r>
       <r>   -4.8374    1.0000 </r>
       <r>   -4.8374    1.0000 </r>
       <r>    4.6769    0.0000 </r>
       <r>    4.6769    0.0000 </r>
       <r>    5.9421    0.0000 </r>
       <r>    5.9421    0.0000 </r>
       <r>    6.6544    0.0000 </r>
       <r>    6.6544    0.0000 </r>
       <r>    7.3234    0.0000 </r>
       <r>    7.3235    0.0000 </r>
       <r>    9.3639    0.0000 </r>
       <r>    9.3639    0.0000 </r>
       <r>   11.1927    0.0000 </r>
       <r>   11.1927    0.0000 </r>
       <r>   11.7230    0.0000 </r>
       <r>   11.7231    0.0000 </r>
       <r>   12.1777    0.0000 </r>
       <r>   12.2004    0.0000 </r>
      </set>
      <set comment="kpoint 34">
       <r>  -18.0141    1.0000 </r>
       <r>  -18.0141    1.0000 </r>
       <r>   -6.7025    1.0000 </r>
       <r>   -6.7025    1.0000 </r>
       <r>   -5.4504    1.0000 </r>
       <r>   -5.4504    1.0000 </r>
       <r>   -4.8823    1.0000 </r>
       <r>   -4.8823    1.0000 </r>
       <r>    4.5644    0.0000 </r>
       <r>    4.5644    0.0000 </r>
       <r>    5.7591    0.0000 </r>
       <r>    5.7591    0.0000 </r>
       <r>    6.9702    0.0000 </r>
       <r>    6.9703    0.0000 </r>
       <r>    7.3985    0.0000 </r>
       <r>    7.3985    0.0000 </r>
       <r>   10.2043    0.0000 </r>
       <r>   10.2043    0.0000 </r>
       <r>   11.3328    0.0000 </r>
       <r>   11.3971    0.0000 </r>
       <r>   11.4894    0.0000 </r>
       <r>   11.5549    0.0000 </r>
       <r>   12.4705    0.0000 </r>
       <r>   12.5938    0.0000 </r>
      </set>
      <set comment="kpoint 35">
       <r>  -18.0873    1.0000 </r>
       <r>  -18.0873    1.0000 </r>
       <r>   -6.4159    1.0000 </r>
       <r>   -6.4159    1.0000 </r>
       <r>   -5.2242    1.0000 </r>
       <r>   -5.2242    1.0000 </r>
       <r>   -4.7844    1.0000 </r>
       <r>   -4.7844    1.0000 </r>
       <r>    4.2472    0.0000 </r>
       <r>    4.2472    0.0000 </r>
       <r>    5.7272    0.0000 </r>
       <r>    5.7272    0.0000 </r>
       <r>    6.5481    0.0000 </r>
       <r>    6.5481    0.0000 </r>
       <r>    7.8203    0.0000 </r>
       <r>    7.8203    0.0000 </r>
       <r>    8.9089    0.0000 </r>
       <r>    8.9089    0.0000 </r>
       <r>   10.3235    0.0000 </r>
       <r>   10.3235    0.0000 </r>
       <r>   11.4496    0.0000 </r>
       <r>   11.4496    0.0000 </r>
       <r>   14.0886    0.0000 </r>
       <r>   14.4869    0.0000 </r>
      </set>
      <set comment="kpoint 36">
       <r>  -18.1740    1.0000 </r>
       <r>  -18.1739    1.0000 </r>
       <r>   -6.0992    1.0000 </r>
       <r>   -6.0992    1.0000 </r>
       <r>   -4.8562    1.0000 </r>
       <r>   -4.8561    1.0000 </r>
       <r>   -4.6520    1.0000 </r>
       <r>   -4.6520    1.0000 </r>
       <r>    3.3722    0.0000 </r>
       <r>    3.3722    0.0000 </r>
       <r>    6.0580    0.0000 </r>
       <r>    6.0580    0.0000 </r>
       <r>    7.5634    0.0000 </r>
       <r>    7.5634    0.0000 </r>
       <r>    7.6612    0.0000 </r>
       <r>    7.6612    0.0000 </r>
       <r>    7.7047    0.0000 </r>
       <r>    7.7047    0.0000 </r>
       <r>    9.6967    0.0000 </r>
       <r>    9.6967    0.0000 </r>
       <r>   11.6247    0.0000 </r>
       <r>   11.6280    0.0000 </r>
       <r>   12.6239    0.0000 </r>
       <r>   12.6551    0.0000 </r>
      </set>
      <set comment="kpoint 37">
       <r>  -18.1913    1.0000 </r>
       <r>  -18.1913    1.0000 </r>
       <r>   -6.0627    1.0000 </r>
       <r>   -6.0627    1.0000 </r>
       <r>   -4.8190    1.0000 </r>
       <r>   -4.8190    1.0000 </r>
       <r>   -4.5476    1.0000 </r>
       <r>   -4.5476    1.0000 </r>
       <r>    3.1430    0.0000 </r>
       <r>    3.1430    0.0000 </r>
       <r>    6.4691    0.0000 </r>
       <r>    6.4691    0.0000 </r>
       <r>    7.3147    0.0000 </r>
       <r>    7.3147    0.0000 </r>
       <r>    7.3545    0.0000 </r>
       <r>    7.3545    0.0000 </r>
       <r>    8.8440    0.0000 </r>
       <r>    8.8440    0.0000 </r>
       <r>    8.8704    0.0000 </r>
       <r>    8.8704    0.0000 </r>
       <r>   10.5336    0.0000 </r>
       <r>   10.5336    0.0000 </r>
       <r>   11.6944    0.0000 </r>
       <r>   11.6944    0.0000 </r>
      </set>
      <set comment="kpoint 38">
       <r>  -18.1740    1.0000 </r>
       <r>  -18.1739    1.0000 </r>
       <r>   -6.0992    1.0000 </r>
       <r>   -6.0992    1.0000 </r>
       <r>   -4.8562    1.0000 </r>
       <r>   -4.8561    1.0000 </r>
       <r>   -4.6520    1.0000 </r>
       <r>   -4.6520    1.0000 </r>
       <r>    3.3722    0.0000 </r>
       <r>    3.3722    0.0000 </r>
       <r>    6.0580    0.0000 </r>
       <r>    6.0580    0.0000 </r>
       <r>    7.5634    0.0000 </r>
       <r>    7.5634    0.0000 </r>
       <r>    7.6612    0.0000 </r>
       <r>    7.6612    0.0000 </r>
       <r>    7.7047    0.0000 </r>
       <r>    7.7047    0.0000 </r>
       <r>    9.6967    0.0000 </r>
       <r>    9.6967    0.0000 </r>
       <r>   11.6247    0.0000 </r>
       <r>   11.6887    0.0000 </r>
       <r>   12.6158    0.0000 </r>
       <r>   12.6588    0.0000 </r>
      </set>
      <set comment="kpoint 39">
       <r>  -18.0873    1.0000 </r>
       <r>  -18.0873    1.0000 </r>
       <r>   -6.4159    1.0000 </r>
       <r>   -6.4159    1.0000 </r>
       <r>   -5.2242    1.0000 </r>
       <r>   -5.2242    1.0000 </r>
       <r>   -4.7844    1.0000 </r>
       <r>   -4.7844    1.0000 </r>
       <r>    4.2472    0.0000 </r>
       <r>    4.2472    0.0000 </r>
       <r>    5.7272    0.0000 </r>
       <r>    5.7272    0.0000 </r>
       <r>    6.5481    0.0000 </r>
       <r>    6.5481    0.0000 </r>
       <r>    7.8203    0.0000 </r>
       <r>    7.8203    0.0000 </r>
       <r>    8.9089    0.0000 </r>
       <r>    8.9089    0.0000 </r>
       <r>   10.3235    0.0000 </r>
       <r>   10.3235    0.0000 </r>
       <r>   11.4496    0.0000 </r>
       <r>   11.4496    0.0000 </r>
       <r>   14.0172    0.0000 </r>
       <r>   14.1912    0.0000 </r>
      </set>
      <set comment="kpoint 40">
       <r>  -18.0141    1.0000 </r>
       <r>  -18.0141    1.0000 </r>
       <r>   -6.7025    1.0000 </r>
       <r>   -6.7025    1.0000 </r>
       <r>   -5.4504    1.0000 </r>
       <r>   -5.4504    1.0000 </r>
       <r>   -4.8823    1.0000 </r>
       <r>   -4.8823    1.0000 </r>
       <r>    4.5644    0.0000 </r>
[...]
       <r>     6.4415     0.0000     0.0000 </r>
       <r>     6.5654     0.0000     0.0000 </r>
       <r>     6.6892     0.0000     0.0000 </r>
       <r>     6.8130     0.0000     0.0000 </r>
       <r>     6.9368     0.0000     0.0000 </r>
       <r>     7.0606     0.0000     0.0000 </r>
       <r>     7.1844     0.0000     0.0000 </r>
       <r>     7.3083     0.0000     0.0000 </r>
       <r>     7.4321     0.0000     0.0000 </r>
       <r>     7.5559     0.0000     0.0000 </r>
       <r>     7.6797     0.0000     0.0000 </r>
       <r>     7.8035     0.0000     0.0000 </r>
       <r>     7.9274     0.0000     0.0000 </r>
       <r>     8.0512     0.0000     0.0000 </r>
       <r>     8.1750     0.0000     0.0000 </r>
       <r>     8.2988     0.0000     0.0000 </r>
       <r>     8.4226     0.0000     0.0000 </r>
       <r>     8.5464     0.0000     0.0000 </r>
       <r>     8.6703     0.0000     0.0000 </r>
       <r>     8.7941     0.0000     0.0000 </r>
       <r>     8.9179     0.0000     0.0000 </r>
       <r>     9.0417     0.0000     0.0000 </r>
       <r>     9.1655     0.0000     0.0000 </r>
       <r>     9.2894     0.0000     0.0000 </r>
       <r>     9.4132     0.0000     0.0000 </r>
       <r>     9.5370     0.0000     0.0000 </r>
       <r>     9.6608     0.0000     0.0000 </r>
       <r>     9.7846     0.0000     0.0000 </r>
       <r>     9.9084     0.0000     0.0000 </r>
       <r>    10.0323     0.0000     0.0000 </r>
       <r>    10.1561     0.0000     0.0000 </r>
       <r>    10.2799     0.0000     0.0000 </r>
       <r>    10.4037     0.0000     0.0000 </r>
       <r>    10.5275     0.0000     0.0000 </r>
       <r>    10.6514     0.0000     0.0000 </r>
       <r>    10.7752     0.0000     0.0000 </r>
       <r>    10.8990     0.0000     0.0000 </r>
       <r>    11.0228     0.0000     0.0000 </r>
       <r>    11.1466     0.0000     0.0000 </r>
       <r>    11.2704     0.0000     0.0000 </r>
       <r>    11.3943     0.0000     0.0000 </r>
       <r>    11.5181     0.0000     0.0000 </r>
       <r>    11.6419     0.0000     0.0000 </r>
       <r>    11.7657     0.0000     0.0000 </r>
       <r>    11.8895     0.0000     0.0000 </r>
       <r>    12.0134     0.0000     0.0000 </r>
       <r>    12.1372     0.0000     0.0000 </r>
       <r>    12.2610     0.0000     0.0000 </r>
       <r>    12.3848     0.0000     0.0000 </r>
       <r>    12.5086     0.0000     0.0000 </r>
       <r>    12.6324     0.0000     0.0000 </r>
       <r>    12.7563     0.0000     0.0000 </r>
       <r>    12.8801     0.0000     0.0000 </r>
       <r>    13.0039     0.0000     0.0000 </r>
       <r>    13.1277     0.0000     0.0000 </r>
       <r>    13.2515     0.0000     0.0000 </r>
       <r>    13.3754     0.0000     0.0000 </r>
       <r>    13.4992     0.0000     0.0000 </r>
       <r>    13.6230     0.0000     0.0000 </r>
       <r>    13.7468     0.0000     0.0000 </r>
       <r>    13.8706     0.0000     0.0000 </r>
       <r>    13.9944     0.0000     0.0000 </r>
       <r>    14.1183     0.0000     0.0000 </r>
       <r>    14.2421     0.0000     0.0000 </r>
       <r>    14.3659     0.0000     0.0000 </r>
       <r>    14.4897     0.0000     0.0000 </r>
       <r>    14.6135     0.0000     0.0000 </r>
       <r>    14.7374     0.0000     0.0000 </r>
       <r>    14.8612     0.0000     0.0000 </r>
       <r>    14.9850     0.0000     0.0000 </r>
       <r>    15.1088     0.0000     0.0000 </r>
       <r>    15.2326     0.0000     0.0000 </r>
       <r>    15.3565     0.0000     0.0000 </r>
       <r>    15.4803     0.0000     0.0000 </r>
       <r>    15.6041     0.0000     0.0000 </r>
       <r>    15.7279     0.0000     0.0000 </r>
       <r>    15.8517     0.0000     0.0000 </r>
       <r>    15.9755     0.0000     0.0000 </r>
       <r>    16.0994     0.0000     0.0000 </r>
       <r>    16.2232     0.0000     0.0000 </r>
       <r>    16.3470     0.0000     0.0000 </r>
       <r>    16.4708     0.0000     0.0000 </r>
       <r>    16.5946     0.0000     0.0000 </r>
       <r>    16.7185     0.0000     0.0000 </r>
       <r>    16.8423     0.0000     0.0000 </r>
       <r>    16.9661     0.0000     0.0000 </r>
       <r>    17.0899     0.0000     0.0000 </r>
       <r>    17.2137     0.0000     0.0000 </r>
      </set>
      <set comment="spin 4">
       <r>   -19.9318     0.0000     0.0000 </r>
       <r>   -19.8079     0.0000     0.0000 </r>
       <r>   -19.6841     0.0000     0.0000 </r>
       <r>   -19.5603     0.0000     0.0000 </r>
       <r>   -19.4365     0.0000     0.0000 </r>
       <r>   -19.3127     0.0000     0.0000 </r>
       <r>   -19.1889     0.0000     0.0000 </r>
       <r>   -19.0650     0.0000     0.0000 </r>
       <r>   -18.9412     0.0000     0.0000 </r>
       <r>   -18.8174     0.0000     0.0000 </r>
       <r>   -18.6936     0.0000     0.0000 </r>
       <r>   -18.5698     0.0000     0.0000 </r>
       <r>   -18.4459     0.0000     0.0000 </r>
       <r>   -18.3221     0.0000     0.0000 </r>
       <r>   -18.1983     0.0000     0.0000 </r>
       <r>   -18.0745     0.0000     0.0000 </r>
       <r>   -17.9507     0.0000     0.0000 </r>
       <r>   -17.8269     0.0000     0.0000 </r>
       <r>   -17.7030     0.0000     0.0000 </r>
       <r>   -17.5792     0.0000     0.0000 </r>
       <r>   -17.4554     0.0000     0.0000 </r>
       <r>   -17.3316     0.0000     0.0000 </r>
       <r>   -17.2078     0.0000     0.0000 </r>
       <r>   -17.0839     0.0000     0.0000 </r>
       <r>   -16.9601     0.0000     0.0000 </r>
       <r>   -16.8363     0.0000     0.0000 </r>
       <r>   -16.7125     0.0000     0.0000 </r>
       <r>   -16.5887     0.0000     0.0000 </r>
       <r>   -16.4649     0.0000     0.0000 </r>
       <r>   -16.3410     0.0000     0.0000 </r>
       <r>   -16.2172     0.0000     0.0000 </r>
       <r>   -16.0934     0.0000     0.0000 </r>
       <r>   -15.9696     0.0000     0.0000 </r>
       <r>   -15.8458     0.0000     0.0000 </r>
       <r>   -15.7219     0.0000     0.0000 </r>
       <r>   -15.5981     0.0000     0.0000 </r>
       <r>   -15.4743     0.0000     0.0000 </r>
       <r>   -15.3505     0.0000     0.0000 </r>
       <r>   -15.2267     0.0000     0.0000 </r>
       <r>   -15.1029     0.0000     0.0000 </r>
       <r>   -14.9790     0.0000     0.0000 </r>
       <r>   -14.8552     0.0000     0.0000 </r>
       <r>   -14.7314     0.0000     0.0000 </r>
       <r>   -14.6076     0.0000     0.0000 </r>
       <r>   -14.4838     0.0000     0.0000 </r>
       <r>   -14.3599     0.0000     0.0000 </r>
       <r>   -14.2361     0.0000     0.0000 </r>
       <r>   -14.1123     0.0000     0.0000 </r>
       <r>   -13.9885     0.0000     0.0000 </r>
       <r>   -13.8647     0.0000     0.0000 </r>
       <r>   -13.7409     0.0000     0.0000 </r>
       <r>   -13.6170     0.0000     0.0000 </r>
       <r>   -13.4932     0.0000     0.0000 </r>
       <r>   -13.3694     0.0000     0.0000 </r>
       <r>   -13.2456     0.0000     0.0000 </r>
       <r>   -13.1218     0.0000     0.0000 </r>
       <r>   -12.9979     0.0000     0.0000 </r>
       <r>   -12.8741     0.0000     0.0000 </r>
       <r>   -12.7503     0.0000     0.0000 </r>
       <r>   -12.6265     0.0000     0.0000 </r>
       <r>   -12.5027     0.0000     0.0000 </r>
       <r>   -12.3788     0.0000     0.0000 </r>
       <r>   -12.2550     0.0000     0.0000 </r>
       <r>   -12.1312     0.0000     0.0000 </r>
       <r>   -12.0074     0.0000     0.0000 </r>
       <r>   -11.8836     0.0000     0.0000 </r>
       <r>   -11.7598     0.0000     0.0000 </r>
       <r>   -11.6359     0.0000     0.0000 </r>
       <r>   -11.5121     0.0000     0.0000 </r>
       <r>   -11.3883     0.0000     0.0000 </r>
       <r>   -11.2645     0.0000     0.0000 </r>
       <r>   -11.1407     0.0000     0.0000 </r>
       <r>   -11.0168     0.0000     0.0000 </r>
       <r>   -10.8930     0.0000     0.0000 </r>
       <r>   -10.7692     0.0000     0.0000 </r>
       <r>   -10.6454     0.0000     0.0000 </r>
       <r>   -10.5216     0.0000     0.0000 </r>
       <r>   -10.3978     0.0000     0.0000 </r>
       <r>   -10.2739     0.0000     0.0000 </r>
       <r>   -10.1501     0.0000     0.0000 </r>
       <r>   -10.0263     0.0000     0.0000 </r>
       <r>    -9.9025     0.0000     0.0000 </r>
       <r>    -9.7787     0.0000     0.0000 </r>
       <r>    -9.6548     0.0000     0.0000 </r>
       <r>    -9.5310     0.0000     0.0000 </r>
       <r>    -9.4072     0.0000     0.0000 </r>
       <r>    -9.2834     0.0000     0.0000 </r>
       <r>    -9.1596     0.0000     0.0000 </r>
       <r>    -9.0358     0.0000     0.0000 </r>
       <r>    -8.9119     0.0000     0.0000 </r>
       <r>    -8.7881     0.0000     0.0000 </r>
       <r>    -8.6643     0.0000     0.0000 </r>
       <r>    -8.5405     0.0000     0.0000 </r>
       <r>    -8.4167     0.0000     0.0000 </r>
       <r>    -8.2928     0.0000     0.0000 </r>
       <r>    -8.1690     0.0000     0.0000 </r>
       <r>    -8.0452     0.0000     0.0000 </r>
       <r>    -7.9214     0.0000     0.0000 </r>
       <r>    -7.7976     0.0000     0.0000 </r>
       <r>    -7.6738     0.0000     0.0000 </r>
       <r>    -7.5499     0.0000     0.0000 </r>
       <r>    -7.4261     0.0000     0.0000 </r>
       <r>    -7.3023     0.0000     0.0000 </r>
       <r>    -7.1785     0.0000     0.0000 </r>
       <r>    -7.0547     0.0000     0.0000 </r>
       <r>    -6.9308     0.0000     0.0000 </r>
       <r>    -6.8070     0.0000     0.0000 </r>
       <r>    -6.6832     0.0000     0.0000 </r>
       <r>    -6.5594     0.0000     0.0000 </r>
       <r>    -6.4356     0.0000     0.0000 </r>
       <r>    -6.3118     0.0000     0.0000 </r>
       <r>    -6.1879     0.0000     0.0000 </r>
       <r>    -6.0641     0.0000     0.0000 </r>
       <r>    -5.9403     0.0000     0.0000 </r>
       <r>    -5.8165     0.0000     0.0000 </r>
       <r>    -5.6927     0.0000     0.0000 </r>
       <r>    -5.5688     0.0000     0.0000 </r>
       <r>    -5.4450     0.0000     0.0000 </r>
       <r>    -5.3212     0.0000     0.0000 </r>
       <r>    -5.1974     0.0000     0.0000 </r>
       <r>    -5.0736     0.0000     0.0000 </r>
       <r>    -4.9498     0.0000     0.0000 </r>
       <r>    -4.8259     0.0000     0.0000 </r>
       <r>    -4.7021     0.0000     0.0000 </r>
       <r>    -4.5783     0.0000     0.0000 </r>
       <r>    -4.4545     0.0000     0.0000 </r>
       <r>    -4.3307     0.0000     0.0000 </r>
       <r>    -4.2068     0.0000     0.0000 </r>
       <r>    -4.0830     0.0000     0.0000 </r>
       <r>    -3.9592     0.0000     0.0000 </r>
       <r>    -3.8354     0.0000     0.0000 </r>
       <r>    -3.7116     0.0000     0.0000 </r>
       <r>    -3.5877     0.0000     0.0000 </r>
       <r>    -3.4639     0.0000     0.0000 </r>
       <r>    -3.3401     0.0000     0.0000 </r>
       <r>    -3.2163     0.0000     0.0000 </r>
       <r>    -3.0925     0.0000     0.0000 </r>
       <r>    -2.9687     0.0000     0.0000 </r>
       <r>    -2.8448     0.0000     0.0000 </r>
       <r>    -2.7210     0.0000     0.0000 </r>
       <r>    -2.5972     0.0000     0.0000 </r>
       <r>    -2.4734     0.0000     0.0000 </r>
       <r>    -2.3496     0.0000     0.0000 </r>
       <r>    -2.2257     0.0000     0.0000 </r>
       <r>    -2.1019     0.0000     0.0000 </r>
       <r>    -1.9781     0.0000     0.0000 </r>
       <r>    -1.8543     0.0000     0.0000 </r>
       <r>    -1.7305     0.0000     0.0000 </r>
       <r>    -1.6067     0.0000     0.0000 </r>
       <r>    -1.4828     0.0000     0.0000 </r>
       <r>    -1.3590     0.0000     0.0000 </r>
       <r>    -1.2352     0.0000     0.0000 </r>
       <r>    -1.1114     0.0000     0.0000 </r>
       <r>    -0.9876     0.0000     0.0000 </r>
       <r>    -0.8637     0.0000     0.0000 </r>
       <r>    -0.7399     0.0000     0.0000 </r>
       <r>    -0.6161     0.0000     0.0000 </r>
       <r>    -0.4923     0.0000     0.0000 </r>
       <r>    -0.3685     0.0000     0.0000 </r>
       <r>    -0.2447     0.0000     0.0000 </r>
       <r>    -0.1208     0.0000     0.0000 </r>
       <r>     0.0030     0.0000     0.0000 </r>
       <r>     0.1268     0.0000     0.0000 </r>
       <r>     0.2506     0.0000     0.0000 </r>
       <r>     0.3744     0.0000     0.0000 </r>
       <r>     0.4983     0.0000     0.0000 </r>
       <r>     0.6221     0.0000     0.0000 </r>
       <r>     0.7459     0.0000     0.0000 </r>
       <r>     0.8697     0.0000     0.0000 </r>
       <r>     0.9935     0.0000     0.0000 </r>
       <r>     1.1173     0.0000     0.0000 </r>
       <r>     1.2412     0.0000     0.0000 </r>
       <r>     1.3650     0.0000     0.0000 </r>
       <r>     1.4888     0.0000     0.0000 </r>
       <r>     1.6126     0.0000     0.0000 </r>
       <r>     1.7364     0.0000     0.0000 </r>
       <r>     1.8603     0.0000     0.0000 </r>
       <r>     1.9841     0.0000     0.0000 </r>
       <r>     2.1079     0.0000     0.0000 </r>
       <r>     2.2317     0.0000     0.0000 </r>
       <r>     2.3555     0.0000     0.0000 </r>
       <r>     2.4793     0.0000     0.0000 </r>
       <r>     2.6032     0.0000     0.0000 </r>
       <r>     2.7270     0.0000     0.0000 </r>
       <r>     2.8508     0.0000     0.0000 </r>
       <r>     2.9746     0.0000     0.0000 </r>
       <r>     3.0984     0.0000     0.0000 </r>
       <r>     3.2223     0.0000     0.0000 </r>
       <r>     3.3461     0.0000     0.0000 </r>
       <r>     3.4699     0.0000     0.0000 </r>
       <r>     3.5937     0.0000     0.0000 </r>
       <r>     3.7175     0.0000     0.0000 </r>
       <r>     3.8413     0.0000     0.0000 </r>
       <r>     3.9652     0.0000     0.0000 </r>
       <r>     4.0890     0.0000     0.0000 </r>
       <r>     4.2128     0.0000     0.0000 </r>
       <r>     4.3366     0.0000     0.0000 </r>
       <r>     4.4604     0.0000     0.0000 </r>
       <r>     4.5843     0.0000     0.0000 </r>
       <r>     4.7081     0.0000     0.0000 </r>
       <r>     4.8319     0.0000     0.0000 </r>
       <r>     4.9557     0.0000     0.0000 </r>
       <r>     5.0795     0.0000     0.0000 </r>
       <r>     5.2033     0.0000     0.0000 </r>
       <r>     5.3272     0.0000     0.0000 </r>
       <r>     5.4510     0.0000     0.0000 </r>
       <r>     5.5748     0.0000     0.0000 </r>
       <r>     5.6986     0.0000     0.0000 </r>
       <r>     5.8224     0.0000     0.0000 </r>
       <r>     5.9463     0.0000     0.0000 </r>
       <r>     6.0701     0.0000     0.0000 </r>
       <r>     6.1939     0.0000     0.0000 </r>
       <r>     6.3177     0.0000     0.0000 </r>
       <r>     6.4415     0.0000     0.0000 </r>
       <r>     6.5654     0.0000     0.0000 </r>
       <r>     6.6892     0.0000     0.0000 </r>
       <r>     6.8130     0.0000     0.0000 </r>
       <r>     6.9368     0.0000     0.0000 </r>
       <r>     7.0606     0.0000     0.0000 </r>
       <r>     7.1844     0.0000     0.0000 </r>
       <r>     7.3083     0.0000     0.0000 </r>
       <r>     7.4321     0.0000     0.0000 </r>
       <r>     7.5559     0.0000     0.0000 </r>
       <r>     7.6797     0.0000     0.0000 </r>
       <r>     7.8035     0.0000     0.0000 </r>
       <r>     7.9274     0.0000     0.0000 </r>
       <r>     8.0512     0.0000     0.0000 </r>
       <r>     8.1750     0.0000     0.0000 </r>
       <r>     8.2988     0.0000     0.0000 </r>
       <r>     8.4226     0.0000     0.0000 </r>
       <r>     8.5464     0.0000     0.0000 </r>
       <r>     8.6703     0.0000     0.0000 </r>
       <r>     8.7941     0.0000     0.0000 </r>
       <r>     8.9179     0.0000     0.0000 </r>
       <r>     9.0417     0.0000     0.0000 </r>
       <r>     9.1655     0.0000     0.0000 </r>
       <r>     9.2894     0.0000     0.0000 </r>
       <r>     9.4132     0.0000     0.0000 </r>
       <r>     9.5370     0.0000     0.0000 </r>
       <r>     9.6608     0.0000     0.0000 </r>
       <r>     9.7846     0.0000     0.0000 </r>
       <r>     9.9084     0.0000     0.0000 </r>
       <r>    10.0323     0.0000     0.0000 </r>
       <r>    10.1561     0.0000     0.0000 </r>
       <r>    10.2799     0.0000     0.0000 </r>
       <r>    10.4037     0.0000     0.0000 </r>
       <r>    10.5275     0.0000     0.0000 </r>
       <r>    10.6514     0.0000     0.0000 </r>
       <r>    10.7752     0.0000     0.0000 </r>
       <r>    10.8990     0.0000     0.0000 </r>
       <r>    11.0228     0.0000     0.0000 </r>
       <r>    11.1466     0.0000     0.0000 </r>
       <r>    11.2704     0.0000     0.0000 </r>
       <r>    11.3943     0.0000     0.0000 </r>
       <r>    11.5181     0.0000     0.0000 </r>
       <r>    11.6419     0.0000     0.0000 </r>
       <r>    11.7657     0.0000     0.0000 </r>
       <r>    11.8895     0.0000     0.0000 </r>
       <r>    12.0134     0.0000     0.0000 </r>
       <r>    12.1372     0.0000     0.0000 </r>
       <r>    12.2610     0.0000     0.0000 </r>
       <r>    12.3848     0.0000     0.0000 </r>
       <r>    12.5086     0.0000     0.0000 </r>
       <r>    12.6324     0.0000     0.0000 </r>
       <r>    12.7563     0.0000     0.0000 </r>
       <r>    12.8801     0.0000     0.0000 </r>
       <r>    13.0039     0.0000     0.0000 </r>
       <r>    13.1277     0.0000     0.0000 </r>
       <r>    13.2515     0.0000     0.0000 </r>
       <r>    13.3754     0.0000     0.0000 </r>
       <r>    13.4992     0.0000     0.0000 </r>
       <r>    13.6230     0.0000     0.0000 </r>
       <r>    13.7468     0.0000     0.0000 </r>
       <r>    13.8706     0.0000     0.0000 </r>
       <r>    13.9944     0.0000     0.0000 </r>
       <r>    14.1183     0.0000     0.0000 </r>
       <r>    14.2421     0.0000     0.0000 </r>
       <r>    14.3659     0.0000     0.0000 </r>
       <r>    14.4897     0.0000     0.0000 </r>
       <r>    14.6135     0.0000     0.0000 </r>
       <r>    14.7374     0.0000     0.0000 </r>
       <r>    14.8612     0.0000     0.0000 </r>
       <r>    14.9850     0.0000     0.0000 </r>
       <r>    15.1088     0.0000     0.0000 </r>
       <r>    15.2326     0.0000     0.0000 </r>
       <r>    15.3565     0.0000     0.0000 </r>
       <r>    15.4803     0.0000     0.0000 </r>
       <r>    15.6041     0.0000     0.0000 </r>
       <r>    15.7279     0.0000     0.0000 </r>
       <r>    15.8517     0.0000     0.0000 </r>
       <r>    15.9755     0.0000     0.0000 </r>
       <r>    16.0994     0.0000     0.0000 </r>
       <r>    16.2232     0.0000     0.0000 </r>
       <r>    16.3470     0.0000     0.0000 </r>
       <r>    16.4708     0.0000     0.0000 </r>
       <r>    16.5946     0.0000     0.0000 </r>
       <r>    16.7185     0.0000     0.0000 </r>
       <r>    16.8423     0.0000     0.0000 </r>
       <r>    16.9661     0.0000     0.0000 </r>
       <r>    17.0899     0.0000     0.0000 </r>
       <r>    17.2137     0.0000     0.0000 </r>
      </set>
     </set>
    </array>
   </total>
  </dos>
 </calculation>
 <structure name="finalpos" >
  <crystal>
   <varray name="basis" >
    <v>       4.43220013       0.00000000       0.00000000 </v>
    <v>       2.21610006       3.83839790      -0.00000000 </v>
    <v>       2.21610006       1.27946597       3.61887625 </v>
   </varray>
   <i name="volume">     61.56630471 </i>
   <varray name="rec_basis" >
    <v>       0.22562158      -0.13026268      -0.09210962 </v>
    <v>       0.00000000       0.26052536      -0.09210962 </v>
    <v>      -0.00000000       0.00000000       0.27632887 </v>
   </varray>
  </crystal>
  <varray name="positions" >
   <v>       0.00000000       0.00000000       0.00000000 </v>
  </varray>
  <varray name="velocities" >
   <v>       0.00000000       0.00000000       0.00000000 </v>
  </varray>
 </structure>
</modeling>
