 vasp.5.4.4.18Apr17-6-g9f103f2a35 (build Nov 03 2018 10:20:46) complex          
  
 executed on             LinuxIFC date 2018.12.10  10:51:22
 running on   64 total cores
 distrk:  each k-point on    8 cores,    8 groups
 distr:  one band on NCORES_PER_BAND=   4 cores,    2 groups


--------------------------------------------------------------------------------------------------------


 INCAR:
 POTCAR:    PAW_PBE Rn_d_GW 14Apr2014             

 ----------------------------------------------------------------------------- 
|                                                                             |
|           W    W    AA    RRRRR   N    N  II  N    N   GGGG   !!!           |
|           W    W   A  A   R    R  NN   N  II  NN   N  G    G  !!!           |
|           W    W  A    A  R    R  N N  N  II  N N  N  G       !!!           |
|           W WW W  AAAAAA  RRRRR   N  N N  II  N  N N  G  GGG   !            |
|           WW  WW  A    A  R   R   N   NN  II  N   NN  G    G                |
|           W    W  A    A  R    R  N    N  II  N    N   GGGG   !!!           |
|                                                                             |
|      You have enabled k-point parallelism (KPAR>1).                         |
|      This developmental code was originally  written by Paul Kent at ORNL,  |
|      and carefully double checked in Vienna.                                |
|      GW as well as linear response parallelism added by Martijn Marsman     |
|      and Georg Kresse.                                                      |
|      Carefully verify results versus KPAR=1.                                |
|      Report problems to Paul Kent and Vienna.                               |
|                                                                             |
 ----------------------------------------------------------------------------- 

 POTCAR:    PAW_PBE Rn_d_GW 14Apr2014             
   VRHFIN =Rn:                                                                  
   LEXCH  = PE                                                                  
   EATOM  =  3030.7130 eV,  222.7511 Ry                                         
                                                                                
   TITEL  = PAW_PBE Rn_d_GW 14Apr2014                                           
   LULTRA =        F    use ultrasoft PP ?                                      
   IUNSCR =        1    unscreen: 0-lin 1-nonlin 2-no                           
   RPACOR =    1.800    partial core radius                                     
   POMASS =  220.170; ZVAL   =   18.000    mass and valenz                      
   RCORE  =    2.500    outmost cutoff radius                                   
   RWIGS  =    2.500; RWIGS  =    1.323    wigner-seitz radius (au A)           
   ENMAX  =  268.495; ENMIN  =  201.371 eV                                      
   RCLOC  =    1.808    cutoff for local pot                                    
   LCOR   =        T    correct aug charges                                     
   LPAW   =        T    paw PP                                                  
   EAUG   =  715.607                                                            
   DEXC   =    0.000                                                            
   RMAX   =    2.556    core radius for proj-oper                               
   RAUG   =    1.300    factor for augmentation sphere                          
   RDEP   =    2.531    radius for radial grids                                 
   RDEPT  =    1.947    core radius for aug-charge                              
                                                                                
   Atomic configuration                                                         
   16 entries                                                                   
     n  l   j            E        occ.                                          
     1  0  0.50    -98595.8050   2.0000                                         
     2  0  0.50    -17950.5082   2.0000                                         
     2  1  1.50    -15211.8638   6.0000                                         
     3  0  0.50     -4402.4302   2.0000                                         
     3  1  1.50     -3628.5852   6.0000                                         
     3  2  2.50     -2889.7488  10.0000                                         
     4  0  0.50     -1049.6607   2.0000                                         
     4  1  1.50      -796.4440   6.0000                                         
     4  2  2.50      -519.0207  10.0000                                         
     4  3  3.50      -216.6456  14.0000                                         
     5  0  0.50      -201.5459   2.0000                                         
     5  1  1.50      -127.7069   6.0000                                         
     5  2  2.50       -46.2584  10.0000                                         
     6  0  0.50       -21.8730   2.0000                                         
     6  1  0.50        -7.7135   6.0000                                         
     5  3  2.50        -2.7212   0.0000                                         
   Description                                                                  
     l       E           TYP  RCUT    TYP  RCUT                                 
     2    -46.2583946     23  2.400                                             
     2    -47.6189772     23  2.400                                             
     2     40.8174780     23  2.400                                             
     0    -21.8730472     23  1.700                                             
     0     81.6349560     23  1.700                                             
     1     -7.7135306     23  2.300                                             
     1     68.0291300     23  2.300                                             
     3      6.8029130     23  2.500                                             
     3     27.2116520     23  2.500                                             
  local pseudopotential read in
  partial core-charges read in
  partial kinetic energy density read in
  kinetic energy density of atom read in
  atomic valenz-charges read in
  non local Contribution for L=           2  read in
    real space projection operators read in
  non local Contribution for L=           2  read in
    real space projection operators read in
  non local Contribution for L=           2  read in
    real space projection operators read in
  non local Contribution for L=           0  read in
    real space projection operators read in
  non local Contribution for L=           0  read in
    real space projection operators read in
  non local Contribution for L=           1  read in
    real space projection operators read in
  non local Contribution for L=           1  read in
    real space projection operators read in
  non local Contribution for L=           3  read in
    real space projection operators read in
  non local Contribution for L=           3  read in
    real space projection operators read in
    PAW grid and wavefunctions read in
 
   number of l-projection  operators is LMAX  =           9
   number of lm-projection operators is LMMAX =          37
 
  PAW_PBE Rn_d_GW 14Apr2014             :
 energy of atom  1       EATOM=-3030.7130
 kinetic energy error for atom=    0.0889 (will be added to EATOM!!)
 
 
 POSCAR: Rn_FCC                                  
  positions in direct lattice
  velocities in cartesian coordinates
 exchange correlation table for  LEXCH =        8
   RHO(1)=    0.500       N(1)  =     2000
   RHO(2)=  100.500       N(2)  =     4000
 


--------------------------------------------------------------------------------------------------------


 ion  position               nearest neighbor table
   1  0.000  0.000  0.000-
 

IMPORTANT INFORMATION: All symmetrisations will be switched off!
NOSYMM: (Re-)initialisation of all symmetry stuff for point group C_1.

 
 
 KPOINTS: k-points                                

Automatic generation of k-mesh.
Space group operators:
 irot       det(A)        alpha          n_x          n_y          n_z        tau_x        tau_y        tau_z
    1     1.000000     0.000000     1.000000     0.000000     0.000000     0.000000     0.000000     0.000000
 
 Subroutine IBZKPT returns following result:
 ===========================================
 
 Found    216 irreducible k-points:
 
 Following reciprocal coordinates:
            Coordinates               Weight
  0.000000  0.000000  0.000000      1.000000
  0.166667  0.000000  0.000000      1.000000
  0.333333  0.000000  0.000000      1.000000
  0.500000  0.000000  0.000000      1.000000
 -0.333333 -0.000000 -0.000000      1.000000
 -0.166667 -0.000000 -0.000000      1.000000
  0.000000  0.166667 -0.000000      1.000000
  0.166667  0.166667  0.000000      1.000000
  0.333333  0.166667  0.000000      1.000000
  0.500000  0.166667  0.000000      1.000000
 -0.333333  0.166667 -0.000000      1.000000
 -0.166667  0.166667 -0.000000      1.000000
  0.000000  0.333333  0.000000      1.000000
  0.166667  0.333333  0.000000      1.000000
  0.333333  0.333333  0.000000      1.000000
  0.500000  0.333333  0.000000      1.000000
 -0.333333  0.333333 -0.000000      1.000000
 -0.166667  0.333333 -0.000000      1.000000
  0.000000  0.500000  0.000000      1.000000
  0.166667  0.500000  0.000000      1.000000
  0.333333  0.500000  0.000000      1.000000
  0.500000  0.500000  0.000000      1.000000
 -0.333333  0.500000 -0.000000      1.000000
 -0.166667  0.500000 -0.000000      1.000000
  0.000000 -0.333333  0.000000      1.000000
  0.166667 -0.333333  0.000000      1.000000
  0.333333 -0.333333  0.000000      1.000000
  0.500000 -0.333333  0.000000      1.000000
 -0.333333 -0.333333 -0.000000      1.000000
 -0.166667 -0.333333 -0.000000      1.000000
  0.000000 -0.166667  0.000000      1.000000
  0.166667 -0.166667  0.000000      1.000000
  0.333333 -0.166667  0.000000      1.000000
  0.500000 -0.166667  0.000000      1.000000
 -0.333333 -0.166667 -0.000000      1.000000
 -0.166667 -0.166667 -0.000000      1.000000
  0.000000 -0.000000  0.166667      1.000000
  0.166667  0.000000  0.166667      1.000000
  0.333333  0.000000  0.166667      1.000000
  0.500000  0.000000  0.166667      1.000000
 -0.333333 -0.000000  0.166667      1.000000
 -0.166667 -0.000000  0.166667      1.000000
  0.000000  0.166667  0.166667      1.000000
  0.166667  0.166667  0.166667      1.000000
  0.333333  0.166667  0.166667      1.000000
  0.500000  0.166667  0.166667      1.000000
 -0.333333  0.166667  0.166667      1.000000
 -0.166667  0.166667  0.166667      1.000000
  0.000000  0.333333  0.166667      1.000000
  0.166667  0.333333  0.166667      1.000000
  0.333333  0.333333  0.166667      1.000000
  0.500000  0.333333  0.166667      1.000000
 -0.333333  0.333333  0.166667      1.000000
 -0.166667  0.333333  0.166667      1.000000
  0.000000  0.500000  0.166667      1.000000
  0.166667  0.500000  0.166667      1.000000
  0.333333  0.500000  0.166667      1.000000
  0.500000  0.500000  0.166667      1.000000
 -0.333333  0.500000  0.166667      1.000000
 -0.166667  0.500000  0.166667      1.000000
 -0.000000 -0.333333  0.166667      1.000000
  0.166667 -0.333333  0.166667      1.000000
  0.333333 -0.333333  0.166667      1.000000
  0.500000 -0.333333  0.166667      1.000000
 -0.333333 -0.333333  0.166667      1.000000
 -0.166667 -0.333333  0.166667      1.000000
 -0.000000 -0.166667  0.166667      1.000000
  0.166667 -0.166667  0.166667      1.000000
  0.333333 -0.166667  0.166667      1.000000
  0.500000 -0.166667  0.166667      1.000000
 -0.333333 -0.166667  0.166667      1.000000
 -0.166667 -0.166667  0.166667      1.000000
 -0.000000 -0.000000  0.333333      1.000000
  0.166667  0.000000  0.333333      1.000000
  0.333333  0.000000  0.333333      1.000000
  0.500000  0.000000  0.333333      1.000000
 -0.333333 -0.000000  0.333333      1.000000
 -0.166667 -0.000000  0.333333      1.000000
 -0.000000  0.166667  0.333333      1.000000
  0.166667  0.166667  0.333333      1.000000
  0.333333  0.166667  0.333333      1.000000
  0.500000  0.166667  0.333333      1.000000
 -0.333333  0.166667  0.333333      1.000000
 -0.166667  0.166667  0.333333      1.000000
 -0.000000  0.333333  0.333333      1.000000
  0.166667  0.333333  0.333333      1.000000
  0.333333  0.333333  0.333333      1.000000
  0.500000  0.333333  0.333333      1.000000
 -0.333333  0.333333  0.333333      1.000000
 -0.166667  0.333333  0.333333      1.000000
  0.000000  0.500000  0.333333      1.000000
  0.166667  0.500000  0.333333      1.000000
  0.333333  0.500000  0.333333      1.000000
  0.500000  0.500000  0.333333      1.000000
 -0.333333  0.500000  0.333333      1.000000
 -0.166667  0.500000  0.333333      1.000000
 -0.000000 -0.333333  0.333333      1.000000
  0.166667 -0.333333  0.333333      1.000000
  0.333333 -0.333333  0.333333      1.000000
  0.500000 -0.333333  0.333333      1.000000
 -0.333333 -0.333333  0.333333      1.000000
 -0.166667 -0.333333  0.333333      1.000000
 -0.000000 -0.166667  0.333333      1.000000
  0.166667 -0.166667  0.333333      1.000000
  0.333333 -0.166667  0.333333      1.000000
  0.500000 -0.166667  0.333333      1.000000
 -0.333333 -0.166667  0.333333      1.000000
 -0.166667 -0.166667  0.333333      1.000000
 -0.000000 -0.000000  0.500000      1.000000
  0.166667  0.000000  0.500000      1.000000
  0.333333  0.000000  0.500000      1.000000
  0.500000  0.000000  0.500000      1.000000
 -0.333333 -0.000000  0.500000      1.000000
 -0.166667 -0.000000  0.500000      1.000000
 -0.000000  0.166667  0.500000      1.000000
  0.166667  0.166667  0.500000      1.000000
  0.333333  0.166667  0.500000      1.000000
  0.500000  0.166667  0.500000      1.000000
 -0.333333  0.166667  0.500000      1.000000
 -0.166667  0.166667  0.500000      1.000000
 -0.000000  0.333333  0.500000      1.000000
  0.166667  0.333333  0.500000      1.000000
  0.333333  0.333333  0.500000      1.000000
  0.500000  0.333333  0.500000      1.000000
 -0.333333  0.333333  0.500000      1.000000
 -0.166667  0.333333  0.500000      1.000000
 -0.000000  0.500000  0.500000      1.000000
  0.166667  0.500000  0.500000      1.000000
  0.333333  0.500000  0.500000      1.000000
  0.500000  0.500000  0.500000      1.000000
 -0.333333  0.500000  0.500000      1.000000
 -0.166667  0.500000  0.500000      1.000000
  0.000000 -0.333333  0.500000      1.000000
  0.166667 -0.333333  0.500000      1.000000
  0.333333 -0.333333  0.500000      1.000000
  0.500000 -0.333333  0.500000      1.000000
 -0.333333 -0.333333  0.500000      1.000000
 -0.166667 -0.333333  0.500000      1.000000
  0.000000 -0.166667  0.500000      1.000000
  0.166667 -0.166667  0.500000      1.000000
  0.333333 -0.166667  0.500000      1.000000
  0.500000 -0.166667  0.500000      1.000000
 -0.333333 -0.166667  0.500000      1.000000
 -0.166667 -0.166667  0.500000      1.000000
  0.000000  0.000000 -0.333333      1.000000
  0.166667  0.000000 -0.333333      1.000000
  0.333333  0.000000 -0.333333      1.000000
  0.500000  0.000000 -0.333333      1.000000
 -0.333333 -0.000000 -0.333333      1.000000
 -0.166667 -0.000000 -0.333333      1.000000
  0.000000  0.166667 -0.333333      1.000000
  0.166667  0.166667 -0.333333      1.000000
  0.333333  0.166667 -0.333333      1.000000
  0.500000  0.166667 -0.333333      1.000000
 -0.333333  0.166667 -0.333333      1.000000
 -0.166667  0.166667 -0.333333      1.000000
  0.000000  0.333333 -0.333333      1.000000
  0.166667  0.333333 -0.333333      1.000000
  0.333333  0.333333 -0.333333      1.000000
  0.500000  0.333333 -0.333333      1.000000
 -0.333333  0.333333 -0.333333      1.000000
 -0.166667  0.333333 -0.333333      1.000000
  0.000000  0.500000 -0.333333      1.000000
  0.166667  0.500000 -0.333333      1.000000
  0.333333  0.500000 -0.333333      1.000000
  0.500000  0.500000 -0.333333      1.000000
 -0.333333  0.500000 -0.333333      1.000000
 -0.166667  0.500000 -0.333333      1.000000
  0.000000 -0.333333 -0.333333      1.000000
  0.166667 -0.333333 -0.333333      1.000000
  0.333333 -0.333333 -0.333333      1.000000
  0.500000 -0.333333 -0.333333      1.000000
 -0.333333 -0.333333 -0.333333      1.000000
 -0.166667 -0.333333 -0.333333      1.000000
  0.000000 -0.166667 -0.333333      1.000000
  0.166667 -0.166667 -0.333333      1.000000
  0.333333 -0.166667 -0.333333      1.000000
  0.500000 -0.166667 -0.333333      1.000000
 -0.333333 -0.166667 -0.333333      1.000000
 -0.166667 -0.166667 -0.333333      1.000000
  0.000000  0.000000 -0.166667      1.000000
  0.166667  0.000000 -0.166667      1.000000
  0.333333  0.000000 -0.166667      1.000000
  0.500000  0.000000 -0.166667      1.000000
 -0.333333 -0.000000 -0.166667      1.000000
 -0.166667 -0.000000 -0.166667      1.000000
  0.000000  0.166667 -0.166667      1.000000
  0.166667  0.166667 -0.166667      1.000000
  0.333333  0.166667 -0.166667      1.000000
  0.500000  0.166667 -0.166667      1.000000
 -0.333333  0.166667 -0.166667      1.000000
 -0.166667  0.166667 -0.166667      1.000000
  0.000000  0.333333 -0.166667      1.000000
  0.166667  0.333333 -0.166667      1.000000
  0.333333  0.333333 -0.166667      1.000000
  0.500000  0.333333 -0.166667      1.000000
 -0.333333  0.333333 -0.166667      1.000000
 -0.166667  0.333333 -0.166667      1.000000
 -0.000000  0.500000 -0.166667      1.000000
  0.166667  0.500000 -0.166667      1.000000
  0.333333  0.500000 -0.166667      1.000000
  0.500000  0.500000 -0.166667      1.000000
 -0.333333  0.500000 -0.166667      1.000000
 -0.166667  0.500000 -0.166667      1.000000
 -0.000000 -0.333333 -0.166667      1.000000
  0.166667 -0.333333 -0.166667      1.000000
  0.333333 -0.333333 -0.166667      1.000000
  0.500000 -0.333333 -0.166667      1.000000
 -0.333333 -0.333333 -0.166667      1.000000
 -0.166667 -0.333333 -0.166667      1.000000
 -0.000000 -0.166667 -0.166667      1.000000
  0.166667 -0.166667 -0.166667      1.000000
  0.333333 -0.166667 -0.166667      1.000000
  0.500000 -0.166667 -0.166667      1.000000
 -0.333333 -0.166667 -0.166667      1.000000
 -0.166667 -0.166667 -0.166667      1.000000
 
 Following cartesian coordinates:
            Coordinates               Weight
  0.000000  0.000000  0.000000      1.000000
  0.036869 -0.021286 -0.015052      1.000000
  0.073737 -0.042572 -0.030103      1.000000
  0.110606 -0.063858 -0.045155      1.000000
 -0.073737  0.042572  0.030103      1.000000
 -0.036869  0.021286  0.015052      1.000000
  0.000000  0.042572 -0.015052      1.000000
  0.036869  0.021286 -0.030103      1.000000
  0.073737  0.000000 -0.045155      1.000000
  0.110606 -0.021286 -0.060206      1.000000
 -0.073737  0.085144  0.015052      1.000000
 -0.036869  0.063858  0.000000      1.000000
  0.000000  0.085144 -0.030103      1.000000
  0.036869  0.063858 -0.045155      1.000000
  0.073737  0.042572 -0.060206      1.000000
  0.110606  0.021286 -0.075258      1.000000
 -0.073737  0.127716  0.000000      1.000000
 -0.036869  0.106430 -0.015052      1.000000
  0.000000  0.127716 -0.045155      1.000000
  0.036869  0.106430 -0.060206      1.000000
  0.073737  0.085144 -0.075258      1.000000
  0.110606  0.063858 -0.090309      1.000000
 -0.073737  0.170289 -0.015052      1.000000
 -0.036869  0.149002 -0.030103      1.000000
 -0.000000 -0.085144  0.030103      1.000000
  0.036869 -0.106430  0.015052      1.000000
  0.073737 -0.127716 -0.000000      1.000000
  0.110606 -0.149002 -0.015052      1.000000
 -0.073737 -0.042572  0.060206      1.000000
 -0.036869 -0.063858  0.045155      1.000000
 -0.000000 -0.042572  0.015052      1.000000
  0.036869 -0.063858 -0.000000      1.000000
  0.073737 -0.085144 -0.015052      1.000000
  0.110606 -0.106430 -0.030103      1.000000
 -0.073737 -0.000000  0.045155      1.000000
 -0.036869 -0.021286  0.030103      1.000000
 -0.000000  0.000000  0.045155      1.000000
  0.036869 -0.021286  0.030103      1.000000
  0.073737 -0.042572  0.015052      1.000000
  0.110606 -0.063858 -0.000000      1.000000
 -0.073737  0.042572  0.075258      1.000000
 -0.036869  0.021286  0.060206      1.000000
 -0.000000  0.042572  0.030103      1.000000
  0.036869  0.021286  0.015052      1.000000
  0.073737  0.000000  0.000000      1.000000
  0.110606 -0.021286 -0.015052      1.000000
 -0.073737  0.085144  0.060206      1.000000
 -0.036869  0.063858  0.045155      1.000000
 -0.000000  0.085144  0.015052      1.000000
  0.036869  0.063858  0.000000      1.000000
  0.073737  0.042572 -0.015052      1.000000
  0.110606  0.021286 -0.030103      1.000000
 -0.073737  0.127716  0.045155      1.000000
 -0.036869  0.106430  0.030103      1.000000
 -0.000000  0.127716  0.000000      1.000000
  0.036869  0.106430 -0.015052      1.000000
  0.073737  0.085144 -0.030103      1.000000
  0.110606  0.063858 -0.045155      1.000000
 -0.073737  0.170289  0.030103      1.000000
 -0.036869  0.149002  0.015052      1.000000
 -0.000000 -0.085144  0.075258      1.000000
  0.036869 -0.106430  0.060206      1.000000
  0.073737 -0.127716  0.045155      1.000000
  0.110606 -0.149002  0.030103      1.000000
 -0.073737 -0.042572  0.105361      1.000000
 -0.036869 -0.063858  0.090309      1.000000
 -0.000000 -0.042572  0.060206      1.000000
  0.036869 -0.063858  0.045155      1.000000
  0.073737 -0.085144  0.030103      1.000000
  0.110606 -0.106430  0.015052      1.000000
 -0.073737 -0.000000  0.090309      1.000000
 -0.036869 -0.021286  0.075258      1.000000
 -0.000000  0.000000  0.090309      1.000000
  0.036869 -0.021286  0.075258      1.000000
  0.073737 -0.042572  0.060206      1.000000
  0.110606 -0.063858  0.045155      1.000000
 -0.073737  0.042572  0.120412      1.000000
 -0.036869  0.021286  0.105361      1.000000
 -0.000000  0.042572  0.075258      1.000000
  0.036869  0.021286  0.060206      1.000000
  0.073737  0.000000  0.045155      1.000000
  0.110606 -0.021286  0.030103      1.000000
 -0.073737  0.085144  0.105361      1.000000
 -0.036869  0.063858  0.090309      1.000000
 -0.000000  0.085144  0.060206      1.000000
  0.036869  0.063858  0.045155      1.000000
  0.073737  0.042572  0.030103      1.000000
  0.110606  0.021286  0.015052      1.000000
 -0.073737  0.127716  0.090309      1.000000
 -0.036869  0.106430  0.075258      1.000000
 -0.000000  0.127716  0.045155      1.000000
  0.036869  0.106430  0.030103      1.000000
  0.073737  0.085144  0.015052      1.000000
  0.110606  0.063858  0.000000      1.000000
 -0.073737  0.170289  0.075258      1.000000
 -0.036869  0.149002  0.060206      1.000000
 -0.000000 -0.085144  0.120412      1.000000
  0.036869 -0.106430  0.105361      1.000000
  0.073737 -0.127716  0.090309      1.000000
  0.110606 -0.149002  0.075258      1.000000
 -0.073737 -0.042572  0.150515      1.000000
 -0.036869 -0.063858  0.135464      1.000000
 -0.000000 -0.042572  0.105361      1.000000
  0.036869 -0.063858  0.090309      1.000000
  0.073737 -0.085144  0.075258      1.000000
  0.110606 -0.106430  0.060206      1.000000
 -0.073737 -0.000000  0.135464      1.000000
 -0.036869 -0.021286  0.120412      1.000000
 -0.000000  0.000000  0.135464      1.000000
  0.036869 -0.021286  0.120412      1.000000
  0.073737 -0.042572  0.105361      1.000000
  0.110606 -0.063858  0.090309      1.000000
 -0.073737  0.042572  0.165567      1.000000
 -0.036869  0.021286  0.150515      1.000000
 -0.000000  0.042572  0.120412      1.000000
  0.036869  0.021286  0.105361      1.000000
  0.073737  0.000000  0.090309      1.000000
  0.110606 -0.021286  0.075258      1.000000
 -0.073737  0.085144  0.150515      1.000000
 -0.036869  0.063858  0.135464      1.000000
 -0.000000  0.085144  0.105361      1.000000
  0.036869  0.063858  0.090309      1.000000
  0.073737  0.042572  0.075258      1.000000
  0.110606  0.021286  0.060206      1.000000
 -0.073737  0.127716  0.135464      1.000000
 -0.036869  0.106430  0.120412      1.000000
 -0.000000  0.127716  0.090309      1.000000
  0.036869  0.106430  0.075258      1.000000
  0.073737  0.085144  0.060206      1.000000
  0.110606  0.063858  0.045155      1.000000
 -0.073737  0.170289  0.120412      1.000000
 -0.036869  0.149002  0.105361      1.000000
 -0.000000 -0.085144  0.165567      1.000000
  0.036869 -0.106430  0.150515      1.000000
  0.073737 -0.127716  0.135464      1.000000
  0.110606 -0.149002  0.120412      1.000000
 -0.073737 -0.042572  0.195670      1.000000
 -0.036869 -0.063858  0.180618      1.000000
 -0.000000 -0.042572  0.150515      1.000000
  0.036869 -0.063858  0.135464      1.000000
  0.073737 -0.085144  0.120412      1.000000
  0.110606 -0.106430  0.105361      1.000000
 -0.073737 -0.000000  0.180618      1.000000
 -0.036869 -0.021286  0.165567      1.000000
  0.000000 -0.000000 -0.090309      1.000000
  0.036869 -0.021286 -0.105361      1.000000
  0.073737 -0.042572 -0.120412      1.000000
  0.110606 -0.063858 -0.135464      1.000000
 -0.073737  0.042572 -0.060206      1.000000
 -0.036869  0.021286 -0.075258      1.000000
  0.000000  0.042572 -0.105361      1.000000
  0.036869  0.021286 -0.120412      1.000000
  0.073737  0.000000 -0.135464      1.000000
  0.110606 -0.021286 -0.150515      1.000000
 -0.073737  0.085144 -0.075258      1.000000
 -0.036869  0.063858 -0.090309      1.000000
  0.000000  0.085144 -0.120412      1.000000
  0.036869  0.063858 -0.135464      1.000000
  0.073737  0.042572 -0.150515      1.000000
  0.110606  0.021286 -0.165567      1.000000
 -0.073737  0.127716 -0.090309      1.000000
 -0.036869  0.106430 -0.105361      1.000000
  0.000000  0.127716 -0.135464      1.000000
  0.036869  0.106430 -0.150515      1.000000
  0.073737  0.085144 -0.165567      1.000000
  0.110606  0.063858 -0.180618      1.000000
 -0.073737  0.170289 -0.105361      1.000000
 -0.036869  0.149002 -0.120412      1.000000
  0.000000 -0.085144 -0.060206      1.000000
  0.036869 -0.106430 -0.075258      1.000000
  0.073737 -0.127716 -0.090309      1.000000
  0.110606 -0.149002 -0.105361      1.000000
 -0.073737 -0.042572 -0.030103      1.000000
 -0.036869 -0.063858 -0.045155      1.000000
  0.000000 -0.042572 -0.075258      1.000000
  0.036869 -0.063858 -0.090309      1.000000
  0.073737 -0.085144 -0.105361      1.000000
  0.110606 -0.106430 -0.120412      1.000000
 -0.073737 -0.000000 -0.045155      1.000000
 -0.036869 -0.021286 -0.060206      1.000000
  0.000000 -0.000000 -0.045155      1.000000
  0.036869 -0.021286 -0.060206      1.000000
  0.073737 -0.042572 -0.075258      1.000000
  0.110606 -0.063858 -0.090309      1.000000
 -0.073737  0.042572 -0.015052      1.000000
 -0.036869  0.021286 -0.030103      1.000000
  0.000000  0.042572 -0.060206      1.000000
  0.036869  0.021286 -0.075258      1.000000
  0.073737  0.000000 -0.090309      1.000000
  0.110606 -0.021286 -0.105361      1.000000
 -0.073737  0.085144 -0.030103      1.000000
 -0.036869  0.063858 -0.045155      1.000000
  0.000000  0.085144 -0.075258      1.000000
  0.036869  0.063858 -0.090309      1.000000
  0.073737  0.042572 -0.105361      1.000000
  0.110606  0.021286 -0.120412      1.000000
 -0.073737  0.127716 -0.045155      1.000000
 -0.036869  0.106430 -0.060206      1.000000
  0.000000  0.127716 -0.090309      1.000000
  0.036869  0.106430 -0.105361      1.000000
  0.073737  0.085144 -0.120412      1.000000
  0.110606  0.063858 -0.135464      1.000000
 -0.073737  0.170289 -0.060206      1.000000
 -0.036869  0.149002 -0.075258      1.000000
  0.000000 -0.085144 -0.015052      1.000000
  0.036869 -0.106430 -0.030103      1.000000
  0.073737 -0.127716 -0.045155      1.000000
  0.110606 -0.149002 -0.060206      1.000000
 -0.073737 -0.042572  0.015052      1.000000
 -0.036869 -0.063858 -0.000000      1.000000
  0.000000 -0.042572 -0.030103      1.000000
  0.036869 -0.063858 -0.045155      1.000000
  0.073737 -0.085144 -0.060206      1.000000
  0.110606 -0.106430 -0.075258      1.000000
 -0.073737 -0.000000 -0.000000      1.000000
 -0.036869 -0.021286 -0.015052      1.000000
 


--------------------------------------------------------------------------------------------------------




 Dimension of arrays:
   k-points           NKPTS =    216   k-points in BZ     NKDIM =    216   number of bands    NBANDS=    256
   number of dos      NEDOS =    301   number of ions     NIONS =      1
   non local maximal  LDIM  =      9   non local SUM 2l+1 LMDIM =     37
   total plane-waves  NPLWV =  21952
   max r-space proj   IRMAX =      1   max aug-charges    IRDMAX= 111272
   dimension x,y,z NGX =    28 NGY =   28 NGZ =   28
   dimension x,y,z NGXF=    56 NGYF=   56 NGZF=   56
   support grid    NGXF=   112 NGYF=  112 NGZF=  112
   ions per type =               1
   NGX,Y,Z   is equivalent  to a cutoff of  10.54, 10.54, 10.54 a.u.
   NGXF,Y,Z  is equivalent  to a cutoff of  21.09, 21.09, 21.09 a.u.

 SYSTEM =  Og_FCC                                  
 POSCAR =  Rn_FCC                                  

 Startparameter for this run:
   NWRITE =      2    write-flag & timer
   PREC   = accura    normal or accurate (medium, high low for compatibility)
   ISTART =      1    job   : 0-new  1-cont  2-samecut
   ICHARG =      0    charge: 1-file 2-atom 10-const
   ISPIN  =      1    spin polarized calculation?
   LNONCOLLINEAR =      T non collinear calculations
   LSORBIT =      T    spin-orbit coupling
   INIWAV =      1    electr: 0-lowe 1-rand  2-diag
   LASPH  =      F    aspherical Exc in radial PAW
   METAGGA=      F    non-selfconsistent MetaGGA calc.

 Electronic Relaxation 1
   ENCUT  =  300.0 eV  22.05 Ry    4.70 a.u.   6.23  6.23  6.23*2*pi/ulx,y,z
   ENINI  =  300.0     initial cutoff
   ENAUG  =  715.6 eV  augmentation charge cutoff
   NELM   =     50;   NELMIN=  2; NELMDL= -5     # of ELM steps 
   EDIFF  = 0.1E-07   stopping-criterion for ELM
   LREAL  =      F    real-space projection
   NLSPLINE    = F    spline interpolate recip. space projectors
   LCOMPAT=      F    compatible to vasp.4.4
   GGA_COMPAT  = F    GGA compatible to vasp.4.4-vasp.4.6
   LMAXPAW     = -100 max onsite density
   LMAXMIX     =    2 max onsite mixed and CHGCAR
   VOSKOWN=      0    Vosko Wilk Nusair interpolation
   ROPT   =    0.00000
 Ionic relaxation
   EDIFFG = 0.1E-04   stopping-criterion for IOM
   NSW    =      1    number of steps for IOM
   NBLOCK =      1;   KBLOCK =      1    inner block; outer block 
   IBRION =     -1    ionic relax: 0-MD 1-quasi-New 2-CG
   NFREE  =      5    steps in history (QN), initial steepest desc. (CG)
   ISIF   =      3    stress and relaxation
   IWAVPR =     10    prediction:  0-non 1-charg 2-wave 3-comb
   ISYM   =      0    0-nonsym 1-usesym 2-fastsym
   LCORR  =      T    Harris-Foulkes like correction to forces

   POTIM  = 0.1000    time-step for ionic-motion
   TEIN   =    0.0    initial temperature
   TEBEG  =    0.0;   TEEND  =   0.0 temperature during run
   SMASS  =  -3.00    Nose mass-parameter (am)
   estimated Nose-frequenzy (Omega)   =  0.10E-29 period in steps =****** mass=  -0.445E-27a.u.
   SCALEE = 1.0000    scale energy and forces
   NPACO  =    256;   APACO  = 16.0  distance and # of slots for P.C.
   PSTRESS=    0.0 pullay stress

  Mass of Ions in am
   POMASS = 220.17
  Ionic Valenz
   ZVAL   =  18.00
  Atomic Wigner-Seitz radii
   RWIGS  =  -1.00
  virtual crystal weights 
   VCA    =   1.00
   NELECT =      18.0000    total number of electrons
   NUPDOWN=      -1.0000    fix difference up-down

 DOS related values:
   EMIN   =  10.00;   EMAX   =-10.00  energy-range for DOS
   EFERMI =   0.00
   ISMEAR =     0;   SIGMA  =   0.00  broadening in eV -4-tet -1-fermi 0-gaus

 Electronic relaxation 2 (details)
   IALGO  =     90    algorithm
   LDIAG  =      T    sub-space diagonalisation (order eigenvalues)
   LSUBROT=      F    optimize rotation matrix (better conditioning)
   TURBO    =      0    0=normal 1=particle mesh
   IRESTART =      0    0=no restart 2=restart with 2 vectors
   NREBOOT  =      0    no. of reboots
   NMIN     =      0    reboot dimension
   EREF     =   0.00    reference energy to select bands
   IMIX   =      4    mixing-type and parameters
     AMIX     =   0.40;   BMIX     =  1.00
     AMIX_MAG =   1.60;   BMIX_MAG =  1.00
     AMIN     =   0.10
     WC   =   100.;   INIMIX=   1;  MIXPRE=   1;  MAXMIX=  50

 Intra band minimization:
   WEIMIN = 0.0000     energy-eigenvalue tresh-hold
   EBREAK =  0.98E-11  absolut break condition
   DEPER  =   0.30     relativ break condition  

   TIME   =   0.40     timestep for ELM

  volume/ion in A,a.u.               =      60.83       410.53
  Fermi-wavevector in a.u.,A,eV,Ry     =   1.090892  2.061487 16.191546  1.190045
  Thomas-Fermi vector in A             =   2.227126
 
 Write flags
   LWAVE        =      T    write WAVECAR
   LDOWNSAMPLE  =      F    k-point downsampling of WAVECAR
   LCHARG       =      F    write CHGCAR
   LVTOT        =      F    write LOCPOT, total local potential
   LVHAR        =      F    write LOCPOT, Hartree potential only
   LELF         =      F    write electronic localiz. function (ELF)
   LORBIT       =      0    0 simple, 1 ext, 2 COOP (PROOUT), +10 PAW based schemes


 Dipole corrections
   LMONO  =      F    monopole corrections only (constant potential shift)
   LDIPOL =      F    correct potential (dipole corrections)
   IDIPOL =      0    1-x, 2-y, 3-z, 4-all directions 
   EPSILON=  1.0000000 bulk dielectric constant

 Exchange correlation treatment:
   GGA     =    PE    GGA type
   LEXCH   =     8    internal setting for exchange type
   VOSKOWN=      0    Vosko Wilk Nusair interpolation
   LHFCALC =     F    Hartree Fock is set to
   LHFONE  =     F    Hartree Fock one center treatment
   AEXX    =    0.0000 exact exchange contribution

 Linear response parameters
   LEPSILON=     F    determine dielectric tensor
   LRPA    =     F    only Hartree local field effects (RPA)
   LNABLA  =     F    use nabla operator in PAW spheres
   LVEL    =     F    velocity operator in full k-point grid
   LINTERFAST=   F  fast interpolation
   KINTER  =     0    interpolate to denser k-point grid
   CSHIFT  =0.1000    complex shift for real part using Kramers Kronig
   OMEGAMAX=  -1.0    maximum frequency
   DEG_THRESHOLD= 0.2000000E-02 threshold for treating states as degnerate
   RTIME   =   -0.100 relaxation time in fs
  (WPLASMAI=    0.000 imaginary part of plasma frequency in eV, 0.658/RTIME)
   DFIELD  = 0.0000000 0.0000000 0.0000000 field for delta impulse in time
 
 Orbital magnetization related:
   ORBITALMAG=     F  switch on orbital magnetization
   LCHIMAG   =     F  perturbation theory with respect to B field
   DQ        =  0.001000  dq finite difference perturbation B field
   LLRAUG    =     F  two centre corrections for induced B field



--------------------------------------------------------------------------------------------------------


 Static calculation
 charge density and potential will be updated during run
 non collinear spin polarized calculation
 Exact diagonalization
 preconditioned conjugated gradient (Jacobi prec)
    charged. constant during bandupdate  
    band-by band algorithm
 perform sub-space diagonalisation
    after iterative eigenvector-optimisation
 modified Broyden-mixing scheme, WC =      100.0
 initial mixing is a Kerker type mixing with AMIX =  0.4000 and BMIX =      1.0000
 Hartree-type preconditioning will be used
 using additional bands          247
 reciprocal scheme for non local part
 use partial core corrections
 calculate Harris-corrections to forces 
   (improved forces if not selfconsistent)
 use gradient corrections 
 use of overlap-Matrix (Vanderbilt PP)
 Gauss-broadening in eV      SIGMA  =   0.00


--------------------------------------------------------------------------------------------------------


  energy-cutoff  :      300.00
  volume of cell :       60.83
      direct lattice vectors                 reciprocal lattice vectors
     4.414575608  0.000000000  0.000000000     0.226522341 -0.130782734 -0.092477358
     2.207287804  3.823134623 -0.000000000     0.000000000  0.261565469 -0.092477358
     2.207287804  1.274378208  3.604485890    -0.000000000  0.000000000  0.277432075

  length of vectors
     4.414575608  4.414575608  4.414575608     0.277432075  0.277432075  0.277432075


 
 old parameters found on file WAVECAR:
  energy-cutoff  :      300.00
  volume of cell :       60.83
      direct lattice vectors                 reciprocal lattice vectors
     4.414575608  0.000000000  0.000000000     0.226522341 -0.130782734 -0.092477358
     2.207287804  3.823134623 -0.000000000     0.000000000  0.261565469 -0.092477358
     2.207287804  1.274378208  3.604485890    -0.000000000  0.000000000  0.277432075

  length of vectors

 
 k-points in units of 2pi/SCALE and weight: k-points                                
   0.00000000  0.00000000  0.00000000       0.005
   0.03686855 -0.02128607 -0.01505152       0.005
   0.07373710 -0.04257213 -0.03010304       0.005
   0.11060565 -0.06385820 -0.04515457       0.005
  -0.07373710  0.04257213  0.03010304       0.005
  -0.03686855  0.02128607  0.01505152       0.005
   0.00000000  0.04257213 -0.01505152       0.005
   0.03686855  0.02128607 -0.03010304       0.005
   0.07373710  0.00000000 -0.04515457       0.005
   0.11060565 -0.02128607 -0.06020609       0.005
  -0.07373710  0.08514427  0.01505152       0.005
  -0.03686855  0.06385820  0.00000000       0.005
   0.00000000  0.08514427 -0.03010304       0.005
   0.03686855  0.06385820 -0.04515457       0.005
   0.07373710  0.04257213 -0.06020609       0.005
   0.11060565  0.02128607 -0.07525761       0.005
  -0.07373710  0.12771640  0.00000000       0.005
  -0.03686855  0.10643034 -0.01505152       0.005
   0.00000000  0.12771640 -0.04515457       0.005
   0.03686855  0.10643034 -0.06020609       0.005
   0.07373710  0.08514427 -0.07525761       0.005
   0.11060565  0.06385820 -0.09030913       0.005
  -0.07373710  0.17028854 -0.01505152       0.005
  -0.03686855  0.14900247 -0.03010304       0.005
  -0.00000000 -0.08514427  0.03010304       0.005
   0.03686855 -0.10643034  0.01505152       0.005
   0.07373710 -0.12771640 -0.00000000       0.005
   0.11060565 -0.14900247 -0.01505152       0.005
  -0.07373710 -0.04257213  0.06020609       0.005
  -0.03686855 -0.06385820  0.04515457       0.005
  -0.00000000 -0.04257213  0.01505152       0.005
   0.03686855 -0.06385820 -0.00000000       0.005
   0.07373710 -0.08514427 -0.01505152       0.005
   0.11060565 -0.10643034 -0.03010304       0.005
  -0.07373710 -0.00000000  0.04515457       0.005
  -0.03686855 -0.02128607  0.03010304       0.005
  -0.00000000  0.00000000  0.04515457       0.005
   0.03686855 -0.02128607  0.03010304       0.005
   0.07373710 -0.04257213  0.01505152       0.005
   0.11060565 -0.06385820 -0.00000000       0.005
  -0.07373710  0.04257213  0.07525761       0.005
  -0.03686855  0.02128607  0.06020609       0.005
  -0.00000000  0.04257213  0.03010304       0.005
   0.03686855  0.02128607  0.01505152       0.005
   0.07373710  0.00000000  0.00000000       0.005
   0.11060565 -0.02128607 -0.01505152       0.005
  -0.07373710  0.08514427  0.06020609       0.005
  -0.03686855  0.06385820  0.04515457       0.005
  -0.00000000  0.08514427  0.01505152       0.005
   0.03686855  0.06385820  0.00000000       0.005
   0.07373710  0.04257213 -0.01505152       0.005
   0.11060565  0.02128607 -0.03010304       0.005
  -0.07373710  0.12771640  0.04515457       0.005
  -0.03686855  0.10643034  0.03010304       0.005
  -0.00000000  0.12771640  0.00000000       0.005
   0.03686855  0.10643034 -0.01505152       0.005
   0.07373710  0.08514427 -0.03010304       0.005
   0.11060565  0.06385820 -0.04515457       0.005
  -0.07373710  0.17028854  0.03010304       0.005
  -0.03686855  0.14900247  0.01505152       0.005
  -0.00000000 -0.08514427  0.07525761       0.005
   0.03686855 -0.10643034  0.06020609       0.005
   0.07373710 -0.12771640  0.04515457       0.005
   0.11060565 -0.14900247  0.03010304       0.005
  -0.07373710 -0.04257213  0.10536066       0.005
  -0.03686855 -0.06385820  0.09030913       0.005
  -0.00000000 -0.04257213  0.06020609       0.005
   0.03686855 -0.06385820  0.04515457       0.005
   0.07373710 -0.08514427  0.03010304       0.005
   0.11060565 -0.10643034  0.01505152       0.005
  -0.07373710 -0.00000000  0.09030913       0.005
  -0.03686855 -0.02128607  0.07525761       0.005
  -0.00000000  0.00000000  0.09030913       0.005
   0.03686855 -0.02128607  0.07525761       0.005
   0.07373710 -0.04257213  0.06020609       0.005
   0.11060565 -0.06385820  0.04515457       0.005
  -0.07373710  0.04257213  0.12041218       0.005
  -0.03686855  0.02128607  0.10536066       0.005
  -0.00000000  0.04257213  0.07525761       0.005
   0.03686855  0.02128607  0.06020609       0.005
   0.07373710  0.00000000  0.04515457       0.005
   0.11060565 -0.02128607  0.03010304       0.005
  -0.07373710  0.08514427  0.10536066       0.005
  -0.03686855  0.06385820  0.09030913       0.005
  -0.00000000  0.08514427  0.06020609       0.005
   0.03686855  0.06385820  0.04515457       0.005
   0.07373710  0.04257213  0.03010304       0.005
   0.11060565  0.02128607  0.01505152       0.005
  -0.07373710  0.12771640  0.09030913       0.005
  -0.03686855  0.10643034  0.07525761       0.005
  -0.00000000  0.12771640  0.04515457       0.005
   0.03686855  0.10643034  0.03010304       0.005
   0.07373710  0.08514427  0.01505152       0.005
   0.11060565  0.06385820  0.00000000       0.005
  -0.07373710  0.17028854  0.07525761       0.005
  -0.03686855  0.14900247  0.06020609       0.005
  -0.00000000 -0.08514427  0.12041218       0.005
   0.03686855 -0.10643034  0.10536066       0.005
   0.07373710 -0.12771640  0.09030913       0.005
   0.11060565 -0.14900247  0.07525761       0.005
  -0.07373710 -0.04257213  0.15051522       0.005
  -0.03686855 -0.06385820  0.13546370       0.005
  -0.00000000 -0.04257213  0.10536066       0.005
   0.03686855 -0.06385820  0.09030913       0.005
   0.07373710 -0.08514427  0.07525761       0.005
   0.11060565 -0.10643034  0.06020609       0.005
  -0.07373710 -0.00000000  0.13546370       0.005
  -0.03686855 -0.02128607  0.12041218       0.005
  -0.00000000  0.00000000  0.13546370       0.005
   0.03686855 -0.02128607  0.12041218       0.005
   0.07373710 -0.04257213  0.10536066       0.005
   0.11060565 -0.06385820  0.09030913       0.005
  -0.07373710  0.04257213  0.16556675       0.005
  -0.03686855  0.02128607  0.15051522       0.005
  -0.00000000  0.04257213  0.12041218       0.005
   0.03686855  0.02128607  0.10536066       0.005
   0.07373710  0.00000000  0.09030913       0.005
   0.11060565 -0.02128607  0.07525761       0.005
  -0.07373710  0.08514427  0.15051522       0.005
  -0.03686855  0.06385820  0.13546370       0.005
  -0.00000000  0.08514427  0.10536066       0.005
   0.03686855  0.06385820  0.09030913       0.005
   0.07373710  0.04257213  0.07525761       0.005
   0.11060565  0.02128607  0.06020609       0.005
  -0.07373710  0.12771640  0.13546370       0.005
  -0.03686855  0.10643034  0.12041218       0.005
  -0.00000000  0.12771640  0.09030913       0.005
   0.03686855  0.10643034  0.07525761       0.005
   0.07373710  0.08514427  0.06020609       0.005
   0.11060565  0.06385820  0.04515457       0.005
  -0.07373710  0.17028854  0.12041218       0.005
  -0.03686855  0.14900247  0.10536066       0.005
  -0.00000000 -0.08514427  0.16556675       0.005
   0.03686855 -0.10643034  0.15051522       0.005
   0.07373710 -0.12771640  0.13546370       0.005
   0.11060565 -0.14900247  0.12041218       0.005
  -0.07373710 -0.04257213  0.19566979       0.005
  -0.03686855 -0.06385820  0.18061827       0.005
  -0.00000000 -0.04257213  0.15051522       0.005
   0.03686855 -0.06385820  0.13546370       0.005
   0.07373710 -0.08514427  0.12041218       0.005
   0.11060565 -0.10643034  0.10536066       0.005
  -0.07373710 -0.00000000  0.18061827       0.005
  -0.03686855 -0.02128607  0.16556675       0.005
   0.00000000 -0.00000000 -0.09030913       0.005
   0.03686855 -0.02128607 -0.10536066       0.005
   0.07373710 -0.04257213 -0.12041218       0.005
   0.11060565 -0.06385820 -0.13546370       0.005
  -0.07373710  0.04257213 -0.06020609       0.005
  -0.03686855  0.02128607 -0.07525761       0.005
   0.00000000  0.04257213 -0.10536066       0.005
   0.03686855  0.02128607 -0.12041218       0.005
   0.07373710  0.00000000 -0.13546370       0.005
   0.11060565 -0.02128607 -0.15051522       0.005
  -0.07373710  0.08514427 -0.07525761       0.005
  -0.03686855  0.06385820 -0.09030913       0.005
   0.00000000  0.08514427 -0.12041218       0.005
   0.03686855  0.06385820 -0.13546370       0.005
   0.07373710  0.04257213 -0.15051522       0.005
   0.11060565  0.02128607 -0.16556675       0.005
  -0.07373710  0.12771640 -0.09030913       0.005
  -0.03686855  0.10643034 -0.10536066       0.005
   0.00000000  0.12771640 -0.13546370       0.005
   0.03686855  0.10643034 -0.15051522       0.005
   0.07373710  0.08514427 -0.16556675       0.005
   0.11060565  0.06385820 -0.18061827       0.005
  -0.07373710  0.17028854 -0.10536066       0.005
  -0.03686855  0.14900247 -0.12041218       0.005
   0.00000000 -0.08514427 -0.06020609       0.005
   0.03686855 -0.10643034 -0.07525761       0.005
   0.07373710 -0.12771640 -0.09030913       0.005
   0.11060565 -0.14900247 -0.10536066       0.005
  -0.07373710 -0.04257213 -0.03010304       0.005
  -0.03686855 -0.06385820 -0.04515457       0.005
   0.00000000 -0.04257213 -0.07525761       0.005
   0.03686855 -0.06385820 -0.09030913       0.005
   0.07373710 -0.08514427 -0.10536066       0.005
   0.11060565 -0.10643034 -0.12041218       0.005
  -0.07373710 -0.00000000 -0.04515457       0.005
  -0.03686855 -0.02128607 -0.06020609       0.005
   0.00000000 -0.00000000 -0.04515457       0.005
   0.03686855 -0.02128607 -0.06020609       0.005
   0.07373710 -0.04257213 -0.07525761       0.005
   0.11060565 -0.06385820 -0.09030913       0.005
  -0.07373710  0.04257213 -0.01505152       0.005
  -0.03686855  0.02128607 -0.03010304       0.005
   0.00000000  0.04257213 -0.06020609       0.005
   0.03686855  0.02128607 -0.07525761       0.005
   0.07373710  0.00000000 -0.09030913       0.005
   0.11060565 -0.02128607 -0.10536066       0.005
  -0.07373710  0.08514427 -0.03010304       0.005
  -0.03686855  0.06385820 -0.04515457       0.005
   0.00000000  0.08514427 -0.07525761       0.005
   0.03686855  0.06385820 -0.09030913       0.005
   0.07373710  0.04257213 -0.10536066       0.005
   0.11060565  0.02128607 -0.12041218       0.005
  -0.07373710  0.12771640 -0.04515457       0.005
  -0.03686855  0.10643034 -0.06020609       0.005
   0.00000000  0.12771640 -0.09030913       0.005
   0.03686855  0.10643034 -0.10536066       0.005
   0.07373710  0.08514427 -0.12041218       0.005
   0.11060565  0.06385820 -0.13546370       0.005
  -0.07373710  0.17028854 -0.06020609       0.005
  -0.03686855  0.14900247 -0.07525761       0.005
   0.00000000 -0.08514427 -0.01505152       0.005
   0.03686855 -0.10643034 -0.03010304       0.005
   0.07373710 -0.12771640 -0.04515457       0.005
   0.11060565 -0.14900247 -0.06020609       0.005
  -0.07373710 -0.04257213  0.01505152       0.005
  -0.03686855 -0.06385820 -0.00000000       0.005
   0.00000000 -0.04257213 -0.03010304       0.005
   0.03686855 -0.06385820 -0.04515457       0.005
   0.07373710 -0.08514427 -0.06020609       0.005
   0.11060565 -0.10643034 -0.07525761       0.005
  -0.07373710 -0.00000000 -0.00000000       0.005
  -0.03686855 -0.02128607 -0.01505152       0.005
 
 k-points in reciprocal lattice and weights: k-points                                
   0.00000000  0.00000000  0.00000000       0.005
   0.16666667  0.00000000  0.00000000       0.005
   0.33333333  0.00000000  0.00000000       0.005
   0.50000000  0.00000000  0.00000000       0.005
  -0.33333333 -0.00000000 -0.00000000       0.005
  -0.16666667 -0.00000000 -0.00000000       0.005
   0.00000000  0.16666667 -0.00000000       0.005
   0.16666667  0.16666667  0.00000000       0.005
   0.33333333  0.16666667  0.00000000       0.005
   0.50000000  0.16666667  0.00000000       0.005
  -0.33333333  0.16666667 -0.00000000       0.005
  -0.16666667  0.16666667 -0.00000000       0.005
   0.00000000  0.33333333  0.00000000       0.005
   0.16666667  0.33333333  0.00000000       0.005
   0.33333333  0.33333333  0.00000000       0.005
   0.50000000  0.33333333  0.00000000       0.005
  -0.33333333  0.33333333 -0.00000000       0.005
  -0.16666667  0.33333333 -0.00000000       0.005
   0.00000000  0.50000000  0.00000000       0.005
   0.16666667  0.50000000  0.00000000       0.005
   0.33333333  0.50000000  0.00000000       0.005
   0.50000000  0.50000000  0.00000000       0.005
  -0.33333333  0.50000000 -0.00000000       0.005
  -0.16666667  0.50000000 -0.00000000       0.005
   0.00000000 -0.33333333  0.00000000       0.005
   0.16666667 -0.33333333  0.00000000       0.005
   0.33333333 -0.33333333  0.00000000       0.005
   0.50000000 -0.33333333  0.00000000       0.005
  -0.33333333 -0.33333333 -0.00000000       0.005
  -0.16666667 -0.33333333 -0.00000000       0.005
   0.00000000 -0.16666667  0.00000000       0.005
   0.16666667 -0.16666667  0.00000000       0.005
   0.33333333 -0.16666667  0.00000000       0.005
   0.50000000 -0.16666667  0.00000000       0.005
  -0.33333333 -0.16666667 -0.00000000       0.005
  -0.16666667 -0.16666667 -0.00000000       0.005
   0.00000000 -0.00000000  0.16666667       0.005
   0.16666667  0.00000000  0.16666667       0.005
   0.33333333  0.00000000  0.16666667       0.005
   0.50000000  0.00000000  0.16666667       0.005
  -0.33333333 -0.00000000  0.16666667       0.005
  -0.16666667 -0.00000000  0.16666667       0.005
   0.00000000  0.16666667  0.16666667       0.005
   0.16666667  0.16666667  0.16666667       0.005
   0.33333333  0.16666667  0.16666667       0.005
   0.50000000  0.16666667  0.16666667       0.005
  -0.33333333  0.16666667  0.16666667       0.005
  -0.16666667  0.16666667  0.16666667       0.005
   0.00000000  0.33333333  0.16666667       0.005
   0.16666667  0.33333333  0.16666667       0.005
   0.33333333  0.33333333  0.16666667       0.005
   0.50000000  0.33333333  0.16666667       0.005
  -0.33333333  0.33333333  0.16666667       0.005
  -0.16666667  0.33333333  0.16666667       0.005
   0.00000000  0.50000000  0.16666667       0.005
   0.16666667  0.50000000  0.16666667       0.005
   0.33333333  0.50000000  0.16666667       0.005
   0.50000000  0.50000000  0.16666667       0.005
  -0.33333333  0.50000000  0.16666667       0.005
  -0.16666667  0.50000000  0.16666667       0.005
  -0.00000000 -0.33333333  0.16666667       0.005
   0.16666667 -0.33333333  0.16666667       0.005
   0.33333333 -0.33333333  0.16666667       0.005
   0.50000000 -0.33333333  0.16666667       0.005
  -0.33333333 -0.33333333  0.16666667       0.005
  -0.16666667 -0.33333333  0.16666667       0.005
  -0.00000000 -0.16666667  0.16666667       0.005
   0.16666667 -0.16666667  0.16666667       0.005
   0.33333333 -0.16666667  0.16666667       0.005
   0.50000000 -0.16666667  0.16666667       0.005
  -0.33333333 -0.16666667  0.16666667       0.005
  -0.16666667 -0.16666667  0.16666667       0.005
  -0.00000000 -0.00000000  0.33333333       0.005
   0.16666667  0.00000000  0.33333333       0.005
   0.33333333  0.00000000  0.33333333       0.005
   0.50000000  0.00000000  0.33333333       0.005
  -0.33333333 -0.00000000  0.33333333       0.005
  -0.16666667 -0.00000000  0.33333333       0.005
  -0.00000000  0.16666667  0.33333333       0.005
   0.16666667  0.16666667  0.33333333       0.005
   0.33333333  0.16666667  0.33333333       0.005
   0.50000000  0.16666667  0.33333333       0.005
  -0.33333333  0.16666667  0.33333333       0.005
  -0.16666667  0.16666667  0.33333333       0.005
  -0.00000000  0.33333333  0.33333333       0.005
   0.16666667  0.33333333  0.33333333       0.005
   0.33333333  0.33333333  0.33333333       0.005
   0.50000000  0.33333333  0.33333333       0.005
  -0.33333333  0.33333333  0.33333333       0.005
  -0.16666667  0.33333333  0.33333333       0.005
   0.00000000  0.50000000  0.33333333       0.005
   0.16666667  0.50000000  0.33333333       0.005
   0.33333333  0.50000000  0.33333333       0.005
   0.50000000  0.50000000  0.33333333       0.005
  -0.33333333  0.50000000  0.33333333       0.005
  -0.16666667  0.50000000  0.33333333       0.005
  -0.00000000 -0.33333333  0.33333333       0.005
   0.16666667 -0.33333333  0.33333333       0.005
   0.33333333 -0.33333333  0.33333333       0.005
   0.50000000 -0.33333333  0.33333333       0.005
  -0.33333333 -0.33333333  0.33333333       0.005
  -0.16666667 -0.33333333  0.33333333       0.005
  -0.00000000 -0.16666667  0.33333333       0.005
   0.16666667 -0.16666667  0.33333333       0.005
   0.33333333 -0.16666667  0.33333333       0.005
   0.50000000 -0.16666667  0.33333333       0.005
  -0.33333333 -0.16666667  0.33333333       0.005
  -0.16666667 -0.16666667  0.33333333       0.005
  -0.00000000 -0.00000000  0.50000000       0.005
   0.16666667  0.00000000  0.50000000       0.005
   0.33333333  0.00000000  0.50000000       0.005
   0.50000000  0.00000000  0.50000000       0.005
  -0.33333333 -0.00000000  0.50000000       0.005
  -0.16666667 -0.00000000  0.50000000       0.005
  -0.00000000  0.16666667  0.50000000       0.005
   0.16666667  0.16666667  0.50000000       0.005
   0.33333333  0.16666667  0.50000000       0.005
   0.50000000  0.16666667  0.50000000       0.005
  -0.33333333  0.16666667  0.50000000       0.005
  -0.16666667  0.16666667  0.50000000       0.005
  -0.00000000  0.33333333  0.50000000       0.005
   0.16666667  0.33333333  0.50000000       0.005
   0.33333333  0.33333333  0.50000000       0.005
   0.50000000  0.33333333  0.50000000       0.005
  -0.33333333  0.33333333  0.50000000       0.005
  -0.16666667  0.33333333  0.50000000       0.005
  -0.00000000  0.50000000  0.50000000       0.005
   0.16666667  0.50000000  0.50000000       0.005
   0.33333333  0.50000000  0.50000000       0.005
   0.50000000  0.50000000  0.50000000       0.005
  -0.33333333  0.50000000  0.50000000       0.005
  -0.16666667  0.50000000  0.50000000       0.005
   0.00000000 -0.33333333  0.50000000       0.005
   0.16666667 -0.33333333  0.50000000       0.005
   0.33333333 -0.33333333  0.50000000       0.005
   0.50000000 -0.33333333  0.50000000       0.005
  -0.33333333 -0.33333333  0.50000000       0.005
  -0.16666667 -0.33333333  0.50000000       0.005
   0.00000000 -0.16666667  0.50000000       0.005
   0.16666667 -0.16666667  0.50000000       0.005
   0.33333333 -0.16666667  0.50000000       0.005
   0.50000000 -0.16666667  0.50000000       0.005
  -0.33333333 -0.16666667  0.50000000       0.005
  -0.16666667 -0.16666667  0.50000000       0.005
   0.00000000  0.00000000 -0.33333333       0.005
   0.16666667  0.00000000 -0.33333333       0.005
   0.33333333  0.00000000 -0.33333333       0.005
   0.50000000  0.00000000 -0.33333333       0.005
  -0.33333333 -0.00000000 -0.33333333       0.005
  -0.16666667 -0.00000000 -0.33333333       0.005
   0.00000000  0.16666667 -0.33333333       0.005
   0.16666667  0.16666667 -0.33333333       0.005
   0.33333333  0.16666667 -0.33333333       0.005
   0.50000000  0.16666667 -0.33333333       0.005
  -0.33333333  0.16666667 -0.33333333       0.005
  -0.16666667  0.16666667 -0.33333333       0.005
   0.00000000  0.33333333 -0.33333333       0.005
   0.16666667  0.33333333 -0.33333333       0.005
   0.33333333  0.33333333 -0.33333333       0.005
   0.50000000  0.33333333 -0.33333333       0.005
  -0.33333333  0.33333333 -0.33333333       0.005
  -0.16666667  0.33333333 -0.33333333       0.005
   0.00000000  0.50000000 -0.33333333       0.005
   0.16666667  0.50000000 -0.33333333       0.005
   0.33333333  0.50000000 -0.33333333       0.005
   0.50000000  0.50000000 -0.33333333       0.005
  -0.33333333  0.50000000 -0.33333333       0.005
  -0.16666667  0.50000000 -0.33333333       0.005
   0.00000000 -0.33333333 -0.33333333       0.005
   0.16666667 -0.33333333 -0.33333333       0.005
   0.33333333 -0.33333333 -0.33333333       0.005
   0.50000000 -0.33333333 -0.33333333       0.005
  -0.33333333 -0.33333333 -0.33333333       0.005
  -0.16666667 -0.33333333 -0.33333333       0.005
   0.00000000 -0.16666667 -0.33333333       0.005
   0.16666667 -0.16666667 -0.33333333       0.005
   0.33333333 -0.16666667 -0.33333333       0.005
   0.50000000 -0.16666667 -0.33333333       0.005
  -0.33333333 -0.16666667 -0.33333333       0.005
  -0.16666667 -0.16666667 -0.33333333       0.005
   0.00000000  0.00000000 -0.16666667       0.005
   0.16666667  0.00000000 -0.16666667       0.005
   0.33333333  0.00000000 -0.16666667       0.005
   0.50000000  0.00000000 -0.16666667       0.005
  -0.33333333 -0.00000000 -0.16666667       0.005
  -0.16666667 -0.00000000 -0.16666667       0.005
   0.00000000  0.16666667 -0.16666667       0.005
   0.16666667  0.16666667 -0.16666667       0.005
   0.33333333  0.16666667 -0.16666667       0.005
   0.50000000  0.16666667 -0.16666667       0.005
  -0.33333333  0.16666667 -0.16666667       0.005
  -0.16666667  0.16666667 -0.16666667       0.005
   0.00000000  0.33333333 -0.16666667       0.005
   0.16666667  0.33333333 -0.16666667       0.005
   0.33333333  0.33333333 -0.16666667       0.005
   0.50000000  0.33333333 -0.16666667       0.005
  -0.33333333  0.33333333 -0.16666667       0.005
  -0.16666667  0.33333333 -0.16666667       0.005
  -0.00000000  0.50000000 -0.16666667       0.005
   0.16666667  0.50000000 -0.16666667       0.005
   0.33333333  0.50000000 -0.16666667       0.005
   0.50000000  0.50000000 -0.16666667       0.005
  -0.33333333  0.50000000 -0.16666667       0.005
  -0.16666667  0.50000000 -0.16666667       0.005
  -0.00000000 -0.33333333 -0.16666667       0.005
   0.16666667 -0.33333333 -0.16666667       0.005
   0.33333333 -0.33333333 -0.16666667       0.005
   0.50000000 -0.33333333 -0.16666667       0.005
  -0.33333333 -0.33333333 -0.16666667       0.005
  -0.16666667 -0.33333333 -0.16666667       0.005
  -0.00000000 -0.16666667 -0.16666667       0.005
   0.16666667 -0.16666667 -0.16666667       0.005
   0.33333333 -0.16666667 -0.16666667       0.005
   0.50000000 -0.16666667 -0.16666667       0.005
  -0.33333333 -0.16666667 -0.16666667       0.005
  -0.16666667 -0.16666667 -0.16666667       0.005
 
 position of ions in fractional coordinates (direct lattice) 
   0.00000000  0.00000000  0.00000000
 
 position of ions in cartesian coordinates  (Angst):
   0.00000000  0.00000000  0.00000000
 
 Euler angles ALPHA=     0.0000000  BETA=     0.0000000

 transformation matrix from SAXIS to cartesian coordinates
 ---------------------------------------------------------
     1.0000000 m_x     0.0000000 m_y     0.0000000 m_z
     0.0000000 m_x     1.0000000 m_y     0.0000000 m_z
     0.0000000 m_x     0.0000000 m_y     1.0000000 m_z

 transformation matrix from cartesian coordinates to SAXIS
 ---------------------------------------------------------
     1.0000000 m_x     0.0000000 m_y     0.0000000 m_z
     0.0000000 m_x     1.0000000 m_y     0.0000000 m_z
     0.0000000 m_x     0.0000000 m_y     1.0000000 m_z




--------------------------------------------------------------------------------------------------------


 k-point  1 :   0.0000 0.0000 0.0000  plane waves:    1450
 k-point  2 :   0.1667 0.0000 0.0000  plane waves:    1424
 k-point  3 :   0.3333 0.0000 0.0000  plane waves:    1490
 k-point  4 :   0.5000 0.0000 0.0000  plane waves:    1436
 k-point  5 :  -0.3333-0.0000-0.0000  plane waves:    1490
 k-point  6 :  -0.1667-0.0000-0.0000  plane waves:    1424
 k-point  7 :   0.0000 0.1667-0.0000  plane waves:    1424
 k-point  8 :   0.1667 0.1667 0.0000  plane waves:    1418
 k-point  9 :   0.3333 0.1667 0.0000  plane waves:    1436
 k-point 10 :   0.5000 0.1667 0.0000  plane waves:    1428
 k-point 11 :  -0.3333 0.1667-0.0000  plane waves:    1434
 k-point 12 :  -0.1667 0.1667-0.0000  plane waves:    1440
 k-point 13 :   0.0000 0.3333 0.0000  plane waves:    1490
 k-point 14 :   0.1667 0.3333 0.0000  plane waves:    1436
 k-point 15 :   0.3333 0.3333 0.0000  plane waves:    1434
 k-point 16 :   0.5000 0.3333 0.0000  plane waves:    1430
 k-point 17 :  -0.3333 0.3333-0.0000  plane waves:    1432
 k-point 18 :  -0.1667 0.3333-0.0000  plane waves:    1434
 k-point 19 :   0.0000 0.5000 0.0000  plane waves:    1436
 k-point 20 :   0.1667 0.5000 0.0000  plane waves:    1428
 k-point 21 :   0.3333 0.5000 0.0000  plane waves:    1430
 k-point 22 :   0.5000 0.5000 0.0000  plane waves:    1448
 k-point 23 :  -0.3333 0.5000-0.0000  plane waves:    1430
 k-point 24 :  -0.1667 0.5000-0.0000  plane waves:    1428
 k-point 25 :   0.0000-0.3333 0.0000  plane waves:    1490
 k-point 26 :   0.1667-0.3333 0.0000  plane waves:    1434
 k-point 27 :   0.3333-0.3333 0.0000  plane waves:    1432
 k-point 28 :   0.5000-0.3333 0.0000  plane waves:    1430
 k-point 29 :  -0.3333-0.3333-0.0000  plane waves:    1434
 k-point 30 :  -0.1667-0.3333-0.0000  plane waves:    1436
 k-point 31 :   0.0000-0.1667 0.0000  plane waves:    1424
 k-point 32 :   0.1667-0.1667 0.0000  plane waves:    1440
 k-point 33 :   0.3333-0.1667 0.0000  plane waves:    1434
 k-point 34 :   0.5000-0.1667 0.0000  plane waves:    1428
 k-point 35 :  -0.3333-0.1667-0.0000  plane waves:    1436
 k-point 36 :  -0.1667-0.1667-0.0000  plane waves:    1418
 k-point 37 :   0.0000-0.0000 0.1667  plane waves:    1424
 k-point 38 :   0.1667 0.0000 0.1667  plane waves:    1418
 k-point 39 :   0.3333 0.0000 0.1667  plane waves:    1436
 k-point 40 :   0.5000 0.0000 0.1667  plane waves:    1428
 k-point 41 :  -0.3333-0.0000 0.1667  plane waves:    1434
 k-point 42 :  -0.1667-0.0000 0.1667  plane waves:    1440
 k-point 43 :   0.0000 0.1667 0.1667  plane waves:    1418
 k-point 44 :   0.1667 0.1667 0.1667  plane waves:    1424
 k-point 45 :   0.3333 0.1667 0.1667  plane waves:    1440
 k-point 46 :   0.5000 0.1667 0.1667  plane waves:    1434
 k-point 47 :  -0.3333 0.1667 0.1667  plane waves:    1428
 k-point 48 :  -0.1667 0.1667 0.1667  plane waves:    1436
 k-point 49 :   0.0000 0.3333 0.1667  plane waves:    1436
 k-point 50 :   0.1667 0.3333 0.1667  plane waves:    1440
 k-point 51 :   0.3333 0.3333 0.1667  plane waves:    1436
 k-point 52 :   0.5000 0.3333 0.1667  plane waves:    1434
 k-point 53 :  -0.3333 0.3333 0.1667  plane waves:    1444
 k-point 54 :  -0.1667 0.3333 0.1667  plane waves:    1434
 k-point 55 :   0.0000 0.5000 0.1667  plane waves:    1428
 k-point 56 :   0.1667 0.5000 0.1667  plane waves:    1434
 k-point 57 :   0.3333 0.5000 0.1667  plane waves:    1434
 k-point 58 :   0.5000 0.5000 0.1667  plane waves:    1430
 k-point 59 :  -0.3333 0.5000 0.1667  plane waves:    1436
 k-point 60 :  -0.1667 0.5000 0.1667  plane waves:    1444
 k-point 61 :  -0.0000-0.3333 0.1667  plane waves:    1434
 k-point 62 :   0.1667-0.3333 0.1667  plane waves:    1428
 k-point 63 :   0.3333-0.3333 0.1667  plane waves:    1444
 k-point 64 :   0.5000-0.3333 0.1667  plane waves:    1436
 k-point 65 :  -0.3333-0.3333 0.1667  plane waves:    1430
 k-point 66 :  -0.1667-0.3333 0.1667  plane waves:    1434
 k-point 67 :  -0.0000-0.1667 0.1667  plane waves:    1440
 k-point 68 :   0.1667-0.1667 0.1667  plane waves:    1436
 k-point 69 :   0.3333-0.1667 0.1667  plane waves:    1434
 k-point 70 :   0.5000-0.1667 0.1667  plane waves:    1444
 k-point 71 :  -0.3333-0.1667 0.1667  plane waves:    1434
 k-point 72 :  -0.1667-0.1667 0.1667  plane waves:    1436
 k-point 73 :  -0.0000-0.0000 0.3333  plane waves:    1490
 k-point 74 :   0.1667 0.0000 0.3333  plane waves:    1436
 k-point 75 :   0.3333 0.0000 0.3333  plane waves:    1434
 k-point 76 :   0.5000 0.0000 0.3333  plane waves:    1430
 k-point 77 :  -0.3333-0.0000 0.3333  plane waves:    1432
 k-point 78 :  -0.1667-0.0000 0.3333  plane waves:    1434
 k-point 79 :  -0.0000 0.1667 0.3333  plane waves:    1436
 k-point 80 :   0.1667 0.1667 0.3333  plane waves:    1440
 k-point 81 :   0.3333 0.1667 0.3333  plane waves:    1436
 k-point 82 :   0.5000 0.1667 0.3333  plane waves:    1434
 k-point 83 :  -0.3333 0.1667 0.3333  plane waves:    1444
 k-point 84 :  -0.1667 0.1667 0.3333  plane waves:    1434
 k-point 85 :  -0.0000 0.3333 0.3333  plane waves:    1434
 k-point 86 :   0.1667 0.3333 0.3333  plane waves:    1436
 k-point 87 :   0.3333 0.3333 0.3333  plane waves:    1490
 k-point 88 :   0.5000 0.3333 0.3333  plane waves:    1434
 k-point 89 :  -0.3333 0.3333 0.3333  plane waves:    1432
 k-point 90 :  -0.1667 0.3333 0.3333  plane waves:    1430
 k-point 91 :   0.0000 0.5000 0.3333  plane waves:    1430
 k-point 92 :   0.1667 0.5000 0.3333  plane waves:    1434
 k-point 93 :   0.3333 0.5000 0.3333  plane waves:    1434
 k-point 94 :   0.5000 0.5000 0.3333  plane waves:    1428
 k-point 95 :  -0.3333 0.5000 0.3333  plane waves:    1444
 k-point 96 :  -0.1667 0.5000 0.3333  plane waves:    1436
 k-point 97 :  -0.0000-0.3333 0.3333  plane waves:    1432
 k-point 98 :   0.1667-0.3333 0.3333  plane waves:    1444
 k-point 99 :   0.3333-0.3333 0.3333  plane waves:    1432
 k-point ** :   0.5000-0.3333 0.3333  plane waves:    1444
 k-point ** :  -0.3333-0.3333 0.3333  plane waves:    1432
 k-point ** :  -0.1667-0.3333 0.3333  plane waves:    1444
 k-point ** :  -0.0000-0.1667 0.3333  plane waves:    1434
 k-point ** :   0.1667-0.1667 0.3333  plane waves:    1434
 k-point ** :   0.3333-0.1667 0.3333  plane waves:    1430
 k-point ** :   0.5000-0.1667 0.3333  plane waves:    1436
 k-point ** :  -0.3333-0.1667 0.3333  plane waves:    1444
 k-point ** :  -0.1667-0.1667 0.3333  plane waves:    1428
 k-point ** :  -0.0000-0.0000 0.5000  plane waves:    1436
 k-point ** :   0.1667 0.0000 0.5000  plane waves:    1428
 k-point ** :   0.3333 0.0000 0.5000  plane waves:    1430
 k-point ** :   0.5000 0.0000 0.5000  plane waves:    1448
 k-point ** :  -0.3333-0.0000 0.5000  plane waves:    1430
 k-point ** :  -0.1667-0.0000 0.5000  plane waves:    1428
 k-point ** :  -0.0000 0.1667 0.5000  plane waves:    1428
 k-point ** :   0.1667 0.1667 0.5000  plane waves:    1434
 k-point ** :   0.3333 0.1667 0.5000  plane waves:    1434
 k-point ** :   0.5000 0.1667 0.5000  plane waves:    1430
 k-point ** :  -0.3333 0.1667 0.5000  plane waves:    1436
 k-point ** :  -0.1667 0.1667 0.5000  plane waves:    1444
 k-point ** :  -0.0000 0.3333 0.5000  plane waves:    1430
 k-point ** :   0.1667 0.3333 0.5000  plane waves:    1434
 k-point ** :   0.3333 0.3333 0.5000  plane waves:    1434
 k-point ** :   0.5000 0.3333 0.5000  plane waves:    1428
 k-point ** :  -0.3333 0.3333 0.5000  plane waves:    1444
 k-point ** :  -0.1667 0.3333 0.5000  plane waves:    1436
 k-point ** :  -0.0000 0.5000 0.5000  plane waves:    1448
 k-point ** :   0.1667 0.5000 0.5000  plane waves:    1430
 k-point ** :   0.3333 0.5000 0.5000  plane waves:    1428
 k-point ** :   0.5000 0.5000 0.5000  plane waves:    1436
 k-point ** :  -0.3333 0.5000 0.5000  plane waves:    1428
 k-point ** :  -0.1667 0.5000 0.5000  plane waves:    1430
 k-point ** :   0.0000-0.3333 0.5000  plane waves:    1430
 k-point ** :   0.1667-0.3333 0.5000  plane waves:    1436
 k-point ** :   0.3333-0.3333 0.5000  plane waves:    1444
 k-point ** :   0.5000-0.3333 0.5000  plane waves:    1428
 k-point ** :  -0.3333-0.3333 0.5000  plane waves:    1434
 k-point ** :  -0.1667-0.3333 0.5000  plane waves:    1434
 k-point ** :   0.0000-0.1667 0.5000  plane waves:    1428
 k-point ** :   0.1667-0.1667 0.5000  plane waves:    1444
 k-point ** :   0.3333-0.1667 0.5000  plane waves:    1436
 k-point ** :   0.5000-0.1667 0.5000  plane waves:    1430
 k-point ** :  -0.3333-0.1667 0.5000  plane waves:    1434
 k-point ** :  -0.1667-0.1667 0.5000  plane waves:    1434
 k-point ** :   0.0000 0.0000-0.3333  plane waves:    1490
 k-point ** :   0.1667 0.0000-0.3333  plane waves:    1434
 k-point ** :   0.3333 0.0000-0.3333  plane waves:    1432
 k-point ** :   0.5000 0.0000-0.3333  plane waves:    1430
 k-point ** :  -0.3333-0.0000-0.3333  plane waves:    1434
 k-point ** :  -0.1667-0.0000-0.3333  plane waves:    1436
 k-point ** :   0.0000 0.1667-0.3333  plane waves:    1434
 k-point ** :   0.1667 0.1667-0.3333  plane waves:    1428
 k-point ** :   0.3333 0.1667-0.3333  plane waves:    1444
 k-point ** :   0.5000 0.1667-0.3333  plane waves:    1436
 k-point ** :  -0.3333 0.1667-0.3333  plane waves:    1430
 k-point ** :  -0.1667 0.1667-0.3333  plane waves:    1434
 k-point ** :   0.0000 0.3333-0.3333  plane waves:    1432
 k-point ** :   0.1667 0.3333-0.3333  plane waves:    1444
 k-point ** :   0.3333 0.3333-0.3333  plane waves:    1432
 k-point ** :   0.5000 0.3333-0.3333  plane waves:    1444
 k-point ** :  -0.3333 0.3333-0.3333  plane waves:    1432
 k-point ** :  -0.1667 0.3333-0.3333  plane waves:    1444
 k-point ** :   0.0000 0.5000-0.3333  plane waves:    1430
 k-point ** :   0.1667 0.5000-0.3333  plane waves:    1436
 k-point ** :   0.3333 0.5000-0.3333  plane waves:    1444
 k-point ** :   0.5000 0.5000-0.3333  plane waves:    1428
 k-point ** :  -0.3333 0.5000-0.3333  plane waves:    1434
 k-point ** :  -0.1667 0.5000-0.3333  plane waves:    1434
 k-point ** :   0.0000-0.3333-0.3333  plane waves:    1434
 k-point ** :   0.1667-0.3333-0.3333  plane waves:    1430
 k-point ** :   0.3333-0.3333-0.3333  plane waves:    1432
 k-point ** :   0.5000-0.3333-0.3333  plane waves:    1434
 k-point ** :  -0.3333-0.3333-0.3333  plane waves:    1490
 k-point ** :  -0.1667-0.3333-0.3333  plane waves:    1436
 k-point ** :   0.0000-0.1667-0.3333  plane waves:    1436
 k-point ** :   0.1667-0.1667-0.3333  plane waves:    1434
 k-point ** :   0.3333-0.1667-0.3333  plane waves:    1444
 k-point ** :   0.5000-0.1667-0.3333  plane waves:    1434
 k-point ** :  -0.3333-0.1667-0.3333  plane waves:    1436
 k-point ** :  -0.1667-0.1667-0.3333  plane waves:    1440
 k-point ** :   0.0000 0.0000-0.1667  plane waves:    1424
 k-point ** :   0.1667 0.0000-0.1667  plane waves:    1440
 k-point ** :   0.3333 0.0000-0.1667  plane waves:    1434
 k-point ** :   0.5000 0.0000-0.1667  plane waves:    1428
 k-point ** :  -0.3333-0.0000-0.1667  plane waves:    1436
 k-point ** :  -0.1667-0.0000-0.1667  plane waves:    1418
 k-point ** :   0.0000 0.1667-0.1667  plane waves:    1440
 k-point ** :   0.1667 0.1667-0.1667  plane waves:    1436
 k-point ** :   0.3333 0.1667-0.1667  plane waves:    1434
 k-point ** :   0.5000 0.1667-0.1667  plane waves:    1444
 k-point ** :  -0.3333 0.1667-0.1667  plane waves:    1434
 k-point ** :  -0.1667 0.1667-0.1667  plane waves:    1436
 k-point ** :   0.0000 0.3333-0.1667  plane waves:    1434
 k-point ** :   0.1667 0.3333-0.1667  plane waves:    1434
 k-point ** :   0.3333 0.3333-0.1667  plane waves:    1430
 k-point ** :   0.5000 0.3333-0.1667  plane waves:    1436
 k-point ** :  -0.3333 0.3333-0.1667  plane waves:    1444
 k-point ** :  -0.1667 0.3333-0.1667  plane waves:    1428
 k-point ** :  -0.0000 0.5000-0.1667  plane waves:    1428
 k-point ** :   0.1667 0.5000-0.1667  plane waves:    1444
 k-point ** :   0.3333 0.5000-0.1667  plane waves:    1436
 k-point ** :   0.5000 0.5000-0.1667  plane waves:    1430
 k-point ** :  -0.3333 0.5000-0.1667  plane waves:    1434
 k-point ** :  -0.1667 0.5000-0.1667  plane waves:    1434
 k-point ** :  -0.0000-0.3333-0.1667  plane waves:    1436
 k-point ** :   0.1667-0.3333-0.1667  plane waves:    1434
 k-point ** :   0.3333-0.3333-0.1667  plane waves:    1444
 k-point ** :   0.5000-0.3333-0.1667  plane waves:    1434
 k-point ** :  -0.3333-0.3333-0.1667  plane waves:    1436
 k-point ** :  -0.1667-0.3333-0.1667  plane waves:    1440
 k-point ** :  -0.0000-0.1667-0.1667  plane waves:    1418
 k-point ** :   0.1667-0.1667-0.1667  plane waves:    1436
 k-point ** :   0.3333-0.1667-0.1667  plane waves:    1428
 k-point ** :   0.5000-0.1667-0.1667  plane waves:    1434
 k-point ** :  -0.3333-0.1667-0.1667  plane waves:    1440
 k-point ** :  -0.1667-0.1667-0.1667  plane waves:    1424

 maximum and minimum number of plane-waves per node :       406      334

 maximum number of plane-waves:      1490
 maximum index in each direction: 
   IXMAX=    6   IYMAX=    6   IZMAX=    6
   IXMIN=   -6   IYMIN=   -6   IZMIN=   -6


 parallel 3D FFT for wavefunctions:
    minimum data exchange during FFTs selected (reduces bandwidth)
 parallel 3D FFT for charge:
    minimum data exchange during FFTs selected (reduces bandwidth)


 total amount of memory used by VASP MPI-rank0   269605. kBytes
=======================================================================

   base      :      30000. kBytes
   nonl-proj :      13046. kBytes
   fftplans  :       6572. kBytes
   grid      :       5619. kBytes
   one-center:        262. kBytes
   wavefun   :     214106. kBytes
 
     INWAV:  cpu time    6.8895: real time    6.8862
 Broyden mixing: mesh for mixing (old mesh)
   NGX = 13   NGY = 13   NGZ = 13
  (NGX  = 56   NGY  = 56   NGZ  = 56)
  gives a total of   2197 points

 charge density for first step will be calculated from the start-wavefunctions


--------------------------------------------------------------------------------------------------------


 Maximum index for augmentation-charges        13305 (set IRDMAX)


--------------------------------------------------------------------------------------------------------


 initial charge from wavefunction
 First call to EWALD:  gamma=   0.451
 Maximum number of real-space cells 3x 3x 3
 Maximum number of reciprocal cells 3x 3x 3

    FEWALD:  cpu time    0.0021: real time    0.0021


--------------------------------------- Iteration      1(   1)  ---------------------------------------


    POTLOK:  cpu time    0.0816: real time    0.0830
    SETDIJ:  cpu time    0.1443: real time    0.1444

 total amount of memory used by VASP MPI-rank0  1515769. kBytes
=======================================================================

   base      :      30000. kBytes
   nonl-proj :      13046. kBytes
   fftplans  :       6572. kBytes
   grid      :       5619. kBytes
   one-center:        262. kBytes
   wavefun   :    1460270. kBytes
 
    EDDIAG:  cpu time  102.9006: real time  102.8530
       DOS:  cpu time    0.0047: real time    0.0047
    --------------------------------------------
      LOOP:  cpu time  103.1312: real time  103.0851

 eigenvalue-minimisations  :     0
 total energy-change (2. order) :-0.1774190E+01  ( 0.0000000E+00)
 number of electron      18.0000001 magnetization       0.0000000      0.0000000      0.0000000
 augmentation part        7.1203322 magnetization      -0.0000008     -0.0000009     -0.0000009

 Free energy of the ion-electron system (eV)
  ---------------------------------------------------
  alpha Z        PSCENC =        69.69972675
  Ewald energy   TEWEN  =     -1713.14217088
  -Hartree energ DENC   =      -991.59973737
  -exchange      EXHF   =         0.00000000
  -V(xc)+E(xc)   XCENC  =        36.87931670
  PAW double counting   =      2509.69126670    -2480.60845562
  entropy T*S    EENTRO =        -0.00000000
  eigenvalues    EBANDS =      -463.31824207
  atomic energy  EATOM  =      3030.62410580
  Solvation  Ediel_sol  =         0.00000000
  ---------------------------------------------------
  free energy    TOTEN  =        -1.77418998 eV

  energy without entropy =       -1.77418998  energy(sigma->0) =       -1.77418998


--------------------------------------------------------------------------------------------------------




--------------------------------------- Iteration      1(   2)  ---------------------------------------



 total amount of memory used by VASP MPI-rank0  1515769. kBytes
=======================================================================

   base      :      30000. kBytes
   nonl-proj :      13046. kBytes
   fftplans  :       6572. kBytes
   grid      :       5619. kBytes
   one-center:        262. kBytes
   wavefun   :    1460270. kBytes
 
    EDDIAG:  cpu time  102.7433: real time  102.7011
       DOS:  cpu time    0.0047: real time    0.0047
    --------------------------------------------
      LOOP:  cpu time  102.7480: real time  102.7058

 eigenvalue-minimisations  :     0
 total energy-change (2. order) : 0.2728484E-11  ( 0.0000000E+00)
 number of electron      18.0000001 magnetization       0.0000000      0.0000000      0.0000000
 augmentation part        7.1203322 magnetization      -0.0000008     -0.0000009     -0.0000009

 Free energy of the ion-electron system (eV)
  ---------------------------------------------------
  alpha Z        PSCENC =        69.69972675
  Ewald energy   TEWEN  =     -1713.14217088
  -Hartree energ DENC   =      -991.59973737
  -exchange      EXHF   =         0.00000000
  -V(xc)+E(xc)   XCENC  =        36.87931670
  PAW double counting   =      2509.69126670    -2480.60845562
  entropy T*S    EENTRO =        -0.00000000
  eigenvalues    EBANDS =      -463.31824207
  atomic energy  EATOM  =      3030.62410580
  Solvation  Ediel_sol  =         0.00000000
  ---------------------------------------------------
  free energy    TOTEN  =        -1.77418998 eV

  energy without entropy =       -1.77418998  energy(sigma->0) =       -1.77418998


--------------------------------------------------------------------------------------------------------




--------------------------------------- Iteration      1(   3)  ---------------------------------------



 total amount of memory used by VASP MPI-rank0  1515769. kBytes
=======================================================================

   base      :      30000. kBytes
   nonl-proj :      13046. kBytes
   fftplans  :       6572. kBytes
   grid      :       5619. kBytes
   one-center:        262. kBytes
   wavefun   :    1460270. kBytes
 
    EDDIAG:  cpu time  102.9887: real time  102.9435
       DOS:  cpu time    0.0049: real time    0.0049
    --------------------------------------------
      LOOP:  cpu time  102.9937: real time  102.9485

 eigenvalue-minimisations  :     0
 total energy-change (2. order) :-0.4547474E-11  ( 0.0000000E+00)
 number of electron      18.0000001 magnetization       0.0000000      0.0000000      0.0000000
 augmentation part        7.1203322 magnetization      -0.0000008     -0.0000009     -0.0000009

 Free energy of the ion-electron system (eV)
  ---------------------------------------------------
  alpha Z        PSCENC =        69.69972675
  Ewald energy   TEWEN  =     -1713.14217088
  -Hartree energ DENC   =      -991.59973737
  -exchange      EXHF   =         0.00000000
  -V(xc)+E(xc)   XCENC  =        36.87931670
  PAW double counting   =      2509.69126670    -2480.60845562
  entropy T*S    EENTRO =        -0.00000000
  eigenvalues    EBANDS =      -463.31824207
  atomic energy  EATOM  =      3030.62410580
  Solvation  Ediel_sol  =         0.00000000
  ---------------------------------------------------
  free energy    TOTEN  =        -1.77418998 eV

  energy without entropy =       -1.77418998  energy(sigma->0) =       -1.77418998


--------------------------------------------------------------------------------------------------------




--------------------------------------- Iteration      1(   4)  ---------------------------------------



 total amount of memory used by VASP MPI-rank0  1515769. kBytes
=======================================================================

   base      :      30000. kBytes
   nonl-proj :      13046. kBytes
   fftplans  :       6572. kBytes
   grid      :       5619. kBytes
   one-center:        262. kBytes
   wavefun   :    1460270. kBytes
 
    EDDIAG:  cpu time  103.0631: real time  103.0183
[...]
    0.000000    0.000000    0.000000    0.000000    0.000000    0.000000    0.000000
    1.581220    0.000000    0.000000    0.000000    0.000000    0.000000    0.000000
    3.162441    0.000000    0.000000    0.000000    0.000000    0.000000    0.000000
    4.743661    3.176440    3.176439    3.176439    0.000001    0.000000    0.000001
    6.324881    4.920979    4.920978    4.920979    0.000001    0.000000    0.000000
    7.906102    1.029446    1.029446    1.029437    0.000006   -0.000000    0.000004
    9.487322    1.743409    1.743409    1.743409   -0.000000   -0.000000   -0.000000
   11.068542    1.476827    1.476827    1.476827    0.000000    0.000000    0.000000
   12.649763    0.351264    0.351264    0.351264    0.000000    0.000000    0.000000
   14.230983    1.134606    1.134606    1.134606    0.000000    0.000000    0.000000
   15.812203    0.860753    0.860753    0.860753   -0.000000    0.000000   -0.000000
   17.393424    0.437636    0.437637    0.437637   -0.000000   -0.000000   -0.000000
   18.974644    1.668484    1.668484    1.668484   -0.000000   -0.000000   -0.000000
   20.555864    0.374099    0.374099    0.374099    0.000000   -0.000000    0.000000
   22.137085    0.407214    0.407214    0.407214   -0.000000    0.000000   -0.000000
   23.718305    0.183403    0.183403    0.183403    0.000000    0.000000    0.000000
   25.299525    0.179615    0.179615    0.179615   -0.000000   -0.000000   -0.000000
   26.880746    0.071748    0.071748    0.071748   -0.000000   -0.000000   -0.000000
   28.461966    0.134668    0.134668    0.134668    0.000000   -0.000000    0.000000
   30.043186    0.080509    0.080509    0.080509    0.000000    0.000000    0.000000
   31.624406    0.024133    0.024133    0.024133   -0.000000   -0.000000   -0.000000
   33.205627    0.057847    0.057847    0.057847   -0.000000   -0.000000   -0.000000
   34.786847    0.034563    0.034563    0.034563    0.000000    0.000000   -0.000000
   36.368067    0.009164    0.009164    0.009164    0.000000    0.000000   -0.000000
   37.949288    0.043999    0.043999    0.043999   -0.000000   -0.000000   -0.000000
   39.530508    0.016151    0.016151    0.016151   -0.000000    0.000000   -0.000000
   41.111728    0.007159    0.007159    0.007159   -0.000000   -0.000000   -0.000000
   42.692949    0.016461    0.016461    0.016461   -0.000000   -0.000000   -0.000000
   44.274169    0.015679    0.015679    0.015679    0.000000    0.000000    0.000000
   45.855389    0.029078    0.029078    0.029078   -0.000000   -0.000000   -0.000000
   47.436610    0.050617    0.050617    0.050617    0.000000   -0.000000    0.000000
   49.017830    0.026578    0.026578    0.026578    0.000000   -0.000000    0.000000
   50.599050    0.092457    0.092457    0.092457   -0.000000   -0.000000   -0.000000
   52.180271    0.110641    0.110641    0.110641   -0.000000   -0.000000   -0.000000
   53.761491    0.142435    0.142435    0.142435    0.000000    0.000000    0.000000
   55.342711    0.485170    0.485170    0.485170    0.000000    0.000000    0.000000
   56.923932    0.731954    0.731954    0.731954   -0.000000   -0.000000   -0.000000
   58.505152    0.136916    0.136916    0.136916   -0.000000   -0.000000   -0.000000
   60.086372    0.420893    0.420893    0.420893    0.000000    0.000000    0.000000
   61.667593    0.327175    0.327175    0.327175    0.000000    0.000000    0.000000
   63.248813    0.130986    0.130986    0.130986    0.000000    0.000000    0.000000
   64.830033    0.245208    0.245208    0.245208    0.000000    0.000000    0.000000
   66.411254    0.374398    0.374399    0.374399   -0.000000   -0.000000   -0.000000
   67.992474    0.230738    0.230737    0.230737    0.000000    0.000000    0.000000
   69.573694    0.002458    0.002458    0.002458   -0.000000   -0.000000   -0.000000
   71.154915    0.226381    0.226381    0.226381    0.000000    0.000000    0.000000
   72.736135    0.160908    0.160908    0.160908   -0.000000   -0.000000   -0.000000
   74.317355    0.128441    0.128441    0.128441   -0.000000   -0.000000   -0.000000
   75.898576    0.088641    0.088641    0.088641    0.000000    0.000000    0.000000
   77.479796    0.080525    0.080525    0.080525   -0.000000   -0.000000   -0.000000
   79.061016    0.095283    0.095283    0.095283   -0.000000   -0.000000   -0.000000
   80.642237    0.073770    0.073770    0.073770    0.000000    0.000000    0.000000
   82.223457    0.059471    0.059471    0.059471   -0.000000   -0.000000   -0.000000
   83.804677    0.094896    0.094896    0.094896   -0.000000   -0.000000   -0.000000
   85.385898    0.071395    0.071395    0.071395    0.000000    0.000000    0.000000
   86.967118    0.054251    0.054251    0.054251    0.000000    0.000000    0.000000
   88.548338    0.073314    0.073313    0.073313    0.000000    0.000000    0.000000
   90.129558    0.020255    0.020255    0.020255   -0.000000   -0.000000   -0.000000
   91.710779    0.048544    0.048543    0.048543    0.000000    0.000000    0.000000
   93.291999    0.038393    0.038393    0.038393   -0.000000   -0.000000   -0.000000
   94.873219    0.045654    0.045654    0.045654   -0.000000   -0.000000   -0.000000
   96.454440    0.040699    0.040699    0.040699   -0.000000   -0.000000   -0.000000
   98.035660    0.023123    0.023123    0.023123   -0.000000    0.000000    0.000000
   99.616880    0.015679    0.015679    0.015679   -0.000000   -0.000000   -0.000000
  101.198101    0.021242    0.021242    0.021242    0.000000    0.000000    0.000000
  102.779321    0.010760    0.010760    0.010760   -0.000000   -0.000000    0.000000
  104.360541    0.031804    0.031804    0.031804   -0.000000   -0.000000   -0.000000
  105.941762    0.014688    0.014688    0.014688    0.000000   -0.000000    0.000000
  107.522982    0.019962    0.019962    0.019962   -0.000000   -0.000000   -0.000000
  109.104202    0.008587    0.008587    0.008587   -0.000000   -0.000000   -0.000000
  110.685423    0.014878    0.014878    0.014878    0.000000   -0.000000    0.000000
  112.266643    0.009351    0.009351    0.009351    0.000000   -0.000000    0.000000
  113.847863    0.009472    0.009472    0.009472   -0.000000   -0.000000   -0.000000
  115.429084    0.008365    0.008365    0.008365   -0.000000   -0.000000   -0.000000
  117.010304    0.011919    0.011919    0.011919    0.000000    0.000000    0.000000
  118.591524    0.005964    0.005964    0.005964   -0.000000   -0.000000   -0.000000
  120.172745    0.010185    0.010185    0.010185   -0.000000   -0.000000   -0.000000
  121.753965    0.011026    0.011026    0.011026   -0.000000    0.000000   -0.000000
  123.335185    0.013182    0.013182    0.013182    0.000000    0.000000    0.000000
  124.916406    0.007987    0.007987    0.007987    0.000000    0.000000    0.000000
  126.497626    0.002023    0.002023    0.002023    0.000000    0.000000    0.000000
  128.078846    0.001807    0.001807    0.001807    0.000000    0.000000    0.000000
  129.660067    0.000974    0.000974    0.000974    0.000000    0.000000    0.000000
  131.241287    0.000000    0.000000    0.000000    0.000000    0.000000    0.000000
  132.822507    0.000000    0.000000    0.000000    0.000000    0.000000    0.000000
  134.403728    0.000000    0.000000    0.000000    0.000000    0.000000    0.000000
  135.984948    0.000000    0.000000    0.000000    0.000000    0.000000    0.000000
  137.566168    0.000000    0.000000    0.000000    0.000000    0.000000    0.000000
  139.147389    0.000000    0.000000    0.000000    0.000000    0.000000    0.000000
  140.728609    0.000000    0.000000    0.000000    0.000000    0.000000    0.000000
  142.309829    0.000000    0.000000    0.000000    0.000000    0.000000    0.000000
  143.891050    0.000000    0.000000    0.000000    0.000000    0.000000    0.000000
  145.472270    0.000000    0.000000    0.000000    0.000000    0.000000    0.000000
  147.053490    0.000000    0.000000    0.000000    0.000000    0.000000    0.000000
  148.634710    0.000000    0.000000    0.000000    0.000000    0.000000    0.000000
  150.215931    0.000000    0.000000    0.000000    0.000000    0.000000    0.000000
  151.797151    0.000000    0.000000    0.000000    0.000000    0.000000    0.000000
  153.378371    0.000000    0.000000    0.000000    0.000000    0.000000    0.000000
  154.959592    0.000000    0.000000    0.000000    0.000000    0.000000    0.000000
  156.540812    0.000000    0.000000    0.000000    0.000000    0.000000    0.000000

  frequency dependent      REAL DIELECTRIC FUNCTION (independent particle, no local field effects) current-current (2nd set in vasprun.xml)
     E(ev)        X           Y           Z          XY          YZ          ZX
  --------------------------------------------------------------------------------------------------------------
    0.000000    3.189716    3.189716    3.189716    0.000000    0.000000    0.000000
    1.581220    3.286849    3.286849    3.286849    0.000000    0.000000    0.000000
    3.162441    3.727191    3.727191    3.727191    0.000001    0.000000    0.000000
    4.743661    4.409083    4.409081    4.409081    0.000000    0.000000    0.000000
    6.324881    5.019620    5.019620    5.019620   -0.000000    0.000000   -0.000000
    7.906102    2.226514    2.226514    2.226512   -0.000021   -0.000018   -0.000021
    9.487322    0.404673    0.404673    0.404673   -0.000000    0.000000   -0.000000
   11.068542   -0.323812   -0.323812   -0.323812    0.000000    0.000000    0.000000
   12.649763    0.181213    0.181213    0.181213   -0.000000   -0.000000   -0.000000
   14.230983   -0.170617   -0.170617   -0.170617    0.000000    0.000000    0.000000
   15.812203    0.284325    0.284325    0.284325   -0.000000   -0.000000   -0.000000
   17.393424    0.448647    0.448647    0.448647    0.000000    0.000000    0.000000
   18.974644    0.307457    0.307457    0.307457   -0.000000   -0.000000   -0.000000
   20.555864    0.447913    0.447913    0.447913    0.000000    0.000000   -0.000000
   22.137085    0.371135    0.371135    0.371135    0.000000   -0.000000   -0.000000
   23.718305    0.589112    0.589112    0.589112    0.000000    0.000000    0.000000
   25.299525    0.650052    0.650052    0.650052   -0.000000   -0.000000   -0.000000
   26.880746    0.757159    0.757159    0.757159   -0.000000   -0.000000   -0.000000
   28.461966    0.780046    0.780046    0.780046   -0.000000   -0.000000    0.000000
   30.043186    0.822321    0.822321    0.822321   -0.000000   -0.000000   -0.000000
   31.624406    0.830096    0.830096    0.830096   -0.000000   -0.000000   -0.000000
   33.205627    0.863701    0.863701    0.863701   -0.000000   -0.000000   -0.000000
   34.786847    0.868152    0.868152    0.868152    0.000000   -0.000000   -0.000000
   36.368067    0.903180    0.903180    0.903180    0.000000    0.000000    0.000000
   37.949288    0.927809    0.927809    0.927809    0.000000    0.000000    0.000000
   39.530508    0.949501    0.949501    0.949501    0.000000    0.000000    0.000000
   41.111728    0.976473    0.976473    0.976473   -0.000000   -0.000000   -0.000000
   42.692949    1.003284    1.003284    1.003284   -0.000000   -0.000000   -0.000000
   44.274169    1.032356    1.032356    1.032356   -0.000000   -0.000000   -0.000000
   45.855389    1.059938    1.059938    1.059938    0.000000   -0.000000    0.000000
   47.436610    1.067982    1.067982    1.067982   -0.000000   -0.000000   -0.000000
   49.017830    1.098805    1.098805    1.098805   -0.000000   -0.000000   -0.000000
   50.599050    1.121606    1.121606    1.121606   -0.000000   -0.000000   -0.000000
   52.180271    1.123904    1.123904    1.123904   -0.000000   -0.000000   -0.000000
   53.761491    1.201591    1.201591    1.201591   -0.000000   -0.000000   -0.000000
   55.342711    1.349586    1.349586    1.349586   -0.000000   -0.000000   -0.000000
   56.923932    0.993614    0.993614    0.993614   -0.000000   -0.000000   -0.000000
   58.505152    1.063376    1.063376    1.063376    0.000000    0.000000    0.000000
   60.086372    1.188644    1.188644    1.188644   -0.000000   -0.000000   -0.000000
   61.667593    0.971361    0.971361    0.971361    0.000000    0.000000    0.000000
   63.248813    0.885539    0.885539    0.885539   -0.000000   -0.000000   -0.000000
   64.830033    0.890019    0.890019    0.890019   -0.000000   -0.000000   -0.000000
   66.411254    0.883340    0.883340    0.883340   -0.000000   -0.000000   -0.000000
   67.992474    0.752865    0.752866    0.752866   -0.000000   -0.000000   -0.000000
   69.573694    0.866813    0.866813    0.866813   -0.000000   -0.000000   -0.000000
   71.154915    0.875393    0.875393    0.875393    0.000000    0.000000    0.000000
   72.736135    0.764170    0.764170    0.764170    0.000000    0.000000    0.000000
   74.317355    0.914428    0.914428    0.914428   -0.000000    0.000000   -0.000000
   75.898576    0.820269    0.820269    0.820269   -0.000000   -0.000000   -0.000000
   77.479796    0.856010    0.856010    0.856010    0.000000    0.000000    0.000000
   79.061016    0.868601    0.868601    0.868601   -0.000000   -0.000000   -0.000000
   80.642237    0.866944    0.866944    0.866944   -0.000000   -0.000000   -0.000000
   82.223457    0.837659    0.837659    0.837659    0.000000   -0.000000    0.000000
   83.804677    0.908904    0.908904    0.908904    0.000000    0.000000    0.000000
   85.385898    0.860191    0.860191    0.860191    0.000000    0.000000    0.000000
   86.967118    0.882499    0.882499    0.882499    0.000000    0.000000    0.000000
   88.548338    0.873799    0.873799    0.873799    0.000000   -0.000000    0.000000
   90.129558    0.896449    0.896449    0.896449   -0.000000   -0.000000   -0.000000
   91.710779    0.904572    0.904572    0.904572    0.000000   -0.000000    0.000000
   93.291999    0.895168    0.895168    0.895168   -0.000000   -0.000000   -0.000000
   94.873219    0.907562    0.907562    0.907562   -0.000000    0.000000    0.000000
   96.454440    0.915157    0.915157    0.915157   -0.000000   -0.000000   -0.000000
   98.035660    0.919750    0.919750    0.919750   -0.000000   -0.000000   -0.000000
   99.616880    0.922230    0.922230    0.922230   -0.000000   -0.000000   -0.000000
  101.198101    0.910173    0.910173    0.910173   -0.000000   -0.000000   -0.000000
  102.779321    0.923716    0.923716    0.923716   -0.000000   -0.000000   -0.000000
  104.360541    0.920567    0.920567    0.920567   -0.000000   -0.000000   -0.000000
  105.941762    0.921887    0.921887    0.921887    0.000000   -0.000000    0.000000
  107.522982    0.930721    0.930721    0.930721   -0.000000   -0.000000   -0.000000
  109.104202    0.936084    0.936084    0.936084   -0.000000   -0.000000   -0.000000
  110.685423    0.937853    0.937853    0.937853    0.000000    0.000000    0.000000
  112.266643    0.940563    0.940563    0.940563    0.000000   -0.000000    0.000000
  113.847863    0.940214    0.940214    0.940214   -0.000000    0.000000    0.000000
  115.429084    0.937793    0.937793    0.937793   -0.000000   -0.000000   -0.000000
  117.010304    0.944243    0.944243    0.944243   -0.000000   -0.000000   -0.000000
  118.591524    0.947007    0.947007    0.947007    0.000000    0.000000    0.000000
  120.172745    0.946782    0.946782    0.946782   -0.000000   -0.000000   -0.000000
  121.753965    0.947360    0.947360    0.947360    0.000000    0.000000   -0.000000
  123.335185    0.947469    0.947469    0.947469   -0.000000   -0.000000   -0.000000
  124.916406    0.949432    0.949432    0.949432   -0.000000   -0.000000   -0.000000
  126.497626    0.952061    0.952061    0.952061   -0.000000   -0.000000   -0.000000
  128.078846    0.951609    0.951609    0.951609   -0.000000   -0.000000   -0.000000
  129.660067    0.953006    0.953006    0.953006   -0.000000    0.000000    0.000000
  131.241287    0.956234    0.956234    0.956234   -0.000000   -0.000000   -0.000000
  132.822507    0.958231    0.958231    0.958231   -0.000000   -0.000000   -0.000000
  134.403728    0.959991    0.959991    0.959991   -0.000000    0.000000   -0.000000
  135.984948    0.961521    0.961521    0.961521   -0.000000    0.000000   -0.000000
  137.566168    0.962897    0.962897    0.962897   -0.000000    0.000000   -0.000000
  139.147389    0.964157    0.964157    0.964157   -0.000000    0.000000   -0.000000
  140.728609    0.965322    0.965322    0.965322   -0.000000    0.000000   -0.000000
  142.309829    0.966408    0.966408    0.966408   -0.000000    0.000000   -0.000000
  143.891050    0.967427    0.967427    0.967427   -0.000000    0.000000   -0.000000
  145.472270    0.968385    0.968385    0.968385   -0.000000    0.000000   -0.000000
  147.053490    0.969291    0.969291    0.969291   -0.000000    0.000000   -0.000000
  148.634710    0.970148    0.970148    0.970148   -0.000000    0.000000   -0.000000
  150.215931    0.970962    0.970962    0.970962   -0.000000    0.000000   -0.000000
  151.797151    0.971737    0.971737    0.971737   -0.000000    0.000000   -0.000000
  153.378371    0.972476    0.972476    0.972476   -0.000000    0.000000   -0.000000
  154.959592    0.973181    0.973181    0.973181   -0.000000    0.000000   -0.000000
  156.540812    0.973855    0.973855    0.973855   -0.000000    0.000000   -0.000000
 
 The outermost node in the dielectric function lies at epsilon=  19.6


--------------------------------------------------------------------------------------------------------


    OPTICS:  cpu time    1.1418: real time    1.1994
    4ORBIT:  cpu time    0.0000: real time    0.0000

 Spin-Orbit-Coupling matrix elements

 Ion:    1  E_soc:     -3.6862014
 l=   1
     0.0000000    -0.4914494    -0.4914494
    -0.4914494     0.0000000    -0.4914494
    -0.4914494    -0.4914494     0.0000000
 l=   2
     0.0000000    -0.0245831     0.0000000    -0.0245831    -0.0983340
    -0.0245831     0.0000000    -0.0737505    -0.0245827    -0.0245831
     0.0000000    -0.0737505     0.0000000    -0.0737505     0.0000000
    -0.0245831    -0.0245827    -0.0737505     0.0000000    -0.0245831
    -0.0983340    -0.0245831     0.0000000    -0.0245831     0.0000000
 l=   3
     0.0000000    -0.0000000     0.0000000     0.0000000     0.0000000    -0.0000000    -0.0000006
    -0.0000000     0.0000000    -0.0000002     0.0000000    -0.0000002    -0.0000001    -0.0000001
     0.0000000    -0.0000002     0.0000000    -0.0000003    -0.0000001    -0.0000002     0.0000000
     0.0000000     0.0000000    -0.0000003     0.0000000    -0.0000003     0.0000000     0.0000000
     0.0000000    -0.0000002    -0.0000001    -0.0000003     0.0000000    -0.0000002     0.0000000
    -0.0000000    -0.0000001    -0.0000002     0.0000000    -0.0000002     0.0000000    -0.0000001
    -0.0000006    -0.0000001     0.0000000     0.0000000     0.0000000    -0.0000001     0.0000000

 total amount of memory used by VASP MPI-rank0   269605. kBytes
=======================================================================

   base      :      30000. kBytes
   nonl-proj :      13046. kBytes
   fftplans  :       6572. kBytes
   grid      :       5619. kBytes
   one-center:        262. kBytes
   wavefun   :     214106. kBytes
 
  
  
 General timing and accounting informations for this job:
 ========================================================
  
                  Total CPU time used (sec):      643.475
                            User time (sec):      635.491
                          System time (sec):        7.984
                         Elapsed time (sec):      644.120
  
                   Maximum memory used (kb):     1568452.
                   Average memory used (kb):           0.
  
                          Minor page faults:       136430
                          Major page faults:            0
                 Voluntary context switches:         7337
