   1   1   0   0
  0.5789729E+02  0.4342346E-09  0.4342346E-09  0.4342346E-09  0.1000000E-15
  1.000000000000000E-004
  CAR 
 Og_FCC                                  
     46.52415841    -34.13471374  301      3.95979942      1.00000000
    -34.135  0.0000E+00  0.0000E+00
    -33.866  0.0000E+00  0.0000E+00
    -33.597  0.0000E+00  0.0000E+00
    -33.328  0.0000E+00  0.0000E+00
    -33.059  0.0000E+00  0.0000E+00
    -32.790  0.0000E+00  0.0000E+00
    -32.522  0.0000E+00  0.0000E+00
    -32.253  0.0000E+00  0.0000E+00
    -31.984  0.0000E+00  0.0000E+00
    -31.715  0.0000E+00  0.0000E+00
    -31.446  0.0000E+00  0.0000E+00
    -31.177  0.0000E+00  0.0000E+00
    -30.908  0.0000E+00  0.0000E+00
    -30.639  0.0000E+00  0.0000E+00
    -30.371  0.0000E+00  0.4000E+01
    -30.102  0.0000E+00  0.4000E+01
    -29.833  0.0000E+00  0.4000E+01
    -29.564  0.0000E+00  0.4000E+01
    -29.295  0.0000E+00  0.4000E+01
    -29.026  0.0000E+00  0.4000E+01
    -28.757  0.0000E+00  0.4000E+01
    -28.489  0.0000E+00  0.4000E+01
    -28.220  0.0000E+00  0.4000E+01
    -27.951  0.0000E+00  0.4000E+01
    -27.682  0.0000E+00  0.4000E+01
    -27.413  0.0000E+00  0.4000E+01
    -27.144  0.0000E+00  0.4000E+01
    -26.875  0.0000E+00  0.4000E+01
    -26.607  0.0000E+00  0.4000E+01
    -26.338  0.0000E+00  0.4000E+01
    -26.069  0.0000E+00  0.4000E+01
    -25.800  0.0000E+00  0.4000E+01
    -25.531  0.0000E+00  0.4000E+01
    -25.262  0.0000E+00  0.4000E+01
    -24.993  0.0000E+00  0.4000E+01
    -24.725  0.0000E+00  0.4000E+01
    -24.456  0.0000E+00  0.4000E+01
    -24.187  0.0000E+00  0.4000E+01
    -23.918  0.0000E+00  0.4000E+01
    -23.649  0.0000E+00  0.1000E+02
    -23.380  0.0000E+00  0.1000E+02
    -23.111  0.0000E+00  0.1000E+02
    -22.842  0.0000E+00  0.1000E+02
    -22.574  0.0000E+00  0.1000E+02
    -22.305  0.0000E+00  0.1000E+02
    -22.036  0.0000E+00  0.1000E+02
    -21.767  0.0000E+00  0.1000E+02
    -21.498  0.0000E+00  0.1000E+02
    -21.229  0.0000E+00  0.1000E+02
    -20.960  0.0000E+00  0.1000E+02
    -20.692  0.0000E+00  0.1000E+02
    -20.423  0.0000E+00  0.1000E+02
    -20.154  0.1599E-09  0.1003E+02
    -19.885  0.0000E+00  0.1200E+02
    -19.616  0.0000E+00  0.1200E+02
    -19.347  0.0000E+00  0.1200E+02
    -19.078  0.0000E+00  0.1200E+02
    -18.810  0.0000E+00  0.1200E+02
    -18.541  0.0000E+00  0.1200E+02
    -18.272  0.0000E+00  0.1200E+02
    -18.003  0.0000E+00  0.1200E+02
    -17.734  0.0000E+00  0.1200E+02
    -17.465  0.0000E+00  0.1200E+02
    -17.196  0.0000E+00  0.1200E+02
    -16.927  0.0000E+00  0.1200E+02
    -16.659  0.0000E+00  0.1200E+02
    -16.390  0.0000E+00  0.1200E+02
    -16.121  0.0000E+00  0.1200E+02
    -15.852  0.0000E+00  0.1200E+02
    -15.583  0.0000E+00  0.1200E+02
    -15.314  0.0000E+00  0.1200E+02
    -15.045  0.0000E+00  0.1200E+02
    -14.777  0.0000E+00  0.1200E+02
    -14.508  0.0000E+00  0.1200E+02
    -14.239  0.0000E+00  0.1200E+02
    -13.970  0.0000E+00  0.1200E+02
    -13.701  0.0000E+00  0.1200E+02
    -13.432  0.0000E+00  0.1200E+02
    -13.163  0.0000E+00  0.1200E+02
    -12.895  0.0000E+00  0.1200E+02
    -12.626  0.0000E+00  0.1200E+02
    -12.357  0.0000E+00  0.1200E+02
    -12.088  0.0000E+00  0.1200E+02
    -11.819  0.0000E+00  0.1200E+02
    -11.550  0.0000E+00  0.1200E+02
    -11.281  0.0000E+00  0.1200E+02
    -11.013  0.0000E+00  0.1200E+02
    -10.744  0.0000E+00  0.1200E+02
    -10.475  0.0000E+00  0.1200E+02
    -10.206  0.0000E+00  0.1200E+02
     -9.937  0.0000E+00  0.1200E+02
     -9.668  0.0000E+00  0.1200E+02
     -9.399  0.0000E+00  0.1200E+02
     -9.130  0.0000E+00  0.1200E+02
     -8.862  0.0000E+00  0.1200E+02
     -8.593  0.0000E+00  0.1200E+02
     -8.324  0.0000E+00  0.1200E+02
     -8.055  0.0000E+00  0.1200E+02
     -7.786  0.0000E+00  0.1200E+02
     -7.517  0.0000E+00  0.1200E+02
     -7.248  0.0000E+00  0.1353E+02
     -6.980  0.0000E+00  0.1397E+02
     -6.711  0.0000E+00  0.1400E+02
     -6.442  0.0000E+00  0.1400E+02
     -6.173  0.0000E+00  0.1400E+02
     -5.904  0.0000E+00  0.1400E+02
     -5.635  0.0000E+00  0.1400E+02
     -5.366  0.0000E+00  0.1400E+02
     -5.098  0.0000E+00  0.1400E+02
     -4.829  0.0000E+00  0.1400E+02
     -4.560  0.0000E+00  0.1400E+02
     -4.291  0.0000E+00  0.1400E+02
     -4.022  0.0000E+00  0.1400E+02
     -3.753  0.0000E+00  0.1400E+02
     -3.484  0.0000E+00  0.1400E+02
     -3.215  0.0000E+00  0.1400E+02
     -2.947  0.0000E+00  0.1400E+02
     -2.678  0.0000E+00  0.1400E+02
     -2.409  0.0000E+00  0.1400E+02
     -2.140  0.0000E+00  0.1400E+02
     -1.871  0.0000E+00  0.1400E+02
     -1.602  0.0000E+00  0.1400E+02
     -1.333  0.0000E+00  0.1400E+02
     -1.065  0.0000E+00  0.1400E+02
     -0.796  0.0000E+00  0.1400E+02
     -0.527  0.0000E+00  0.1400E+02
     -0.258  0.0000E+00  0.1400E+02
      0.011  0.0000E+00  0.1400E+02
      0.280  0.0000E+00  0.1400E+02
      0.549  0.0000E+00  0.1400E+02
      0.817  0.0000E+00  0.1422E+02
      1.086  0.0000E+00  0.1553E+02
      1.355  0.0000E+00  0.1553E+02
      1.624  0.0000E+00  0.1616E+02
      1.893  0.0000E+00  0.1616E+02
      2.162  0.0000E+00  0.1616E+02
      2.431  0.0000E+00  0.1700E+02
      2.700  0.0000E+00  0.1738E+02
      2.968  0.0000E+00  0.1738E+02
      3.237  0.0000E+00  0.1756E+02
      3.506  0.0000E+00  0.1769E+02
      3.775  0.0000E+00  0.1797E+02
      4.044  0.0000E+00  0.1803E+02
      4.313  0.0000E+00  0.1803E+02
      4.582  0.0000E+00  0.1803E+02
      4.850  0.0000E+00  0.1803E+02
      5.119  0.0000E+00  0.1803E+02
      5.388  0.0000E+00  0.1803E+02
      5.657  0.0000E+00  0.1803E+02
      5.926  0.0000E+00  0.1803E+02
      6.195  0.0000E+00  0.1828E+02
      6.464  0.0000E+00  0.1850E+02
      6.732  0.0000E+00  0.1850E+02
      7.001  0.0000E+00  0.1869E+02
      7.270  0.0000E+00  0.1869E+02
      7.539  0.0000E+00  0.1944E+02
      7.808  0.0000E+00  0.2009E+02
      8.077  0.0000E+00  0.2009E+02
      8.346  0.0000E+00  0.2009E+02
      8.614  0.0000E+00  0.2028E+02
      8.883  0.0000E+00  0.2141E+02
      9.152  0.0000E+00  0.2141E+02
      9.421  0.0000E+00  0.2141E+02
      9.690  0.3162E-01  0.2141E+02
      9.959  0.0000E+00  0.2203E+02
     10.228  0.3780E-05  0.2222E+02
     10.497  0.0000E+00  0.2347E+02
     10.765  0.0000E+00  0.2391E+02
     11.034  0.0000E+00  0.2431E+02
     11.303  0.4927E-01  0.2461E+02
     11.572  0.0000E+00  0.2500E+02
     11.841  0.0000E+00  0.2525E+02
     12.110  0.4649E+00  0.2631E+02
     12.379  0.0000E+00  0.2631E+02
     12.647  0.0000E+00  0.2669E+02
     12.916  0.3487E+00  0.2719E+02
     13.185  0.0000E+00  0.2738E+02
     13.454  0.3785E-06  0.2741E+02
     13.723  0.0000E+00  0.2841E+02
     13.992  0.0000E+00  0.2878E+02
     14.261  0.0000E+00  0.2878E+02
     14.529  0.0000E+00  0.2884E+02
     14.798  0.0000E+00  0.3003E+02
     15.067  0.0000E+00  0.3125E+02
     15.336  0.0000E+00  0.3216E+02
     15.605  0.0000E+00  0.3291E+02
     15.874  0.0000E+00  0.3291E+02
     16.143  0.0000E+00  0.3303E+02
     16.412  0.0000E+00  0.3325E+02
     16.680  0.0000E+00  0.3325E+02
     16.949  0.0000E+00  0.3444E+02
     17.218  0.0000E+00  0.3481E+02
     17.487  0.0000E+00  0.3588E+02
     17.756  0.0000E+00  0.3672E+02
     18.025  0.0000E+00  0.3691E+02
     18.294  0.0000E+00  0.3831E+02
     18.562  0.0000E+00  0.3928E+02
     18.831  0.0000E+00  0.4041E+02
     19.100  0.2325E+00  0.4103E+02
     19.369  0.0000E+00  0.4184E+02
     19.638  0.0000E+00  0.4253E+02
     19.907  0.0000E+00  0.4253E+02
     20.176  0.0000E+00  0.4422E+02
     20.444  0.2466E-12  0.4469E+02
     20.713  0.0000E+00  0.4625E+02
     20.982  0.3348E+00  0.4634E+02
     21.251  0.0000E+00  0.4644E+02
     21.520  0.0000E+00  0.4644E+02
     21.789  0.0000E+00  0.4644E+02
     22.058  0.1028E-05  0.4756E+02
     22.326  0.0000E+00  0.4766E+02
     22.595  0.0000E+00  0.4784E+02
     22.864  0.0000E+00  0.4784E+02
     23.133  0.2905E+00  0.4872E+02
     23.402  0.0000E+00  0.4988E+02
     23.671  0.0000E+00  0.4988E+02
     23.940  0.0000E+00  0.4988E+02
     24.209  0.0000E+00  0.5062E+02
     24.477  0.0000E+00  0.5147E+02
     24.746  0.0000E+00  0.5222E+02
     25.015  0.3462E-12  0.5259E+02
     25.284  0.0000E+00  0.5428E+02
     25.553  0.0000E+00  0.5603E+02
     25.822  0.0000E+00  0.5647E+02
     26.091  0.0000E+00  0.5684E+02
     26.359  0.0000E+00  0.5691E+02
     26.628  0.0000E+00  0.5694E+02
     26.897  0.0000E+00  0.5719E+02
     27.166  0.0000E+00  0.5816E+02
     27.435  0.0000E+00  0.5891E+02
     27.704  0.3487E+00  0.5984E+02
     27.973  0.0000E+00  0.6006E+02
     28.241  0.0000E+00  0.6125E+02
     28.510  0.0000E+00  0.6212E+02
     28.779  0.0000E+00  0.6212E+02
     29.048  0.0000E+00  0.6212E+02
     29.317  0.0000E+00  0.6288E+02
     29.586  0.0000E+00  0.6316E+02
     29.855  0.0000E+00  0.6353E+02
     30.124  0.0000E+00  0.6362E+02
     30.392  0.0000E+00  0.6491E+02
     30.661  0.1183E-10  0.6491E+02
     30.930  0.0000E+00  0.6562E+02
     31.199  0.3696E+00  0.6582E+02
     31.468  0.0000E+00  0.6709E+02
     31.737  0.1743E+00  0.6847E+02
     32.006  0.0000E+00  0.6875E+02
     32.274  0.0000E+00  0.7006E+02
     32.543  0.0000E+00  0.7056E+02
     32.812  0.0000E+00  0.7138E+02
     33.081  0.0000E+00  0.7191E+02
     33.350  0.1230E-08  0.7209E+02
     33.619  0.0000E+00  0.7303E+02
     33.888  0.0000E+00  0.7375E+02
     34.156  0.0000E+00  0.7438E+02
     34.425  0.0000E+00  0.7512E+02
     34.694  0.0000E+00  0.7594E+02
     34.963  0.0000E+00  0.7669E+02
     35.232  0.0000E+00  0.7744E+02
     35.501  0.0000E+00  0.7875E+02
     35.770  0.0000E+00  0.7900E+02
     36.039  0.0000E+00  0.8025E+02
     36.307  0.0000E+00  0.8044E+02
     36.576  0.0000E+00  0.8103E+02
     36.845  0.0000E+00  0.8153E+02
     37.114  0.0000E+00  0.8262E+02
     37.383  0.0000E+00  0.8319E+02
     37.652  0.6974E+00  0.8372E+02
     37.921  0.0000E+00  0.8419E+02
     38.189  0.3795E+00  0.8513E+02
     38.458  0.0000E+00  0.8541E+02
     38.727  0.0000E+00  0.8600E+02
     38.996  0.0000E+00  0.8675E+02
     39.265  0.0000E+00  0.8719E+02
     39.534  0.0000E+00  0.8769E+02
     39.803  0.0000E+00  0.8825E+02
     40.071  0.1689E+00  0.8895E+02
     40.340  0.0000E+00  0.8969E+02
     40.609  0.0000E+00  0.9075E+02
     40.878  0.0000E+00  0.9125E+02
     41.147  0.0000E+00  0.9169E+02
     41.416  0.2325E+00  0.9328E+02
     41.685  0.0000E+00  0.9347E+02
     41.953  0.0000E+00  0.9434E+02
     42.222  0.1395E+01  0.9509E+02
     42.491  0.2070E+00  0.9552E+02
     42.760  0.0000E+00  0.9597E+02
     43.029  0.0000E+00  0.9600E+02
     43.298  0.0000E+00  0.9600E+02
     43.567  0.0000E+00  0.9600E+02
     43.836  0.0000E+00  0.9600E+02
     44.104  0.0000E+00  0.9600E+02
     44.373  0.0000E+00  0.9600E+02
     44.642  0.0000E+00  0.9600E+02
     44.911  0.0000E+00  0.9600E+02
     45.180  0.0000E+00  0.9600E+02
     45.449  0.0000E+00  0.9600E+02
     45.718  0.0000E+00  0.9600E+02
     45.986  0.0000E+00  0.9600E+02
     46.255  0.0000E+00  0.9600E+02
     46.524  0.0000E+00  0.9600E+02
