   1   1   0   0
  0.6532254E+02  0.4520565E-09  0.4520565E-09  0.4520565E-09  0.1000000E-15
  1.000000000000000E-004
  CAR 
 Og_FCC                                  
     52.89452729    -55.30648212  301     -3.55033262      1.00000000
    -55.306  0.0000E+00  0.0000E+00
    -54.946  0.0000E+00  0.0000E+00
    -54.585  0.0000E+00  0.0000E+00
    -54.224  0.0000E+00  0.0000E+00
    -53.864  0.0000E+00  0.0000E+00
    -53.503  0.0000E+00  0.0000E+00
    -53.142  0.0000E+00  0.0000E+00
    -52.782  0.0000E+00  0.0000E+00
    -52.421  0.0000E+00  0.0000E+00
    -52.060  0.0000E+00  0.0000E+00
    -51.700  0.0000E+00  0.0000E+00
    -51.339  0.0000E+00  0.0000E+00
    -50.978  0.0000E+00  0.0000E+00
    -50.618  0.0000E+00  0.0000E+00
    -50.257  0.0000E+00  0.4000E+01
    -49.896  0.0000E+00  0.4000E+01
    -49.536  0.0000E+00  0.4000E+01
    -49.175  0.0000E+00  0.4000E+01
    -48.814  0.0000E+00  0.4000E+01
    -48.454  0.0000E+00  0.4000E+01
    -48.093  0.0000E+00  0.4000E+01
    -47.732  0.0000E+00  0.4000E+01
    -47.372  0.0000E+00  0.4000E+01
    -47.011  0.0000E+00  0.4000E+01
    -46.650  0.0000E+00  0.4000E+01
    -46.290  0.0000E+00  0.4000E+01
    -45.929  0.0000E+00  0.4000E+01
    -45.568  0.0000E+00  0.1000E+02
    -45.208  0.0000E+00  0.1000E+02
    -44.847  0.0000E+00  0.1000E+02
    -44.486  0.0000E+00  0.1000E+02
    -44.126  0.0000E+00  0.1000E+02
    -43.765  0.0000E+00  0.1000E+02
    -43.404  0.0000E+00  0.1000E+02
    -43.044  0.0000E+00  0.1000E+02
    -42.683  0.0000E+00  0.1000E+02
    -42.322  0.0000E+00  0.1000E+02
    -41.962  0.0000E+00  0.1000E+02
    -41.601  0.0000E+00  0.1000E+02
    -41.240  0.0000E+00  0.1000E+02
    -40.880  0.0000E+00  0.1000E+02
    -40.519  0.0000E+00  0.1000E+02
    -40.158  0.0000E+00  0.1000E+02
    -39.798  0.0000E+00  0.1000E+02
    -39.437  0.0000E+00  0.1000E+02
    -39.076  0.0000E+00  0.1000E+02
    -38.716  0.0000E+00  0.1000E+02
    -38.355  0.0000E+00  0.1000E+02
    -37.994  0.0000E+00  0.1000E+02
    -37.634  0.0000E+00  0.1000E+02
    -37.273  0.0000E+00  0.1000E+02
    -36.912  0.0000E+00  0.1000E+02
    -36.552  0.0000E+00  0.1000E+02
    -36.191  0.0000E+00  0.1000E+02
    -35.830  0.0000E+00  0.1000E+02
    -35.470  0.0000E+00  0.1000E+02
    -35.109  0.0000E+00  0.1000E+02
    -34.748  0.0000E+00  0.1000E+02
    -34.388  0.0000E+00  0.1000E+02
    -34.027  0.0000E+00  0.1000E+02
    -33.666  0.0000E+00  0.1000E+02
    -33.306  0.0000E+00  0.1000E+02
    -32.945  0.0000E+00  0.1000E+02
    -32.584  0.0000E+00  0.1000E+02
    -32.224  0.0000E+00  0.1000E+02
    -31.863  0.0000E+00  0.1000E+02
    -31.502  0.0000E+00  0.1000E+02
    -31.142  0.0000E+00  0.1000E+02
    -30.781  0.0000E+00  0.1000E+02
    -30.420  0.0000E+00  0.1000E+02
    -30.060  0.0000E+00  0.1000E+02
    -29.699  0.0000E+00  0.1000E+02
    -29.338  0.0000E+00  0.1000E+02
    -28.978  0.0000E+00  0.1000E+02
    -28.617  0.0000E+00  0.1000E+02
    -28.256  0.0000E+00  0.1000E+02
    -27.896  0.0000E+00  0.1000E+02
    -27.535  0.0000E+00  0.1000E+02
    -27.174  0.0000E+00  0.1000E+02
    -26.814  0.0000E+00  0.1000E+02
    -26.453  0.0000E+00  0.1000E+02
    -26.092  0.0000E+00  0.1000E+02
    -25.732  0.0000E+00  0.1000E+02
    -25.371  0.0000E+00  0.1000E+02
    -25.010  0.0000E+00  0.1000E+02
    -24.650  0.0000E+00  0.1000E+02
    -24.289  0.0000E+00  0.1000E+02
    -23.928  0.0000E+00  0.1000E+02
    -23.568  0.0000E+00  0.1000E+02
    -23.207  0.0000E+00  0.1000E+02
    -22.846  0.0000E+00  0.1000E+02
    -22.486  0.0000E+00  0.1000E+02
    -22.125  0.0000E+00  0.1000E+02
    -21.764  0.0000E+00  0.1000E+02
    -21.403  0.0000E+00  0.1000E+02
    -21.043  0.0000E+00  0.1000E+02
    -20.682  0.0000E+00  0.1000E+02
    -20.321  0.0000E+00  0.1001E+02
    -19.961  0.0000E+00  0.1200E+02
    -19.600  0.0000E+00  0.1200E+02
    -19.239  0.0000E+00  0.1200E+02
    -18.879  0.0000E+00  0.1200E+02
    -18.518  0.0000E+00  0.1200E+02
    -18.157  0.0000E+00  0.1200E+02
    -17.797  0.0000E+00  0.1200E+02
    -17.436  0.0000E+00  0.1200E+02
    -17.075  0.0000E+00  0.1200E+02
    -16.715  0.0000E+00  0.1200E+02
    -16.354  0.0000E+00  0.1200E+02
    -15.993  0.0000E+00  0.1200E+02
    -15.633  0.0000E+00  0.1200E+02
    -15.272  0.0000E+00  0.1200E+02
    -14.911  0.0000E+00  0.1200E+02
    -14.551  0.0000E+00  0.1200E+02
    -14.190  0.0000E+00  0.1200E+02
    -13.829  0.0000E+00  0.1200E+02
    -13.469  0.0000E+00  0.1200E+02
    -13.108  0.0000E+00  0.1200E+02
    -12.747  0.0000E+00  0.1200E+02
    -12.387  0.0000E+00  0.1200E+02
    -12.026  0.0000E+00  0.1200E+02
    -11.665  0.0000E+00  0.1200E+02
    -11.305  0.0000E+00  0.1200E+02
    -10.944  0.0000E+00  0.1200E+02
    -10.583  0.0000E+00  0.1200E+02
    -10.223  0.0000E+00  0.1200E+02
     -9.862  0.0000E+00  0.1200E+02
     -9.501  0.0000E+00  0.1200E+02
     -9.141  0.0000E+00  0.1200E+02
     -8.780  0.0000E+00  0.1200E+02
     -8.419  0.0000E+00  0.1200E+02
     -8.059  0.0000E+00  0.1334E+02
     -7.698  0.0000E+00  0.1391E+02
     -7.337  0.0000E+00  0.1400E+02
     -6.977  0.0000E+00  0.1400E+02
     -6.616  0.0000E+00  0.1400E+02
     -6.255  0.0000E+00  0.1400E+02
     -5.895  0.0000E+00  0.1400E+02
     -5.534  0.0000E+00  0.1400E+02
     -5.173  0.0000E+00  0.1534E+02
     -4.813  0.0000E+00  0.1584E+02
     -4.452  0.0000E+00  0.1693E+02
     -4.091  0.0000E+00  0.1760E+02
     -3.731  0.9700E-01  0.1799E+02
     -3.370  0.0000E+00  0.1800E+02
     -3.009  0.0000E+00  0.1800E+02
     -2.649  0.0000E+00  0.1800E+02
     -2.288  0.0000E+00  0.1800E+02
     -1.927  0.0000E+00  0.1800E+02
     -1.567  0.0000E+00  0.1800E+02
     -1.206  0.0000E+00  0.1800E+02
     -0.845  0.0000E+00  0.1800E+02
     -0.485  0.0000E+00  0.1800E+02
     -0.124  0.0000E+00  0.1800E+02
      0.237  0.0000E+00  0.1800E+02
      0.597  0.0000E+00  0.1800E+02
      0.958  0.0000E+00  0.1800E+02
      1.319  0.0000E+00  0.1800E+02
      1.679  0.0000E+00  0.1800E+02
      2.040  0.0000E+00  0.1800E+02
      2.401  0.0000E+00  0.1800E+02
      2.761  0.0000E+00  0.1800E+02
      3.122  0.0000E+00  0.1800E+02
      3.483  0.0000E+00  0.1801E+02
      3.843  0.0000E+00  0.1801E+02
      4.204  0.0000E+00  0.1805E+02
      4.565  0.0000E+00  0.1809E+02
      4.925  0.0000E+00  0.1816E+02
      5.286  0.0000E+00  0.1838E+02
      5.647  0.0000E+00  0.1853E+02
      6.007  0.0000E+00  0.1923E+02
      6.368  0.0000E+00  0.1969E+02
      6.729  0.0000E+00  0.2010E+02
      7.089  0.0000E+00  0.2042E+02
      7.450  0.0000E+00  0.2105E+02
      7.811  0.3442E+00  0.2173E+02
      8.171  0.0000E+00  0.2199E+02
      8.532  0.3880E+00  0.2272E+02
      8.893  0.0000E+00  0.2331E+02
      9.253  0.0000E+00  0.2391E+02
      9.614  0.0000E+00  0.2460E+02
      9.975  0.7760E+00  0.2523E+02
     10.335  0.0000E+00  0.2569E+02
     10.696  0.0000E+00  0.2601E+02
     11.057  0.0000E+00  0.2655E+02
     11.417  0.0000E+00  0.2683E+02
     11.778  0.0000E+00  0.2756E+02
     12.139  0.0000E+00  0.2802E+02
     12.499  0.0000E+00  0.2893E+02
     12.860  0.3880E+00  0.2965E+02
     13.221  0.0000E+00  0.3007E+02
     13.581  0.3880E+00  0.3063E+02
     13.942  0.0000E+00  0.3108E+02
     14.303  0.0000E+00  0.3161E+02
     14.664  0.0000E+00  0.3220E+02
     15.024  0.1293E+00  0.3252E+02
     15.385  0.0000E+00  0.3373E+02
     15.746  0.0000E+00  0.3476E+02
     16.106  0.0000E+00  0.3536E+02
     16.467  0.0000E+00  0.3603E+02
     16.828  0.2258E-13  0.3661E+02
     17.188  0.1152E-01  0.3813E+02
     17.549  0.0000E+00  0.3826E+02
     17.910  0.0000E+00  0.3897E+02
     18.270  0.0000E+00  0.3959E+02
     18.631  0.0000E+00  0.4037E+02
     18.992  0.1171E-13  0.4177E+02
     19.352  0.3660E-04  0.4313E+02
     19.713  0.0000E+00  0.4436E+02
     20.074  0.0000E+00  0.4492E+02
     20.434  0.3195E-13  0.4524E+02
     20.795  0.0000E+00  0.4556E+02
     21.156  0.0000E+00  0.4606E+02
     21.516  0.0000E+00  0.4743E+02
     21.877  0.4160E-15  0.4817E+02
     22.238  0.1293E+00  0.4937E+02
     22.598  0.3880E+00  0.5066E+02
     22.959  0.7419E-11  0.5178E+02
     23.320  0.0000E+00  0.5237E+02
     23.680  0.0000E+00  0.5265E+02
     24.041  0.0000E+00  0.5425E+02
     24.402  0.3132E-01  0.5560E+02
     24.762  0.0000E+00  0.5638E+02
     25.123  0.2422E-03  0.5691E+02
     25.484  0.0000E+00  0.5815E+02
     25.844  0.3880E+00  0.5975E+02
     26.205  0.1068E-08  0.6129E+02
     26.566  0.4534E-11  0.6306E+02
     26.926  0.1640E-01  0.6533E+02
     27.287  0.0000E+00  0.6736E+02
     27.648  0.9700E-01  0.6939E+02
     28.008  0.0000E+00  0.7127E+02
     28.369  0.1320E+00  0.7221E+02
     28.730  0.0000E+00  0.7263E+02
     29.090  0.1473E+00  0.7317E+02
     29.451  0.0000E+00  0.7439E+02
     29.812  0.1121E-05  0.7536E+02
     30.172  0.5963E-02  0.7667E+02
     30.533  0.0000E+00  0.7788E+02
     30.894  0.3862E+00  0.7951E+02
     31.254  0.0000E+00  0.8029E+02
     31.615  0.0000E+00  0.8161E+02
     31.976  0.0000E+00  0.8248E+02
     32.336  0.0000E+00  0.8359E+02
     32.697  0.0000E+00  0.8415E+02
     33.058  0.9700E-01  0.8548E+02
     33.418  0.0000E+00  0.8647E+02
     33.779  0.0000E+00  0.8718E+02
     34.140  0.0000E+00  0.8785E+02
     34.500  0.0000E+00  0.8907E+02
     34.861  0.2587E+00  0.8970E+02
     35.222  0.0000E+00  0.9065E+02
     35.582  0.0000E+00  0.9149E+02
     35.943  0.4667E-16  0.9290E+02
     36.304  0.1925E+00  0.9377E+02
     36.664  0.0000E+00  0.9541E+02
     37.025  0.0000E+00  0.9648E+02
     37.386  0.1293E+00  0.9718E+02
     37.746  0.0000E+00  0.9785E+02
     38.107  0.6414E+00  0.9919E+02
     38.468  0.0000E+00  0.1002E+03
     38.828  0.1072E-03  0.1013E+03
     39.189  0.1389E-14  0.1028E+03
     39.550  0.0000E+00  0.1042E+03
     39.910  0.3880E+00  0.1047E+03
     40.271  0.1434E-03  0.1059E+03
     40.632  0.0000E+00  0.1070E+03
     40.992  0.0000E+00  0.1080E+03
     41.353  0.0000E+00  0.1095E+03
     41.714  0.0000E+00  0.1110E+03
     42.074  0.0000E+00  0.1121E+03
     42.435  0.0000E+00  0.1128E+03
     42.796  0.0000E+00  0.1140E+03
     43.156  0.0000E+00  0.1148E+03
     43.517  0.2808E-13  0.1161E+03
     43.878  0.0000E+00  0.1177E+03
     44.238  0.0000E+00  0.1182E+03
     44.599  0.6915E-03  0.1189E+03
     44.960  0.0000E+00  0.1199E+03
     45.320  0.0000E+00  0.1212E+03
     45.681  0.3881E+00  0.1221E+03
     46.042  0.1940E+00  0.1233E+03
     46.402  0.0000E+00  0.1249E+03
     46.763  0.3880E+00  0.1258E+03
     47.124  0.0000E+00  0.1266E+03
     47.484  0.0000E+00  0.1271E+03
     47.845  0.0000E+00  0.1277E+03
     48.206  0.0000E+00  0.1280E+03
     48.566  0.0000E+00  0.1280E+03
     48.927  0.0000E+00  0.1280E+03
     49.288  0.0000E+00  0.1280E+03
     49.648  0.0000E+00  0.1280E+03
     50.009  0.0000E+00  0.1280E+03
     50.370  0.0000E+00  0.1280E+03
     50.731  0.0000E+00  0.1280E+03
     51.091  0.0000E+00  0.1280E+03
     51.452  0.0000E+00  0.1280E+03
     51.813  0.0000E+00  0.1280E+03
     52.173  0.0000E+00  0.1280E+03
     52.534  0.0000E+00  0.1280E+03
     52.895  0.0000E+00  0.1280E+03
