    1    1    1    1
  0.6532254E+02  0.4520565E-09  0.4520565E-09  0.4520565E-09  0.1000000E-15
  1.000000000000000E-004
  CAR 
 Og_FCC                                  
     18    343    128
 
  0.0000000E+00  0.0000000E+00  0.0000000E+00  0.2915452E-02
    1      -50.387722   1.000000
    2      -50.387641   1.000000
    3      -50.385265   1.000000
    4      -50.385183   1.000000
    5      -45.850484   1.000000
    6      -45.850478   1.000000
    7      -45.843723   1.000000
    8      -45.843630   1.000000
    9      -45.842756   1.000000
   10      -45.842658   1.000000
   11      -20.344915   1.000000
   12      -20.344914   1.000000
   13       -7.416276   1.000000
   14       -7.416275   1.000000
   15       -3.671288   1.000000
   16       -3.671284   1.000000
   17       -3.670960   1.000000
   18       -3.670957   1.000000
   19        3.341003   0.000000
   20        3.341003   0.000000
   21        9.156914   0.000000
   22        9.156989   0.000000
   23        9.157850   0.000000
   24        9.157924   0.000000
   25        9.234071   0.000000
   26        9.234072   0.000000
   27       10.641508   0.000000
   28       10.641508   0.000000
   29       11.972051   0.000000
   30       11.972064   0.000000
   31       11.999424   0.000000
   32       11.999441   0.000000
   33       12.751896   0.000000
   34       12.751898   0.000000
   35       12.938518   0.000000
   36       12.938519   0.000000
   37       12.938523   0.000000
   38       12.938525   0.000000
   39       14.643178   0.000000
   40       14.643178   0.000000
   41       22.145912   0.000000
   42       22.145912   0.000000
   43       22.172040   0.000000
   44       22.172040   0.000000
   45       22.172153   0.000000
   46       22.172153   0.000000
   47       23.382258   0.000000
   48       23.382260   0.000000
   49       25.511515   0.000000
   50       25.511519   0.000000
   51       25.511551   0.000000
   52       25.511556   0.000000
   53       26.437612   0.000000
   54       26.437832   0.000000
   55       26.438999   0.000000
   56       26.439210   0.000000
   57       26.770661   0.000000
   58       26.770662   0.000000
   59       27.195321   0.000000
   60       27.195386   0.000000
   61       27.501614   0.000000
   62       27.501614   0.000000
   63       28.284243   0.000000
   64       28.284250   0.000000
   65       25.180024   0.000000
   66       25.180024   0.000000
   67       25.327983   0.000000
   68       25.327983   0.000000
   69       25.327984   0.000000
   70       25.327984   0.000000
   71       26.737101   0.000000
   72       26.737103   0.000000
   73       32.773535   0.000000
   74       32.773536   0.000000
   75       32.802931   0.000000
   76       32.802931   0.000000
   77       32.802931   0.000000
   78       32.802931   0.000000
   79       34.526051   0.000000
   80       34.526052   0.000000
   81       34.526052   0.000000
   82       34.526052   0.000000
   83       34.741008   0.000000
   84       34.741008   0.000000
   85       35.327635   0.000000
   86       35.327636   0.000000
   87       35.327636   0.000000
   88       35.327636   0.000000
   89       35.327636   0.000000
   90       35.327636   0.000000
   91       35.765651   0.000000
   92       35.765651   0.000000
   93       35.765652   0.000000
   94       35.765652   0.000000
   95       35.948558   0.000000
   96       35.948558   0.000000
   97       36.161396   0.000000
   98       36.161397   0.000000
   99       36.161397   0.000000
  100       36.161398   0.000000
  101       38.113556   0.000000
  102       38.113557   0.000000
  103       38.113557   0.000000
  104       38.113558   0.000000
  105       38.141698   0.000000
  106       38.141698   0.000000
  107       38.509621   0.000000
  108       38.509624   0.000000
  109       38.833264   0.000000
  110       38.833264   0.000000
  111       38.833264   0.000000
  112       38.833264   0.000000
  113       40.828108   0.000000
  114       40.828109   0.000000
  115       40.842443   0.000000
  116       40.842443   0.000000
  117       40.842444   0.000000
  118       40.842444   0.000000
  119       41.086548   0.000000
  120       41.086549   0.000000
  121       41.802695   0.000000
  122       41.802696   0.000000
  123       42.121968   0.000000
  124       42.121968   0.000000
  125       42.121969   0.000000
  126       42.121969   0.000000
  127       42.137237   0.000000
  128       42.137238   0.000000
 
  0.1428571E+00  0.1290130E-17 -0.6938894E-17  0.2915452E-02
    1      -50.387268   1.000000
    2      -50.387258   1.000000
    3      -50.384772   1.000000
    4      -50.384766   1.000000
    5      -45.849506   1.000000
    6      -45.849490   1.000000
    7      -45.843125   1.000000
    8      -45.843090   1.000000
    9      -45.841973   1.000000
   10      -45.841928   1.000000
   11      -20.313609   1.000000
   12      -20.313607   1.000000
   13       -7.542728   1.000000
   14       -7.542726   1.000000
   15       -4.130236   1.000000
   16       -4.130235   1.000000
   17       -3.738618   1.000000
   18       -3.738614   1.000000
   19        4.031571   0.000000
   20        4.031572   0.000000
   21        8.419667   0.000000
   22        8.419667   0.000000
   23        9.343916   0.000000
   24        9.343994   0.000000
   25        9.400203   0.000000
   26        9.400204   0.000000
   27       11.064696   0.000000
   28       11.064699   0.000000
   29       11.106412   0.000000
   30       11.106493   0.000000
   31       11.498033   0.000000
   32       11.498034   0.000000
   33       12.523955   0.000000
   34       12.523955   0.000000
   35       14.398270   0.000000
   36       14.398272   0.000000
   37       14.471606   0.000000
   38       14.471620   0.000000
   39       16.228121   0.000000
   40       16.228121   0.000000
   41       20.718279   0.000000
   42       20.718294   0.000000
   43       20.882247   0.000000
   44       20.882273   0.000000
   45       21.624234   0.000000
   46       21.624239   0.000000
   47       22.233045   0.000000
   48       22.233045   0.000000
   49       23.721396   0.000000
   50       23.721413   0.000000
   51       24.493504   0.000000
   52       24.493542   0.000000
   53       26.721675   0.000000
   54       26.721780   0.000000
   55       26.898126   0.000000
   56       26.898150   0.000000
   57       27.001514   0.000000
   58       27.001595   0.000000
   59       27.639655   0.000000
   60       27.639664   0.000000
   61       27.714102   0.000000
   62       27.714301   0.000000
   63       27.811849   0.000000
   64       27.811941   0.000000
   65       25.683726   0.000000
   66       25.683726   0.000000
   67       26.208937   0.000000
   68       26.208937   0.000000
   69       26.813888   0.000000
   70       26.813888   0.000000
   71       29.258388   0.000000
   72       29.258389   0.000000
   73       31.759885   0.000000
   74       31.759885   0.000000
   75       31.830709   0.000000
   76       31.830710   0.000000
   77       32.068013   0.000000
   78       32.068013   0.000000
   79       32.075966   0.000000
   80       32.075966   0.000000
   81       32.881713   0.000000
   82       32.881713   0.000000
   83       33.095784   0.000000
   84       33.095784   0.000000
   85       34.705598   0.000000
   86       34.705598   0.000000
   87       34.856202   0.000000
   88       34.856202   0.000000
   89       35.457030   0.000000
   90       35.457030   0.000000
   91       35.541838   0.000000
   92       35.541838   0.000000
   93       36.009105   0.000000
   94       36.009105   0.000000
   95       36.172754   0.000000
   96       36.172754   0.000000
   97       36.262796   0.000000
   98       36.262796   0.000000
   99       36.275338   0.000000
  100       36.275338   0.000000
  101       36.655456   0.000000
  102       36.655456   0.000000
  103       37.909775   0.000000
  104       37.909775   0.000000
  105       38.322628   0.000000
  106       38.322629   0.000000
  107       38.438622   0.000000
  108       38.438622   0.000000
  109       39.894939   0.000000
  110       39.894940   0.000000
  111       40.033563   0.000000
  112       40.033563   0.000000
  113       40.037904   0.000000
  114       40.037904   0.000000
  115       41.536970   0.000000
  116       41.536970   0.000000
  117       41.588216   0.000000
  118       41.588216   0.000000
  119       42.118511   0.000000
  120       42.118512   0.000000
  121       42.988563   0.000000
  122       42.988563   0.000000
  123       43.221573   0.000000
  124       43.221574   0.000000
  125       43.433426   0.000000
  126       43.433427   0.000000
  127       43.473452   0.000000
  128       43.473453   0.000000
 
  0.2857143E+00  0.3033584E-16 -0.1387779E-16  0.2915452E-02
    1      -50.387386   1.000000
    2      -50.387335   1.000000
    3      -50.383924   1.000000
    4      -50.383914   1.000000
    5      -45.846844   1.000000
    6      -45.846825   1.000000
    7      -45.840914   1.000000
    8      -45.840884   1.000000
    9      -45.837857   1.000000
   10      -45.837754   1.000000
   11      -20.237724   1.000000
   12      -20.237723   1.000000
   13       -7.866248   1.000000
   14       -7.866247   1.000000
   15       -4.861720   1.000000
   16       -4.861719   1.000000
   17       -3.879347   1.000000
   18       -3.879346   1.000000
   19        5.078647   0.000000
   20        5.078647   0.000000
   21        8.209201   0.000000
   22        8.209201   0.000000
   23        9.143069   0.000000
   24        9.143266   0.000000
   25        9.216031   0.000000
   26        9.216031   0.000000
   27       10.718463   0.000000
   28       10.718464   0.000000
   29       11.394034   0.000000
   30       11.394034   0.000000
   31       11.489609   0.000000
   32       11.489788   0.000000
   33       15.020024   0.000000
   34       15.020024   0.000000
   35       16.741350   0.000000
   36       16.741352   0.000000
   37       16.836283   0.000000
   38       16.836302   0.000000
   39       17.765291   0.000000
   40       17.765294   0.000000
   41       18.196589   0.000000
   42       18.196696   0.000000
   43       18.285005   0.000000
   44       18.285010   0.000000
   45       19.109922   0.000000
   46       19.109923   0.000000
   47       22.394279   0.000000
   48       22.394279   0.000000
   49       23.777245   0.000000
   50       23.777247   0.000000
   51       24.468760   0.000000
   52       24.468790   0.000000
   53       25.512239   0.000000
   54       25.512240   0.000000
   55       26.099887   0.000000
   56       26.099891   0.000000
   57       26.385873   0.000000
   58       26.385916   0.000000
   59       27.355297   0.000000
   60       27.355533   0.000000
   61       27.507857   0.000000
   62       27.507863   0.000000
   63       27.691233   0.000000
   64       27.691269   0.000000
   65       25.930026   0.000000
   66       25.930027   0.000000
   67       26.746161   0.000000
   68       26.746161   0.000000
   69       27.228860   0.000000
   70       27.228860   0.000000
   71       27.990236   0.000000
   72       27.990236   0.000000
   73       30.362931   0.000000
   74       30.362931   0.000000
   75       30.483622   0.000000
   76       30.483622   0.000000
   77       30.554926   0.000000
   78       30.554927   0.000000
   79       31.365688   0.000000
   80       31.365688   0.000000
   81       31.480289   0.000000
   82       31.480290   0.000000
   83       31.690080   0.000000
   84       31.690080   0.000000
   85       33.599244   0.000000
   86       33.599245   0.000000
   87       34.389845   0.000000
   88       34.389845   0.000000
   89       34.555212   0.000000
   90       34.555213   0.000000
   91       35.105563   0.000000
   92       35.105563   0.000000
   93       35.180311   0.000000
   94       35.180311   0.000000
   95       36.429416   0.000000
   96       36.429416   0.000000
   97       36.748287   0.000000
   98       36.748287   0.000000
   99       36.755952   0.000000
  100       36.755952   0.000000
  101       37.333395   0.000000
  102       37.333395   0.000000
  103       38.206175   0.000000
  104       38.206176   0.000000
  105       39.235425   0.000000
  106       39.235425   0.000000
  107       39.487864   0.000000
  108       39.487864   0.000000
  109       40.124791   0.000000
  110       40.124793   0.000000
  111       40.802575   0.000000
  112       40.802575   0.000000
  113       40.928808   0.000000
  114       40.928808   0.000000
  115       43.754259   0.000000
  116       43.754260   0.000000
  117       44.330929   0.000000
  118       44.330929   0.000000
  119       44.529446   0.000000
  120       44.529446   0.000000
  121       44.885047   0.000000
  122       44.885048   0.000000
  123       45.267259   0.000000
  124       45.267259   0.000000
  125       45.346621   0.000000
  126       45.346622   0.000000
  127       45.683511   0.000000
  128       45.683512   0.000000
 
  0.4285714E+00  0.8713712E-16  0.2775558E-16  0.2915452E-02
    1      -50.386455   1.000000
    2      -50.386371   1.000000
    3      -50.382015   1.000000
    4      -50.382005   1.000000
    5      -45.844916   1.000000
    6      -45.844915   1.000000
    7      -45.838846   1.000000
    8      -45.838844   1.000000
    9      -45.834532   1.000000
   10      -45.834506   1.000000
   11      -20.175261   1.000000
   12      -20.175258   1.000000
   13       -8.152248   1.000000
   14       -8.152246   1.000000
   15       -5.274285   1.000000
   16       -5.274284   1.000000
   17       -3.985660   1.000000
   18       -3.985657   1.000000
   19        5.348627   0.000000
   20        5.348628   0.000000
   21        8.777512   0.000000
   22        8.777513   0.000000
   23        8.779740   0.000000
   24        8.779950   0.000000
   25        8.853216   0.000000
   26        8.853216   0.000000
   27       10.787620   0.000000
   28       10.787621   0.000000
   29       13.032071   0.000000
   30       13.032073   0.000000
   31       13.200428   0.000000
   32       13.200621   0.000000
   33       15.142987   0.000000
   34       15.142989   0.000000
   35       15.483234   0.000000
   36       15.483236   0.000000
   37       15.516650   0.000000
   38       15.516859   0.000000
   39       18.131974   0.000000
   40       18.131976   0.000000
   41       19.279211   0.000000
   42       19.279215   0.000000
   43       19.443203   0.000000
   44       19.443219   0.000000
   45       22.090226   0.000000
   46       22.090228   0.000000
   47       22.511821   0.000000
   48       22.511822   0.000000
   49       22.546783   0.000000
   50       22.546785   0.000000
   51       23.277066   0.000000
   52       23.277069   0.000000
   53       23.287332   0.000000
   54       23.287392   0.000000
   55       24.361792   0.000000
   56       24.361793   0.000000
   57       25.564316   0.000000
   58       25.564335   0.000000
   59       26.132844   0.000000
   60       26.132846   0.000000
   61       28.114179   0.000000
   62       28.114185   0.000000
   63       28.380075   0.000000
   64       28.380081   0.000000
   65       25.492243   0.000000
   66       25.492243   0.000000
   67       26.261809   0.000000
   68       26.261809   0.000000
   69       26.391583   0.000000
   70       26.391583   0.000000
   71       27.038156   0.000000
   72       27.038156   0.000000
   73       27.945186   0.000000
   74       27.945187   0.000000
   75       29.717100   0.000000
   76       29.717101   0.000000
   77       29.778728   0.000000
   78       29.778728   0.000000
   79       29.814684   0.000000
   80       29.814684   0.000000
   81       30.830851   0.000000
   82       30.830851   0.000000
   83       31.146533   0.000000
   84       31.146533   0.000000
   85       34.098999   0.000000
   86       34.098999   0.000000
   87       34.182411   0.000000
   88       34.182411   0.000000
   89       34.568291   0.000000
   90       34.568293   0.000000
   91       34.856398   0.000000
   92       34.856398   0.000000
   93       35.004281   0.000000
   94       35.004281   0.000000
   95       37.105270   0.000000
   96       37.105270   0.000000
   97       37.383031   0.000000
   98       37.383032   0.000000
   99       37.686693   0.000000
  100       37.686693   0.000000
  101       37.807757   0.000000
  102       37.807758   0.000000
  103       40.592661   0.000000
  104       40.592661   0.000000
  105       40.731480   0.000000
  106       40.731480   0.000000
  107       40.783333   0.000000
  108       40.783333   0.000000
  109       41.296031   0.000000
  110       41.296033   0.000000
  111       42.712286   0.000000
  112       42.712286   0.000000
  113       42.802849   0.000000
  114       42.802849   0.000000
  115       42.907615   0.000000
  116       42.907616   0.000000
  117       45.293366   0.000000
  118       45.293367   0.000000
  119       45.534392   0.000000
  120       45.534392   0.000000
  121       46.301568   0.000000
  122       46.301569   0.000000
  123       46.607346   0.000000
  124       46.607346   0.000000
  125       46.685707   0.000000
  126       46.685707   0.000000
  127       47.856784   0.000000
  128       47.856785   0.000000
 
 -0.4285714E+00 -0.8713712E-16 -0.2775558E-16  0.2915452E-02
    1      -50.386455   1.000000
    2      -50.386370   1.000000
    3      -50.382015   1.000000
    4      -50.382006   1.000000
    5      -45.844916   1.000000
    6      -45.844915   1.000000
    7      -45.838846   1.000000
    8      -45.838844   1.000000
    9      -45.834531   1.000000
   10      -45.834506   1.000000
   11      -20.175260   1.000000
   12      -20.175259   1.000000
   13       -8.152247   1.000000
   14       -8.152246   1.000000
   15       -5.274284   1.000000
   16       -5.274284   1.000000
   17       -3.985659   1.000000
   18       -3.985657   1.000000
   19        5.348627   0.000000
   20        5.348628   0.000000
   21        8.777512   0.000000
   22        8.777512   0.000000
   23        8.779738   0.000000
   24        8.779948   0.000000
   25        8.853217   0.000000
   26        8.853218   0.000000
   27       10.787619   0.000000
   28       10.787622   0.000000
   29       13.032071   0.000000
   30       13.032072   0.000000
   31       13.200429   0.000000
   32       13.200621   0.000000
   33       15.142989   0.000000
   34       15.142989   0.000000
   35       15.483234   0.000000
   36       15.483235   0.000000
   37       15.516649   0.000000
   38       15.516859   0.000000
   39       18.131974   0.000000
   40       18.131976   0.000000
   41       19.279209   0.000000
   42       19.279213   0.000000
   43       19.443207   0.000000
   44       19.443223   0.000000
   45       22.090226   0.000000
   46       22.090227   0.000000
   47       22.511820   0.000000
   48       22.511822   0.000000
   49       22.546784   0.000000
   50       22.546784   0.000000
   51       23.277065   0.000000
   52       23.277069   0.000000
   53       23.287329   0.000000
   54       23.287389   0.000000
   55       24.361789   0.000000
   56       24.361790   0.000000
   57       25.564312   0.000000
   58       25.564331   0.000000
   59       26.132844   0.000000
   60       26.132845   0.000000
   61       28.114182   0.000000
   62       28.114182   0.000000
   63       28.380076   0.000000
   64       28.380082   0.000000
   65       25.492243   0.000000
   66       25.492243   0.000000
   67       26.261809   0.000000
   68       26.261809   0.000000
   69       26.391583   0.000000
   70       26.391583   0.000000
   71       27.038156   0.000000
   72       27.038156   0.000000
   73       27.945186   0.000000
   74       27.945187   0.000000
   75       29.717100   0.000000
   76       29.717101   0.000000
   77       29.778728   0.000000
   78       29.778728   0.000000
   79       29.814684   0.000000
   80       29.814684   0.000000
   81       30.830851   0.000000
   82       30.830851   0.000000
   83       31.146533   0.000000
   84       31.146533   0.000000
   85       34.098999   0.000000
   86       34.098999   0.000000
   87       34.182411   0.000000
   88       34.182411   0.000000
   89       34.568291   0.000000
   90       34.568293   0.000000
   91       34.856398   0.000000
   92       34.856398   0.000000
   93       35.004281   0.000000
   94       35.004281   0.000000
   95       37.105270   0.000000
   96       37.105270   0.000000
   97       37.383031   0.000000
   98       37.383032   0.000000
   99       37.686693   0.000000
  100       37.686693   0.000000
  101       37.807757   0.000000
  102       37.807758   0.000000
  103       40.592661   0.000000
  104       40.592661   0.000000
  105       40.731480   0.000000
  106       40.731480   0.000000
  107       40.783333   0.000000
  108       40.783333   0.000000
  109       41.296031   0.000000
  110       41.296033   0.000000
  111       42.712286   0.000000
  112       42.712286   0.000000
  113       42.802849   0.000000
  114       42.802849   0.000000
  115       42.907615   0.000000
  116       42.907616   0.000000
  117       45.293366   0.000000
  118       45.293367   0.000000
  119       45.534392   0.000000
  120       45.534392   0.000000
  121       46.301568   0.000000
  122       46.301569   0.000000
  123       46.607346   0.000000
  124       46.607346   0.000000
  125       46.685707   0.000000
  126       46.685707   0.000000
  127       47.856784   0.000000
  128       47.856785   0.000000
 
 -0.2857143E+00 -0.3033584E-16  0.1387779E-16  0.2915452E-02
    1      -50.387386   1.000000
    2      -50.387335   1.000000
    3      -50.383924   1.000000
    4      -50.383914   1.000000
    5      -45.846844   1.000000
    6      -45.846825   1.000000
    7      -45.840914   1.000000
    8      -45.840884   1.000000
    9      -45.837857   1.000000
   10      -45.837754   1.000000
   11      -20.237724   1.000000
   12      -20.237723   1.000000
   13       -7.866248   1.000000
   14       -7.866246   1.000000
   15       -4.861720   1.000000
   16       -4.861720   1.000000
   17       -3.879347   1.000000
   18       -3.879346   1.000000
   19        5.078647   0.000000
   20        5.078648   0.000000
   21        8.209201   0.000000
   22        8.209201   0.000000
   23        9.143069   0.000000
   24        9.143265   0.000000
   25        9.216031   0.000000
   26        9.216031   0.000000
   27       10.718463   0.000000
   28       10.718463   0.000000
   29       11.394034   0.000000
   30       11.394035   0.000000
   31       11.489609   0.000000
   32       11.489788   0.000000
   33       15.020023   0.000000
   34       15.020023   0.000000
   35       16.741350   0.000000
   36       16.741352   0.000000
   37       16.836283   0.000000
   38       16.836302   0.000000
   39       17.765291   0.000000
   40       17.765294   0.000000
   41       18.196589   0.000000
   42       18.196696   0.000000
   43       18.285005   0.000000
   44       18.285010   0.000000
   45       19.109922   0.000000
   46       19.109923   0.000000
   47       22.394279   0.000000
   48       22.394280   0.000000
   49       23.777245   0.000000
   50       23.777247   0.000000
   51       24.468760   0.000000
   52       24.468790   0.000000
   53       25.512239   0.000000
   54       25.512240   0.000000
   55       26.099887   0.000000
   56       26.099891   0.000000
   57       26.385873   0.000000
   58       26.385916   0.000000
   59       27.355298   0.000000
   60       27.355534   0.000000
   61       27.507857   0.000000
   62       27.507863   0.000000
   63       27.691233   0.000000
   64       27.691269   0.000000
   65       25.930026   0.000000
   66       25.930027   0.000000
   67       26.746161   0.000000
   68       26.746161   0.000000
   69       27.228860   0.000000
   70       27.228860   0.000000
   71       27.990236   0.000000
   72       27.990236   0.000000
   73       30.362931   0.000000
   74       30.362931   0.000000
   75       30.483622   0.000000
   76       30.483622   0.000000
   77       30.554926   0.000000
   78       30.554927   0.000000
   79       31.365688   0.000000
   80       31.365688   0.000000
   81       31.480289   0.000000
   82       31.480290   0.000000
   83       31.690080   0.000000
   84       31.690080   0.000000
   85       33.599244   0.000000
   86       33.599245   0.000000
   87       34.389845   0.000000
   88       34.389845   0.000000
   89       34.555212   0.000000
   90       34.555213   0.000000
   91       35.105563   0.000000
   92       35.105563   0.000000
   93       35.180311   0.000000
   94       35.180311   0.000000
   95       36.429416   0.000000
   96       36.429416   0.000000
   97       36.748287   0.000000
   98       36.748287   0.000000
   99       36.755952   0.000000
  100       36.755952   0.000000
  101       37.333395   0.000000
  102       37.333395   0.000000
  103       38.206175   0.000000
  104       38.206176   0.000000
  105       39.235425   0.000000
  106       39.235425   0.000000
  107       39.487864   0.000000
  108       39.487864   0.000000
  109       40.124791   0.000000
  110       40.124793   0.000000
  111       40.802575   0.000000
  112       40.802575   0.000000
  113       40.928808   0.000000
  114       40.928808   0.000000
  115       43.754259   0.000000
  116       43.754260   0.000000
  117       44.330929   0.000000
  118       44.330929   0.000000
  119       44.529446   0.000000
  120       44.529446   0.000000
  121       44.885047   0.000000
  122       44.885048   0.000000
  123       45.267259   0.000000
  124       45.267259   0.000000
  125       45.346621   0.000000
  126       45.346622   0.000000
  127       45.683511   0.000000
  128       45.683512   0.000000
 
 -0.1428571E+00 -0.1516792E-16  0.6938894E-17  0.2915452E-02
    1      -50.387269   1.000000
    2      -50.387258   1.000000
    3      -50.384773   1.000000
    4      -50.384766   1.000000
    5      -45.849506   1.000000
    6      -45.849490   1.000000
    7      -45.843125   1.000000
    8      -45.843091   1.000000
    9      -45.841973   1.000000
   10      -45.841928   1.000000
   11      -20.313608   1.000000
   12      -20.313608   1.000000
   13       -7.542728   1.000000
   14       -7.542726   1.000000
   15       -4.130236   1.000000
   16       -4.130235   1.000000
   17       -3.738619   1.000000
   18       -3.738614   1.000000
   19        4.031571   0.000000
   20        4.031572   0.000000
   21        8.419667   0.000000
   22        8.419667   0.000000
   23        9.343915   0.000000
   24        9.343993   0.000000
   25        9.400203   0.000000
   26        9.400205   0.000000
   27       11.064695   0.000000
   28       11.064700   0.000000
   29       11.106413   0.000000
   30       11.106493   0.000000
   31       11.498033   0.000000
   32       11.498033   0.000000
   33       12.523955   0.000000
   34       12.523955   0.000000
   35       14.398270   0.000000
   36       14.398272   0.000000
   37       14.471606   0.000000
   38       14.471620   0.000000
   39       16.228121   0.000000
   40       16.228121   0.000000
   41       20.718279   0.000000
   42       20.718293   0.000000
   43       20.882248   0.000000
   44       20.882274   0.000000
   45       21.624235   0.000000
   46       21.624238   0.000000
   47       22.233047   0.000000
   48       22.233047   0.000000
   49       23.721395   0.000000
   50       23.721412   0.000000
   51       24.493504   0.000000
   52       24.493541   0.000000
   53       26.721675   0.000000
   54       26.721780   0.000000
   55       26.898126   0.000000
   56       26.898150   0.000000
   57       27.001514   0.000000
   58       27.001595   0.000000
   59       27.639655   0.000000
   60       27.639664   0.000000
   61       27.714102   0.000000
   62       27.714301   0.000000
   63       27.811849   0.000000
   64       27.811941   0.000000
   65       25.683726   0.000000
   66       25.683726   0.000000
   67       26.208936   0.000000
   68       26.208937   0.000000
   69       26.813888   0.000000
   70       26.813888   0.000000
   71       29.258388   0.000000
   72       29.258389   0.000000
   73       31.759885   0.000000
   74       31.759885   0.000000
   75       31.830709   0.000000
   76       31.830710   0.000000
   77       32.068013   0.000000
   78       32.068013   0.000000
   79       32.075966   0.000000
   80       32.075966   0.000000
   81       32.881713   0.000000
   82       32.881713   0.000000
   83       33.095784   0.000000
   84       33.095784   0.000000
   85       34.705598   0.000000
   86       34.705598   0.000000
   87       34.856202   0.000000
   88       34.856202   0.000000
   89       35.457030   0.000000
   90       35.457030   0.000000
   91       35.541838   0.000000
   92       35.541838   0.000000
   93       36.009105   0.000000
   94       36.009105   0.000000
   95       36.172754   0.000000
   96       36.172754   0.000000
   97       36.262796   0.000000
   98       36.262796   0.000000
   99       36.275338   0.000000
  100       36.275338   0.000000
  101       36.655456   0.000000
  102       36.655456   0.000000
  103       37.909775   0.000000
  104       37.909775   0.000000
  105       38.322628   0.000000
  106       38.322629   0.000000
  107       38.438622   0.000000
  108       38.438622   0.000000
  109       39.894939   0.000000
  110       39.894940   0.000000
  111       40.033563   0.000000
  112       40.033563   0.000000
  113       40.037904   0.000000
  114       40.037904   0.000000
  115       41.536970   0.000000
  116       41.536970   0.000000
  117       41.588216   0.000000
  118       41.588216   0.000000
  119       42.118511   0.000000
  120       42.118512   0.000000
  121       42.988563   0.000000