 vasp.5.4.4.18Apr17-6-g9f103f2a35 (build Nov 03 2018 10:20:46) complex          
  
 executed on             LinuxIFC date 2018.12.03  12:55:39
 running on  112 total cores
 distrk:  each k-point on   16 cores,    7 groups
 distr:  one band on NCORES_PER_BAND=   1 cores,   16 groups


--------------------------------------------------------------------------------------------------------


 INCAR:
 POTCAR:    PAW_PBE Rn_d_GW 14Apr2014             

 ----------------------------------------------------------------------------- 
|                                                                             |
|           W    W    AA    RRRRR   N    N  II  N    N   GGGG   !!!           |
|           W    W   A  A   R    R  NN   N  II  NN   N  G    G  !!!           |
|           W    W  A    A  R    R  N N  N  II  N N  N  G       !!!           |
|           W WW W  AAAAAA  RRRRR   N  N N  II  N  N N  G  GGG   !            |
|           WW  WW  A    A  R   R   N   NN  II  N   NN  G    G                |
|           W    W  A    A  R    R  N    N  II  N    N   GGGG   !!!           |
|                                                                             |
|      For optimal performance we recommend to set                            |
|        NCORE= 4 - approx SQRT( number of cores)                             |
|      NCORE specifies how many cores store one orbital (NPAR=cpu/NCORE).     |
|      This setting can  greatly improve the performance of VASP for DFT.     |
|      The default,   NCORE=1            might be grossly inefficient         |
|      on modern multi-core architectures or massively parallel machines.     |
|      Do your own testing !!!!                                               |
|      Unfortunately you need to use the default for GW and RPA calculations. |
|      (for HF NCORE is supported but not extensively tested yet)             |
|                                                                             |
 ----------------------------------------------------------------------------- 


 ----------------------------------------------------------------------------- 
|                                                                             |
|           W    W    AA    RRRRR   N    N  II  N    N   GGGG   !!!           |
|           W    W   A  A   R    R  NN   N  II  NN   N  G    G  !!!           |
|           W    W  A    A  R    R  N N  N  II  N N  N  G       !!!           |
|           W WW W  AAAAAA  RRRRR   N  N N  II  N  N N  G  GGG   !            |
|           WW  WW  A    A  R   R   N   NN  II  N   NN  G    G                |
|           W    W  A    A  R    R  N    N  II  N    N   GGGG   !!!           |
|                                                                             |
|      You have enabled k-point parallelism (KPAR>1).                         |
|      This developmental code was originally  written by Paul Kent at ORNL,  |
|      and carefully double checked in Vienna.                                |
|      GW as well as linear response parallelism added by Martijn Marsman     |
|      and Georg Kresse.                                                      |
|      Carefully verify results versus KPAR=1.                                |
|      Report problems to Paul Kent and Vienna.                               |
|                                                                             |
 ----------------------------------------------------------------------------- 

 POTCAR:    PAW_PBE Rn_d_GW 14Apr2014             
  local pseudopotential read in
  partial core-charges read in
  partial kinetic energy density read in
  kinetic energy density of atom read in
  atomic valenz-charges read in
  non local Contribution for L=           2  read in
    real space projection operators read in
  non local Contribution for L=           2  read in
    real space projection operators read in
  non local Contribution for L=           2  read in
    real space projection operators read in
  non local Contribution for L=           0  read in
    real space projection operators read in
  non local Contribution for L=           0  read in
    real space projection operators read in
  non local Contribution for L=           1  read in
    real space projection operators read in
  non local Contribution for L=           1  read in
    real space projection operators read in
  non local Contribution for L=           3  read in
    real space projection operators read in
  non local Contribution for L=           3  read in
    real space projection operators read in
    PAW grid and wavefunctions read in
 
   number of l-projection  operators is LMAX  =           9
   number of lm-projection operators is LMMAX =          37
 
  PAW_PBE Rn_d_GW 14Apr2014             :
 energy of atom  1       EATOM=-3030.7130
 kinetic energy error for atom=    0.0889 (will be added to EATOM!!)
 
 
 POSCAR: Rn_FCC                                  
  positions in direct lattice
  velocities in cartesian coordinates
 exchange correlation table for  LEXCH =        8
   RHO(1)=    0.500       N(1)  =     2000
   RHO(2)=  100.500       N(2)  =     4000
 


--------------------------------------------------------------------------------------------------------


 ion  position               nearest neighbor table
   1  0.000  0.000  0.000-
 

IMPORTANT INFORMATION: All symmetrisations will be switched off!
NOSYMM: (Re-)initialisation of all symmetry stuff for point group C_1.

 
 
 KPOINTS: k-points                                

Automatic generation of k-mesh.
Space group operators:
 irot       det(A)        alpha          n_x          n_y          n_z        tau_x        tau_y        tau_z
    1     1.000000     0.000000     1.000000     0.000000     0.000000     0.000000     0.000000     0.000000
 
 Subroutine IBZKPT returns following result:
 ===========================================
 
 Found    343 irreducible k-points:
 
 Following reciprocal coordinates:
            Coordinates               Weight
  0.000000  0.000000  0.000000      1.000000
  0.142857  0.000000 -0.000000      1.000000
  0.285714  0.000000 -0.000000      1.000000
  0.428571  0.000000  0.000000      1.000000
 -0.428571 -0.000000 -0.000000      1.000000
 -0.285714 -0.000000  0.000000      1.000000
 -0.142857 -0.000000  0.000000      1.000000
  0.000000  0.142857  0.000000      1.000000
  0.142857  0.142857 -0.000000      1.000000
  0.285714  0.142857  0.000000      1.000000
  0.428571  0.142857  0.000000      1.000000
 -0.428571  0.142857 -0.000000      1.000000
 -0.285714  0.142857  0.000000      1.000000
 -0.142857  0.142857  0.000000      1.000000
  0.000000  0.285714  0.000000      1.000000
  0.142857  0.285714 -0.000000      1.000000
  0.285714  0.285714 -0.000000      1.000000
  0.428571  0.285714  0.000000      1.000000
 -0.428571  0.285714  0.000000      1.000000
 -0.285714  0.285714  0.000000      1.000000
 -0.142857  0.285714  0.000000      1.000000
  0.000000  0.428571  0.000000      1.000000
  0.142857  0.428571  0.000000      1.000000
  0.285714  0.428571  0.000000      1.000000
  0.428571  0.428571  0.000000      1.000000
 -0.428571  0.428571 -0.000000      1.000000
 -0.285714  0.428571  0.000000      1.000000
 -0.142857  0.428571  0.000000      1.000000
 -0.000000 -0.428571 -0.000000      1.000000
  0.142857 -0.428571 -0.000000      1.000000
  0.285714 -0.428571 -0.000000      1.000000
  0.428571 -0.428571  0.000000      1.000000
 -0.428571 -0.428571 -0.000000      1.000000
 -0.285714 -0.428571  0.000000      1.000000
 -0.142857 -0.428571  0.000000      1.000000
  0.000000 -0.285714 -0.000000      1.000000
  0.142857 -0.285714 -0.000000      1.000000
  0.285714 -0.285714 -0.000000      1.000000
  0.428571 -0.285714  0.000000      1.000000
 -0.428571 -0.285714  0.000000      1.000000
 -0.285714 -0.285714  0.000000      1.000000
 -0.142857 -0.285714  0.000000      1.000000
 -0.000000 -0.142857  0.000000      1.000000
  0.142857 -0.142857 -0.000000      1.000000
  0.285714 -0.142857 -0.000000      1.000000
  0.428571 -0.142857  0.000000      1.000000
 -0.428571 -0.142857 -0.000000      1.000000
 -0.285714 -0.142857 -0.000000      1.000000
 -0.142857 -0.142857 -0.000000      1.000000
 -0.000000 -0.000000  0.142857      1.000000
  0.142857 -0.000000  0.142857      1.000000
  0.285714  0.000000  0.142857      1.000000
  0.428571  0.000000  0.142857      1.000000
 -0.428571 -0.000000  0.142857      1.000000
 -0.285714 -0.000000  0.142857      1.000000
 -0.142857 -0.000000  0.142857      1.000000
 -0.000000  0.142857  0.142857      1.000000
  0.142857  0.142857  0.142857      1.000000
  0.285714  0.142857  0.142857      1.000000
  0.428571  0.142857  0.142857      1.000000
 -0.428571  0.142857  0.142857      1.000000
 -0.285714  0.142857  0.142857      1.000000
 -0.142857  0.142857  0.142857      1.000000
 -0.000000  0.285714  0.142857      1.000000
  0.142857  0.285714  0.142857      1.000000
  0.285714  0.285714  0.142857      1.000000
  0.428571  0.285714  0.142857      1.000000
 -0.428571  0.285714  0.142857      1.000000
 -0.285714  0.285714  0.142857      1.000000
 -0.142857  0.285714  0.142857      1.000000
 -0.000000  0.428571  0.142857      1.000000
  0.142857  0.428571  0.142857      1.000000
  0.285714  0.428571  0.142857      1.000000
  0.428571  0.428571  0.142857      1.000000
 -0.428571  0.428571  0.142857      1.000000
 -0.285714  0.428571  0.142857      1.000000
 -0.142857  0.428571  0.142857      1.000000
 -0.000000 -0.428571  0.142857      1.000000
  0.142857 -0.428571  0.142857      1.000000
  0.285714 -0.428571  0.142857      1.000000
  0.428571 -0.428571  0.142857      1.000000
 -0.428571 -0.428571  0.142857      1.000000
 -0.285714 -0.428571  0.142857      1.000000
 -0.142857 -0.428571  0.142857      1.000000
 -0.000000 -0.285714  0.142857      1.000000
  0.142857 -0.285714  0.142857      1.000000
  0.285714 -0.285714  0.142857      1.000000
  0.428571 -0.285714  0.142857      1.000000
 -0.428571 -0.285714  0.142857      1.000000
 -0.285714 -0.285714  0.142857      1.000000
 -0.142857 -0.285714  0.142857      1.000000
 -0.000000 -0.142857  0.142857      1.000000
  0.142857 -0.142857  0.142857      1.000000
  0.285714 -0.142857  0.142857      1.000000
  0.428571 -0.142857  0.142857      1.000000
 -0.428571 -0.142857  0.142857      1.000000
 -0.285714 -0.142857  0.142857      1.000000
 -0.142857 -0.142857  0.142857      1.000000
 -0.000000 -0.000000  0.285714      1.000000
  0.142857  0.000000  0.285714      1.000000
  0.285714  0.000000  0.285714      1.000000
  0.428571  0.000000  0.285714      1.000000
 -0.428571 -0.000000  0.285714      1.000000
 -0.285714 -0.000000  0.285714      1.000000
 -0.142857 -0.000000  0.285714      1.000000
 -0.000000  0.142857  0.285714      1.000000
  0.142857  0.142857  0.285714      1.000000
  0.285714  0.142857  0.285714      1.000000
  0.428571  0.142857  0.285714      1.000000
 -0.428571  0.142857  0.285714      1.000000
 -0.285714  0.142857  0.285714      1.000000
 -0.142857  0.142857  0.285714      1.000000
 -0.000000  0.285714  0.285714      1.000000
  0.142857  0.285714  0.285714      1.000000
  0.285714  0.285714  0.285714      1.000000
  0.428571  0.285714  0.285714      1.000000
 -0.428571  0.285714  0.285714      1.000000
 -0.285714  0.285714  0.285714      1.000000
 -0.142857  0.285714  0.285714      1.000000
  0.000000  0.428571  0.285714      1.000000
  0.142857  0.428571  0.285714      1.000000
  0.285714  0.428571  0.285714      1.000000
  0.428571  0.428571  0.285714      1.000000
 -0.428571  0.428571  0.285714      1.000000
 -0.285714  0.428571  0.285714      1.000000
 -0.142857  0.428571  0.285714      1.000000
 -0.000000 -0.428571  0.285714      1.000000
  0.142857 -0.428571  0.285714      1.000000
  0.285714 -0.428571  0.285714      1.000000
  0.428571 -0.428571  0.285714      1.000000
 -0.428571 -0.428571  0.285714      1.000000
 -0.285714 -0.428571  0.285714      1.000000
 -0.142857 -0.428571  0.285714      1.000000
  0.000000 -0.285714  0.285714      1.000000
  0.142857 -0.285714  0.285714      1.000000
  0.285714 -0.285714  0.285714      1.000000
  0.428571 -0.285714  0.285714      1.000000
 -0.428571 -0.285714  0.285714      1.000000
 -0.285714 -0.285714  0.285714      1.000000
 -0.142857 -0.285714  0.285714      1.000000
  0.000000 -0.142857  0.285714      1.000000
  0.142857 -0.142857  0.285714      1.000000
  0.285714 -0.142857  0.285714      1.000000
  0.428571 -0.142857  0.285714      1.000000
 -0.428571 -0.142857  0.285714      1.000000
 -0.285714 -0.142857  0.285714      1.000000
 -0.142857 -0.142857  0.285714      1.000000
 -0.000000 -0.000000  0.428571      1.000000
  0.142857  0.000000  0.428571      1.000000
  0.285714  0.000000  0.428571      1.000000
  0.428571  0.000000  0.428571      1.000000
 -0.428571 -0.000000  0.428571      1.000000
 -0.285714  0.000000  0.428571      1.000000
 -0.142857 -0.000000  0.428571      1.000000
 -0.000000  0.142857  0.428571      1.000000
  0.142857  0.142857  0.428571      1.000000
  0.285714  0.142857  0.428571      1.000000
  0.428571  0.142857  0.428571      1.000000
 -0.428571  0.142857  0.428571      1.000000
 -0.285714  0.142857  0.428571      1.000000
 -0.142857  0.142857  0.428571      1.000000
 -0.000000  0.285714  0.428571      1.000000
  0.142857  0.285714  0.428571      1.000000
  0.285714  0.285714  0.428571      1.000000
  0.428571  0.285714  0.428571      1.000000
 -0.428571  0.285714  0.428571      1.000000
 -0.285714  0.285714  0.428571      1.000000
 -0.142857  0.285714  0.428571      1.000000
 -0.000000  0.428571  0.428571      1.000000
  0.142857  0.428571  0.428571      1.000000
  0.285714  0.428571  0.428571      1.000000
  0.428571  0.428571  0.428571      1.000000
 -0.428571  0.428571  0.428571      1.000000
 -0.285714  0.428571  0.428571      1.000000
 -0.142857  0.428571  0.428571      1.000000
 -0.000000 -0.428571  0.428571      1.000000
  0.142857 -0.428571  0.428571      1.000000
  0.285714 -0.428571  0.428571      1.000000
  0.428571 -0.428571  0.428571      1.000000
 -0.428571 -0.428571  0.428571      1.000000
 -0.285714 -0.428571  0.428571      1.000000
 -0.142857 -0.428571  0.428571      1.000000
 -0.000000 -0.285714  0.428571      1.000000
  0.142857 -0.285714  0.428571      1.000000
  0.285714 -0.285714  0.428571      1.000000
  0.428571 -0.285714  0.428571      1.000000
 -0.428571 -0.285714  0.428571      1.000000
 -0.285714 -0.285714  0.428571      1.000000
 -0.142857 -0.285714  0.428571      1.000000
 -0.000000 -0.142857  0.428571      1.000000
  0.142857 -0.142857  0.428571      1.000000
  0.285714 -0.142857  0.428571      1.000000
  0.428571 -0.142857  0.428571      1.000000
 -0.428571 -0.142857  0.428571      1.000000
 -0.285714 -0.142857  0.428571      1.000000
 -0.142857 -0.142857  0.428571      1.000000
  0.000000  0.000000 -0.428571      1.000000
  0.142857 -0.000000 -0.428571      1.000000
  0.285714 -0.000000 -0.428571      1.000000
  0.428571  0.000000 -0.428571      1.000000
 -0.428571 -0.000000 -0.428571      1.000000
 -0.285714 -0.000000 -0.428571      1.000000
 -0.142857 -0.000000 -0.428571      1.000000
  0.000000  0.142857 -0.428571      1.000000
  0.142857  0.142857 -0.428571      1.000000
  0.285714  0.142857 -0.428571      1.000000
  0.428571  0.142857 -0.428571      1.000000
 -0.428571  0.142857 -0.428571      1.000000
 -0.285714  0.142857 -0.428571      1.000000
 -0.142857  0.142857 -0.428571      1.000000
  0.000000  0.285714 -0.428571      1.000000
  0.142857  0.285714 -0.428571      1.000000
  0.285714  0.285714 -0.428571      1.000000
  0.428571  0.285714 -0.428571      1.000000
 -0.428571  0.285714 -0.428571      1.000000
 -0.285714  0.285714 -0.428571      1.000000
 -0.142857  0.285714 -0.428571      1.000000
  0.000000  0.428571 -0.428571      1.000000
  0.142857  0.428571 -0.428571      1.000000
  0.285714  0.428571 -0.428571      1.000000
  0.428571  0.428571 -0.428571      1.000000
 -0.428571  0.428571 -0.428571      1.000000
 -0.285714  0.428571 -0.428571      1.000000
 -0.142857  0.428571 -0.428571      1.000000
  0.000000 -0.428571 -0.428571      1.000000
  0.142857 -0.428571 -0.428571      1.000000
  0.285714 -0.428571 -0.428571      1.000000
  0.428571 -0.428571 -0.428571      1.000000
 -0.428571 -0.428571 -0.428571      1.000000
 -0.285714 -0.428571 -0.428571      1.000000
 -0.142857 -0.428571 -0.428571      1.000000
  0.000000 -0.285714 -0.428571      1.000000
  0.142857 -0.285714 -0.428571      1.000000
  0.285714 -0.285714 -0.428571      1.000000
  0.428571 -0.285714 -0.428571      1.000000
 -0.428571 -0.285714 -0.428571      1.000000
 -0.285714 -0.285714 -0.428571      1.000000
 -0.142857 -0.285714 -0.428571      1.000000
  0.000000 -0.142857 -0.428571      1.000000
  0.142857 -0.142857 -0.428571      1.000000
  0.285714 -0.142857 -0.428571      1.000000
  0.428571 -0.142857 -0.428571      1.000000
 -0.428571 -0.142857 -0.428571      1.000000
 -0.285714 -0.142857 -0.428571      1.000000
 -0.142857 -0.142857 -0.428571      1.000000
  0.000000  0.000000 -0.285714      1.000000
  0.142857 -0.000000 -0.285714      1.000000
  0.285714  0.000000 -0.285714      1.000000
  0.428571  0.000000 -0.285714      1.000000
 -0.428571 -0.000000 -0.285714      1.000000
 -0.285714 -0.000000 -0.285714      1.000000
 -0.142857 -0.000000 -0.285714      1.000000
  0.000000  0.142857 -0.285714      1.000000
  0.142857  0.142857 -0.285714      1.000000
  0.285714  0.142857 -0.285714      1.000000
  0.428571  0.142857 -0.285714      1.000000
 -0.428571  0.142857 -0.285714      1.000000
 -0.285714  0.142857 -0.285714      1.000000
 -0.142857  0.142857 -0.285714      1.000000
  0.000000  0.285714 -0.285714      1.000000
  0.142857  0.285714 -0.285714      1.000000
  0.285714  0.285714 -0.285714      1.000000
  0.428571  0.285714 -0.285714      1.000000
 -0.428571  0.285714 -0.285714      1.000000
 -0.285714  0.285714 -0.285714      1.000000
 -0.142857  0.285714 -0.285714      1.000000
  0.000000  0.428571 -0.285714      1.000000
  0.142857  0.428571 -0.285714      1.000000
  0.285714  0.428571 -0.285714      1.000000
  0.428571  0.428571 -0.285714      1.000000
 -0.428571  0.428571 -0.285714      1.000000
 -0.285714  0.428571 -0.285714      1.000000
 -0.142857  0.428571 -0.285714      1.000000
 -0.000000 -0.428571 -0.285714      1.000000
  0.142857 -0.428571 -0.285714      1.000000
  0.285714 -0.428571 -0.285714      1.000000
  0.428571 -0.428571 -0.285714      1.000000
 -0.428571 -0.428571 -0.285714      1.000000
 -0.285714 -0.428571 -0.285714      1.000000
 -0.142857 -0.428571 -0.285714      1.000000
  0.000000 -0.285714 -0.285714      1.000000
  0.142857 -0.285714 -0.285714      1.000000
  0.285714 -0.285714 -0.285714      1.000000
  0.428571 -0.285714 -0.285714      1.000000
 -0.428571 -0.285714 -0.285714      1.000000
 -0.285714 -0.285714 -0.285714      1.000000
 -0.142857 -0.285714 -0.285714      1.000000
  0.000000 -0.142857 -0.285714      1.000000
  0.142857 -0.142857 -0.285714      1.000000
  0.285714 -0.142857 -0.285714      1.000000
  0.428571 -0.142857 -0.285714      1.000000
 -0.428571 -0.142857 -0.285714      1.000000
 -0.285714 -0.142857 -0.285714      1.000000
 -0.142857 -0.142857 -0.285714      1.000000
  0.000000  0.000000 -0.142857      1.000000
  0.142857  0.000000 -0.142857      1.000000
  0.285714  0.000000 -0.142857      1.000000
  0.428571  0.000000 -0.142857      1.000000
 -0.428571 -0.000000 -0.142857      1.000000
 -0.285714 -0.000000 -0.142857      1.000000
 -0.142857 -0.000000 -0.142857      1.000000
  0.000000  0.142857 -0.142857      1.000000
  0.142857  0.142857 -0.142857      1.000000
  0.285714  0.142857 -0.142857      1.000000
  0.428571  0.142857 -0.142857      1.000000
 -0.428571  0.142857 -0.142857      1.000000
 -0.285714  0.142857 -0.142857      1.000000
 -0.142857  0.142857 -0.142857      1.000000
  0.000000  0.285714 -0.142857      1.000000
  0.142857  0.285714 -0.142857      1.000000
  0.285714  0.285714 -0.142857      1.000000
  0.428571  0.285714 -0.142857      1.000000
 -0.428571  0.285714 -0.142857      1.000000
 -0.285714  0.285714 -0.142857      1.000000
 -0.142857  0.285714 -0.142857      1.000000
  0.000000  0.428571 -0.142857      1.000000
  0.142857  0.428571 -0.142857      1.000000
  0.285714  0.428571 -0.142857      1.000000
  0.428571  0.428571 -0.142857      1.000000
 -0.428571  0.428571 -0.142857      1.000000
 -0.285714  0.428571 -0.142857      1.000000
 -0.142857  0.428571 -0.142857      1.000000
 -0.000000 -0.428571 -0.142857      1.000000
  0.142857 -0.428571 -0.142857      1.000000
  0.285714 -0.428571 -0.142857      1.000000
  0.428571 -0.428571 -0.142857      1.000000
 -0.428571 -0.428571 -0.142857      1.000000
 -0.285714 -0.428571 -0.142857      1.000000
 -0.142857 -0.428571 -0.142857      1.000000
  0.000000 -0.285714 -0.142857      1.000000
  0.142857 -0.285714 -0.142857      1.000000
  0.285714 -0.285714 -0.142857      1.000000
  0.428571 -0.285714 -0.142857      1.000000
 -0.428571 -0.285714 -0.142857      1.000000
 -0.285714 -0.285714 -0.142857      1.000000
 -0.142857 -0.285714 -0.142857      1.000000
  0.000000 -0.142857 -0.142857      1.000000
  0.142857 -0.142857 -0.142857      1.000000
  0.285714 -0.142857 -0.142857      1.000000
  0.428571 -0.142857 -0.142857      1.000000
 -0.428571 -0.142857 -0.142857      1.000000
 -0.285714 -0.142857 -0.142857      1.000000
 -0.142857 -0.142857 -0.142857      1.000000
 
 Following cartesian coordinates:
            Coordinates               Weight
  0.000000  0.000000  0.000000      1.000000
  0.031602 -0.018245 -0.012901      1.000000
  0.063203 -0.036490 -0.025803      1.000000
  0.094805 -0.054736 -0.038704      1.000000
 -0.094805  0.054736  0.038704      1.000000
 -0.063203  0.036490  0.025803      1.000000
 -0.031602  0.018245  0.012901      1.000000
  0.000000  0.036490 -0.012901      1.000000
  0.031602  0.018245 -0.025803      1.000000
  0.063203  0.000000 -0.038704      1.000000
  0.094805 -0.018245 -0.051605      1.000000
 -0.094805  0.091226  0.025803      1.000000
 -0.063203  0.072981  0.012901      1.000000
 -0.031602  0.054736  0.000000      1.000000
  0.000000  0.072981 -0.025803      1.000000
  0.031602  0.054736 -0.038704      1.000000
  0.063203  0.036490 -0.051605      1.000000
  0.094805  0.018245 -0.064507      1.000000
 -0.094805  0.127716  0.012901      1.000000
 -0.063203  0.109471  0.000000      1.000000
 -0.031602  0.091226 -0.012901      1.000000
  0.000000  0.109471 -0.038704      1.000000
  0.031602  0.091226 -0.051605      1.000000
  0.063203  0.072981 -0.064507      1.000000
  0.094805  0.054736 -0.077408      1.000000
 -0.094805  0.164207  0.000000      1.000000
 -0.063203  0.145962 -0.012901      1.000000
 -0.031602  0.127716 -0.025803      1.000000
 -0.000000 -0.109471  0.038704      1.000000
  0.031602 -0.127716  0.025803      1.000000
  0.063203 -0.145962  0.012901      1.000000
  0.094805 -0.164207 -0.000000      1.000000
 -0.094805 -0.054736  0.077408      1.000000
 -0.063203 -0.072981  0.064507      1.000000
 -0.031602 -0.091226  0.051605      1.000000
 -0.000000 -0.072981  0.025803      1.000000
  0.031602 -0.091226  0.012901      1.000000
  0.063203 -0.109471 -0.000000      1.000000
  0.094805 -0.127716 -0.012901      1.000000
 -0.094805 -0.018245  0.064507      1.000000
 -0.063203 -0.036490  0.051605      1.000000
 -0.031602 -0.054736  0.038704      1.000000
 -0.000000 -0.036490  0.012901      1.000000
  0.031602 -0.054736 -0.000000      1.000000
  0.063203 -0.072981 -0.012901      1.000000
  0.094805 -0.091226 -0.025803      1.000000
 -0.094805  0.018245  0.051605      1.000000
 -0.063203  0.000000  0.038704      1.000000
 -0.031602 -0.018245  0.025803      1.000000
 -0.000000  0.000000  0.038704      1.000000
  0.031602 -0.018245  0.025803      1.000000
  0.063203 -0.036490  0.012901      1.000000
  0.094805 -0.054736 -0.000000      1.000000
 -0.094805  0.054736  0.077408      1.000000
 -0.063203  0.036490  0.064507      1.000000
 -0.031602  0.018245  0.051605      1.000000
 -0.000000  0.036490  0.025803      1.000000
  0.031602  0.018245  0.012901      1.000000
  0.063203  0.000000  0.000000      1.000000
  0.094805 -0.018245 -0.012901      1.000000
 -0.094805  0.091226  0.064507      1.000000
 -0.063203  0.072981  0.051605      1.000000
 -0.031602  0.054736  0.038704      1.000000
 -0.000000  0.072981  0.012901      1.000000
  0.031602  0.054736  0.000000      1.000000
  0.063203  0.036490 -0.012901      1.000000
  0.094805  0.018245 -0.025803      1.000000
 -0.094805  0.127716  0.051605      1.000000
 -0.063203  0.109471  0.038704      1.000000
 -0.031602  0.091226  0.025803      1.000000
 -0.000000  0.109471  0.000000      1.000000
  0.031602  0.091226 -0.012901      1.000000
  0.063203  0.072981 -0.025803      1.000000
  0.094805  0.054736 -0.038704      1.000000
 -0.094805  0.164207  0.038704      1.000000
 -0.063203  0.145962  0.025803      1.000000
 -0.031602  0.127716  0.012901      1.000000
 -0.000000 -0.109471  0.077408      1.000000
  0.031602 -0.127716  0.064507      1.000000
  0.063203 -0.145962  0.051605      1.000000
  0.094805 -0.164207  0.038704      1.000000
 -0.094805 -0.054736  0.116112      1.000000
 -0.063203 -0.072981  0.103210      1.000000
 -0.031602 -0.091226  0.090309      1.000000
 -0.000000 -0.072981  0.064507      1.000000
  0.031602 -0.091226  0.051605      1.000000
  0.063203 -0.109471  0.038704      1.000000
  0.094805 -0.127716  0.025803      1.000000
 -0.094805 -0.018245  0.103210      1.000000
 -0.063203 -0.036490  0.090309      1.000000
 -0.031602 -0.054736  0.077408      1.000000
 -0.000000 -0.036490  0.051605      1.000000
  0.031602 -0.054736  0.038704      1.000000
  0.063203 -0.072981  0.025803      1.000000
  0.094805 -0.091226  0.012901      1.000000
 -0.094805  0.018245  0.090309      1.000000
 -0.063203  0.000000  0.077408      1.000000
 -0.031602 -0.018245  0.064507      1.000000
 -0.000000  0.000000  0.077408      1.000000
  0.031602 -0.018245  0.064507      1.000000
  0.063203 -0.036490  0.051605      1.000000
  0.094805 -0.054736  0.038704      1.000000
 -0.094805  0.054736  0.116112      1.000000
 -0.063203  0.036490  0.103210      1.000000
 -0.031602  0.018245  0.090309      1.000000
 -0.000000  0.036490  0.064507      1.000000
  0.031602  0.018245  0.051605      1.000000
  0.063203  0.000000  0.038704      1.000000
  0.094805 -0.018245  0.025803      1.000000
 -0.094805  0.091226  0.103210      1.000000
 -0.063203  0.072981  0.090309      1.000000
 -0.031602  0.054736  0.077408      1.000000
 -0.000000  0.072981  0.051605      1.000000
  0.031602  0.054736  0.038704      1.000000
  0.063203  0.036490  0.025803      1.000000
  0.094805  0.018245  0.012901      1.000000
 -0.094805  0.127716  0.090309      1.000000
 -0.063203  0.109471  0.077408      1.000000
 -0.031602  0.091226  0.064507      1.000000
 -0.000000  0.109471  0.038704      1.000000
  0.031602  0.091226  0.025803      1.000000
  0.063203  0.072981  0.012901      1.000000
  0.094805  0.054736  0.000000      1.000000
 -0.094805  0.164207  0.077408      1.000000
 -0.063203  0.145962  0.064507      1.000000
 -0.031602  0.127716  0.051605      1.000000
 -0.000000 -0.109471  0.116112      1.000000
  0.031602 -0.127716  0.103210      1.000000
  0.063203 -0.145962  0.090309      1.000000
  0.094805 -0.164207  0.077408      1.000000
 -0.094805 -0.054736  0.154816      1.000000
 -0.063203 -0.072981  0.141914      1.000000
 -0.031602 -0.091226  0.129013      1.000000
 -0.000000 -0.072981  0.103210      1.000000
  0.031602 -0.091226  0.090309      1.000000
  0.063203 -0.109471  0.077408      1.000000
  0.094805 -0.127716  0.064507      1.000000
 -0.094805 -0.018245  0.141914      1.000000
 -0.063203 -0.036490  0.129013      1.000000
 -0.031602 -0.054736  0.116112      1.000000
 -0.000000 -0.036490  0.090309      1.000000
  0.031602 -0.054736  0.077408      1.000000
  0.063203 -0.072981  0.064507      1.000000
  0.094805 -0.091226  0.051605      1.000000
 -0.094805  0.018245  0.129013      1.000000
 -0.063203  0.000000  0.116112      1.000000
 -0.031602 -0.018245  0.103210      1.000000
 -0.000000  0.000000  0.116112      1.000000
  0.031602 -0.018245  0.103210      1.000000
  0.063203 -0.036490  0.090309      1.000000
  0.094805 -0.054736  0.077408      1.000000
 -0.094805  0.054736  0.154816      1.000000
 -0.063203  0.036490  0.141914      1.000000
 -0.031602  0.018245  0.129013      1.000000
 -0.000000  0.036490  0.103210      1.000000
  0.031602  0.018245  0.090309      1.000000
  0.063203  0.000000  0.077408      1.000000
  0.094805 -0.018245  0.064507      1.000000
 -0.094805  0.091226  0.141914      1.000000
 -0.063203  0.072981  0.129013      1.000000
 -0.031602  0.054736  0.116112      1.000000
 -0.000000  0.072981  0.090309      1.000000
  0.031602  0.054736  0.077408      1.000000
  0.063203  0.036490  0.064507      1.000000
  0.094805  0.018245  0.051605      1.000000
 -0.094805  0.127716  0.129013      1.000000
 -0.063203  0.109471  0.116112      1.000000
 -0.031602  0.091226  0.103210      1.000000
 -0.000000  0.109471  0.077408      1.000000
  0.031602  0.091226  0.064507      1.000000
  0.063203  0.072981  0.051605      1.000000
  0.094805  0.054736  0.038704      1.000000
 -0.094805  0.164207  0.116112      1.000000
 -0.063203  0.145962  0.103210      1.000000
 -0.031602  0.127716  0.090309      1.000000
 -0.000000 -0.109471  0.154816      1.000000
  0.031602 -0.127716  0.141914      1.000000
  0.063203 -0.145962  0.129013      1.000000
  0.094805 -0.164207  0.116112      1.000000
 -0.094805 -0.054736  0.193520      1.000000
 -0.063203 -0.072981  0.180618      1.000000
 -0.031602 -0.091226  0.167717      1.000000
 -0.000000 -0.072981  0.141914      1.000000
  0.031602 -0.091226  0.129013      1.000000
  0.063203 -0.109471  0.116112      1.000000
  0.094805 -0.127716  0.103210      1.000000
 -0.094805 -0.018245  0.180618      1.000000
 -0.063203 -0.036490  0.167717      1.000000
 -0.031602 -0.054736  0.154816      1.000000
 -0.000000 -0.036490  0.129013      1.000000
  0.031602 -0.054736  0.116112      1.000000
  0.063203 -0.072981  0.103210      1.000000
  0.094805 -0.091226  0.090309      1.000000
 -0.094805  0.018245  0.167717      1.000000
 -0.063203  0.000000  0.154816      1.000000
 -0.031602 -0.018245  0.141914      1.000000
  0.000000 -0.000000 -0.116112      1.000000
  0.031602 -0.018245 -0.129013      1.000000
  0.063203 -0.036490 -0.141914      1.000000
  0.094805 -0.054736 -0.154816      1.000000
 -0.094805  0.054736 -0.077408      1.000000
 -0.063203  0.036490 -0.090309      1.000000
 -0.031602  0.018245 -0.103210      1.000000
  0.000000  0.036490 -0.129013      1.000000
  0.031602  0.018245 -0.141914      1.000000
  0.063203  0.000000 -0.154816      1.000000
  0.094805 -0.018245 -0.167717      1.000000
 -0.094805  0.091226 -0.090309      1.000000
 -0.063203  0.072981 -0.103210      1.000000
 -0.031602  0.054736 -0.116112      1.000000
  0.000000  0.072981 -0.141914      1.000000
  0.031602  0.054736 -0.154816      1.000000
  0.063203  0.036490 -0.167717      1.000000
  0.094805  0.018245 -0.180618      1.000000
 -0.094805  0.127716 -0.103210      1.000000
 -0.063203  0.109471 -0.116112      1.000000
 -0.031602  0.091226 -0.129013      1.000000
  0.000000  0.109471 -0.154816      1.000000
  0.031602  0.091226 -0.167717      1.000000
  0.063203  0.072981 -0.180618      1.000000
  0.094805  0.054736 -0.193520      1.000000
 -0.094805  0.164207 -0.116112      1.000000
 -0.063203  0.145962 -0.129013      1.000000
 -0.031602  0.127716 -0.141914      1.000000
  0.000000 -0.109471 -0.077408      1.000000
  0.031602 -0.127716 -0.090309      1.000000
  0.063203 -0.145962 -0.103210      1.000000
  0.094805 -0.164207 -0.116112      1.000000
 -0.094805 -0.054736 -0.038704      1.000000
 -0.063203 -0.072981 -0.051605      1.000000
 -0.031602 -0.091226 -0.064507      1.000000
  0.000000 -0.072981 -0.090309      1.000000
  0.031602 -0.091226 -0.103210      1.000000
  0.063203 -0.109471 -0.116112      1.000000
  0.094805 -0.127716 -0.129013      1.000000
 -0.094805 -0.018245 -0.051605      1.000000
 -0.063203 -0.036490 -0.064507      1.000000
 -0.031602 -0.054736 -0.077408      1.000000
  0.000000 -0.036490 -0.103210      1.000000
  0.031602 -0.054736 -0.116112      1.000000
  0.063203 -0.072981 -0.129013      1.000000
  0.094805 -0.091226 -0.141914      1.000000
 -0.094805  0.018245 -0.064507      1.000000
 -0.063203  0.000000 -0.077408      1.000000
 -0.031602 -0.018245 -0.090309      1.000000
  0.000000 -0.000000 -0.077408      1.000000
  0.031602 -0.018245 -0.090309      1.000000
  0.063203 -0.036490 -0.103210      1.000000
  0.094805 -0.054736 -0.116112      1.000000
 -0.094805  0.054736 -0.038704      1.000000
 -0.063203  0.036490 -0.051605      1.000000
 -0.031602  0.018245 -0.064507      1.000000
  0.000000  0.036490 -0.090309      1.000000
  0.031602  0.018245 -0.103210      1.000000
  0.063203  0.000000 -0.116112      1.000000
  0.094805 -0.018245 -0.129013      1.000000
 -0.094805  0.091226 -0.051605      1.000000
 -0.063203  0.072981 -0.064507      1.000000
 -0.031602  0.054736 -0.077408      1.000000
  0.000000  0.072981 -0.103210      1.000000
  0.031602  0.054736 -0.116112      1.000000
  0.063203  0.036490 -0.129013      1.000000
  0.094805  0.018245 -0.141914      1.000000
 -0.094805  0.127716 -0.064507      1.000000
 -0.063203  0.109471 -0.077408      1.000000
 -0.031602  0.091226 -0.090309      1.000000
  0.000000  0.109471 -0.116112      1.000000
  0.031602  0.091226 -0.129013      1.000000
  0.063203  0.072981 -0.141914      1.000000
  0.094805  0.054736 -0.154816      1.000000
 -0.094805  0.164207 -0.077408      1.000000
 -0.063203  0.145962 -0.090309      1.000000
 -0.031602  0.127716 -0.103210      1.000000
  0.000000 -0.109471 -0.038704      1.000000
  0.031602 -0.127716 -0.051605      1.000000
  0.063203 -0.145962 -0.064507      1.000000
  0.094805 -0.164207 -0.077408      1.000000
 -0.094805 -0.054736 -0.000000      1.000000
 -0.063203 -0.072981 -0.012901      1.000000
 -0.031602 -0.091226 -0.025803      1.000000
  0.000000 -0.072981 -0.051605      1.000000
  0.031602 -0.091226 -0.064507      1.000000
  0.063203 -0.109471 -0.077408      1.000000
  0.094805 -0.127716 -0.090309      1.000000
 -0.094805 -0.018245 -0.012901      1.000000
 -0.063203 -0.036490 -0.025803      1.000000
 -0.031602 -0.054736 -0.038704      1.000000
  0.000000 -0.036490 -0.064507      1.000000
  0.031602 -0.054736 -0.077408      1.000000
  0.063203 -0.072981 -0.090309      1.000000
  0.094805 -0.091226 -0.103210      1.000000
 -0.094805  0.018245 -0.025803      1.000000
 -0.063203  0.000000 -0.038704      1.000000
 -0.031602 -0.018245 -0.051605      1.000000
  0.000000 -0.000000 -0.038704      1.000000
  0.031602 -0.018245 -0.051605      1.000000
  0.063203 -0.036490 -0.064507      1.000000
  0.094805 -0.054736 -0.077408      1.000000
 -0.094805  0.054736  0.000000      1.000000
 -0.063203  0.036490 -0.012901      1.000000
 -0.031602  0.018245 -0.025803      1.000000
  0.000000  0.036490 -0.051605      1.000000
  0.031602  0.018245 -0.064507      1.000000
  0.063203  0.000000 -0.077408      1.000000
  0.094805 -0.018245 -0.090309      1.000000
 -0.094805  0.091226 -0.012901      1.000000
 -0.063203  0.072981 -0.025803      1.000000
 -0.031602  0.054736 -0.038704      1.000000
  0.000000  0.072981 -0.064507      1.000000
  0.031602  0.054736 -0.077408      1.000000
  0.063203  0.036490 -0.090309      1.000000
  0.094805  0.018245 -0.103210      1.000000
 -0.094805  0.127716 -0.025803      1.000000
 -0.063203  0.109471 -0.038704      1.000000
 -0.031602  0.091226 -0.051605      1.000000
  0.000000  0.109471 -0.077408      1.000000
  0.031602  0.091226 -0.090309      1.000000
  0.063203  0.072981 -0.103210      1.000000
  0.094805  0.054736 -0.116112      1.000000
 -0.094805  0.164207 -0.038704      1.000000
 -0.063203  0.145962 -0.051605      1.000000
 -0.031602  0.127716 -0.064507      1.000000
  0.000000 -0.109471 -0.000000      1.000000
  0.031602 -0.127716 -0.012901      1.000000
  0.063203 -0.145962 -0.025803      1.000000
  0.094805 -0.164207 -0.038704      1.000000
 -0.094805 -0.054736  0.038704      1.000000
 -0.063203 -0.072981  0.025803      1.000000
 -0.031602 -0.091226  0.012901      1.000000
  0.000000 -0.072981 -0.012901      1.000000
  0.031602 -0.091226 -0.025803      1.000000
  0.063203 -0.109471 -0.038704      1.000000
  0.094805 -0.127716 -0.051605      1.000000
 -0.094805 -0.018245  0.025803      1.000000
 -0.063203 -0.036490  0.012901      1.000000
 -0.031602 -0.054736 -0.000000      1.000000
  0.000000 -0.036490 -0.025803      1.000000
  0.031602 -0.054736 -0.038704      1.000000
  0.063203 -0.072981 -0.051605      1.000000
  0.094805 -0.091226 -0.064507      1.000000
 -0.094805  0.018245  0.012901      1.000000
 -0.063203  0.000000  0.000000      1.000000
 -0.031602 -0.018245 -0.012901      1.000000
 
 
 Subroutine IBZKPT_HF returns following result:
 ==============================================
 
 Found    343 k-points in 1st BZ
 the following    343 k-points will be used (e.g. in the exchange kernel)
 Following reciprocal coordinates:   # in IRBZ
  0.000000  0.000000  0.000000    0.00291545   1 t-inv F
  0.142857  0.000000 -0.000000    0.00291545   2 t-inv F
  0.285714  0.000000 -0.000000    0.00291545   3 t-inv F
  0.428571  0.000000  0.000000    0.00291545   4 t-inv F
 -0.428571 -0.000000 -0.000000    0.00291545   5 t-inv F
 -0.285714 -0.000000  0.000000    0.00291545   6 t-inv F
 -0.142857 -0.000000  0.000000    0.00291545   7 t-inv F
  0.000000  0.142857  0.000000    0.00291545   8 t-inv F
  0.142857  0.142857 -0.000000    0.00291545   9 t-inv F
  0.285714  0.142857  0.000000    0.00291545  10 t-inv F
  0.428571  0.142857  0.000000    0.00291545  11 t-inv F
 -0.428571  0.142857 -0.000000    0.00291545  12 t-inv F
 -0.285714  0.142857  0.000000    0.00291545  13 t-inv F
 -0.142857  0.142857  0.000000    0.00291545  14 t-inv F
  0.000000  0.285714  0.000000    0.00291545  15 t-inv F
  0.142857  0.285714 -0.000000    0.00291545  16 t-inv F
  0.285714  0.285714 -0.000000    0.00291545  17 t-inv F
  0.428571  0.285714  0.000000    0.00291545  18 t-inv F
 -0.428571  0.285714  0.000000    0.00291545  19 t-inv F
 -0.285714  0.285714  0.000000    0.00291545  20 t-inv F
 -0.142857  0.285714  0.000000    0.00291545  21 t-inv F
  0.000000  0.428571  0.000000    0.00291545  22 t-inv F
  0.142857  0.428571  0.000000    0.00291545  23 t-inv F
  0.285714  0.428571  0.000000    0.00291545  24 t-inv F
  0.428571  0.428571  0.000000    0.00291545  25 t-inv F
 -0.428571  0.428571 -0.000000    0.00291545  26 t-inv F
 -0.285714  0.428571  0.000000    0.00291545  27 t-inv F
 -0.142857  0.428571  0.000000    0.00291545  28 t-inv F
 -0.000000 -0.428571 -0.000000    0.00291545  29 t-inv F
  0.142857 -0.428571 -0.000000    0.00291545  30 t-inv F
  0.285714 -0.428571 -0.000000    0.00291545  31 t-inv F
  0.428571 -0.428571  0.000000    0.00291545  32 t-inv F
 -0.428571 -0.428571 -0.000000    0.00291545  33 t-inv F
 -0.285714 -0.428571  0.000000    0.00291545  34 t-inv F
 -0.142857 -0.428571  0.000000    0.00291545  35 t-inv F
  0.000000 -0.285714 -0.000000    0.00291545  36 t-inv F
  0.142857 -0.285714 -0.000000    0.00291545  37 t-inv F
  0.285714 -0.285714 -0.000000    0.00291545  38 t-inv F
  0.428571 -0.285714  0.000000    0.00291545  39 t-inv F
 -0.428571 -0.285714  0.000000    0.00291545  40 t-inv F
 -0.285714 -0.285714  0.000000    0.00291545  41 t-inv F
 -0.142857 -0.285714  0.000000    0.00291545  42 t-inv F
 -0.000000 -0.142857  0.000000    0.00291545  43 t-inv F
  0.142857 -0.142857 -0.000000    0.00291545  44 t-inv F
  0.285714 -0.142857 -0.000000    0.00291545  45 t-inv F
  0.428571 -0.142857  0.000000    0.00291545  46 t-inv F
 -0.428571 -0.142857 -0.000000    0.00291545  47 t-inv F
 -0.285714 -0.142857 -0.000000    0.00291545  48 t-inv F
 -0.142857 -0.142857 -0.000000    0.00291545  49 t-inv F
 -0.000000 -0.000000  0.142857    0.00291545  50 t-inv F
  0.142857 -0.000000  0.142857    0.00291545  51 t-inv F
  0.285714  0.000000  0.142857    0.00291545  52 t-inv F
  0.428571  0.000000  0.142857    0.00291545  53 t-inv F
 -0.428571 -0.000000  0.142857    0.00291545  54 t-inv F
 -0.285714 -0.000000  0.142857    0.00291545  55 t-inv F
 -0.142857 -0.000000  0.142857    0.00291545  56 t-inv F
 -0.000000  0.142857  0.142857    0.00291545  57 t-inv F
  0.142857  0.142857  0.142857    0.00291545  58 t-inv F
  0.285714  0.142857  0.142857    0.00291545  59 t-inv F
  0.428571  0.142857  0.142857    0.00291545  60 t-inv F
 -0.428571  0.142857  0.142857    0.00291545  61 t-inv F
 -0.285714  0.142857  0.142857    0.00291545  62 t-inv F
 -0.142857  0.142857  0.142857    0.00291545  63 t-inv F
 -0.000000  0.285714  0.142857    0.00291545  64 t-inv F
  0.142857  0.285714  0.142857    0.00291545  65 t-inv F
  0.285714  0.285714  0.142857    0.00291545  66 t-inv F
  0.428571  0.285714  0.142857    0.00291545  67 t-inv F
 -0.428571  0.285714  0.142857    0.00291545  68 t-inv F
 -0.285714  0.285714  0.142857    0.00291545  69 t-inv F
 -0.142857  0.285714  0.142857    0.00291545  70 t-inv F
 -0.000000  0.428571  0.142857    0.00291545  71 t-inv F
  0.142857  0.428571  0.142857    0.00291545  72 t-inv F
  0.285714  0.428571  0.142857    0.00291545  73 t-inv F
  0.428571  0.428571  0.142857    0.00291545  74 t-inv F
 -0.428571  0.428571  0.142857    0.00291545  75 t-inv F
 -0.285714  0.428571  0.142857    0.00291545  76 t-inv F
 -0.142857  0.428571  0.142857    0.00291545  77 t-inv F
 -0.000000 -0.428571  0.142857    0.00291545  78 t-inv F
  0.142857 -0.428571  0.142857    0.00291545  79 t-inv F
  0.285714 -0.428571  0.142857    0.00291545  80 t-inv F
  0.428571 -0.428571  0.142857    0.00291545  81 t-inv F
 -0.428571 -0.428571  0.142857    0.00291545  82 t-inv F
 -0.285714 -0.428571  0.142857    0.00291545  83 t-inv F
 -0.142857 -0.428571  0.142857    0.00291545  84 t-inv F
 -0.000000 -0.285714  0.142857    0.00291545  85 t-inv F
  0.142857 -0.285714  0.142857    0.00291545  86 t-inv F
  0.285714 -0.285714  0.142857    0.00291545  87 t-inv F
  0.428571 -0.285714  0.142857    0.00291545  88 t-inv F
 -0.428571 -0.285714  0.142857    0.00291545  89 t-inv F
 -0.285714 -0.285714  0.142857    0.00291545  90 t-inv F
 -0.142857 -0.285714  0.142857    0.00291545  91 t-inv F
 -0.000000 -0.142857  0.142857    0.00291545  92 t-inv F
  0.142857 -0.142857  0.142857    0.00291545  93 t-inv F
  0.285714 -0.142857  0.142857    0.00291545  94 t-inv F
  0.428571 -0.142857  0.142857    0.00291545  95 t-inv F
 -0.428571 -0.142857  0.142857    0.00291545  96 t-inv F
 -0.285714 -0.142857  0.142857    0.00291545  97 t-inv F
 -0.142857 -0.142857  0.142857    0.00291545  98 t-inv F
 -0.000000 -0.000000  0.285714    0.00291545  99 t-inv F
  0.142857  0.000000  0.285714    0.00291545 100 t-inv F
  0.285714  0.000000  0.285714    0.00291545 101 t-inv F
  0.428571  0.000000  0.285714    0.00291545 102 t-inv F
 -0.428571 -0.000000  0.285714    0.00291545 103 t-inv F
 -0.285714 -0.000000  0.285714    0.00291545 104 t-inv F
 -0.142857 -0.000000  0.285714    0.00291545 105 t-inv F
 -0.000000  0.142857  0.285714    0.00291545 106 t-inv F
  0.142857  0.142857  0.285714    0.00291545 107 t-inv F
  0.285714  0.142857  0.285714    0.00291545 108 t-inv F
  0.428571  0.142857  0.285714    0.00291545 109 t-inv F
 -0.428571  0.142857  0.285714    0.00291545 110 t-inv F
 -0.285714  0.142857  0.285714    0.00291545 111 t-inv F
 -0.142857  0.142857  0.285714    0.00291545 112 t-inv F
 -0.000000  0.285714  0.285714    0.00291545 113 t-inv F
  0.142857  0.285714  0.285714    0.00291545 114 t-inv F
  0.285714  0.285714  0.285714    0.00291545 115 t-inv F
  0.428571  0.285714  0.285714    0.00291545 116 t-inv F
 -0.428571  0.285714  0.285714    0.00291545 117 t-inv F
 -0.285714  0.285714  0.285714    0.00291545 118 t-inv F
 -0.142857  0.285714  0.285714    0.00291545 119 t-inv F
  0.000000  0.428571  0.285714    0.00291545 120 t-inv F
  0.142857  0.428571  0.285714    0.00291545 121 t-inv F
  0.285714  0.428571  0.285714    0.00291545 122 t-inv F
  0.428571  0.428571  0.285714    0.00291545 123 t-inv F
 -0.428571  0.428571  0.285714    0.00291545 124 t-inv F
 -0.285714  0.428571  0.285714    0.00291545 125 t-inv F
 -0.142857  0.428571  0.285714    0.00291545 126 t-inv F
 -0.000000 -0.428571  0.285714    0.00291545 127 t-inv F
  0.142857 -0.428571  0.285714    0.00291545 128 t-inv F
  0.285714 -0.428571  0.285714    0.00291545 129 t-inv F
  0.428571 -0.428571  0.285714    0.00291545 130 t-inv F
 -0.428571 -0.428571  0.285714    0.00291545 131 t-inv F
 -0.285714 -0.428571  0.285714    0.00291545 132 t-inv F
 -0.142857 -0.428571  0.285714    0.00291545 133 t-inv F
  0.000000 -0.285714  0.285714    0.00291545 134 t-inv F
  0.142857 -0.285714  0.285714    0.00291545 135 t-inv F
  0.285714 -0.285714  0.285714    0.00291545 136 t-inv F
  0.428571 -0.285714  0.285714    0.00291545 137 t-inv F
 -0.428571 -0.285714  0.285714    0.00291545 138 t-inv F
 -0.285714 -0.285714  0.285714    0.00291545 139 t-inv F
 -0.142857 -0.285714  0.285714    0.00291545 140 t-inv F
  0.000000 -0.142857  0.285714    0.00291545 141 t-inv F
  0.142857 -0.142857  0.285714    0.00291545 142 t-inv F
  0.285714 -0.142857  0.285714    0.00291545 143 t-inv F
  0.428571 -0.142857  0.285714    0.00291545 144 t-inv F
 -0.428571 -0.142857  0.285714    0.00291545 145 t-inv F
 -0.285714 -0.142857  0.285714    0.00291545 146 t-inv F
 -0.142857 -0.142857  0.285714    0.00291545 147 t-inv F
 -0.000000 -0.000000  0.428571    0.00291545 148 t-inv F
  0.142857  0.000000  0.428571    0.00291545 149 t-inv F
  0.285714  0.000000  0.428571    0.00291545 150 t-inv F
  0.428571  0.000000  0.428571    0.00291545 151 t-inv F
 -0.428571 -0.000000  0.428571    0.00291545 152 t-inv F
 -0.285714  0.000000  0.428571    0.00291545 153 t-inv F
 -0.142857 -0.000000  0.428571    0.00291545 154 t-inv F
 -0.000000  0.142857  0.428571    0.00291545 155 t-inv F
  0.142857  0.142857  0.428571    0.00291545 156 t-inv F
  0.285714  0.142857  0.428571    0.00291545 157 t-inv F
  0.428571  0.142857  0.428571    0.00291545 158 t-inv F
 -0.428571  0.142857  0.428571    0.00291545 159 t-inv F
 -0.285714  0.142857  0.428571    0.00291545 160 t-inv F
 -0.142857  0.142857  0.428571    0.00291545 161 t-inv F
 -0.000000  0.285714  0.428571    0.00291545 162 t-inv F
  0.142857  0.285714  0.428571    0.00291545 163 t-inv F
  0.285714  0.285714  0.428571    0.00291545 164 t-inv F
  0.428571  0.285714  0.428571    0.00291545 165 t-inv F
 -0.428571  0.285714  0.428571    0.00291545 166 t-inv F
 -0.285714  0.285714  0.428571    0.00291545 167 t-inv F
 -0.142857  0.285714  0.428571    0.00291545 168 t-inv F
 -0.000000  0.428571  0.428571    0.00291545 169 t-inv F
  0.142857  0.428571  0.428571    0.00291545 170 t-inv F
  0.285714  0.428571  0.428571    0.00291545 171 t-inv F
  0.428571  0.428571  0.428571    0.00291545 172 t-inv F
 -0.428571  0.428571  0.428571    0.00291545 173 t-inv F
 -0.285714  0.428571  0.428571    0.00291545 174 t-inv F
 -0.142857  0.428571  0.428571    0.00291545 175 t-inv F
 -0.000000 -0.428571  0.428571    0.00291545 176 t-inv F
  0.142857 -0.428571  0.428571    0.00291545 177 t-inv F
  0.285714 -0.428571  0.428571    0.00291545 178 t-inv F
  0.428571 -0.428571  0.428571    0.00291545 179 t-inv F
 -0.428571 -0.428571  0.428571    0.00291545 180 t-inv F
 -0.285714 -0.428571  0.428571    0.00291545 181 t-inv F
 -0.142857 -0.428571  0.428571    0.00291545 182 t-inv F
 -0.000000 -0.285714  0.428571    0.00291545 183 t-inv F
  0.142857 -0.285714  0.428571    0.00291545 184 t-inv F
  0.285714 -0.285714  0.428571    0.00291545 185 t-inv F
  0.428571 -0.285714  0.428571    0.00291545 186 t-inv F
 -0.428571 -0.285714  0.428571    0.00291545 187 t-inv F
 -0.285714 -0.285714  0.428571    0.00291545 188 t-inv F
 -0.142857 -0.285714  0.428571    0.00291545 189 t-inv F
 -0.000000 -0.142857  0.428571    0.00291545 190 t-inv F
  0.142857 -0.142857  0.428571    0.00291545 191 t-inv F
  0.285714 -0.142857  0.428571    0.00291545 192 t-inv F
  0.428571 -0.142857  0.428571    0.00291545 193 t-inv F
 -0.428571 -0.142857  0.428571    0.00291545 194 t-inv F
 -0.285714 -0.142857  0.428571    0.00291545 195 t-inv F
 -0.142857 -0.142857  0.428571    0.00291545 196 t-inv F
  0.000000  0.000000 -0.428571    0.00291545 197 t-inv F
  0.142857 -0.000000 -0.428571    0.00291545 198 t-inv F
  0.285714 -0.000000 -0.428571    0.00291545 199 t-inv F
  0.428571  0.000000 -0.428571    0.00291545 200 t-inv F
 -0.428571 -0.000000 -0.428571    0.00291545 201 t-inv F
 -0.285714 -0.000000 -0.428571    0.00291545 202 t-inv F
 -0.142857 -0.000000 -0.428571    0.00291545 203 t-inv F
  0.000000  0.142857 -0.428571    0.00291545 204 t-inv F
  0.142857  0.142857 -0.428571    0.00291545 205 t-inv F
  0.285714  0.142857 -0.428571    0.00291545 206 t-inv F
  0.428571  0.142857 -0.428571    0.00291545 207 t-inv F
 -0.428571  0.142857 -0.428571    0.00291545 208 t-inv F
 -0.285714  0.142857 -0.428571    0.00291545 209 t-inv F
 -0.142857  0.142857 -0.428571    0.00291545 210 t-inv F
  0.000000  0.285714 -0.428571    0.00291545 211 t-inv F
  0.142857  0.285714 -0.428571    0.00291545 212 t-inv F
  0.285714  0.285714 -0.428571    0.00291545 213 t-inv F
  0.428571  0.285714 -0.428571    0.00291545 214 t-inv F
 -0.428571  0.285714 -0.428571    0.00291545 215 t-inv F
 -0.285714  0.285714 -0.428571    0.00291545 216 t-inv F
 -0.142857  0.285714 -0.428571    0.00291545 217 t-inv F
  0.000000  0.428571 -0.428571    0.00291545 218 t-inv F
  0.142857  0.428571 -0.428571    0.00291545 219 t-inv F
  0.285714  0.428571 -0.428571    0.00291545 220 t-inv F
  0.428571  0.428571 -0.428571    0.00291545 221 t-inv F
 -0.428571  0.428571 -0.428571    0.00291545 222 t-inv F
 -0.285714  0.428571 -0.428571    0.00291545 223 t-inv F
 -0.142857  0.428571 -0.428571    0.00291545 224 t-inv F
  0.000000 -0.428571 -0.428571    0.00291545 225 t-inv F
  0.142857 -0.428571 -0.428571    0.00291545 226 t-inv F
  0.285714 -0.428571 -0.428571    0.00291545 227 t-inv F
  0.428571 -0.428571 -0.428571    0.00291545 228 t-inv F
 -0.428571 -0.428571 -0.428571    0.00291545 229 t-inv F
 -0.285714 -0.428571 -0.428571    0.00291545 230 t-inv F
 -0.142857 -0.428571 -0.428571    0.00291545 231 t-inv F
  0.000000 -0.285714 -0.428571    0.00291545 232 t-inv F
  0.142857 -0.285714 -0.428571    0.00291545 233 t-inv F
  0.285714 -0.285714 -0.428571    0.00291545 234 t-inv F
  0.428571 -0.285714 -0.428571    0.00291545 235 t-inv F
 -0.428571 -0.285714 -0.428571    0.00291545 236 t-inv F
 -0.285714 -0.285714 -0.428571    0.00291545 237 t-inv F
 -0.142857 -0.285714 -0.428571    0.00291545 238 t-inv F
  0.000000 -0.142857 -0.428571    0.00291545 239 t-inv F
  0.142857 -0.142857 -0.428571    0.00291545 240 t-inv F
  0.285714 -0.142857 -0.428571    0.00291545 241 t-inv F
  0.428571 -0.142857 -0.428571    0.00291545 242 t-inv F
 -0.428571 -0.142857 -0.428571    0.00291545 243 t-inv F
 -0.285714 -0.142857 -0.428571    0.00291545 244 t-inv F
 -0.142857 -0.142857 -0.428571    0.00291545 245 t-inv F
  0.000000  0.000000 -0.285714    0.00291545 246 t-inv F
  0.142857 -0.000000 -0.285714    0.00291545 247 t-inv F
  0.285714  0.000000 -0.285714    0.00291545 248 t-inv F
  0.428571  0.000000 -0.285714    0.00291545 249 t-inv F
 -0.428571 -0.000000 -0.285714    0.00291545 250 t-inv F
 -0.285714 -0.000000 -0.285714    0.00291545 251 t-inv F
 -0.142857 -0.000000 -0.285714    0.00291545 252 t-inv F
  0.000000  0.142857 -0.285714    0.00291545 253 t-inv F
  0.142857  0.142857 -0.285714    0.00291545 254 t-inv F
  0.285714  0.142857 -0.285714    0.00291545 255 t-inv F
  0.428571  0.142857 -0.285714    0.00291545 256 t-inv F
 -0.428571  0.142857 -0.285714    0.00291545 257 t-inv F
 -0.285714  0.142857 -0.285714    0.00291545 258 t-inv F
 -0.142857  0.142857 -0.285714    0.00291545 259 t-inv F
  0.000000  0.285714 -0.285714    0.00291545 260 t-inv F
  0.142857  0.285714 -0.285714    0.00291545 261 t-inv F
  0.285714  0.285714 -0.285714    0.00291545 262 t-inv F
  0.428571  0.285714 -0.285714    0.00291545 263 t-inv F
 -0.428571  0.285714 -0.285714    0.00291545 264 t-inv F
 -0.285714  0.285714 -0.285714    0.00291545 265 t-inv F
 -0.142857  0.285714 -0.285714    0.00291545 266 t-inv F
  0.000000  0.428571 -0.285714    0.00291545 267 t-inv F
  0.142857  0.428571 -0.285714    0.00291545 268 t-inv F
  0.285714  0.428571 -0.285714    0.00291545 269 t-inv F
  0.428571  0.428571 -0.285714    0.00291545 270 t-inv F
 -0.428571  0.428571 -0.285714    0.00291545 271 t-inv F
 -0.285714  0.428571 -0.285714    0.00291545 272 t-inv F
 -0.142857  0.428571 -0.285714    0.00291545 273 t-inv F
 -0.000000 -0.428571 -0.285714    0.00291545 274 t-inv F
  0.142857 -0.428571 -0.285714    0.00291545 275 t-inv F
  0.285714 -0.428571 -0.285714    0.00291545 276 t-inv F
  0.428571 -0.428571 -0.285714    0.00291545 277 t-inv F
 -0.428571 -0.428571 -0.285714    0.00291545 278 t-inv F
 -0.285714 -0.428571 -0.285714    0.00291545 279 t-inv F
 -0.142857 -0.428571 -0.285714    0.00291545 280 t-inv F
  0.000000 -0.285714 -0.285714    0.00291545 281 t-inv F
  0.142857 -0.285714 -0.285714    0.00291545 282 t-inv F
  0.285714 -0.285714 -0.285714    0.00291545 283 t-inv F
  0.428571 -0.285714 -0.285714    0.00291545 284 t-inv F
 -0.428571 -0.285714 -0.285714    0.00291545 285 t-inv F
 -0.285714 -0.285714 -0.285714    0.00291545 286 t-inv F
 -0.142857 -0.285714 -0.285714    0.00291545 287 t-inv F
  0.000000 -0.142857 -0.285714    0.00291545 288 t-inv F
  0.142857 -0.142857 -0.285714    0.00291545 289 t-inv F
  0.285714 -0.142857 -0.285714    0.00291545 290 t-inv F
  0.428571 -0.142857 -0.285714    0.00291545 291 t-inv F
 -0.428571 -0.142857 -0.285714    0.00291545 292 t-inv F
 -0.285714 -0.142857 -0.285714    0.00291545 293 t-inv F
 -0.142857 -0.142857 -0.285714    0.00291545 294 t-inv F
  0.000000  0.000000 -0.142857    0.00291545 295 t-inv F
  0.142857  0.000000 -0.142857    0.00291545 296 t-inv F
  0.285714  0.000000 -0.142857    0.00291545 297 t-inv F
  0.428571  0.000000 -0.142857    0.00291545 298 t-inv F
 -0.428571 -0.000000 -0.142857    0.00291545 299 t-inv F
 -0.285714 -0.000000 -0.142857    0.00291545 300 t-inv F
 -0.142857 -0.000000 -0.142857    0.00291545 301 t-inv F
  0.000000  0.142857 -0.142857    0.00291545 302 t-inv F
  0.142857  0.142857 -0.142857    0.00291545 303 t-inv F
  0.285714  0.142857 -0.142857    0.00291545 304 t-inv F
  0.428571  0.142857 -0.142857    0.00291545 305 t-inv F
 -0.428571  0.142857 -0.142857    0.00291545 306 t-inv F
 -0.285714  0.142857 -0.142857    0.00291545 307 t-inv F
 -0.142857  0.142857 -0.142857    0.00291545 308 t-inv F
  0.000000  0.285714 -0.142857    0.00291545 309 t-inv F
  0.142857  0.285714 -0.142857    0.00291545 310 t-inv F
  0.285714  0.285714 -0.142857    0.00291545 311 t-inv F
  0.428571  0.285714 -0.142857    0.00291545 312 t-inv F
 -0.428571  0.285714 -0.142857    0.00291545 313 t-inv F
 -0.285714  0.285714 -0.142857    0.00291545 314 t-inv F
 -0.142857  0.285714 -0.142857    0.00291545 315 t-inv F
  0.000000  0.428571 -0.142857    0.00291545 316 t-inv F
  0.142857  0.428571 -0.142857    0.00291545 317 t-inv F
  0.285714  0.428571 -0.142857    0.00291545 318 t-inv F
  0.428571  0.428571 -0.142857    0.00291545 319 t-inv F
 -0.428571  0.428571 -0.142857    0.00291545 320 t-inv F
 -0.285714  0.428571 -0.142857    0.00291545 321 t-inv F
 -0.142857  0.428571 -0.142857    0.00291545 322 t-inv F
 -0.000000 -0.428571 -0.142857    0.00291545 323 t-inv F
  0.142857 -0.428571 -0.142857    0.00291545 324 t-inv F
  0.285714 -0.428571 -0.142857    0.00291545 325 t-inv F
  0.428571 -0.428571 -0.142857    0.00291545 326 t-inv F
 -0.428571 -0.428571 -0.142857    0.00291545 327 t-inv F
 -0.285714 -0.428571 -0.142857    0.00291545 328 t-inv F
 -0.142857 -0.428571 -0.142857    0.00291545 329 t-inv F
  0.000000 -0.285714 -0.142857    0.00291545 330 t-inv F
  0.142857 -0.285714 -0.142857    0.00291545 331 t-inv F
  0.285714 -0.285714 -0.142857    0.00291545 332 t-inv F
  0.428571 -0.285714 -0.142857    0.00291545 333 t-inv F
 -0.428571 -0.285714 -0.142857    0.00291545 334 t-inv F
 -0.285714 -0.285714 -0.142857    0.00291545 335 t-inv F
 -0.142857 -0.285714 -0.142857    0.00291545 336 t-inv F
  0.000000 -0.142857 -0.142857    0.00291545 337 t-inv F
  0.142857 -0.142857 -0.142857    0.00291545 338 t-inv F
  0.285714 -0.142857 -0.142857    0.00291545 339 t-inv F
  0.428571 -0.142857 -0.142857    0.00291545 340 t-inv F
 -0.428571 -0.142857 -0.142857    0.00291545 341 t-inv F
 -0.285714 -0.142857 -0.142857    0.00291545 342 t-inv F
 -0.142857 -0.142857 -0.142857    0.00291545 343 t-inv F


--------------------------------------------------------------------------------------------------------




 Dimension of arrays:
   k-points           NKPTS =    343   k-points in BZ     NKDIM =    343   number of bands    NBANDS=    128
   number of dos      NEDOS =    301   number of ions     NIONS =      1
   non local maximal  LDIM  =      9   non local SUM 2l+1 LMDIM =     37
   total plane-waves  NPLWV =  21952
   max r-space proj   IRMAX =      1   max aug-charges    IRDMAX= 103641
   dimension x,y,z NGX =    28 NGY =   28 NGZ =   28
   dimension x,y,z NGXF=    56 NGYF=   56 NGZF=   56
   support grid    NGXF=   112 NGYF=  112 NGZF=  112
   ions per type =               1
   NGX,Y,Z   is equivalent  to a cutoff of  10.30, 10.30, 10.30 a.u.
   NGXF,Y,Z  is equivalent  to a cutoff of  20.59, 20.59, 20.59 a.u.

 SYSTEM =  Og_FCC                                  
 POSCAR =  Rn_FCC                                  

 Startparameter for this run:
   NWRITE =      1    write-flag & timer
   PREC   = accura    normal or accurate (medium, high low for compatibility)
   ISTART =      1    job   : 0-new  1-cont  2-samecut
   ICHARG =      0    charge: 1-file 2-atom 10-const
   ISPIN  =      1    spin polarized calculation?
   LNONCOLLINEAR =      T non collinear calculations
   LSORBIT =      T    spin-orbit coupling
   INIWAV =      1    electr: 0-lowe 1-rand  2-diag
   LASPH  =      F    aspherical Exc in radial PAW
   METAGGA=      F    non-selfconsistent MetaGGA calc.

 Electronic Relaxation 1
   ENCUT  =  300.0 eV  22.05 Ry    4.70 a.u.   6.38  6.38  6.38*2*pi/ulx,y,z
   ENINI  =  300.0     initial cutoff
   ENAUG  =  715.6 eV  augmentation charge cutoff
   NELM   =      1;   NELMIN=  2; NELMDL=  0     # of ELM steps 
   EDIFF  = 0.1E-07   stopping-criterion for ELM
   LREAL  =      F    real-space projection
   NLSPLINE    = F    spline interpolate recip. space projectors
   LCOMPAT=      F    compatible to vasp.4.4
   GGA_COMPAT  = F    GGA compatible to vasp.4.4-vasp.4.6
   LMAXPAW     = -100 max onsite density
   LMAXMIX     =    2 max onsite mixed and CHGCAR
   VOSKOWN=      0    Vosko Wilk Nusair interpolation
   ROPT   =    0.00000
 Ionic relaxation
   EDIFFG = 0.1E-04   stopping-criterion for IOM
   NSW    =      1    number of steps for IOM
   NBLOCK =      1;   KBLOCK =      1    inner block; outer block 
   IBRION =     -1    ionic relax: 0-MD 1-quasi-New 2-CG
   NFREE  =      5    steps in history (QN), initial steepest desc. (CG)
   ISIF   =      3    stress and relaxation
   IWAVPR =     10    prediction:  0-non 1-charg 2-wave 3-comb
   ISYM   =      0    0-nonsym 1-usesym 2-fastsym
   LCORR  =      T    Harris-Foulkes like correction to forces

   POTIM  = 0.1000    time-step for ionic-motion
   TEIN   =    0.0    initial temperature
   TEBEG  =    0.0;   TEEND  =   0.0 temperature during run
   SMASS  =  -3.00    Nose mass-parameter (am)
   estimated Nose-frequenzy (Omega)   =  0.10E-29 period in steps =****** mass=  -0.467E-27a.u.
   SCALEE = 1.0000    scale energy and forces
   NPACO  =    256;   APACO  = 16.0  distance and # of slots for P.C.
   PSTRESS=    0.0 pullay stress

  Mass of Ions in am
   POMASS = 220.17
  Ionic Valenz
   ZVAL   =  18.00
  Atomic Wigner-Seitz radii
   RWIGS  =  -1.00
  virtual crystal weights 
   VCA    =   1.00
   NELECT =      18.0000    total number of electrons
   NUPDOWN=      -1.0000    fix difference up-down

 DOS related values:
   EMIN   =  10.00;   EMAX   =-10.00  energy-range for DOS
   EFERMI =   0.00
   ISMEAR =     0;   SIGMA  =   0.00  broadening in eV -4-tet -1-fermi 0-gaus

 Electronic relaxation 2 (details)
   IALGO  =     38    algorithm
   LDIAG  =      T    sub-space diagonalisation (order eigenvalues)
   LSUBROT=      F    optimize rotation matrix (better conditioning)
   TURBO    =      0    0=normal 1=particle mesh
   IRESTART =      0    0=no restart 2=restart with 2 vectors
   NREBOOT  =      0    no. of reboots
   NMIN     =      0    reboot dimension
   EREF     =   0.00    reference energy to select bands
   IMIX   =      1    mixing-type and parameters
     AMIX     =   0.40;   BMIX     =  1.00
     AMIX_MAG =   1.60;   BMIX_MAG =  1.00
     AMIN     =   0.10
     WC   =   100.;   INIMIX=   1;  MIXPRE=   1;  MAXMIX=  50

 Intra band minimization:
   WEIMIN = 0.0000     energy-eigenvalue tresh-hold
   EBREAK =  0.20E-10  absolut break condition
   DEPER  =   0.30     relativ break condition  

   TIME   =   0.40     timestep for ELM

  volume/ion in A,a.u.               =      65.32       440.82
  Fermi-wavevector in a.u.,A,eV,Ry     =   1.065315  2.013153 15.441193  1.134896
  Thomas-Fermi vector in A             =   2.200862
 
 Write flags
   LWAVE        =      T    write WAVECAR
   LDOWNSAMPLE  =      F    k-point downsampling of WAVECAR
   LCHARG       =      F    write CHGCAR
   LVTOT        =      F    write LOCPOT, total local potential
   LVHAR        =      F    write LOCPOT, Hartree potential only
   LELF         =      F    write electronic localiz. function (ELF)
   LORBIT       =      0    0 simple, 1 ext, 2 COOP (PROOUT), +10 PAW based schemes


 Dipole corrections
   LMONO  =      F    monopole corrections only (constant potential shift)
   LDIPOL =      F    correct potential (dipole corrections)
   IDIPOL =      0    1-x, 2-y, 3-z, 4-all directions 
   EPSILON=  1.0000000 bulk dielectric constant

 Exchange correlation treatment:
   GGA     =    PE    GGA type
   LEXCH   =     8    internal setting for exchange type
   VOSKOWN=      0    Vosko Wilk Nusair interpolation
   EXXOEP  =     0    0=HF, 1=EXX-LHF (local Hartree Fock) 2=EXX OEP
   LHFCALC =     T    Hartree Fock is set to
   LSYMGRAD=     F    symmetrize gradient (conserves proper symmetry)
   PRECFOCK=normal    Normal, Fast or Accurate (Low or Medium for compatibility)
   LRHFCALC=     F    long range Hartree Fock
   LRSCOR  =     F    long range correlation only (use DFT for short range part)
   LTHOMAS =     F    Thomas Fermi screening in HF
   LMODELHF=     F    short range full HF, long range fraction AEXX
   ENCUT4O =  -1.0   cutoff for four orbital integrals eV
   LMAXFOCK=     4    L truncation for augmentation on plane wave grid
   LMAXFOCKAE=   4    L truncation for all-electron charge restoration on plane wave grid
   NMAXFOCKAE=   1    number of basis functions for all-electron charge restoration
   LFOCKAEDFT=     F  apply the AE augmentation even for DFT
   NKREDX  =     1    reduce k-point grid by
   NKREDY  =     1    reduce k-point grid by
   NKREDZ  =     1    reduce k-point grid by
   SHIFTRED=     F    shift reduced grid of Gamma
   HFKIDENT=     F    idential grid for each k-point
   ODDONLY =     F    use only odd q-grid points
   EVENONLY=     F    use only even q-grid points
   HFALPHA =   -1.0000 decay constant for conv. correction
   MCALPHA =    0.0000 extent of test-charge in conv. correction in multipole expansion
   AEXX    =    1.0000 exact exchange contribution
   HFSCREEN=    0.0000 screening length (either q_TF or 0.3 A-1)
   HFSCREENC=   0.0000 screening length for correlation (either q_TF or 0.3 A-1)
   HFRCUT  =    0.0000 spherical cutoff for potential kernel
   ALDAX   =    0.0000 LDA exchange part
   AGGAX   =    0.0000 GGA exchange part
   ALDAC   =    0.0000 LDA correlation
   AGGAC   =    0.0000 GGA correlation
   ENCUTFOCK=  -1.0 apply spherical cutoff to Coloumb kernel
   NBANDSGWLOW=     1    first orbital included in HF term
   NBLOCK_FOCK=    64    blocking factor in FOCK_ACC
 Linear response parameters
   LEPSILON=     F    determine dielectric tensor
   LRPA    =     F    only Hartree local field effects (RPA)
   LNABLA  =     F    use nabla operator in PAW spheres
   LVEL    =     F    velocity operator in full k-point grid
   LINTERFAST=   F  fast interpolation
   KINTER  =     0    interpolate to denser k-point grid
   CSHIFT  =0.1000    complex shift for real part using Kramers Kronig
   OMEGAMAX=  -1.0    maximum frequency
   DEG_THRESHOLD= 0.2000000E-02 threshold for treating states as degnerate
   RTIME   =   -0.100 relaxation time in fs
  (WPLASMAI=    0.000 imaginary part of plasma frequency in eV, 0.658/RTIME)
   DFIELD  = 0.0000000 0.0000000 0.0000000 field for delta impulse in time
 
 Orbital magnetization related:
   ORBITALMAG=     F  switch on orbital magnetization
   LCHIMAG   =     F  perturbation theory with respect to B field
   DQ        =  0.001000  dq finite difference perturbation B field
   LLRAUG    =     F  two centre corrections for induced B field

 Response functions by sum over occupied states:
   ALGO    =QPGW       execute GW part
   LFXC    =     F    include DFT xc kernel in TD-HF and W
   LADDER  =     F    particle hole ladder diagrams for BSE/TD-HF and W (Nano-quanta)
   LRPAFORCE=     F   calculate RPA forces
   LHARTREE=     T    include Hartree terms (bubbles-RPA) in BSE/TD-HF
   IBSE    =     0    BSE modus: 0 exact, 1 time-evolution (store matrix), 10 time-evolution (implicit)
   KPOINT  =    -1   0   0   0    k-point index at which BSE equation is solved (and G at which response is eval.)
   LTRIPLET=     F    triplet instead of singlet excitation (BSE only)
   LRSRPA  =     F    range separated RPA (total - short) in ACFDT
   LTCTE   =     F    use test-charge test-electron dielectric function
   LTETE   =     F    use test-electron test-electron dielectric function
   LFXCEPS =     F    determine f_xc=epsilon-1/Xi Sharma and Gross kernel
   LFXHEG  =     F    model exchange using f_x(G,k_F) from free electron gas
   NATURALO=     2    0 natural orbitals, 1 only virtual, 2 only occupied-virtual rotation
   L2ORDER =     F    2nd order terms only
   LMP2LT   =     F    use LT MP2
   LUSEW   =     F    use screened W from WXXXX.tmp files instead of (screened) HF kernel
   ENCUTGW = 200.0    cutoff for response function in eV
   ENCUTGWSOFT = 200.0 soft cutoff for Coulomb kernel in GW response function in eV
   ENCUTLF =  -1.0    cutoff for local field effects
   LMAXMP2 =    -1    maximum L for one center terms
   SCISSOR =   0.0    scissor correction
   NOMEGA  =    50    number of frequencies
   NOMEGAR =    50    number of frequencies along real axis
   NBANDSGW=    -1    number of bands for which selfenergy shift is calculated
   NBANDSGWLOW=     1 lowest band included in GW (to exclude core correlation)
   NBANDSO =    -1    number of bands for electron-hole treatment (occupied)
   NBANDSV =    -1    number of bands for electron-hole treatment (virtual)
   NELM    =     1    number of iterations in solving QP/BSE equation
   NELMHF  =     1    number of iterations in the inner HF iteration
   DIM     =     3    dimensionality of system (0=0D molecules, 3=3D)
   ANTIRES =     0    antiresonant part (0) no TDA (1) w=0 exact (2) accurate
   OMEGAMAX= -30.0    maximum frequency
   OMEGAMIN= -30.000    minimum frequency
   OMEGATL =-200.0    maximum frequency of tail
   OMEGAGRID=     0    grid type (0 default)
   CSHIFT  =-0.100    complex shift used in evaluation of response functions
   SELFENERGY=   F    calculate selfenergy instead of QP shifts
   LSPECTRAL =   T    use spectral functions                   
   LSPECTRALGW=   F   use spectral functions to calculate int dz G(w-z) W(z) (more accurate)
   LSINGLES  =   F   calculate the singles contribution to the correlation energy
   LFERMIGW  =   F   update Fermi-energy in the Greens function

   ODDONLYGW =   F    avoid all even points for polarizability 
   EVENONLYGW=   F    avoid all odd  points for polarizability 
   NKREDLFX  =   1   NKREDLFY  =   1   NKREDLFZ  =   1

   TELESCOPE =   0   use telescope k-point sampling
   TAUPAR    =   1   number of TAU groups used in imaginary time calculation
   OMEGAPAR  =  -1   number of OMEGA groups used in imaginary frequency calculation



--------------------------------------------------------------------------------------------------------


 Static calculation
 charge density and potential will be updated during run
 non collinear spin polarized calculation
 Variant of blocked Davidson
 Davidson routine will perform the subspace rotation
 perform sub-space diagonalisation
    after iterative eigenvector-optimisation
 Kerker-like  mixing scheme
 using additional bands          119
 reciprocal scheme for non local part
 use partial core corrections
 calculate Harris-corrections to forces 
   (improved forces if not selfconsistent)
 use gradient corrections 
 use of overlap-Matrix (Vanderbilt PP)
 Gauss-broadening in eV      SIGMA  =   0.00


--------------------------------------------------------------------------------------------------------


  energy-cutoff  :      300.00
  volume of cell :       65.32
      direct lattice vectors                 reciprocal lattice vectors
     4.520564769  0.000000000  0.000000000     0.221211298 -0.127716402 -0.090309134
     2.260282385  3.914923930 -0.000000000     0.000000000  0.255432805 -0.090309134
     2.260282385  1.304974643  3.691025678    -0.000000000  0.000000000  0.270927403

  length of vectors
     4.520564769  4.520564769  4.520564769     0.270927403  0.270927403  0.270927403


 
 old parameters found on file WAVECAR:
  energy-cutoff  :      300.00
  volume of cell :       65.32
      direct lattice vectors                 reciprocal lattice vectors
     4.520564769  0.000000000  0.000000000     0.221211298 -0.127716402 -0.090309134
     2.260282385  3.914923930 -0.000000000     0.000000000  0.255432805 -0.090309134
     2.260282385  1.304974643  3.691025678    -0.000000000  0.000000000  0.270927403

  length of vectors

 
 k-points in units of 2pi/SCALE and weight: k-points                                
   0.00000000  0.00000000  0.00000000       0.003
   0.03160161 -0.01824520 -0.01290130       0.003
   0.06320323 -0.03649040 -0.02580261       0.003
   0.09480484 -0.05473560 -0.03870391       0.003
  -0.09480484  0.05473560  0.03870391       0.003
  -0.06320323  0.03649040  0.02580261       0.003
  -0.03160161  0.01824520  0.01290130       0.003
   0.00000000  0.03649040 -0.01290130       0.003
   0.03160161  0.01824520 -0.02580261       0.003
   0.06320323  0.00000000 -0.03870391       0.003
   0.09480484 -0.01824520 -0.05160522       0.003
  -0.09480484  0.09122600  0.02580261       0.003
  -0.06320323  0.07298080  0.01290130       0.003
  -0.03160161  0.05473560  0.00000000       0.003
   0.00000000  0.07298080 -0.02580261       0.003
   0.03160161  0.05473560 -0.03870391       0.003
   0.06320323  0.03649040 -0.05160522       0.003
   0.09480484  0.01824520 -0.06450652       0.003
  -0.09480484  0.12771640  0.01290130       0.003
  -0.06320323  0.10947120  0.00000000       0.003
  -0.03160161  0.09122600 -0.01290130       0.003
   0.00000000  0.10947120 -0.03870391       0.003
   0.03160161  0.09122600 -0.05160522       0.003
   0.06320323  0.07298080 -0.06450652       0.003
   0.09480484  0.05473560 -0.07740783       0.003
  -0.09480484  0.16420680  0.00000000       0.003
  -0.06320323  0.14596160 -0.01290130       0.003
  -0.03160161  0.12771640 -0.02580261       0.003
  -0.00000000 -0.10947120  0.03870391       0.003
   0.03160161 -0.12771640  0.02580261       0.003
   0.06320323 -0.14596160  0.01290130       0.003
   0.09480484 -0.16420680 -0.00000000       0.003
  -0.09480484 -0.05473560  0.07740783       0.003
  -0.06320323 -0.07298080  0.06450652       0.003
  -0.03160161 -0.09122600  0.05160522       0.003
  -0.00000000 -0.07298080  0.02580261       0.003
   0.03160161 -0.09122600  0.01290130       0.003
   0.06320323 -0.10947120 -0.00000000       0.003
   0.09480484 -0.12771640 -0.01290130       0.003
  -0.09480484 -0.01824520  0.06450652       0.003
  -0.06320323 -0.03649040  0.05160522       0.003
  -0.03160161 -0.05473560  0.03870391       0.003
  -0.00000000 -0.03649040  0.01290130       0.003
   0.03160161 -0.05473560 -0.00000000       0.003
   0.06320323 -0.07298080 -0.01290130       0.003
   0.09480484 -0.09122600 -0.02580261       0.003
  -0.09480484  0.01824520  0.05160522       0.003
  -0.06320323  0.00000000  0.03870391       0.003
  -0.03160161 -0.01824520  0.02580261       0.003
  -0.00000000  0.00000000  0.03870391       0.003
   0.03160161 -0.01824520  0.02580261       0.003
   0.06320323 -0.03649040  0.01290130       0.003
   0.09480484 -0.05473560 -0.00000000       0.003
  -0.09480484  0.05473560  0.07740783       0.003
  -0.06320323  0.03649040  0.06450652       0.003
  -0.03160161  0.01824520  0.05160522       0.003
  -0.00000000  0.03649040  0.02580261       0.003
   0.03160161  0.01824520  0.01290130       0.003
   0.06320323  0.00000000  0.00000000       0.003
   0.09480484 -0.01824520 -0.01290130       0.003
  -0.09480484  0.09122600  0.06450652       0.003
  -0.06320323  0.07298080  0.05160522       0.003
  -0.03160161  0.05473560  0.03870391       0.003
  -0.00000000  0.07298080  0.01290130       0.003
   0.03160161  0.05473560  0.00000000       0.003
   0.06320323  0.03649040 -0.01290130       0.003
   0.09480484  0.01824520 -0.02580261       0.003
  -0.09480484  0.12771640  0.05160522       0.003
  -0.06320323  0.10947120  0.03870391       0.003
  -0.03160161  0.09122600  0.02580261       0.003
  -0.00000000  0.10947120  0.00000000       0.003
   0.03160161  0.09122600 -0.01290130       0.003
   0.06320323  0.07298080 -0.02580261       0.003
   0.09480484  0.05473560 -0.03870391       0.003
  -0.09480484  0.16420680  0.03870391       0.003
  -0.06320323  0.14596160  0.02580261       0.003
  -0.03160161  0.12771640  0.01290130       0.003
  -0.00000000 -0.10947120  0.07740783       0.003
   0.03160161 -0.12771640  0.06450652       0.003
   0.06320323 -0.14596160  0.05160522       0.003
   0.09480484 -0.16420680  0.03870391       0.003
  -0.09480484 -0.05473560  0.11611174       0.003
  -0.06320323 -0.07298080  0.10321044       0.003
  -0.03160161 -0.09122600  0.09030913       0.003
  -0.00000000 -0.07298080  0.06450652       0.003
   0.03160161 -0.09122600  0.05160522       0.003
   0.06320323 -0.10947120  0.03870391       0.003
   0.09480484 -0.12771640  0.02580261       0.003
  -0.09480484 -0.01824520  0.10321044       0.003
  -0.06320323 -0.03649040  0.09030913       0.003
  -0.03160161 -0.05473560  0.07740783       0.003
  -0.00000000 -0.03649040  0.05160522       0.003
   0.03160161 -0.05473560  0.03870391       0.003
   0.06320323 -0.07298080  0.02580261       0.003
   0.09480484 -0.09122600  0.01290130       0.003
  -0.09480484  0.01824520  0.09030913       0.003
  -0.06320323  0.00000000  0.07740783       0.003
  -0.03160161 -0.01824520  0.06450652       0.003
  -0.00000000  0.00000000  0.07740783       0.003
   0.03160161 -0.01824520  0.06450652       0.003
   0.06320323 -0.03649040  0.05160522       0.003
   0.09480484 -0.05473560  0.03870391       0.003
  -0.09480484  0.05473560  0.11611174       0.003
  -0.06320323  0.03649040  0.10321044       0.003
  -0.03160161  0.01824520  0.09030913       0.003
  -0.00000000  0.03649040  0.06450652       0.003
   0.03160161  0.01824520  0.05160522       0.003
   0.06320323  0.00000000  0.03870391       0.003
   0.09480484 -0.01824520  0.02580261       0.003
  -0.09480484  0.09122600  0.10321044       0.003
  -0.06320323  0.07298080  0.09030913       0.003
  -0.03160161  0.05473560  0.07740783       0.003
  -0.00000000  0.07298080  0.05160522       0.003
   0.03160161  0.05473560  0.03870391       0.003
   0.06320323  0.03649040  0.02580261       0.003
   0.09480484  0.01824520  0.01290130       0.003
  -0.09480484  0.12771640  0.09030913       0.003
  -0.06320323  0.10947120  0.07740783       0.003
  -0.03160161  0.09122600  0.06450652       0.003
  -0.00000000  0.10947120  0.03870391       0.003
   0.03160161  0.09122600  0.02580261       0.003
   0.06320323  0.07298080  0.01290130       0.003
   0.09480484  0.05473560  0.00000000       0.003
  -0.09480484  0.16420680  0.07740783       0.003
  -0.06320323  0.14596160  0.06450652       0.003
  -0.03160161  0.12771640  0.05160522       0.003
  -0.00000000 -0.10947120  0.11611174       0.003
   0.03160161 -0.12771640  0.10321044       0.003
   0.06320323 -0.14596160  0.09030913       0.003
   0.09480484 -0.16420680  0.07740783       0.003
  -0.09480484 -0.05473560  0.15481566       0.003
  -0.06320323 -0.07298080  0.14191435       0.003
  -0.03160161 -0.09122600  0.12901305       0.003
  -0.00000000 -0.07298080  0.10321044       0.003
   0.03160161 -0.09122600  0.09030913       0.003
   0.06320323 -0.10947120  0.07740783       0.003
   0.09480484 -0.12771640  0.06450652       0.003
  -0.09480484 -0.01824520  0.14191435       0.003
  -0.06320323 -0.03649040  0.12901305       0.003
  -0.03160161 -0.05473560  0.11611174       0.003
  -0.00000000 -0.03649040  0.09030913       0.003
   0.03160161 -0.05473560  0.07740783       0.003
   0.06320323 -0.07298080  0.06450652       0.003
   0.09480484 -0.09122600  0.05160522       0.003
  -0.09480484  0.01824520  0.12901305       0.003
  -0.06320323  0.00000000  0.11611174       0.003
  -0.03160161 -0.01824520  0.10321044       0.003
  -0.00000000  0.00000000  0.11611174       0.003
   0.03160161 -0.01824520  0.10321044       0.003
   0.06320323 -0.03649040  0.09030913       0.003
   0.09480484 -0.05473560  0.07740783       0.003
  -0.09480484  0.05473560  0.15481566       0.003
  -0.06320323  0.03649040  0.14191435       0.003
  -0.03160161  0.01824520  0.12901305       0.003
  -0.00000000  0.03649040  0.10321044       0.003
   0.03160161  0.01824520  0.09030913       0.003
   0.06320323  0.00000000  0.07740783       0.003
   0.09480484 -0.01824520  0.06450652       0.003
  -0.09480484  0.09122600  0.14191435       0.003
  -0.06320323  0.07298080  0.12901305       0.003
  -0.03160161  0.05473560  0.11611174       0.003
  -0.00000000  0.07298080  0.09030913       0.003
   0.03160161  0.05473560  0.07740783       0.003
   0.06320323  0.03649040  0.06450652       0.003
   0.09480484  0.01824520  0.05160522       0.003
  -0.09480484  0.12771640  0.12901305       0.003
  -0.06320323  0.10947120  0.11611174       0.003
  -0.03160161  0.09122600  0.10321044       0.003
  -0.00000000  0.10947120  0.07740783       0.003
   0.03160161  0.09122600  0.06450652       0.003
   0.06320323  0.07298080  0.05160522       0.003
   0.09480484  0.05473560  0.03870391       0.003
  -0.09480484  0.16420680  0.11611174       0.003
  -0.06320323  0.14596160  0.10321044       0.003
  -0.03160161  0.12771640  0.09030913       0.003
  -0.00000000 -0.10947120  0.15481566       0.003
   0.03160161 -0.12771640  0.14191435       0.003
   0.06320323 -0.14596160  0.12901305       0.003
   0.09480484 -0.16420680  0.11611174       0.003
  -0.09480484 -0.05473560  0.19351957       0.003
  -0.06320323 -0.07298080  0.18061827       0.003
  -0.03160161 -0.09122600  0.16771696       0.003
  -0.00000000 -0.07298080  0.14191435       0.003
   0.03160161 -0.09122600  0.12901305       0.003
   0.06320323 -0.10947120  0.11611174       0.003
   0.09480484 -0.12771640  0.10321044       0.003
  -0.09480484 -0.01824520  0.18061827       0.003
  -0.06320323 -0.03649040  0.16771696       0.003
  -0.03160161 -0.05473560  0.15481566       0.003
  -0.00000000 -0.03649040  0.12901305       0.003
[...]


--------------------------------------------------------------------------------------------------------


NQ=  64   -0.0000    0.2857    0.1429, 
       CHI:  cpu time    3.3348: real time    3.3336
   KRAMKRO:  cpu time    0.8884: real time    0.8881
    LFIELD:  cpu time    0.0000: real time    0.0000
  XI_LOCAL:  cpu time    0.0434: real time    0.0434
  XI_RED_T:  cpu time    0.0032: real time    0.0032
   XI_TO_W:  cpu time    0.0012: real time    0.0012
   KRAMKRO:  cpu time    0.8447: real time    0.8521
   TWOEINT:  cpu time   32.7203: real time   32.7129
   KRAMKRO:  cpu time    1.7092: real time    1.7085
   TWOEINT:  cpu time   10.7068: real time   10.7030
        GW:  cpu time   50.8866: real time   50.8819
 
 performed     446528000 updates of chi_q(r,r)
 total number of BLAS operations   627889.43 Gflops


--------------------------------------------------------------------------------------------------------


NQ=  65    0.1429    0.2857    0.1429, 
       CHI:  cpu time    3.3244: real time    3.3229
   KRAMKRO:  cpu time    0.8726: real time    0.8722
    LFIELD:  cpu time    0.0000: real time    0.0000
  XI_LOCAL:  cpu time    0.0415: real time    0.0415
  XI_RED_T:  cpu time    0.0032: real time    0.0032
   XI_TO_W:  cpu time    0.0013: real time    0.0013
   KRAMKRO:  cpu time    0.8306: real time    0.8409
   TWOEINT:  cpu time   32.5573: real time   32.5484
   KRAMKRO:  cpu time    1.7388: real time    1.7382
   TWOEINT:  cpu time   10.7167: real time   10.7144
        GW:  cpu time   50.6732: real time   50.6696
 
 performed     453505000 updates of chi_q(r,r)
 total number of BLAS operations   637227.72 Gflops


--------------------------------------------------------------------------------------------------------


NQ=  66    0.2857    0.2857    0.1429, 
       CHI:  cpu time    3.3418: real time    3.3406
   KRAMKRO:  cpu time    0.9046: real time    0.9046
    LFIELD:  cpu time    0.0000: real time    0.0000
  XI_LOCAL:  cpu time    0.0436: real time    0.0436
  XI_RED_T:  cpu time    0.0032: real time    0.0032
   XI_TO_W:  cpu time    0.0015: real time    0.0015
   KRAMKRO:  cpu time    0.8298: real time    0.8371
   TWOEINT:  cpu time   32.5827: real time   32.5748
   KRAMKRO:  cpu time    2.8774: real time    2.8759
   TWOEINT:  cpu time   10.6878: real time   10.6847
        GW:  cpu time   52.0861: real time   52.0796
 
 performed     460482000 updates of chi_q(r,r)
 total number of BLAS operations   646934.89 Gflops


--------------------------------------------------------------------------------------------------------


NQ=  67    0.4286    0.2857    0.1429, 
       CHI:  cpu time    3.3666: real time    3.3657
   KRAMKRO:  cpu time    0.9369: real time    0.9365
    LFIELD:  cpu time    0.0000: real time    0.0000
  XI_LOCAL:  cpu time    0.0439: real time    0.0438
  XI_RED_T:  cpu time    0.0032: real time    0.0032
   XI_TO_W:  cpu time    0.0015: real time    0.0015
   KRAMKRO:  cpu time    0.8337: real time    0.8413
   TWOEINT:  cpu time   32.5970: real time   32.5894
   KRAMKRO:  cpu time    3.2956: real time    3.2937
   TWOEINT:  cpu time   10.8099: real time   10.8068
        GW:  cpu time   52.6097: real time   52.6034
 
 performed     467459000 updates of chi_q(r,r)
 total number of BLAS operations   656782.23 Gflops


--------------------------------------------------------------------------------------------------------


NQ=  68   -0.4286    0.2857    0.1429, 
       CHI:  cpu time    3.3524: real time    3.3511
   KRAMKRO:  cpu time    0.8872: real time    0.8868
    LFIELD:  cpu time    0.0000: real time    0.0000
  XI_LOCAL:  cpu time    0.0439: real time    0.0439
  XI_RED_T:  cpu time    0.0032: real time    0.0032
   XI_TO_W:  cpu time    0.0014: real time    0.0014
   KRAMKRO:  cpu time    0.8398: real time    0.8488
   TWOEINT:  cpu time   32.4626: real time   32.4536
   KRAMKRO:  cpu time    3.0844: real time    3.0834
   TWOEINT:  cpu time   10.7846: real time   10.7808
        GW:  cpu time   52.2811: real time   52.2744
 
 performed     474436000 updates of chi_q(r,r)
 total number of BLAS operations   666629.57 Gflops


--------------------------------------------------------------------------------------------------------


NQ=  69   -0.2857    0.2857    0.1429, 
       CHI:  cpu time    3.3793: real time    3.3780
   KRAMKRO:  cpu time    0.8749: real time    0.8745
    LFIELD:  cpu time    0.0000: real time    0.0000
  XI_LOCAL:  cpu time    0.0442: real time    0.0442
  XI_RED_T:  cpu time    0.0033: real time    0.0033
   XI_TO_W:  cpu time    0.0015: real time    0.0015
   KRAMKRO:  cpu time    0.8289: real time    0.8367
   TWOEINT:  cpu time   32.5992: real time   32.5904
   KRAMKRO:  cpu time    2.7147: real time    2.7134
   TWOEINT:  cpu time   10.7593: real time   10.7568
        GW:  cpu time   51.9728: real time   51.9666
 
 performed     481413000 updates of chi_q(r,r)
 total number of BLAS operations   676476.91 Gflops


--------------------------------------------------------------------------------------------------------


NQ=  70   -0.1429    0.2857    0.1429, 
       CHI:  cpu time    3.3558: real time    3.3547
   KRAMKRO:  cpu time    0.9021: real time    0.9017
    LFIELD:  cpu time    0.0000: real time    0.0000
  XI_LOCAL:  cpu time    0.0443: real time    0.0442
  XI_RED_T:  cpu time    0.0032: real time    0.0032
   XI_TO_W:  cpu time    0.0015: real time    0.0015
   KRAMKRO:  cpu time    0.8299: real time    0.8377
   TWOEINT:  cpu time   32.7024: real time   32.6920
   KRAMKRO:  cpu time    1.9467: real time    1.9460
   TWOEINT:  cpu time   10.7981: real time   10.7955
        GW:  cpu time   51.1580: real time   51.1505
 
 performed     488390000 updates of chi_q(r,r)
 total number of BLAS operations   686324.26 Gflops


--------------------------------------------------------------------------------------------------------


NQ=  71   -0.0000    0.4286    0.1429, 
       CHI:  cpu time    3.4036: real time    3.4022
   KRAMKRO:  cpu time    0.8776: real time    0.8779
    LFIELD:  cpu time    0.0000: real time    0.0000
  XI_LOCAL:  cpu time    0.0453: real time    0.0453
  XI_RED_T:  cpu time    0.0036: real time    0.0036
   XI_TO_W:  cpu time    0.0018: real time    0.0018
   KRAMKRO:  cpu time    0.8470: real time    0.8573
   TWOEINT:  cpu time   33.0538: real time   33.0445
   KRAMKRO:  cpu time    2.0785: real time    2.0777
   TWOEINT:  cpu time   10.8199: real time   10.8165
        GW:  cpu time   51.8145: real time   51.8105
 
 performed     495367000 updates of chi_q(r,r)
 total number of BLAS operations   696312.78 Gflops


--------------------------------------------------------------------------------------------------------


NQ=  72    0.1429    0.4286    0.1429, 
       CHI:  cpu time    3.3881: real time    3.3873
   KRAMKRO:  cpu time    0.8698: real time    0.8695
    LFIELD:  cpu time    0.0000: real time    0.0000
  XI_LOCAL:  cpu time    0.0450: real time    0.0450
  XI_RED_T:  cpu time    0.0035: real time    0.0035
   XI_TO_W:  cpu time    0.0012: real time    0.0012
   KRAMKRO:  cpu time    0.8307: real time    0.8384
   TWOEINT:  cpu time   33.1055: real time   33.0997
   KRAMKRO:  cpu time    1.7677: real time    1.7668
   TWOEINT:  cpu time   10.8417: real time   10.8382
        GW:  cpu time   51.4222: real time   51.4183
 
 performed     502344000 updates of chi_q(r,r)
 total number of BLAS operations   706301.30 Gflops


--------------------------------------------------------------------------------------------------------


NQ=  73    0.2857    0.4286    0.1429, 
       CHI:  cpu time    3.3626: real time    3.3617
   KRAMKRO:  cpu time    0.9184: real time    0.9181
    LFIELD:  cpu time    0.0001: real time    0.0000
  XI_LOCAL:  cpu time    0.0442: real time    0.0442
  XI_RED_T:  cpu time    0.0031: real time    0.0031
   XI_TO_W:  cpu time    0.0012: real time    0.0012
   KRAMKRO:  cpu time    0.8292: real time    0.8374
   TWOEINT:  cpu time   32.8861: real time   32.8787
   KRAMKRO:  cpu time    2.9078: real time    2.9069
   TWOEINT:  cpu time   10.7771: real time   10.7738
        GW:  cpu time   52.4846: real time   52.4793
 
 performed     509321000 updates of chi_q(r,r)
 total number of BLAS operations   716148.64 Gflops


--------------------------------------------------------------------------------------------------------


NQ=  74    0.4286    0.4286    0.1429, 
       CHI:  cpu time    3.4173: real time    3.4161
   KRAMKRO:  cpu time    0.9382: real time    0.9380
    LFIELD:  cpu time    0.0001: real time    0.0001
  XI_LOCAL:  cpu time    0.0454: real time    0.0454
  XI_RED_T:  cpu time    0.0033: real time    0.0032
   XI_TO_W:  cpu time    0.0012: real time    0.0012
   KRAMKRO:  cpu time    0.8293: real time    0.8379
   TWOEINT:  cpu time   32.9510: real time   32.9398
   KRAMKRO:  cpu time    2.9880: real time    2.9869
   TWOEINT:  cpu time   10.8818: real time   10.8785
        GW:  cpu time   52.6749: real time   52.6666
 
 performed     516298000 updates of chi_q(r,r)
 total number of BLAS operations   726231.84 Gflops


--------------------------------------------------------------------------------------------------------


NQ=  75   -0.4286    0.4286    0.1429, 
       CHI:  cpu time    3.3827: real time    3.3814
   KRAMKRO:  cpu time    0.9103: real time    0.9099
    LFIELD:  cpu time    0.0000: real time    0.0000
  XI_LOCAL:  cpu time    0.0461: real time    0.0461
  XI_RED_T:  cpu time    0.0032: real time    0.0032
   XI_TO_W:  cpu time    0.0016: real time    0.0016
   KRAMKRO:  cpu time    0.8308: real time    0.8392
   TWOEINT:  cpu time   33.1854: real time   33.1747
   KRAMKRO:  cpu time    2.6521: real time    2.6510
   TWOEINT:  cpu time   10.9203: real time   10.9167
        GW:  cpu time   52.6312: real time   52.6223
 
 performed     523275000 updates of chi_q(r,r)
 total number of BLAS operations   736410.16 Gflops


--------------------------------------------------------------------------------------------------------


NQ=  76   -0.2857    0.4286    0.1429, 
       CHI:  cpu time    3.3665: real time    3.3653
   KRAMKRO:  cpu time    0.8878: real time    0.8877
    LFIELD:  cpu time    0.0001: real time    0.0001
  XI_LOCAL:  cpu time    0.0431: real time    0.0431
  XI_RED_T:  cpu time    0.0031: real time    0.0031
   XI_TO_W:  cpu time    0.0012: real time    0.0012
   KRAMKRO:  cpu time    0.8338: real time    0.8432
   TWOEINT:  cpu time   32.8529: real time   32.8432
   KRAMKRO:  cpu time    2.4480: real time    2.4471
   TWOEINT:  cpu time   10.7749: real time   10.7721
        GW:  cpu time   51.9737: real time   51.9685
 
 performed     530252000 updates of chi_q(r,r)
 total number of BLAS operations   746070.83 Gflops


--------------------------------------------------------------------------------------------------------


NQ=  77   -0.1429    0.4286    0.1429, 
       CHI:  cpu time    3.3978: real time    3.3970
   KRAMKRO:  cpu time    0.8429: real time    0.8426
    LFIELD:  cpu time    0.0000: real time    0.0000
  XI_LOCAL:  cpu time    0.0439: real time    0.0438
  XI_RED_T:  cpu time    0.0032: real time    0.0032
   XI_TO_W:  cpu time    0.0015: real time    0.0015
   KRAMKRO:  cpu time    0.8280: real time    0.8374
   TWOEINT:  cpu time   33.2111: real time   33.2031
   KRAMKRO:  cpu time    1.9538: real time    1.9549
   TWOEINT:  cpu time   10.9190: real time   10.9160
        GW:  cpu time   51.7597: real time   51.7593
 
 performed     537229000 updates of chi_q(r,r)
 total number of BLAS operations   755918.17 Gflops


--------------------------------------------------------------------------------------------------------


NQ=  78   -0.0000   -0.4286    0.1429, 
       CHI:  cpu time    3.3632: real time    3.3641
   KRAMKRO:  cpu time    0.8893: real time    0.9015
    LFIELD:  cpu time    0.0001: real time    0.0001
  XI_LOCAL:  cpu time    0.0416: real time    0.0426
  XI_RED_T:  cpu time    0.0027: real time    0.0027
   XI_TO_W:  cpu time    0.0012: real time    0.0012
   KRAMKRO:  cpu time    0.8319: real time    0.8448
   TWOEINT:  cpu time   33.1571: real time   33.1502
   KRAMKRO:  cpu time    1.5930: real time    1.5926
   TWOEINT:  cpu time   10.8214: real time   10.8180
        GW:  cpu time   51.3061: real time   51.3219
 
 performed     544206000 updates of chi_q(r,r)
 total number of BLAS operations   765486.17 Gflops


--------------------------------------------------------------------------------------------------------


NQ=  79    0.1429   -0.4286    0.1429, 
       CHI:  cpu time    3.3473: real time    3.3460
   KRAMKRO:  cpu time    0.8627: real time    0.8624
    LFIELD:  cpu time    0.0001: real time    0.0001
  XI_LOCAL:  cpu time    0.0425: real time    0.0425
  XI_RED_T:  cpu time    0.0031: real time    0.0031
   XI_TO_W:  cpu time    0.0012: real time    0.0012
   KRAMKRO:  cpu time    0.8689: real time    0.8761
   TWOEINT:  cpu time   32.8223: real time   32.8121
   KRAMKRO:  cpu time    1.6512: real time    1.6508
   TWOEINT:  cpu time   10.8438: real time   10.8399
        GW:  cpu time   51.0068: real time   50.9977
 
 performed     551183000 updates of chi_q(r,r)
 total number of BLAS operations   775054.17 Gflops


--------------------------------------------------------------------------------------------------------


NQ=  80    0.2857   -0.4286    0.1429, 
       CHI:  cpu time    3.3845: real time    3.3832
   KRAMKRO:  cpu time    0.8796: real time    0.8792
    LFIELD:  cpu time    0.0000: real time    0.0000
  XI_LOCAL:  cpu time    0.0440: real time    0.0440
  XI_RED_T:  cpu time    0.0031: real time    0.0031
   XI_TO_W:  cpu time    0.0012: real time    0.0012
   KRAMKRO:  cpu time    0.8340: real time    0.8414
   TWOEINT:  cpu time   32.8479: real time   32.8381
   KRAMKRO:  cpu time    2.8209: real time    2.8195
   TWOEINT:  cpu time   10.8688: real time   10.8652
        GW:  cpu time   52.3248: real time   52.3159
 
 performed     558160000 updates of chi_q(r,r)
 total number of BLAS operations   784901.51 Gflops


--------------------------------------------------------------------------------------------------------


NQ=  81    0.4286   -0.4286    0.1429, 
       CHI:  cpu time    3.4080: real time    3.4066
   KRAMKRO:  cpu time    0.9384: real time    0.9380
    LFIELD:  cpu time    0.0000: real time    0.0000
  XI_LOCAL:  cpu time    0.0460: real time    0.0461
  XI_RED_T:  cpu time    0.0034: real time    0.0033
   XI_TO_W:  cpu time    0.0012: real time    0.0012
   KRAMKRO:  cpu time    0.8307: real time    0.8379
   TWOEINT:  cpu time   32.9843: real time   32.9758
   KRAMKRO:  cpu time    3.0072: real time    3.0058
   TWOEINT:  cpu time   10.8840: real time   10.8807
        GW:  cpu time   52.7384: real time   52.7305
 
 performed     565137000 updates of chi_q(r,r)
 total number of BLAS operations   795079.83 Gflops


--------------------------------------------------------------------------------------------------------


NQ=  82   -0.4286   -0.4286    0.1429, 
       CHI:  cpu time    3.3698: real time    3.3688
   KRAMKRO:  cpu time    0.9125: real time    0.9122
    LFIELD:  cpu time    0.0000: real time    0.0000
  XI_LOCAL:  cpu time    0.0461: real time    0.0461
  XI_RED_T:  cpu time    0.0032: real time    0.0032
   XI_TO_W:  cpu time    0.0013: real time    0.0013
   KRAMKRO:  cpu time    0.8306: real time    0.8379
   TWOEINT:  cpu time   33.0484: real time   33.0372
   KRAMKRO:  cpu time    2.7350: real time    2.7337
   TWOEINT:  cpu time   10.8608: real time   10.8573
        GW:  cpu time   52.6072: real time   52.5972
 
 performed     572114000 updates of chi_q(r,r)
 total number of BLAS operations   805305.88 Gflops


--------------------------------------------------------------------------------------------------------


NQ=  83   -0.2857   -0.4286    0.1429, 
       CHI:  cpu time    3.3937: real time    3.3926
   KRAMKRO:  cpu time    0.9037: real time    0.9033
    LFIELD:  cpu time    0.0000: real time    0.0000
  XI_LOCAL:  cpu time    0.0460: real time    0.0460
  XI_RED_T:  cpu time    0.0035: real time    0.0035
   XI_TO_W:  cpu time    0.0012: real time    0.0012
   KRAMKRO:  cpu time    0.8293: real time    0.8379
   TWOEINT:  cpu time   33.4066: real time   33.4288
   KRAMKRO:  cpu time    2.1660: real time    2.1656
   TWOEINT:  cpu time   10.8251: real time   10.8214
        GW:  cpu time   52.2965: real time   52.3214
 
 performed     579091000 updates of chi_q(r,r)
 total number of BLAS operations   815484.21 Gflops


--------------------------------------------------------------------------------------------------------


NQ=  84   -0.1429   -0.4286    0.1429, 
       CHI:  cpu time    3.3881: real time    3.3878
   KRAMKRO:  cpu time    0.8760: real time    0.8758
    LFIELD:  cpu time    0.0000: real time    0.0000
  XI_LOCAL:  cpu time    0.0440: real time    0.0439
  XI_RED_T:  cpu time    0.0034: real time    0.0034
   XI_TO_W:  cpu time    0.0015: real time    0.0015
   KRAMKRO:  cpu time    0.8313: real time    0.8377
   TWOEINT:  cpu time   33.1924: real time   33.1815
   KRAMKRO:  cpu time    1.6865: real time    1.6859
   TWOEINT:  cpu time   10.8643: real time   10.8611
        GW:  cpu time   51.4689: real time   51.4597
 
 performed     586068000 updates of chi_q(r,r)
 total number of BLAS operations   825331.55 Gflops


--------------------------------------------------------------------------------------------------------


NQ=  85   -0.0000   -0.2857    0.1429, 
       CHI:  cpu time    3.3417: real time    3.3404
   KRAMKRO:  cpu time    0.8990: real time    0.8986
    LFIELD:  cpu time    0.0000: real time    0.0000
  XI_LOCAL:  cpu time    0.0451: real time    0.0451
  XI_RED_T:  cpu time    0.0034: real time    0.0034
   XI_TO_W:  cpu time    0.0017: real time    0.0017
   KRAMKRO:  cpu time    0.8279: real time    0.8363
   TWOEINT:  cpu time   32.7632: real time   32.7546
   KRAMKRO:  cpu time    1.8540: real time    1.8532
   TWOEINT:  cpu time   10.7765: real time   10.7737
        GW:  cpu time   51.1362: real time   51.1304
 
 performed     593045000 updates of chi_q(r,r)
 total number of BLAS operations   835320.07 Gflops


--------------------------------------------------------------------------------------------------------


NQ=  86    0.1429   -0.2857    0.1429, 
       CHI:  cpu time    3.3727: real time    3.3717
   KRAMKRO:  cpu time    0.8631: real time    0.8628
    LFIELD:  cpu time    0.0000: real time    0.0000
  XI_LOCAL:  cpu time    0.0452: real time    0.0452
  XI_RED_T:  cpu time    0.0032: real time    0.0032
   XI_TO_W:  cpu time    0.0013: real time    0.0013
   KRAMKRO:  cpu time    0.8309: real time    0.8400
   TWOEINT:  cpu time   32.6648: real time   32.6587
   KRAMKRO:  cpu time    1.7200: real time    1.7194
   TWOEINT:  cpu time   10.7968: real time   10.7989
        GW:  cpu time   50.8774: real time   50.8799
 
 performed     600022000 updates of chi_q(r,r)
 total number of BLAS operations   845308.59 Gflops


--------------------------------------------------------------------------------------------------------


NQ=  87    0.2857   -0.2857    0.1429, 
       CHI:  cpu time    3.4020: real time    3.4104
   KRAMKRO:  cpu time    1.0620: real time    1.0679
    LFIELD:  cpu time    0.0000: real time    0.0000
  XI_LOCAL:  cpu time    0.0442: real time    0.0444
  XI_RED_T:  cpu time    0.0030: real time    0.0030
   XI_TO_W:  cpu time    0.0017: real time    0.0017
   KRAMKRO:  cpu time    0.9336: real time    0.9457
   TWOEINT:  cpu time   32.6399: real time   32.6408
   KRAMKRO:  cpu time    2.8940: real time    2.8924
   TWOEINT:  cpu time   10.7719: real time   10.7683
        GW:  cpu time   52.4867: real time   52.5088
 
 performed     606999000 updates of chi_q(r,r)
 total number of BLAS operations   855155.93 Gflops

