    1    1    1    1
  0.5789729E+02  0.4342346E-09  0.4342346E-09  0.4342346E-09  0.1000000E-15
  1.000000000000000E-004
  CAR 
 Og_FCC                                  
     18    216     96
 
  0.0000000E+00  0.0000000E+00  0.0000000E+00  0.4629630E-02
    1      -30.471107   1.000000
    2      -30.470960   1.000000
    3      -30.470856   1.000000
    4      -30.470708   1.000000
    5      -23.804738   1.000000
    6      -23.804292   1.000000
    7      -23.803991   1.000000
    8      -23.803574   1.000000
    9      -23.803375   1.000000
   10      -23.802687   1.000000
   11      -20.209674   1.000000
   12      -20.208602   1.000000
   13       -6.915721   1.000000
   14       -6.914384   1.000000
   15        3.712146   1.000000
   16        3.712757   1.000000
   17        3.958546   0.999727
   18        3.958570   0.999690
   19        3.963411   0.000310
   20        3.963435   0.000273
   21       10.878077   0.000000
   22       10.878509   0.000000
   23       10.878859   0.000000
   24       10.879291   0.000000
   25       11.115562   0.000000
   26       11.116340   0.000000
   27       11.302498   0.000000
   28       11.303806   0.000000
   29       13.214745   0.000000
   30       13.217994   0.000000
   31       13.519330   0.000000
   32       13.519848   0.000000
   33       13.520539   0.000000
   34       13.521056   0.000000
   35       14.353837   0.000000
   36       14.355263   0.000000
   37       14.356333   0.000000
   38       14.357758   0.000000
   39       16.260431   0.000000
   40       16.260866   0.000000
   41       20.396054   0.000000
   42       20.396429   0.000000
   43       20.396639   0.000000
   44       20.397891   0.000000
   45       20.398101   0.000000
   46       20.398476   0.000000
   47       22.956594   0.000000
   48       22.957837   0.000000
   49       26.244386   0.000000
   50       26.244801   0.000000
   51       26.246560   0.000000
   52       26.246974   0.000000
   53       26.449366   0.000000
   54       26.450337   0.000000
   55       27.768721   0.000000
   56       27.770555   0.000000
   57       29.415917   0.000000
   58       29.416913   0.000000
   59       29.417558   0.000000
   60       29.418555   0.000000
   61       30.178055   0.000000
   62       30.178845   0.000000
   63       30.343113   0.000000
   64       30.343502   0.000000
   65       30.344215   0.000000
   66       30.344607   0.000000
   67       30.787722   0.000000
   68       30.787894   0.000000
   69       31.610810   0.000000
   70       31.610942   0.000000
   71       31.612182   0.000000
   72       31.612314   0.000000
   73       37.790718   0.000000
   74       37.791492   0.000000
   75       37.791660   0.000000
   76       37.791981   0.000000
   77       37.792149   0.000000
   78       37.792923   0.000000
   79       38.585486   0.000000
   80       38.587271   0.000000
   81       38.617748   0.000000
   82       38.619128   0.000000
   83       38.619819   0.000000
   84       38.620978   0.000000
   85       38.621669   0.000000
   86       38.623051   0.000000
   87       41.120120   0.000000
   88       41.120536   0.000000
   89       41.120813   0.000000
   90       41.121229   0.000000
   91       41.305586   0.000000
   92       41.306048   0.000000
   93       42.577620   0.000000
   94       42.578587   0.000000
   95       42.856618   0.000000
   96       42.857733   0.000000
 
  0.1666667E+00  0.1566927E-17  0.2081668E-16  0.4629630E-02
    1      -30.449653   1.000000
    2      -30.449449   1.000000
    3      -30.447554   1.000000
    4      -30.447450   1.000000
    5      -23.789447   1.000000
    6      -23.789240   1.000000
    7      -23.788564   1.000000
    8      -23.787778   1.000000
    9      -23.787278   1.000000
   10      -23.786559   1.000000
   11      -20.181995   1.000000
   12      -20.180924   1.000000
   13       -7.006733   1.000000
   14       -7.005401   1.000000
   15        2.192621   1.000000
   16        2.193024   1.000000
   17        3.804099   1.000000
   18        3.804761   1.000000
   19        5.528747   0.000000
   20        5.529328   0.000000
   21        9.815501   0.000000
   22        9.816054   0.000000
   23       11.051967   0.000000
   24       11.052177   0.000000
   25       11.374894   0.000000
   26       11.375271   0.000000
   27       12.161738   0.000000
   28       12.163003   0.000000
   29       12.503307   0.000000
   30       12.505157   0.000000
   31       12.675555   0.000000
   32       12.675913   0.000000
   33       13.775042   0.000000
   34       13.775617   0.000000
   35       15.886049   0.000000
   36       15.888673   0.000000
   37       16.038979   0.000000
   38       16.039416   0.000000
   39       18.037521   0.000000
   40       18.038287   0.000000
   41       19.916625   0.000000
   42       19.917402   0.000000
   43       20.050525   0.000000
   44       20.050979   0.000000
   45       20.484167   0.000000
   46       20.486032   0.000000
   47       21.800133   0.000000
   48       21.801170   0.000000
   49       25.034552   0.000000
   50       25.035426   0.000000
   51       25.661078   0.000000
   52       25.661572   0.000000
   53       25.968016   0.000000
   54       25.968650   0.000000
   55       27.171372   0.000000
   56       27.173031   0.000000
   57       27.841340   0.000000
   58       27.841627   0.000000
   59       28.707106   0.000000
   60       28.707250   0.000000
   61       30.197404   0.000000
   62       30.197719   0.000000
   63       30.282185   0.000000
   64       30.283778   0.000000
   65       30.906763   0.000000
   66       30.906885   0.000000
   67       30.999495   0.000000
   68       31.000748   0.000000
   69       32.925747   0.000000
   70       32.925970   0.000000
   71       35.326075   0.000000
   72       35.327719   0.000000
   73       35.469153   0.000000
   74       35.470108   0.000000
   75       36.529737   0.000000
   76       36.529883   0.000000
   77       36.542573   0.000000
   78       36.542950   0.000000
   79       36.943399   0.000000
   80       36.944096   0.000000
   81       38.346646   0.000000
   82       38.347372   0.000000
   83       39.145792   0.000000
   84       39.146349   0.000000
   85       39.341800   0.000000
   86       39.343348   0.000000
   87       39.532246   0.000000
   88       39.532740   0.000000
   89       39.546492   0.000000
   90       39.546691   0.000000
   91       40.427814   0.000000
   92       40.428539   0.000000
   93       40.575114   0.000000
   94       40.575296   0.000000
   95       41.388993   0.000000
   96       41.389666   0.000000
 
  0.3333333E+00  0.3133854E-17  0.0000000E+00  0.4629630E-02
    1      -30.460638   1.000000
    2      -30.460433   1.000000
    3      -30.454914   1.000000
    4      -30.454811   1.000000
    5      -23.794453   1.000000
    6      -23.794237   1.000000
    7      -23.792853   1.000000
    8      -23.792509   1.000000
    9      -23.790690   1.000000
   10      -23.790500   1.000000
   11      -20.126632   1.000000
   12      -20.125563   1.000000
   13       -7.189770   1.000000
   14       -7.188446   1.000000
   15        1.097066   1.000000
   16        1.097525   1.000000
   17        3.523700   1.000000
   18        3.524311   1.000000
   19        6.211032   0.000000
   20        6.211901   0.000000
   21       10.412132   0.000000
   22       10.412568   0.000000
   23       10.606490   0.000000
   24       10.606676   0.000000
   25       11.038523   0.000000
   26       11.040328   0.000000
   27       11.277196   0.000000
   28       11.278289   0.000000
   29       13.305407   0.000000
   30       13.305847   0.000000
   31       13.574818   0.000000
   32       13.575031   0.000000
   33       16.652918   0.000000
   34       16.653676   0.000000
   35       17.704706   0.000000
   36       17.706971   0.000000
   37       17.957702   0.000000
   38       17.958181   0.000000
   39       18.322386   0.000000
   40       18.323508   0.000000
   41       18.758957   0.000000
   42       18.759379   0.000000
   43       19.059456   0.000000
   44       19.059583   0.000000
   45       20.618924   0.000000
   46       20.620812   0.000000
   47       21.150982   0.000000
   48       21.152021   0.000000
   49       23.983858   0.000000
   50       23.984685   0.000000
   51       25.231132   0.000000
   52       25.231670   0.000000
   53       25.324503   0.000000
   54       25.324919   0.000000
   55       26.398479   0.000000
   56       26.399275   0.000000
   57       27.082688   0.000000
   58       27.083767   0.000000
   59       27.639954   0.000000
   60       27.640158   0.000000
   61       29.627158   0.000000
   62       29.627474   0.000000
   63       31.025967   0.000000
   64       31.026276   0.000000
   65       31.461640   0.000000
   66       31.463092   0.000000
   67       31.904031   0.000000
   68       31.904804   0.000000
   69       32.063704   0.000000
   70       32.063916   0.000000
   71       32.185589   0.000000
   72       32.186799   0.000000
   73       33.689584   0.000000
   74       33.690547   0.000000
   75       33.847909   0.000000
   76       33.848630   0.000000
   77       34.923789   0.000000
   78       34.924624   0.000000
   79       35.706995   0.000000
   80       35.707373   0.000000
   81       36.027482   0.000000
   82       36.028034   0.000000
   83       36.474088   0.000000
   84       36.474296   0.000000
   85       39.338408   0.000000
   86       39.338772   0.000000
   87       39.371301   0.000000
   88       39.372693   0.000000
   89       40.110536   0.000000
   90       40.111220   0.000000
   91       40.687080   0.000000
   92       40.687331   0.000000
   93       40.901062   0.000000
   94       40.901159   0.000000
   95       42.097246   0.000000
   96       42.098657   0.000000
 
  0.5000000E+00  0.4700780E-17  0.5551115E-16  0.4629630E-02
    1      -30.477090   1.000000
    2      -30.476886   1.000000
    3      -30.465415   1.000000
    4      -30.465312   1.000000
    5      -23.804327   1.000000
    6      -23.803999   1.000000
    7      -23.799713   1.000000
    8      -23.799531   1.000000
    9      -23.798342   1.000000
   10      -23.797876   1.000000
   11      -20.098506   1.000000
   12      -20.097439   1.000000
   13       -7.281808   1.000000
   14       -7.280487   1.000000
   15        0.716751   1.000000
   16        0.717236   1.000000
   17        3.396566   1.000000
   18        3.397157   1.000000
   19        6.211167   0.000000
   20        6.212094   0.000000
   21       10.316172   0.000000
   22       10.316383   0.000000
   23       10.528474   0.000000
   24       10.529564   0.000000
   25       10.718408   0.000000
   26       10.720452   0.000000
   27       12.102300   0.000000
   28       12.102373   0.000000
   29       14.687617   0.000000
   30       14.687864   0.000000
   31       14.774854   0.000000
   32       14.774992   0.000000
   33       16.108732   0.000000
   34       16.109742   0.000000
   35       17.099048   0.000000
   36       17.099298   0.000000
   37       17.270187   0.000000
   38       17.270706   0.000000
   39       18.529086   0.000000
   40       18.530069   0.000000
   41       19.034103   0.000000
   42       19.034612   0.000000
   43       19.087086   0.000000
   44       19.089658   0.000000
   45       20.688109   0.000000
   46       20.690008   0.000000
   47       23.274189   0.000000
   48       23.275648   0.000000
   49       23.978838   0.000000
   50       23.979633   0.000000
   51       25.331571   0.000000
   52       25.331649   0.000000
   53       25.479343   0.000000
   54       25.480051   0.000000
   55       25.531311   0.000000
   56       25.531659   0.000000
   57       27.011764   0.000000
   58       27.012731   0.000000
   59       27.292855   0.000000
   60       27.293103   0.000000
   61       28.373486   0.000000
   62       28.373991   0.000000
   63       29.488320   0.000000
   64       29.489135   0.000000
   65       30.844005   0.000000
   66       30.844906   0.000000
   67       30.874159   0.000000
   68       30.874420   0.000000
   69       31.724997   0.000000
   70       31.725298   0.000000
   71       32.452326   0.000000
   72       32.453145   0.000000
   73       32.859725   0.000000
   74       32.860984   0.000000
   75       33.057393   0.000000
   76       33.058346   0.000000
   77       33.951947   0.000000
   78       33.952988   0.000000
   79       34.042196   0.000000
   80       34.042553   0.000000
   81       35.875106   0.000000
   82       35.875449   0.000000
   83       36.687585   0.000000
   84       36.687791   0.000000
   85       39.547756   0.000000
   86       39.549094   0.000000
   87       39.678632   0.000000
   88       39.679058   0.000000
   89       39.773517   0.000000
   90       39.773820   0.000000
   91       40.241080   0.000000
   92       40.242392   0.000000
   93       40.560128   0.000000
   94       40.560751   0.000000
   95       41.939004   0.000000
   96       41.939750   0.000000
 
 -0.3333333E+00 -0.3133854E-17  0.0000000E+00  0.4629630E-02
    1      -30.460638   1.000000
    2      -30.460433   1.000000
    3      -30.454914   1.000000
    4      -30.454811   1.000000
    5      -23.794453   1.000000
    6      -23.794237   1.000000
    7      -23.792853   1.000000
    8      -23.792509   1.000000
    9      -23.790690   1.000000
   10      -23.790500   1.000000
   11      -20.126632   1.000000
   12      -20.125563   1.000000
   13       -7.189770   1.000000
   14       -7.188446   1.000000
   15        1.097066   1.000000
   16        1.097525   1.000000
   17        3.523700   1.000000
   18        3.524312   1.000000
   19        6.211034   0.000000
   20        6.211903   0.000000
   21       10.412114   0.000000
   22       10.412551   0.000000
   23       10.606491   0.000000
   24       10.606678   0.000000
   25       11.038533   0.000000
   26       11.040338   0.000000
   27       11.277198   0.000000
   28       11.278291   0.000000
   29       13.305416   0.000000
   30       13.305856   0.000000
   31       13.574808   0.000000
   32       13.575020   0.000000
   33       16.652912   0.000000
   34       16.653669   0.000000
   35       17.704708   0.000000
   36       17.706973   0.000000
   37       17.957707   0.000000
   38       17.958186   0.000000
   39       18.322387   0.000000
   40       18.323509   0.000000
   41       18.758959   0.000000
   42       18.759381   0.000000
   43       19.059454   0.000000
   44       19.059582   0.000000
   45       20.618924   0.000000
   46       20.620812   0.000000
   47       21.150984   0.000000
   48       21.152023   0.000000
   49       23.983854   0.000000
   50       23.984680   0.000000
   51       25.231126   0.000000
   52       25.231664   0.000000
   53       25.324511   0.000000
   54       25.324928   0.000000
   55       26.398482   0.000000
   56       26.399279   0.000000
   57       27.082686   0.000000
   58       27.083765   0.000000
   59       27.639955   0.000000
   60       27.640159   0.000000
   61       29.627158   0.000000
   62       29.627474   0.000000
   63       31.025963   0.000000
   64       31.026271   0.000000
   65       31.461644   0.000000
   66       31.463095   0.000000
   67       31.904031   0.000000
   68       31.904804   0.000000
   69       32.063702   0.000000
   70       32.063914   0.000000
   71       32.185590   0.000000
   72       32.186799   0.000000
   73       33.689584   0.000000
   74       33.690547   0.000000
   75       33.847912   0.000000
   76       33.848634   0.000000
   77       34.923783   0.000000
   78       34.924618   0.000000
   79       35.706993   0.000000
   80       35.707371   0.000000
   81       36.027487   0.000000
   82       36.028039   0.000000
   83       36.474085   0.000000
   84       36.474294   0.000000
   85       39.338410   0.000000
   86       39.338774   0.000000
   87       39.371299   0.000000
   88       39.372690   0.000000
   89       40.110540   0.000000
   90       40.111223   0.000000
   91       40.687081   0.000000
   92       40.687332   0.000000
   93       40.901064   0.000000
   94       40.901161   0.000000
   95       42.097236   0.000000
   96       42.098647   0.000000
 
 -0.1666667E+00 -0.1566927E-17 -0.6938894E-17  0.4629630E-02
    1      -30.449653   1.000000
    2      -30.449449   1.000000
    3      -30.447554   1.000000
    4      -30.447450   1.000000
    5      -23.789447   1.000000
    6      -23.789240   1.000000
    7      -23.788564   1.000000
    8      -23.787778   1.000000
    9      -23.787278   1.000000
   10      -23.786559   1.000000
   11      -20.181995   1.000000
   12      -20.180924   1.000000
   13       -7.006733   1.000000
   14       -7.005401   1.000000
   15        2.192622   1.000000
   16        2.193025   1.000000
   17        3.804100   1.000000
   18        3.804762   1.000000
   19        5.528747   0.000000
   20        5.529328   0.000000
   21        9.815494   0.000000
   22        9.816047   0.000000
   23       11.051973   0.000000
   24       11.052183   0.000000
   25       11.374898   0.000000
   26       11.375275   0.000000
   27       12.161737   0.000000
   28       12.163002   0.000000
   29       12.503316   0.000000
   30       12.505166   0.000000
   31       12.675539   0.000000
   32       12.675898   0.000000
   33       13.775039   0.000000
   34       13.775614   0.000000
   35       15.886046   0.000000
   36       15.888670   0.000000
   37       16.038986   0.000000
   38       16.039424   0.000000
   39       18.037522   0.000000
   40       18.038288   0.000000
   41       19.916623   0.000000
   42       19.917401   0.000000
   43       20.050526   0.000000
   44       20.050979   0.000000
   45       20.484167   0.000000
   46       20.486032   0.000000
   47       21.800134   0.000000
   48       21.801171   0.000000
   49       25.034553   0.000000
   50       25.035427   0.000000
   51       25.661084   0.000000
   52       25.661577   0.000000
   53       25.968013   0.000000
   54       25.968647   0.000000
   55       27.171378   0.000000
   56       27.173036   0.000000
   57       27.841328   0.000000
   58       27.841615   0.000000
   59       28.707113   0.000000
   60       28.707257   0.000000
   61       30.197399   0.000000
   62       30.197714   0.000000
   63       30.282185   0.000000
   64       30.283777   0.000000
   65       30.906763   0.000000
   66       30.906886   0.000000
   67       30.999491   0.000000
   68       31.000744   0.000000
   69       32.925746   0.000000
   70       32.925969   0.000000
   71       35.326079   0.000000
   72       35.327723   0.000000
   73       35.469153   0.000000
   74       35.470108   0.000000
   75       36.529732   0.000000
   76       36.529878   0.000000
   77       36.542584   0.000000
   78       36.542961   0.000000
   79       36.943400   0.000000
   80       36.944098   0.000000
   81       38.346658   0.000000
   82       38.347384   0.000000
   83       39.145791   0.000000
   84       39.146348   0.000000
   85       39.341794   0.000000
   86       39.343342   0.000000
   87       39.532241   0.000000
   88       39.532734   0.000000
   89       39.546484   0.000000
   90       39.546685   0.000000
   91       40.427814   0.000000
   92       40.428540   0.000000
   93       40.575118   0.000000
   94       40.575300   0.000000
   95       41.388993   0.000000
   96       41.389666   0.000000
 
 -0.1925930E-33  0.1666667E+00 -0.6938894E-17  0.4629630E-02
    1      -30.449652   1.000000
    2      -30.449446   1.000000
    3      -30.447620   1.000000
    4      -30.447389   1.000000
    5      -23.789686   1.000000
    6      -23.788946   1.000000
    7      -23.788490   1.000000
    8      -23.787926   1.000000
    9      -23.787250   1.000000
   10      -23.786568   1.000000
   11      -20.181996   1.000000
   12      -20.180924   1.000000
   13       -7.006728   1.000000
   14       -7.005406   1.000000
   15        2.191816   1.000000
   16        2.193832   1.000000
   17        3.802874   1.000000
   18        3.805984   1.000000
   19        5.528499   0.000000
   20        5.529576   0.000000
   21        9.815353   0.000000
   22        9.816190   0.000000
   23       11.051847   0.000000
   24       11.052303   0.000000
   25       11.374856   0.000000
   26       11.375323   0.000000
   27       12.161850   0.000000
   28       12.162888   0.000000
   29       12.503321   0.000000
   30       12.505152   0.000000
   31       12.674960   0.000000
   32       12.676493   0.000000
   33       13.774710   0.000000
   34       13.775942   0.000000
   35       15.886316   0.000000
   36       15.888408   0.000000
   37       16.038232   0.000000
   38       16.040165   0.000000
   39       18.037589   0.000000
   40       18.038221   0.000000
   41       19.916256   0.000000
   42       19.917774   0.000000
   43       20.049979   0.000000
   44       20.051522   0.000000
   45       20.484252   0.000000
   46       20.485947   0.000000
   47       21.800293   0.000000
   48       21.801016   0.000000
   49       25.034520   0.000000
   50       25.035457   0.000000
   51       25.660577   0.000000
   52       25.662076   0.000000
   53       25.967703   0.000000
   54       25.968960   0.000000
   55       27.171408   0.000000
   56       27.173003   0.000000
   57       27.841402   0.000000
   58       27.841541   0.000000
   59       28.706790   0.000000
   60       28.707573   0.000000
   61       30.196750   0.000000
   62       30.198366   0.000000
   63       30.282319   0.000000
   64       30.283643   0.000000
   65       30.906549   0.000000
   66       30.907098   0.000000
   67       30.999681   0.000000
   68       31.000561   0.000000
   69       32.925186   0.000000
   70       32.926531   0.000000
   71       35.326258   0.000000
   72       35.327538   0.000000
   73       35.468997   0.000000
   74       35.470264   0.000000
   75       36.529337   0.000000
   76       36.530301   0.000000
   77       36.542629   0.000000
   78       36.542884   0.000000
   79       36.943390   0.000000
   80       36.944103   0.000000
   81       38.346691   0.000000
   82       38.347350   0.000000
   83       39.145121   0.000000
   84       39.147016   0.000000
   85       39.341918   0.000000
   86       39.343226   0.000000
   87       39.532306   0.000000
   88       39.532690   0.000000
   89       39.546277   0.000000
   90       39.546883   0.000000
   91       40.427958   0.000000
   92       40.428396   0.000000
   93       40.574912   0.000000
   94       40.575506   0.000000
   95       41.388901   0.000000
   96       41.389759   0.000000
 
  0.1666667E+00  0.1666667E+00  0.2775558E-16  0.4629630E-02
    1      -30.460894   1.000000
    2      -30.460728   1.000000
    3      -30.455813   1.000000
    4      -30.455517   1.000000
    5      -23.797572   1.000000
    6      -23.797068   1.000000
    7      -23.794174   1.000000
    8      -23.793486   1.000000
    9      -23.792266   1.000000
   10      -23.791558   1.000000
   11      -20.172962   1.000000
   12      -20.171891   1.000000
   13       -7.034655   1.000000
   14       -7.033323   1.000000
   15        2.078292   1.000000
   16        2.081327   1.000000
   17        3.443707   1.000000
   18        3.448248   1.000000
   19        6.060998   0.000000
   20        6.062641   0.000000
   21        9.215521   0.000000
   22        9.216413   0.000000
   23       10.603645   0.000000
   24       10.605149   0.000000
   25       11.389099   0.000000
   26       11.390621   0.000000
   27       12.088928   0.000000
   28       12.090321   0.000000
   29       13.586511   0.000000
   30       13.587467   0.000000
   31       14.144616   0.000000
   32       14.147160   0.000000
   33       14.225403   0.000000
   34       14.226777   0.000000
   35       14.561012   0.000000
   36       14.562544   0.000000
   37       15.722502   0.000000
   38       15.724863   0.000000
   39       18.921375   0.000000
   40       18.922341   0.000000
   41       19.761056   0.000000
   42       19.762439   0.000000
   43       20.209578   0.000000
   44       20.210330   0.000000
   45       20.338992   0.000000
   46       20.339367   0.000000
   47       21.489027   0.000000
   48       21.489943   0.000000
   49       24.808057   0.000000
   50       24.810117   0.000000
   51       25.756073   0.000000
   52       25.757086   0.000000
   53       25.808722   0.000000
   54       25.810850   0.000000
   55       26.562934   0.000000
   56       26.564520   0.000000
   57       27.148497   0.000000
   58       27.149157   0.000000
   59       27.993903   0.000000
   60       27.995336   0.000000
   61       29.889130   0.000000
   62       29.890216   0.000000
   63       30.536827   0.000000
   64       30.538063   0.000000
   65       31.362384   0.000000
   66       31.362966   0.000000
   67       31.422685   0.000000
   68       31.423720   0.000000
   69       34.507325   0.000000
   70       34.507798   0.000000
   71       35.025148   0.000000
   72       35.025740   0.000000
   73       35.468963   0.000000
   74       35.470598   0.000000
   75       35.497537   0.000000
   76       35.499643   0.000000
   77       36.336325   0.000000
   78       36.337143   0.000000
   79       36.898001   0.000000
   80       36.899664   0.000000
   81       37.831999   0.000000
   82       37.834239   0.000000
   83       38.035835   0.000000
   84       38.037414   0.000000
   85       39.149939   0.000000
   86       39.150652   0.000000
   87       39.351424   0.000000
   88       39.352164   0.000000
   89       40.537666   0.000000
   90       40.539341   0.000000
   91       41.038521   0.000000
   92       41.039623   0.000000
   93       41.100905   0.000000
   94       41.101970   0.000000
   95       41.798584   0.000000
   96       41.799437   0.000000
 
  0.3333333E+00  0.1666667E+00 -0.2775558E-16  0.4629630E-02
    1      -30.456366   1.000000
    2      -30.456272   1.000000
    3      -30.454338   1.000000
    4      -30.454068   1.000000
    5      -23.794612   1.000000
    6      -23.794338   1.000000
    7      -23.790903   1.000000
    8      -23.790501   1.000000
    9      -23.787899   1.000000
   10      -23.787327   1.000000
   11      -20.126900   1.000000
   12      -20.125831   1.000000
   13       -7.181369   1.000000
   14       -7.180039   1.000000
   15        1.272215   1.000000
   16        1.274490   1.000000
   17        3.021420   1.000000
   18        3.024497   1.000000
   19        6.934208   0.000000
   20        6.935119   0.000000
   21        9.132681   0.000000
   22        9.132985   0.000000
   23        9.653548   0.000000
   24        9.655070   0.000000
   25       11.653511   0.000000
   26       11.654571   0.000000
   27       12.929079   0.000000
   28       12.929591   0.000000
   29       13.571853   0.000000
   30       13.572993   0.000000
   31       14.354362   0.000000
   32       14.355137   0.000000
   33       16.034521   0.000000
   34       16.035313   0.000000
   35       16.481694   0.000000
   36       16.482947   0.000000
   37       17.628778   0.000000
   38       17.630966   0.000000
   39       18.290702   0.000000
   40       18.291280   0.000000
   41       18.738271   0.000000
   42       18.740033   0.000000
   43       20.315253   0.000000
   44       20.317075   0.000000
   45       20.752791   0.000000
   46       20.753687   0.000000
   47       21.026958   0.000000
   48       21.028240   0.000000
   49       23.646610   0.000000
   50       23.647399   0.000000
   51       24.965651   0.000000
   52       24.966617   0.000000
   53       25.219119   0.000000
   54       25.220422   0.000000
   55       25.692763   0.000000
   56       25.693763   0.000000
   57       26.316595   0.000000
   58       26.317693   0.000000
   59       27.634788   0.000000
   60       27.636243   0.000000
   61       29.787902   0.000000
   62       29.788419   0.000000
   63       30.461645   0.000000
   64       30.462370   0.000000
   65       30.973597   0.000000
   66       30.974570   0.000000
   67       31.857574   0.000000
   68       31.859026   0.000000
   69       32.698175   0.000000
   70       32.698899   0.000000
   71       33.002757   0.000000
   72       33.003800   0.000000
   73       34.606495   0.000000
   74       34.606903   0.000000
   75       35.168504   0.000000
   76       35.169557   0.000000
   77       35.656700   0.000000
   78       35.657193   0.000000
   79       36.408139   0.000000
   80       36.408963   0.000000
   81       36.822671   0.000000
   82       36.822995   0.000000
   83       37.014200   0.000000
   84       37.014726   0.000000
   85       37.609453   0.000000
   86       37.610681   0.000000
   87       39.221463   0.000000
   88       39.222380   0.000000
   89       39.562141   0.000000
   90       39.562923   0.000000
   91       41.180864   0.000000
   92       41.181568   0.000000
   93       41.363658   0.000000
   94       41.364156   0.000000
   95       42.283741   0.000000
   96       42.284559   0.000000
 
  0.5000000E+00  0.1666667E+00  0.5551115E-16  0.4629630E-02
    1      -30.459310   1.000000
    2      -30.459097   1.000000
    3      -30.447586   1.000000
    4      -30.447483   1.000000
    5      -23.793623   1.000000
    6      -23.793444   1.000000
    7      -23.787577   1.000000
    8      -23.787319   1.000000
    9      -23.784815   1.000000
   10      -23.784390   1.000000
   11      -20.089300   1.000000
   12      -20.088232   1.000000
   13       -7.298684   1.000000
   14       -7.297365   1.000000
   15        0.785759   1.000000
   16        0.786767   1.000000
   17        2.701707   1.000000
   18        2.702885   1.000000
   19        7.139884   0.000000
   20        7.140773   0.000000