 vasp.5.4.4.18Apr17-6-g9f103f2a35 (build Nov 03 2018 10:20:46) complex          
  
 executed on             LinuxIFC date 2018.11.14  11:43:03
 running on   56 total cores
 distrk:  each k-point on   28 cores,    2 groups
 distr:  one band on NCORES_PER_BAND=   7 cores,    4 groups


--------------------------------------------------------------------------------------------------------


 INCAR:
 POTCAR:    PAW Og, JanMewes Oct 18               

 ----------------------------------------------------------------------------- 
|                                                                             |
|           W    W    AA    RRRRR   N    N  II  N    N   GGGG   !!!           |
|           W    W   A  A   R    R  NN   N  II  NN   N  G    G  !!!           |
|           W    W  A    A  R    R  N N  N  II  N N  N  G       !!!           |
|           W WW W  AAAAAA  RRRRR   N  N N  II  N  N N  G  GGG   !            |
|           WW  WW  A    A  R   R   N   NN  II  N   NN  G    G                |
|           W    W  A    A  R    R  N    N  II  N    N   GGGG   !!!           |
|                                                                             |
|      You have enabled k-point parallelism (KPAR>1).                         |
|      This developmental code was originally  written by Paul Kent at ORNL,  |
|      and carefully double checked in Vienna.                                |
|      GW as well as linear response parallelism added by Martijn Marsman     |
|      and Georg Kresse.                                                      |
|      Carefully verify results versus KPAR=1.                                |
|      Report problems to Paul Kent and Vienna.                               |
|                                                                             |
 ----------------------------------------------------------------------------- 

 POTCAR:    PAW Og, JanMewes Oct 18               
   VRHFIN =Og : 10d 2s 6p, PE                                                   
   LEXCH  = PE                                                                  
   EATOM  =  2640.5573 eV,  194.0755 Ry                                         
                                                                                
   TITEL  = PAW Og, JanMewes Oct 18                                             
   LULTRA =        F    use ultrasoft PP ?                                      
   IUNSCR =        1    unscreen: 0-lin 1-nonlin 2-no                           
   RPACOR =    1.700    partial core radius                                     
   POMASS =    0.010; ZVAL   =   18.000    mass and valenz                      
   RCORE  =    2.600    outmost cutoff radius                                   
   RWIGS  =    3.500; RWIGS  =    1.852    wigner-seitz radius (au A)           
   ENMAX  =  339.336; ENMIN  =  254.502 eV                                      
   ICORE  =        3    local potential                                         
   LCOR   =        T    correct aug charges                                     
   LPAW   =        T    paw PP                                                  
   EAUG   =  361.025                                                            
   DEXC   =   -0.000                                                            
   RAUG   =    1.300    factor for augmentation sphere                          
   RDEP   =    2.775    radius for radial grids                                 
   RDEPT  =    2.135    core radius for aug-charge                              
   QCUT   =   -4.994; QGAM   =    9.988    optimization parameters              
                                                                                
   Atomic configuration                                                         
   22 entries                                                                   
     n  l   j            E        occ.                                          
     1  0  0.50   -225781.4217   2.0000                                         
     2  0  0.50    -47342.3774   2.0000                                         
     2  1  1.50    -33463.4058   6.0000                                         
     3  0  0.50    -12845.8060   2.0000                                         
     3  1  1.50     -9184.5562   6.0000                                         
     3  2  2.50     -7322.6146  10.0000                                         
     4  0  0.50     -3781.9433   2.0000                                         
     4  1  1.50     -2605.9204   6.0000                                         
     4  2  2.50     -1899.4626  10.0000                                         
     4  3  3.50     -1273.6890  14.0000                                         
     5  0  0.50     -1046.0643   2.0000                                         
     5  1  1.50      -650.9265   6.0000                                         
     5  2  2.50      -388.1490  10.0000                                         
     5  3  3.50      -152.1121  14.0000                                         
     6  0  0.50      -224.6639   2.0000                                         
     6  1  0.50      -184.3267   2.0000                                         
     6  1  1.50       -97.8537   4.0000                                         
     6  2  2.50       -35.6667  10.0000                                         
     7  0  0.50       -28.5889   2.0000                                         
     8  0  0.50        -1.3606   0.0000                                         
     7  1  1.50        -7.0827   6.0000                                         
     6  3  3.50        -0.0136   0.0000                                         
   Description                                                                  
     l       E           TYP  RCUT    TYP  RCUT                                 
     2    -35.6666962     23  2.100                                             
     2     34.0145650     23  2.300                                             
     0    -28.5889381     23  1.600                                             
     0     40.8174780     23  2.200                                             
     1     -7.0826811     23  2.200                                             
     1    148.3035034     23  1.900                                             
     3      6.8029130      7  2.600                                             
  local pseudopotential read in
  partial core-charges read in
  partial kinetic energy density read in
  kinetic energy density of atom read in
  atomic valenz-charges read in
  non local Contribution for L=           2  read in
    real space projection operators read in
  non local Contribution for L=           2  read in
    real space projection operators read in
  non local Contribution for L=           0  read in
    real space projection operators read in
  non local Contribution for L=           0  read in
    real space projection operators read in
  non local Contribution for L=           1  read in
    real space projection operators read in
  non local Contribution for L=           1  read in
    real space projection operators read in
    PAW grid and wavefunctions read in
 
   number of l-projection  operators is LMAX  =           6
   number of lm-projection operators is LMMAX =          18
 
  PAW Og, JanMewes Oct 18               :
 energy of atom  1       EATOM=-2640.5573
 kinetic energy error for atom=    0.6524 (will be added to EATOM!!)
 
 
 POSCAR: Og_FCC                                  
  positions in direct lattice
  velocities in cartesian coordinates
 exchange correlation table for  LEXCH =        8
   RHO(1)=    0.500       N(1)  =     2000
   RHO(2)=  100.500       N(2)  =     4000
 


--------------------------------------------------------------------------------------------------------


 ion  position               nearest neighbor table
   1  0.000  0.000  0.000-
 

IMPORTANT INFORMATION: All symmetrisations will be switched off!
NOSYMM: (Re-)initialisation of all symmetry stuff for point group C_1.

 
 
 KPOINTS: k-points                                

Automatic generation of k-mesh.
Space group operators:
 irot       det(A)        alpha          n_x          n_y          n_z        tau_x        tau_y        tau_z
    1     1.000000     0.000000     1.000000     0.000000     0.000000     0.000000     0.000000     0.000000
 
 Subroutine IBZKPT returns following result:
 ===========================================
 
 Found    216 irreducible k-points:
 
 Following reciprocal coordinates:
            Coordinates               Weight
  0.000000  0.000000  0.000000      1.000000
  0.166667  0.000000  0.000000      1.000000
  0.333333  0.000000  0.000000      1.000000
  0.500000  0.000000  0.000000      1.000000
 -0.333333 -0.000000  0.000000      1.000000
 -0.166667 -0.000000 -0.000000      1.000000
 -0.000000  0.166667 -0.000000      1.000000
  0.166667  0.166667  0.000000      1.000000
  0.333333  0.166667 -0.000000      1.000000
  0.500000  0.166667  0.000000      1.000000
 -0.333333  0.166667 -0.000000      1.000000
 -0.166667  0.166667 -0.000000      1.000000
  0.000000  0.333333 -0.000000      1.000000
  0.166667  0.333333  0.000000      1.000000
  0.333333  0.333333  0.000000      1.000000
  0.500000  0.333333  0.000000      1.000000
 -0.333333  0.333333 -0.000000      1.000000
 -0.166667  0.333333 -0.000000      1.000000
  0.000000  0.500000 -0.000000      1.000000
  0.166667  0.500000  0.000000      1.000000
  0.333333  0.500000  0.000000      1.000000
  0.500000  0.500000  0.000000      1.000000
 -0.333333  0.500000 -0.000000      1.000000
 -0.166667  0.500000 -0.000000      1.000000
 -0.000000 -0.333333  0.000000      1.000000
  0.166667 -0.333333  0.000000      1.000000
  0.333333 -0.333333  0.000000      1.000000
  0.500000 -0.333333  0.000000      1.000000
 -0.333333 -0.333333 -0.000000      1.000000
 -0.166667 -0.333333  0.000000      1.000000
  0.000000 -0.166667  0.000000      1.000000
  0.166667 -0.166667  0.000000      1.000000
  0.333333 -0.166667  0.000000      1.000000
  0.500000 -0.166667  0.000000      1.000000
 -0.333333 -0.166667  0.000000      1.000000
 -0.166667 -0.166667  0.000000      1.000000
  0.000000  0.000000  0.166667      1.000000
  0.166667  0.000000  0.166667      1.000000
  0.333333 -0.000000  0.166667      1.000000
  0.500000 -0.000000  0.166667      1.000000
 -0.333333 -0.000000  0.166667      1.000000
 -0.166667  0.000000  0.166667      1.000000
 -0.000000  0.166667  0.166667      1.000000
  0.166667  0.166667  0.166667      1.000000
  0.333333  0.166667  0.166667      1.000000
  0.500000  0.166667  0.166667      1.000000
 -0.333333  0.166667  0.166667      1.000000
 -0.166667  0.166667  0.166667      1.000000
 -0.000000  0.333333  0.166667      1.000000
  0.166667  0.333333  0.166667      1.000000
  0.333333  0.333333  0.166667      1.000000
  0.500000  0.333333  0.166667      1.000000
 -0.333333  0.333333  0.166667      1.000000
 -0.166667  0.333333  0.166667      1.000000
 -0.000000  0.500000  0.166667      1.000000
  0.166667  0.500000  0.166667      1.000000
  0.333333  0.500000  0.166667      1.000000
  0.500000  0.500000  0.166667      1.000000
 -0.333333  0.500000  0.166667      1.000000
 -0.166667  0.500000  0.166667      1.000000
 -0.000000 -0.333333  0.166667      1.000000
  0.166667 -0.333333  0.166667      1.000000
  0.333333 -0.333333  0.166667      1.000000
  0.500000 -0.333333  0.166667      1.000000
 -0.333333 -0.333333  0.166667      1.000000
 -0.166667 -0.333333  0.166667      1.000000
  0.000000 -0.166667  0.166667      1.000000
  0.166667 -0.166667  0.166667      1.000000
  0.333333 -0.166667  0.166667      1.000000
  0.500000 -0.166667  0.166667      1.000000
 -0.333333 -0.166667  0.166667      1.000000
 -0.166667 -0.166667  0.166667      1.000000
  0.000000  0.000000  0.333333      1.000000
  0.166667  0.000000  0.333333      1.000000
  0.333333  0.000000  0.333333      1.000000
  0.500000 -0.000000  0.333333      1.000000
 -0.333333  0.000000  0.333333      1.000000
 -0.166667  0.000000  0.333333      1.000000
 -0.000000  0.166667  0.333333      1.000000
  0.166667  0.166667  0.333333      1.000000
  0.333333  0.166667  0.333333      1.000000
  0.500000  0.166667  0.333333      1.000000
 -0.333333  0.166667  0.333333      1.000000
 -0.166667  0.166667  0.333333      1.000000
 -0.000000  0.333333  0.333333      1.000000
  0.166667  0.333333  0.333333      1.000000
  0.333333  0.333333  0.333333      1.000000
  0.500000  0.333333  0.333333      1.000000
 -0.333333  0.333333  0.333333      1.000000
 -0.166667  0.333333  0.333333      1.000000
  0.000000  0.500000  0.333333      1.000000
  0.166667  0.500000  0.333333      1.000000
  0.333333  0.500000  0.333333      1.000000
  0.500000  0.500000  0.333333      1.000000
 -0.333333  0.500000  0.333333      1.000000
 -0.166667  0.500000  0.333333      1.000000
  0.000000 -0.333333  0.333333      1.000000
  0.166667 -0.333333  0.333333      1.000000
  0.333333 -0.333333  0.333333      1.000000
  0.500000 -0.333333  0.333333      1.000000
 -0.333333 -0.333333  0.333333      1.000000
 -0.166667 -0.333333  0.333333      1.000000
  0.000000 -0.166667  0.333333      1.000000
  0.166667 -0.166667  0.333333      1.000000
  0.333333 -0.166667  0.333333      1.000000
  0.500000 -0.166667  0.333333      1.000000
 -0.333333 -0.166667  0.333333      1.000000
 -0.166667 -0.166667  0.333333      1.000000
  0.000000  0.000000  0.500000      1.000000
  0.166667  0.000000  0.500000      1.000000
  0.333333  0.000000  0.500000      1.000000
  0.500000 -0.000000  0.500000      1.000000
 -0.333333  0.000000  0.500000      1.000000
 -0.166667  0.000000  0.500000      1.000000
 -0.000000  0.166667  0.500000      1.000000
  0.166667  0.166667  0.500000      1.000000
  0.333333  0.166667  0.500000      1.000000
  0.500000  0.166667  0.500000      1.000000
 -0.333333  0.166667  0.500000      1.000000
 -0.166667  0.166667  0.500000      1.000000
  0.000000  0.333333  0.500000      1.000000
  0.166667  0.333333  0.500000      1.000000
  0.333333  0.333333  0.500000      1.000000
  0.500000  0.333333  0.500000      1.000000
 -0.333333  0.333333  0.500000      1.000000
 -0.166667  0.333333  0.500000      1.000000
 -0.000000  0.500000  0.500000      1.000000
  0.166667  0.500000  0.500000      1.000000
  0.333333  0.500000  0.500000      1.000000
  0.500000  0.500000  0.500000      1.000000
 -0.333333  0.500000  0.500000      1.000000
 -0.166667  0.500000  0.500000      1.000000
  0.000000 -0.333333  0.500000      1.000000
  0.166667 -0.333333  0.500000      1.000000
  0.333333 -0.333333  0.500000      1.000000
  0.500000 -0.333333  0.500000      1.000000
 -0.333333 -0.333333  0.500000      1.000000
 -0.166667 -0.333333  0.500000      1.000000
  0.000000 -0.166667  0.500000      1.000000
  0.166667 -0.166667  0.500000      1.000000
  0.333333 -0.166667  0.500000      1.000000
  0.500000 -0.166667  0.500000      1.000000
 -0.333333 -0.166667  0.500000      1.000000
 -0.166667 -0.166667  0.500000      1.000000
  0.000000  0.000000 -0.333333      1.000000
  0.166667 -0.000000 -0.333333      1.000000
  0.333333 -0.000000 -0.333333      1.000000
  0.500000  0.000000 -0.333333      1.000000
 -0.333333 -0.000000 -0.333333      1.000000
 -0.166667 -0.000000 -0.333333      1.000000
 -0.000000  0.166667 -0.333333      1.000000
  0.166667  0.166667 -0.333333      1.000000
  0.333333  0.166667 -0.333333      1.000000
  0.500000  0.166667 -0.333333      1.000000
 -0.333333  0.166667 -0.333333      1.000000
 -0.166667  0.166667 -0.333333      1.000000
  0.000000  0.333333 -0.333333      1.000000
  0.166667  0.333333 -0.333333      1.000000
  0.333333  0.333333 -0.333333      1.000000
  0.500000  0.333333 -0.333333      1.000000
 -0.333333  0.333333 -0.333333      1.000000
 -0.166667  0.333333 -0.333333      1.000000
 -0.000000  0.500000 -0.333333      1.000000
  0.166667  0.500000 -0.333333      1.000000
  0.333333  0.500000 -0.333333      1.000000
  0.500000  0.500000 -0.333333      1.000000
 -0.333333  0.500000 -0.333333      1.000000
 -0.166667  0.500000 -0.333333      1.000000
  0.000000 -0.333333 -0.333333      1.000000
  0.166667 -0.333333 -0.333333      1.000000
  0.333333 -0.333333 -0.333333      1.000000
  0.500000 -0.333333 -0.333333      1.000000
 -0.333333 -0.333333 -0.333333      1.000000
 -0.166667 -0.333333 -0.333333      1.000000
  0.000000 -0.166667 -0.333333      1.000000
  0.166667 -0.166667 -0.333333      1.000000
  0.333333 -0.166667 -0.333333      1.000000
  0.500000 -0.166667 -0.333333      1.000000
 -0.333333 -0.166667 -0.333333      1.000000
 -0.166667 -0.166667 -0.333333      1.000000
 -0.000000 -0.000000 -0.166667      1.000000
  0.166667 -0.000000 -0.166667      1.000000
  0.333333  0.000000 -0.166667      1.000000
  0.500000  0.000000 -0.166667      1.000000
 -0.333333  0.000000 -0.166667      1.000000
 -0.166667 -0.000000 -0.166667      1.000000
 -0.000000  0.166667 -0.166667      1.000000
  0.166667  0.166667 -0.166667      1.000000
  0.333333  0.166667 -0.166667      1.000000
  0.500000  0.166667 -0.166667      1.000000
 -0.333333  0.166667 -0.166667      1.000000
 -0.166667  0.166667 -0.166667      1.000000
  0.000000  0.333333 -0.166667      1.000000
  0.166667  0.333333 -0.166667      1.000000
  0.333333  0.333333 -0.166667      1.000000
  0.500000  0.333333 -0.166667      1.000000
 -0.333333  0.333333 -0.166667      1.000000
 -0.166667  0.333333 -0.166667      1.000000
 -0.000000  0.500000 -0.166667      1.000000
  0.166667  0.500000 -0.166667      1.000000
  0.333333  0.500000 -0.166667      1.000000
  0.500000  0.500000 -0.166667      1.000000
 -0.333333  0.500000 -0.166667      1.000000
 -0.166667  0.500000 -0.166667      1.000000
  0.000000 -0.333333 -0.166667      1.000000
  0.166667 -0.333333 -0.166667      1.000000
  0.333333 -0.333333 -0.166667      1.000000
  0.500000 -0.333333 -0.166667      1.000000
 -0.333333 -0.333333 -0.166667      1.000000
 -0.166667 -0.333333 -0.166667      1.000000
  0.000000 -0.166667 -0.166667      1.000000
  0.166667 -0.166667 -0.166667      1.000000
  0.333333 -0.166667 -0.166667      1.000000
  0.500000 -0.166667 -0.166667      1.000000
 -0.333333 -0.166667 -0.166667      1.000000
 -0.166667 -0.166667 -0.166667      1.000000
 
 Following cartesian coordinates:
            Coordinates               Weight
  0.000000  0.000000  0.000000      1.000000
  0.038382 -0.022160 -0.015669      1.000000
  0.076763 -0.044319 -0.031339      1.000000
  0.115145 -0.066479 -0.047008      1.000000
 -0.076763  0.044319  0.031339      1.000000
 -0.038382  0.022160  0.015669      1.000000
  0.000000  0.044319 -0.015669      1.000000
  0.038382  0.022160 -0.031339      1.000000
  0.076763  0.000000 -0.047008      1.000000
  0.115145 -0.022160 -0.062677      1.000000
 -0.076763  0.088639  0.015669      1.000000
 -0.038382  0.066479 -0.000000      1.000000
  0.000000  0.088639 -0.031339      1.000000
  0.038382  0.066479 -0.047008      1.000000
  0.076763  0.044319 -0.062677      1.000000
  0.115145  0.022160 -0.078346      1.000000
 -0.076763  0.132958  0.000000      1.000000
 -0.038382  0.110798 -0.015669      1.000000
  0.000000  0.132958 -0.047008      1.000000
  0.038382  0.110798 -0.062677      1.000000
  0.076763  0.088639 -0.078346      1.000000
  0.115145  0.066479 -0.094016      1.000000
 -0.076763  0.177278 -0.015669      1.000000
 -0.038382  0.155118 -0.031339      1.000000
 -0.000000 -0.088639  0.031339      1.000000
  0.038382 -0.110798  0.015669      1.000000
  0.076763 -0.132958 -0.000000      1.000000
  0.115145 -0.155118 -0.015669      1.000000
 -0.076763 -0.044319  0.062677      1.000000
 -0.038382 -0.066479  0.047008      1.000000
 -0.000000 -0.044319  0.015669      1.000000
  0.038382 -0.066479 -0.000000      1.000000
  0.076763 -0.088639 -0.015669      1.000000
  0.115145 -0.110798 -0.031339      1.000000
 -0.076763  0.000000  0.047008      1.000000
 -0.038382 -0.022160  0.031339      1.000000
 -0.000000  0.000000  0.047008      1.000000
  0.038382 -0.022160  0.031339      1.000000
  0.076763 -0.044319  0.015669      1.000000
  0.115145 -0.066479  0.000000      1.000000
 -0.076763  0.044319  0.078346      1.000000
 -0.038382  0.022160  0.062677      1.000000
 -0.000000  0.044319  0.031339      1.000000
  0.038382  0.022160  0.015669      1.000000
  0.076763  0.000000  0.000000      1.000000
  0.115145 -0.022160 -0.015669      1.000000
 -0.076763  0.088639  0.062677      1.000000
 -0.038382  0.066479  0.047008      1.000000
 -0.000000  0.088639  0.015669      1.000000
  0.038382  0.066479  0.000000      1.000000
  0.076763  0.044319 -0.015669      1.000000
  0.115145  0.022160 -0.031339      1.000000
 -0.076763  0.132958  0.047008      1.000000
 -0.038382  0.110798  0.031339      1.000000
 -0.000000  0.132958  0.000000      1.000000
  0.038382  0.110798 -0.015669      1.000000
  0.076763  0.088639 -0.031339      1.000000
  0.115145  0.066479 -0.047008      1.000000
 -0.076763  0.177278  0.031339      1.000000
 -0.038382  0.155118  0.015669      1.000000
 -0.000000 -0.088639  0.078346      1.000000
  0.038382 -0.110798  0.062677      1.000000
  0.076763 -0.132958  0.047008      1.000000
  0.115145 -0.155118  0.031339      1.000000
 -0.076763 -0.044319  0.109685      1.000000
 -0.038382 -0.066479  0.094016      1.000000
 -0.000000 -0.044319  0.062677      1.000000
  0.038382 -0.066479  0.047008      1.000000
  0.076763 -0.088639  0.031339      1.000000
  0.115145 -0.110798  0.015669      1.000000
 -0.076763  0.000000  0.094016      1.000000
 -0.038382 -0.022160  0.078346      1.000000
 -0.000000  0.000000  0.094016      1.000000
  0.038382 -0.022160  0.078346      1.000000
  0.076763 -0.044319  0.062677      1.000000
  0.115145 -0.066479  0.047008      1.000000
 -0.076763  0.044319  0.125354      1.000000
 -0.038382  0.022160  0.109685      1.000000
 -0.000000  0.044319  0.078346      1.000000
  0.038382  0.022160  0.062677      1.000000
  0.076763  0.000000  0.047008      1.000000
  0.115145 -0.022160  0.031339      1.000000
 -0.076763  0.088639  0.109685      1.000000
 -0.038382  0.066479  0.094016      1.000000
 -0.000000  0.088639  0.062677      1.000000
  0.038382  0.066479  0.047008      1.000000
  0.076763  0.044319  0.031339      1.000000
  0.115145  0.022160  0.015669      1.000000
 -0.076763  0.132958  0.094016      1.000000
 -0.038382  0.110798  0.078346      1.000000
 -0.000000  0.132958  0.047008      1.000000
  0.038382  0.110798  0.031339      1.000000
  0.076763  0.088639  0.015669      1.000000
  0.115145  0.066479 -0.000000      1.000000
 -0.076763  0.177278  0.078346      1.000000
 -0.038382  0.155118  0.062677      1.000000
 -0.000000 -0.088639  0.125354      1.000000
  0.038382 -0.110798  0.109685      1.000000
  0.076763 -0.132958  0.094016      1.000000
  0.115145 -0.155118  0.078346      1.000000
 -0.076763 -0.044319  0.156693      1.000000
 -0.038382 -0.066479  0.141023      1.000000
 -0.000000 -0.044319  0.109685      1.000000
  0.038382 -0.066479  0.094016      1.000000
  0.076763 -0.088639  0.078346      1.000000
  0.115145 -0.110798  0.062677      1.000000
 -0.076763  0.000000  0.141023      1.000000
 -0.038382 -0.022160  0.125354      1.000000
 -0.000000  0.000000  0.141023      1.000000
  0.038382 -0.022160  0.125354      1.000000
  0.076763 -0.044319  0.109685      1.000000
  0.115145 -0.066479  0.094016      1.000000
 -0.076763  0.044319  0.172362      1.000000
 -0.038382  0.022160  0.156693      1.000000
 -0.000000  0.044319  0.125354      1.000000
  0.038382  0.022160  0.109685      1.000000
  0.076763  0.000000  0.094016      1.000000
  0.115145 -0.022160  0.078346      1.000000
 -0.076763  0.088639  0.156693      1.000000
 -0.038382  0.066479  0.141023      1.000000
 -0.000000  0.088639  0.109685      1.000000
  0.038382  0.066479  0.094016      1.000000
  0.076763  0.044319  0.078346      1.000000
  0.115145  0.022160  0.062677      1.000000
 -0.076763  0.132958  0.141023      1.000000
 -0.038382  0.110798  0.125354      1.000000
 -0.000000  0.132958  0.094016      1.000000
  0.038382  0.110798  0.078346      1.000000
  0.076763  0.088639  0.062677      1.000000
  0.115145  0.066479  0.047008      1.000000
 -0.076763  0.177278  0.125354      1.000000
 -0.038382  0.155118  0.109685      1.000000
 -0.000000 -0.088639  0.172362      1.000000
  0.038382 -0.110798  0.156693      1.000000
  0.076763 -0.132958  0.141023      1.000000
  0.115145 -0.155118  0.125354      1.000000
 -0.076763 -0.044319  0.203700      1.000000
 -0.038382 -0.066479  0.188031      1.000000
 -0.000000 -0.044319  0.156693      1.000000
  0.038382 -0.066479  0.141023      1.000000
  0.076763 -0.088639  0.125354      1.000000
  0.115145 -0.110798  0.109685      1.000000
 -0.076763  0.000000  0.188031      1.000000
 -0.038382 -0.022160  0.172362      1.000000
  0.000000 -0.000000 -0.094016      1.000000
  0.038382 -0.022160 -0.109685      1.000000
  0.076763 -0.044319 -0.125354      1.000000
  0.115145 -0.066479 -0.141023      1.000000
 -0.076763  0.044319 -0.062677      1.000000
 -0.038382  0.022160 -0.078346      1.000000
  0.000000  0.044319 -0.109685      1.000000
  0.038382  0.022160 -0.125354      1.000000
  0.076763  0.000000 -0.141023      1.000000
  0.115145 -0.022160 -0.156693      1.000000
 -0.076763  0.088639 -0.078346      1.000000
 -0.038382  0.066479 -0.094016      1.000000
  0.000000  0.088639 -0.125354      1.000000
  0.038382  0.066479 -0.141023      1.000000
  0.076763  0.044319 -0.156693      1.000000
  0.115145  0.022160 -0.172362      1.000000
 -0.076763  0.132958 -0.094016      1.000000
 -0.038382  0.110798 -0.109685      1.000000
  0.000000  0.132958 -0.141023      1.000000
  0.038382  0.110798 -0.156693      1.000000
  0.076763  0.088639 -0.172362      1.000000
  0.115145  0.066479 -0.188031      1.000000
 -0.076763  0.177278 -0.109685      1.000000
 -0.038382  0.155118 -0.125354      1.000000
  0.000000 -0.088639 -0.062677      1.000000
  0.038382 -0.110798 -0.078346      1.000000
  0.076763 -0.132958 -0.094016      1.000000
  0.115145 -0.155118 -0.109685      1.000000
 -0.076763 -0.044319 -0.031339      1.000000
 -0.038382 -0.066479 -0.047008      1.000000
  0.000000 -0.044319 -0.078346      1.000000
  0.038382 -0.066479 -0.094016      1.000000
  0.076763 -0.088639 -0.109685      1.000000
  0.115145 -0.110798 -0.125354      1.000000
 -0.076763  0.000000 -0.047008      1.000000
 -0.038382 -0.022160 -0.062677      1.000000
  0.000000 -0.000000 -0.047008      1.000000
  0.038382 -0.022160 -0.062677      1.000000
  0.076763 -0.044319 -0.078346      1.000000
  0.115145 -0.066479 -0.094016      1.000000
 -0.076763  0.044319 -0.015669      1.000000
 -0.038382  0.022160 -0.031339      1.000000
  0.000000  0.044319 -0.062677      1.000000
  0.038382  0.022160 -0.078346      1.000000
  0.076763  0.000000 -0.094016      1.000000
  0.115145 -0.022160 -0.109685      1.000000
 -0.076763  0.088639 -0.031339      1.000000
 -0.038382  0.066479 -0.047008      1.000000
  0.000000  0.088639 -0.078346      1.000000
  0.038382  0.066479 -0.094016      1.000000
  0.076763  0.044319 -0.109685      1.000000
  0.115145  0.022160 -0.125354      1.000000
 -0.076763  0.132958 -0.047008      1.000000
 -0.038382  0.110798 -0.062677      1.000000
  0.000000  0.132958 -0.094016      1.000000
  0.038382  0.110798 -0.109685      1.000000
  0.076763  0.088639 -0.125354      1.000000
  0.115145  0.066479 -0.141023      1.000000
 -0.076763  0.177278 -0.062677      1.000000
 -0.038382  0.155118 -0.078346      1.000000
  0.000000 -0.088639 -0.015669      1.000000
  0.038382 -0.110798 -0.031339      1.000000
  0.076763 -0.132958 -0.047008      1.000000
  0.115145 -0.155118 -0.062677      1.000000
 -0.076763 -0.044319  0.015669      1.000000
 -0.038382 -0.066479  0.000000      1.000000
  0.000000 -0.044319 -0.031339      1.000000
  0.038382 -0.066479 -0.047008      1.000000
  0.076763 -0.088639 -0.062677      1.000000
  0.115145 -0.110798 -0.078346      1.000000
 -0.076763  0.000000  0.000000      1.000000
 -0.038382 -0.022160 -0.015669      1.000000
 


--------------------------------------------------------------------------------------------------------




 Dimension of arrays:
   k-points           NKPTS =    216   k-points in BZ     NKDIM =    216   number of bands    NBANDS=     96
   number of dos      NEDOS =    301   number of ions     NIONS =      1
   non local maximal  LDIM  =      6   non local SUM 2l+1 LMDIM =     18
   total plane-waves  NPLWV =  21952
   max r-space proj   IRMAX =      1   max aug-charges    IRDMAX= 182324
   dimension x,y,z NGX =    28 NGY =   28 NGZ =   28
   dimension x,y,z NGXF=    56 NGYF=   56 NGZF=   56
   support grid    NGXF=   112 NGYF=  112 NGZF=  112
   ions per type =               1
   NGX,Y,Z   is equivalent  to a cutoff of  10.72, 10.72, 10.72 a.u.
   NGXF,Y,Z  is equivalent  to a cutoff of  21.44, 21.44, 21.44 a.u.

 SYSTEM =  Og_FCC                                  
 POSCAR =  Og_FCC                                  

 Startparameter for this run:
   NWRITE =      2    write-flag & timer
   PREC   = accura    normal or accurate (medium, high low for compatibility)
   ISTART =      1    job   : 0-new  1-cont  2-samecut
   ICHARG =      0    charge: 1-file 2-atom 10-const
   ISPIN  =      1    spin polarized calculation?
   LNONCOLLINEAR =      T non collinear calculations
   LSORBIT =      T    spin-orbit coupling
   INIWAV =      1    electr: 0-lowe 1-rand  2-diag
   LASPH  =      F    aspherical Exc in radial PAW
   METAGGA=      F    non-selfconsistent MetaGGA calc.

 Electronic Relaxation 1
   ENCUT  =  300.0 eV  22.05 Ry    4.70 a.u.   6.13  6.13  6.13*2*pi/ulx,y,z
   ENINI  =  300.0     initial cutoff
   ENAUG  =  361.0 eV  augmentation charge cutoff
   NELM   =     50;   NELMIN=  2; NELMDL= -5     # of ELM steps 
   EDIFF  = 0.1E-07   stopping-criterion for ELM
   LREAL  =      F    real-space projection
   NLSPLINE    = F    spline interpolate recip. space projectors
   LCOMPAT=      F    compatible to vasp.4.4
   GGA_COMPAT  = F    GGA compatible to vasp.4.4-vasp.4.6
   LMAXPAW     = -100 max onsite density
   LMAXMIX     =    2 max onsite mixed and CHGCAR
   VOSKOWN=      0    Vosko Wilk Nusair interpolation
   ROPT   =    0.00000
 Ionic relaxation
   EDIFFG = 0.1E-04   stopping-criterion for IOM
   NSW    =      1    number of steps for IOM
   NBLOCK =      1;   KBLOCK =      1    inner block; outer block 
   IBRION =     -1    ionic relax: 0-MD 1-quasi-New 2-CG
   NFREE  =      5    steps in history (QN), initial steepest desc. (CG)
   ISIF   =      3    stress and relaxation
   IWAVPR =     10    prediction:  0-non 1-charg 2-wave 3-comb
   ISYM   =      0    0-nonsym 1-usesym 2-fastsym
   LCORR  =      T    Harris-Foulkes like correction to forces

   POTIM  = 0.1000    time-step for ionic-motion
   TEIN   =    0.0    initial temperature
   TEBEG  =    0.0;   TEEND  =   0.0 temperature during run
   SMASS  =  -3.00    Nose mass-parameter (am)
   estimated Nose-frequenzy (Omega)   =  0.10E-29 period in steps =****** mass=  -0.431E-27a.u.
   SCALEE = 1.0000    scale energy and forces
   NPACO  =    256;   APACO  = 16.0  distance and # of slots for P.C.
   PSTRESS=    0.0 pullay stress

  Mass of Ions in am
   POMASS =   0.01
  Ionic Valenz
   ZVAL   =  18.00
  Atomic Wigner-Seitz radii
   RWIGS  =  -1.00
  virtual crystal weights 
   VCA    =   1.00
   NELECT =      18.0000    total number of electrons
   NUPDOWN=      -1.0000    fix difference up-down

 DOS related values:
   EMIN   =  10.00;   EMAX   =-10.00  energy-range for DOS
   EFERMI =   0.00
   ISMEAR =     0;   SIGMA  =   0.00  broadening in eV -4-tet -1-fermi 0-gaus

 Electronic relaxation 2 (details)
   IALGO  =     90    algorithm
   LDIAG  =      T    sub-space diagonalisation (order eigenvalues)
   LSUBROT=      F    optimize rotation matrix (better conditioning)
   TURBO    =      0    0=normal 1=particle mesh
   IRESTART =      0    0=no restart 2=restart with 2 vectors
   NREBOOT  =      0    no. of reboots
   NMIN     =      0    reboot dimension
   EREF     =   0.00    reference energy to select bands
   IMIX   =      4    mixing-type and parameters
     AMIX     =   0.40;   BMIX     =  1.00
     AMIX_MAG =   1.60;   BMIX_MAG =  1.00
     AMIN     =   0.10
     WC   =   100.;   INIMIX=   1;  MIXPRE=   1;  MAXMIX=  50

 Intra band minimization:
   WEIMIN = 0.0000     energy-eigenvalue tresh-hold
   EBREAK =  0.26E-10  absolut break condition
   DEPER  =   0.30     relativ break condition  

   TIME   =   0.40     timestep for ELM

  volume/ion in A,a.u.               =      57.90       390.71
  Fermi-wavevector in a.u.,A,eV,Ry     =   1.109038  2.095777 16.734680  1.229964
  Thomas-Fermi vector in A             =   2.245572
 
 Write flags
   LWAVE        =      T    write WAVECAR
   LDOWNSAMPLE  =      F    k-point downsampling of WAVECAR
   LCHARG       =      F    write CHGCAR
   LVTOT        =      F    write LOCPOT, total local potential
   LVHAR        =      F    write LOCPOT, Hartree potential only
   LELF         =      F    write electronic localiz. function (ELF)
   LORBIT       =      0    0 simple, 1 ext, 2 COOP (PROOUT), +10 PAW based schemes


 Dipole corrections
   LMONO  =      F    monopole corrections only (constant potential shift)
   LDIPOL =      F    correct potential (dipole corrections)
   IDIPOL =      0    1-x, 2-y, 3-z, 4-all directions 
   EPSILON=  1.0000000 bulk dielectric constant

 Exchange correlation treatment:
   GGA     =    PE    GGA type
   LEXCH   =     8    internal setting for exchange type
   VOSKOWN=      0    Vosko Wilk Nusair interpolation
   LHFCALC =     F    Hartree Fock is set to
   LHFONE  =     F    Hartree Fock one center treatment
   AEXX    =    0.0000 exact exchange contribution

 Linear response parameters
   LEPSILON=     F    determine dielectric tensor
   LRPA    =     F    only Hartree local field effects (RPA)
   LNABLA  =     F    use nabla operator in PAW spheres
   LVEL    =     F    velocity operator in full k-point grid
   LINTERFAST=   F  fast interpolation
   KINTER  =     0    interpolate to denser k-point grid
   CSHIFT  =0.1000    complex shift for real part using Kramers Kronig
   OMEGAMAX=  -1.0    maximum frequency
   DEG_THRESHOLD= 0.2000000E-02 threshold for treating states as degnerate
   RTIME   =   -0.100 relaxation time in fs
  (WPLASMAI=    0.000 imaginary part of plasma frequency in eV, 0.658/RTIME)
   DFIELD  = 0.0000000 0.0000000 0.0000000 field for delta impulse in time
 
 Orbital magnetization related:
   ORBITALMAG=     F  switch on orbital magnetization
   LCHIMAG   =     F  perturbation theory with respect to B field
   DQ        =  0.001000  dq finite difference perturbation B field
   LLRAUG    =     F  two centre corrections for induced B field



--------------------------------------------------------------------------------------------------------


 Static calculation
 charge density and potential will be updated during run
 non collinear spin polarized calculation
 Exact diagonalization
 preconditioned conjugated gradient (Jacobi prec)
    charged. constant during bandupdate  
    band-by band algorithm
 perform sub-space diagonalisation
    after iterative eigenvector-optimisation
 modified Broyden-mixing scheme, WC =      100.0
 initial mixing is a Kerker type mixing with AMIX =  0.4000 and BMIX =      1.0000
 Hartree-type preconditioning will be used
 using additional bands           87
 reciprocal scheme for non local part
 use partial core corrections
 calculate Harris-corrections to forces 
   (improved forces if not selfconsistent)
 use gradient corrections 
 use of overlap-Matrix (Vanderbilt PP)
 Gauss-broadening in eV      SIGMA  =   0.00


--------------------------------------------------------------------------------------------------------


  energy-cutoff  :      300.00
  volume of cell :       57.90
      direct lattice vectors                 reciprocal lattice vectors
     4.342345876  0.000000000  0.000000000     0.230290269 -0.132958149 -0.094015609
     2.171172938  3.760581840 -0.000000000     0.000000000  0.265916298 -0.094015609
     2.171172938  1.253527280  3.545510561    -0.000000000  0.000000000  0.282046826

  length of vectors
     4.342345876  4.342345876  4.342345876     0.282046826  0.282046826  0.282046826


 
 old parameters found on file WAVECAR:
  energy-cutoff  :      300.00
  volume of cell :       57.90
      direct lattice vectors                 reciprocal lattice vectors
     4.342345876  0.000000000  0.000000000     0.230290269 -0.132958149 -0.094015609
     2.171172938  3.760581840 -0.000000000     0.000000000  0.265916298 -0.094015609
     2.171172938  1.253527280  3.545510561    -0.000000000  0.000000000  0.282046826

  length of vectors

 
 k-points in units of 2pi/SCALE and weight: k-points                                
   0.00000000  0.00000000  0.00000000       0.005
   0.03838171 -0.02215969 -0.01566927       0.005
   0.07676342 -0.04431938 -0.03133854       0.005
   0.11514513 -0.06647907 -0.04700780       0.005
  -0.07676342  0.04431938  0.03133854       0.005
  -0.03838171  0.02215969  0.01566927       0.005
   0.00000000  0.04431938 -0.01566927       0.005
   0.03838171  0.02215969 -0.03133854       0.005
   0.07676342  0.00000000 -0.04700780       0.005
   0.11514513 -0.02215969 -0.06267707       0.005
  -0.07676342  0.08863877  0.01566927       0.005
  -0.03838171  0.06647907 -0.00000000       0.005
   0.00000000  0.08863877 -0.03133854       0.005
   0.03838171  0.06647907 -0.04700780       0.005
   0.07676342  0.04431938 -0.06267707       0.005
   0.11514513  0.02215969 -0.07834634       0.005
  -0.07676342  0.13295815  0.00000000       0.005
  -0.03838171  0.11079846 -0.01566927       0.005
   0.00000000  0.13295815 -0.04700780       0.005
   0.03838171  0.11079846 -0.06267707       0.005
   0.07676342  0.08863877 -0.07834634       0.005
   0.11514513  0.06647907 -0.09401561       0.005
  -0.07676342  0.17727753 -0.01566927       0.005
  -0.03838171  0.15511784 -0.03133854       0.005
  -0.00000000 -0.08863877  0.03133854       0.005
   0.03838171 -0.11079846  0.01566927       0.005
   0.07676342 -0.13295815 -0.00000000       0.005
   0.11514513 -0.15511784 -0.01566927       0.005
  -0.07676342 -0.04431938  0.06267707       0.005
  -0.03838171 -0.06647907  0.04700780       0.005
  -0.00000000 -0.04431938  0.01566927       0.005
   0.03838171 -0.06647907 -0.00000000       0.005
   0.07676342 -0.08863877 -0.01566927       0.005
   0.11514513 -0.11079846 -0.03133854       0.005
  -0.07676342  0.00000000  0.04700780       0.005
  -0.03838171 -0.02215969  0.03133854       0.005
  -0.00000000  0.00000000  0.04700780       0.005
   0.03838171 -0.02215969  0.03133854       0.005
   0.07676342 -0.04431938  0.01566927       0.005
   0.11514513 -0.06647907  0.00000000       0.005
  -0.07676342  0.04431938  0.07834634       0.005
  -0.03838171  0.02215969  0.06267707       0.005
  -0.00000000  0.04431938  0.03133854       0.005
   0.03838171  0.02215969  0.01566927       0.005
   0.07676342  0.00000000  0.00000000       0.005
   0.11514513 -0.02215969 -0.01566927       0.005
  -0.07676342  0.08863877  0.06267707       0.005
  -0.03838171  0.06647907  0.04700780       0.005
  -0.00000000  0.08863877  0.01566927       0.005
   0.03838171  0.06647907  0.00000000       0.005
   0.07676342  0.04431938 -0.01566927       0.005
   0.11514513  0.02215969 -0.03133854       0.005
  -0.07676342  0.13295815  0.04700780       0.005
  -0.03838171  0.11079846  0.03133854       0.005
  -0.00000000  0.13295815  0.00000000       0.005
   0.03838171  0.11079846 -0.01566927       0.005
   0.07676342  0.08863877 -0.03133854       0.005
   0.11514513  0.06647907 -0.04700780       0.005
  -0.07676342  0.17727753  0.03133854       0.005
  -0.03838171  0.15511784  0.01566927       0.005
  -0.00000000 -0.08863877  0.07834634       0.005
   0.03838171 -0.11079846  0.06267707       0.005
   0.07676342 -0.13295815  0.04700780       0.005
   0.11514513 -0.15511784  0.03133854       0.005
  -0.07676342 -0.04431938  0.10968488       0.005
  -0.03838171 -0.06647907  0.09401561       0.005
  -0.00000000 -0.04431938  0.06267707       0.005
   0.03838171 -0.06647907  0.04700780       0.005
   0.07676342 -0.08863877  0.03133854       0.005
   0.11514513 -0.11079846  0.01566927       0.005
  -0.07676342  0.00000000  0.09401561       0.005
  -0.03838171 -0.02215969  0.07834634       0.005
  -0.00000000  0.00000000  0.09401561       0.005
   0.03838171 -0.02215969  0.07834634       0.005
   0.07676342 -0.04431938  0.06267707       0.005
   0.11514513 -0.06647907  0.04700780       0.005
  -0.07676342  0.04431938  0.12535414       0.005
  -0.03838171  0.02215969  0.10968488       0.005
  -0.00000000  0.04431938  0.07834634       0.005
   0.03838171  0.02215969  0.06267707       0.005
   0.07676342  0.00000000  0.04700780       0.005
   0.11514513 -0.02215969  0.03133854       0.005
  -0.07676342  0.08863877  0.10968488       0.005
  -0.03838171  0.06647907  0.09401561       0.005
  -0.00000000  0.08863877  0.06267707       0.005
   0.03838171  0.06647907  0.04700780       0.005
   0.07676342  0.04431938  0.03133854       0.005
   0.11514513  0.02215969  0.01566927       0.005
  -0.07676342  0.13295815  0.09401561       0.005
  -0.03838171  0.11079846  0.07834634       0.005
  -0.00000000  0.13295815  0.04700780       0.005
   0.03838171  0.11079846  0.03133854       0.005
   0.07676342  0.08863877  0.01566927       0.005
   0.11514513  0.06647907 -0.00000000       0.005
  -0.07676342  0.17727753  0.07834634       0.005
  -0.03838171  0.15511784  0.06267707       0.005
  -0.00000000 -0.08863877  0.12535414       0.005
   0.03838171 -0.11079846  0.10968488       0.005
   0.07676342 -0.13295815  0.09401561       0.005
   0.11514513 -0.15511784  0.07834634       0.005
  -0.07676342 -0.04431938  0.15669268       0.005
  -0.03838171 -0.06647907  0.14102341       0.005
  -0.00000000 -0.04431938  0.10968488       0.005
   0.03838171 -0.06647907  0.09401561       0.005
   0.07676342 -0.08863877  0.07834634       0.005
   0.11514513 -0.11079846  0.06267707       0.005
  -0.07676342  0.00000000  0.14102341       0.005
  -0.03838171 -0.02215969  0.12535414       0.005
  -0.00000000  0.00000000  0.14102341       0.005
   0.03838171 -0.02215969  0.12535414       0.005
   0.07676342 -0.04431938  0.10968488       0.005
   0.11514513 -0.06647907  0.09401561       0.005
  -0.07676342  0.04431938  0.17236195       0.005
  -0.03838171  0.02215969  0.15669268       0.005
  -0.00000000  0.04431938  0.12535414       0.005
   0.03838171  0.02215969  0.10968488       0.005
   0.07676342  0.00000000  0.09401561       0.005
   0.11514513 -0.02215969  0.07834634       0.005
  -0.07676342  0.08863877  0.15669268       0.005
  -0.03838171  0.06647907  0.14102341       0.005
  -0.00000000  0.08863877  0.10968488       0.005
   0.03838171  0.06647907  0.09401561       0.005
   0.07676342  0.04431938  0.07834634       0.005
   0.11514513  0.02215969  0.06267707       0.005
  -0.07676342  0.13295815  0.14102341       0.005
  -0.03838171  0.11079846  0.12535414       0.005
  -0.00000000  0.13295815  0.09401561       0.005
   0.03838171  0.11079846  0.07834634       0.005
   0.07676342  0.08863877  0.06267707       0.005
   0.11514513  0.06647907  0.04700780       0.005
  -0.07676342  0.17727753  0.12535414       0.005
  -0.03838171  0.15511784  0.10968488       0.005
  -0.00000000 -0.08863877  0.17236195       0.005
   0.03838171 -0.11079846  0.15669268       0.005
   0.07676342 -0.13295815  0.14102341       0.005
   0.11514513 -0.15511784  0.12535414       0.005
  -0.07676342 -0.04431938  0.20370049       0.005
  -0.03838171 -0.06647907  0.18803122       0.005
  -0.00000000 -0.04431938  0.15669268       0.005
   0.03838171 -0.06647907  0.14102341       0.005
   0.07676342 -0.08863877  0.12535414       0.005
   0.11514513 -0.11079846  0.10968488       0.005
  -0.07676342  0.00000000  0.18803122       0.005
  -0.03838171 -0.02215969  0.17236195       0.005
   0.00000000 -0.00000000 -0.09401561       0.005
   0.03838171 -0.02215969 -0.10968488       0.005
   0.07676342 -0.04431938 -0.12535414       0.005
   0.11514513 -0.06647907 -0.14102341       0.005
  -0.07676342  0.04431938 -0.06267707       0.005
  -0.03838171  0.02215969 -0.07834634       0.005
   0.00000000  0.04431938 -0.10968488       0.005
   0.03838171  0.02215969 -0.12535414       0.005
   0.07676342  0.00000000 -0.14102341       0.005
   0.11514513 -0.02215969 -0.15669268       0.005
  -0.07676342  0.08863877 -0.07834634       0.005
  -0.03838171  0.06647907 -0.09401561       0.005
   0.00000000  0.08863877 -0.12535414       0.005
   0.03838171  0.06647907 -0.14102341       0.005
   0.07676342  0.04431938 -0.15669268       0.005
   0.11514513  0.02215969 -0.17236195       0.005
  -0.07676342  0.13295815 -0.09401561       0.005
  -0.03838171  0.11079846 -0.10968488       0.005
   0.00000000  0.13295815 -0.14102341       0.005
   0.03838171  0.11079846 -0.15669268       0.005
   0.07676342  0.08863877 -0.17236195       0.005
   0.11514513  0.06647907 -0.18803122       0.005
  -0.07676342  0.17727753 -0.10968488       0.005
  -0.03838171  0.15511784 -0.12535414       0.005
   0.00000000 -0.08863877 -0.06267707       0.005
   0.03838171 -0.11079846 -0.07834634       0.005
   0.07676342 -0.13295815 -0.09401561       0.005
   0.11514513 -0.15511784 -0.10968488       0.005
  -0.07676342 -0.04431938 -0.03133854       0.005
  -0.03838171 -0.06647907 -0.04700780       0.005
   0.00000000 -0.04431938 -0.07834634       0.005
   0.03838171 -0.06647907 -0.09401561       0.005
   0.07676342 -0.08863877 -0.10968488       0.005
   0.11514513 -0.11079846 -0.12535414       0.005
  -0.07676342  0.00000000 -0.04700780       0.005
  -0.03838171 -0.02215969 -0.06267707       0.005
   0.00000000 -0.00000000 -0.04700780       0.005
   0.03838171 -0.02215969 -0.06267707       0.005
   0.07676342 -0.04431938 -0.07834634       0.005
   0.11514513 -0.06647907 -0.09401561       0.005
  -0.07676342  0.04431938 -0.01566927       0.005
  -0.03838171  0.02215969 -0.03133854       0.005
   0.00000000  0.04431938 -0.06267707       0.005
   0.03838171  0.02215969 -0.07834634       0.005
   0.07676342  0.00000000 -0.09401561       0.005
   0.11514513 -0.02215969 -0.10968488       0.005
  -0.07676342  0.08863877 -0.03133854       0.005
  -0.03838171  0.06647907 -0.04700780       0.005
   0.00000000  0.08863877 -0.07834634       0.005
   0.03838171  0.06647907 -0.09401561       0.005
   0.07676342  0.04431938 -0.10968488       0.005
   0.11514513  0.02215969 -0.12535414       0.005
  -0.07676342  0.13295815 -0.04700780       0.005
  -0.03838171  0.11079846 -0.06267707       0.005
   0.00000000  0.13295815 -0.09401561       0.005
   0.03838171  0.11079846 -0.10968488       0.005
   0.07676342  0.08863877 -0.12535414       0.005
   0.11514513  0.06647907 -0.14102341       0.005
  -0.07676342  0.17727753 -0.06267707       0.005
  -0.03838171  0.15511784 -0.07834634       0.005
   0.00000000 -0.08863877 -0.01566927       0.005
   0.03838171 -0.11079846 -0.03133854       0.005
   0.07676342 -0.13295815 -0.04700780       0.005
   0.11514513 -0.15511784 -0.06267707       0.005
  -0.07676342 -0.04431938  0.01566927       0.005
  -0.03838171 -0.06647907  0.00000000       0.005
   0.00000000 -0.04431938 -0.03133854       0.005
   0.03838171 -0.06647907 -0.04700780       0.005
   0.07676342 -0.08863877 -0.06267707       0.005
   0.11514513 -0.11079846 -0.07834634       0.005
  -0.07676342  0.00000000  0.00000000       0.005
  -0.03838171 -0.02215969 -0.01566927       0.005
 
 k-points in reciprocal lattice and weights: k-points                                
   0.00000000  0.00000000  0.00000000       0.005
   0.16666667  0.00000000  0.00000000       0.005
   0.33333333  0.00000000  0.00000000       0.005
   0.50000000  0.00000000  0.00000000       0.005
  -0.33333333 -0.00000000  0.00000000       0.005
  -0.16666667 -0.00000000 -0.00000000       0.005
  -0.00000000  0.16666667 -0.00000000       0.005
   0.16666667  0.16666667  0.00000000       0.005
   0.33333333  0.16666667 -0.00000000       0.005
   0.50000000  0.16666667  0.00000000       0.005
  -0.33333333  0.16666667 -0.00000000       0.005
  -0.16666667  0.16666667 -0.00000000       0.005
   0.00000000  0.33333333 -0.00000000       0.005
   0.16666667  0.33333333  0.00000000       0.005
   0.33333333  0.33333333  0.00000000       0.005
   0.50000000  0.33333333  0.00000000       0.005
  -0.33333333  0.33333333 -0.00000000       0.005
  -0.16666667  0.33333333 -0.00000000       0.005
   0.00000000  0.50000000 -0.00000000       0.005
   0.16666667  0.50000000  0.00000000       0.005
   0.33333333  0.50000000  0.00000000       0.005
   0.50000000  0.50000000  0.00000000       0.005
  -0.33333333  0.50000000 -0.00000000       0.005
  -0.16666667  0.50000000 -0.00000000       0.005
  -0.00000000 -0.33333333  0.00000000       0.005
   0.16666667 -0.33333333  0.00000000       0.005
   0.33333333 -0.33333333  0.00000000       0.005
   0.50000000 -0.33333333  0.00000000       0.005
  -0.33333333 -0.33333333 -0.00000000       0.005
  -0.16666667 -0.33333333  0.00000000       0.005
   0.00000000 -0.16666667  0.00000000       0.005
   0.16666667 -0.16666667  0.00000000       0.005
   0.33333333 -0.16666667  0.00000000       0.005
   0.50000000 -0.16666667  0.00000000       0.005
  -0.33333333 -0.16666667  0.00000000       0.005
  -0.16666667 -0.16666667  0.00000000       0.005
   0.00000000  0.00000000  0.16666667       0.005
   0.16666667  0.00000000  0.16666667       0.005
   0.33333333 -0.00000000  0.16666667       0.005
   0.50000000 -0.00000000  0.16666667       0.005
  -0.33333333 -0.00000000  0.16666667       0.005
  -0.16666667  0.00000000  0.16666667       0.005
  -0.00000000  0.16666667  0.16666667       0.005
   0.16666667  0.16666667  0.16666667       0.005
   0.33333333  0.16666667  0.16666667       0.005
   0.50000000  0.16666667  0.16666667       0.005
  -0.33333333  0.16666667  0.16666667       0.005
  -0.16666667  0.16666667  0.16666667       0.005
  -0.00000000  0.33333333  0.16666667       0.005
   0.16666667  0.33333333  0.16666667       0.005
   0.33333333  0.33333333  0.16666667       0.005
   0.50000000  0.33333333  0.16666667       0.005
  -0.33333333  0.33333333  0.16666667       0.005
  -0.16666667  0.33333333  0.16666667       0.005
  -0.00000000  0.50000000  0.16666667       0.005
   0.16666667  0.50000000  0.16666667       0.005
   0.33333333  0.50000000  0.16666667       0.005
   0.50000000  0.50000000  0.16666667       0.005
  -0.33333333  0.50000000  0.16666667       0.005
  -0.16666667  0.50000000  0.16666667       0.005
  -0.00000000 -0.33333333  0.16666667       0.005
   0.16666667 -0.33333333  0.16666667       0.005
   0.33333333 -0.33333333  0.16666667       0.005
   0.50000000 -0.33333333  0.16666667       0.005
  -0.33333333 -0.33333333  0.16666667       0.005
  -0.16666667 -0.33333333  0.16666667       0.005
   0.00000000 -0.16666667  0.16666667       0.005
   0.16666667 -0.16666667  0.16666667       0.005
   0.33333333 -0.16666667  0.16666667       0.005
   0.50000000 -0.16666667  0.16666667       0.005
  -0.33333333 -0.16666667  0.16666667       0.005
  -0.16666667 -0.16666667  0.16666667       0.005
   0.00000000  0.00000000  0.33333333       0.005
   0.16666667  0.00000000  0.33333333       0.005
   0.33333333  0.00000000  0.33333333       0.005
   0.50000000 -0.00000000  0.33333333       0.005
  -0.33333333  0.00000000  0.33333333       0.005
  -0.16666667  0.00000000  0.33333333       0.005
  -0.00000000  0.16666667  0.33333333       0.005
   0.16666667  0.16666667  0.33333333       0.005
   0.33333333  0.16666667  0.33333333       0.005
   0.50000000  0.16666667  0.33333333       0.005
  -0.33333333  0.16666667  0.33333333       0.005
  -0.16666667  0.16666667  0.33333333       0.005
  -0.00000000  0.33333333  0.33333333       0.005
   0.16666667  0.33333333  0.33333333       0.005
   0.33333333  0.33333333  0.33333333       0.005
   0.50000000  0.33333333  0.33333333       0.005
  -0.33333333  0.33333333  0.33333333       0.005
  -0.16666667  0.33333333  0.33333333       0.005
   0.00000000  0.50000000  0.33333333       0.005
   0.16666667  0.50000000  0.33333333       0.005
   0.33333333  0.50000000  0.33333333       0.005
   0.50000000  0.50000000  0.33333333       0.005
  -0.33333333  0.50000000  0.33333333       0.005
  -0.16666667  0.50000000  0.33333333       0.005
   0.00000000 -0.33333333  0.33333333       0.005
   0.16666667 -0.33333333  0.33333333       0.005
   0.33333333 -0.33333333  0.33333333       0.005
   0.50000000 -0.33333333  0.33333333       0.005
  -0.33333333 -0.33333333  0.33333333       0.005
  -0.16666667 -0.33333333  0.33333333       0.005
   0.00000000 -0.16666667  0.33333333       0.005
   0.16666667 -0.16666667  0.33333333       0.005
   0.33333333 -0.16666667  0.33333333       0.005
   0.50000000 -0.16666667  0.33333333       0.005
  -0.33333333 -0.16666667  0.33333333       0.005
  -0.16666667 -0.16666667  0.33333333       0.005
   0.00000000  0.00000000  0.50000000       0.005
   0.16666667  0.00000000  0.50000000       0.005
   0.33333333  0.00000000  0.50000000       0.005
   0.50000000 -0.00000000  0.50000000       0.005
  -0.33333333  0.00000000  0.50000000       0.005
  -0.16666667  0.00000000  0.50000000       0.005
  -0.00000000  0.16666667  0.50000000       0.005
   0.16666667  0.16666667  0.50000000       0.005
   0.33333333  0.16666667  0.50000000       0.005
   0.50000000  0.16666667  0.50000000       0.005
  -0.33333333  0.16666667  0.50000000       0.005
  -0.16666667  0.16666667  0.50000000       0.005
   0.00000000  0.33333333  0.50000000       0.005
   0.16666667  0.33333333  0.50000000       0.005
   0.33333333  0.33333333  0.50000000       0.005
   0.50000000  0.33333333  0.50000000       0.005
  -0.33333333  0.33333333  0.50000000       0.005
  -0.16666667  0.33333333  0.50000000       0.005
  -0.00000000  0.50000000  0.50000000       0.005
   0.16666667  0.50000000  0.50000000       0.005
   0.33333333  0.50000000  0.50000000       0.005
   0.50000000  0.50000000  0.50000000       0.005
  -0.33333333  0.50000000  0.50000000       0.005
  -0.16666667  0.50000000  0.50000000       0.005
   0.00000000 -0.33333333  0.50000000       0.005
   0.16666667 -0.33333333  0.50000000       0.005
   0.33333333 -0.33333333  0.50000000       0.005
   0.50000000 -0.33333333  0.50000000       0.005
  -0.33333333 -0.33333333  0.50000000       0.005
  -0.16666667 -0.33333333  0.50000000       0.005
   0.00000000 -0.16666667  0.50000000       0.005
   0.16666667 -0.16666667  0.50000000       0.005
   0.33333333 -0.16666667  0.50000000       0.005
   0.50000000 -0.16666667  0.50000000       0.005
  -0.33333333 -0.16666667  0.50000000       0.005
  -0.16666667 -0.16666667  0.50000000       0.005
   0.00000000  0.00000000 -0.33333333       0.005
   0.16666667 -0.00000000 -0.33333333       0.005
   0.33333333 -0.00000000 -0.33333333       0.005
   0.50000000  0.00000000 -0.33333333       0.005
  -0.33333333 -0.00000000 -0.33333333       0.005
  -0.16666667 -0.00000000 -0.33333333       0.005
  -0.00000000  0.16666667 -0.33333333       0.005
   0.16666667  0.16666667 -0.33333333       0.005
   0.33333333  0.16666667 -0.33333333       0.005
   0.50000000  0.16666667 -0.33333333       0.005
  -0.33333333  0.16666667 -0.33333333       0.005
  -0.16666667  0.16666667 -0.33333333       0.005
   0.00000000  0.33333333 -0.33333333       0.005
   0.16666667  0.33333333 -0.33333333       0.005
   0.33333333  0.33333333 -0.33333333       0.005
   0.50000000  0.33333333 -0.33333333       0.005
  -0.33333333  0.33333333 -0.33333333       0.005
  -0.16666667  0.33333333 -0.33333333       0.005
  -0.00000000  0.50000000 -0.33333333       0.005
   0.16666667  0.50000000 -0.33333333       0.005
   0.33333333  0.50000000 -0.33333333       0.005
   0.50000000  0.50000000 -0.33333333       0.005
  -0.33333333  0.50000000 -0.33333333       0.005
  -0.16666667  0.50000000 -0.33333333       0.005
   0.00000000 -0.33333333 -0.33333333       0.005
   0.16666667 -0.33333333 -0.33333333       0.005
   0.33333333 -0.33333333 -0.33333333       0.005
   0.50000000 -0.33333333 -0.33333333       0.005
  -0.33333333 -0.33333333 -0.33333333       0.005
  -0.16666667 -0.33333333 -0.33333333       0.005
   0.00000000 -0.16666667 -0.33333333       0.005
   0.16666667 -0.16666667 -0.33333333       0.005
   0.33333333 -0.16666667 -0.33333333       0.005
   0.50000000 -0.16666667 -0.33333333       0.005
  -0.33333333 -0.16666667 -0.33333333       0.005
  -0.16666667 -0.16666667 -0.33333333       0.005
  -0.00000000 -0.00000000 -0.16666667       0.005
   0.16666667 -0.00000000 -0.16666667       0.005
   0.33333333  0.00000000 -0.16666667       0.005
   0.50000000  0.00000000 -0.16666667       0.005
  -0.33333333  0.00000000 -0.16666667       0.005
  -0.16666667 -0.00000000 -0.16666667       0.005
  -0.00000000  0.16666667 -0.16666667       0.005
   0.16666667  0.16666667 -0.16666667       0.005
   0.33333333  0.16666667 -0.16666667       0.005
   0.50000000  0.16666667 -0.16666667       0.005
  -0.33333333  0.16666667 -0.16666667       0.005
  -0.16666667  0.16666667 -0.16666667       0.005
   0.00000000  0.33333333 -0.16666667       0.005
   0.16666667  0.33333333 -0.16666667       0.005
   0.33333333  0.33333333 -0.16666667       0.005
   0.50000000  0.33333333 -0.16666667       0.005
  -0.33333333  0.33333333 -0.16666667       0.005
  -0.16666667  0.33333333 -0.16666667       0.005
  -0.00000000  0.50000000 -0.16666667       0.005
   0.16666667  0.50000000 -0.16666667       0.005
   0.33333333  0.50000000 -0.16666667       0.005
   0.50000000  0.50000000 -0.16666667       0.005
  -0.33333333  0.50000000 -0.16666667       0.005
  -0.16666667  0.50000000 -0.16666667       0.005
   0.00000000 -0.33333333 -0.16666667       0.005
   0.16666667 -0.33333333 -0.16666667       0.005
   0.33333333 -0.33333333 -0.16666667       0.005
   0.50000000 -0.33333333 -0.16666667       0.005
  -0.33333333 -0.33333333 -0.16666667       0.005
  -0.16666667 -0.33333333 -0.16666667       0.005
   0.00000000 -0.16666667 -0.16666667       0.005
   0.16666667 -0.16666667 -0.16666667       0.005
   0.33333333 -0.16666667 -0.16666667       0.005
   0.50000000 -0.16666667 -0.16666667       0.005
  -0.33333333 -0.16666667 -0.16666667       0.005
  -0.16666667 -0.16666667 -0.16666667       0.005
 
 position of ions in fractional coordinates (direct lattice) 
   0.00000000  0.00000000  0.00000000
 
 position of ions in cartesian coordinates  (Angst):
   0.00000000  0.00000000  0.00000000
 
 Euler angles ALPHA=     0.0000000  BETA=     0.0000000

 transformation matrix from SAXIS to cartesian coordinates
 ---------------------------------------------------------
     1.0000000 m_x     0.0000000 m_y     0.0000000 m_z
     0.0000000 m_x     1.0000000 m_y     0.0000000 m_z
     0.0000000 m_x     0.0000000 m_y     1.0000000 m_z

 transformation matrix from cartesian coordinates to SAXIS
 ---------------------------------------------------------
     1.0000000 m_x     0.0000000 m_y     0.0000000 m_z
     0.0000000 m_x     1.0000000 m_y     0.0000000 m_z
     0.0000000 m_x     0.0000000 m_y     1.0000000 m_z




--------------------------------------------------------------------------------------------------------


 k-point  1 :   0.0000 0.0000 0.0000  plane waves:    1402
 k-point  2 :   0.1667 0.0000 0.0000  plane waves:    1346
 k-point  3 :   0.3333 0.0000 0.0000  plane waves:    1370
 k-point  4 :   0.5000 0.0000 0.0000  plane waves:    1400
 k-point  5 :  -0.3333-0.0000 0.0000  plane waves:    1370
 k-point  6 :  -0.1667-0.0000-0.0000  plane waves:    1346
 k-point  7 :  -0.0000 0.1667-0.0000  plane waves:    1346
 k-point  8 :   0.1667 0.1667 0.0000  plane waves:    1362
 k-point  9 :   0.3333 0.1667-0.0000  plane waves:    1360
 k-point 10 :   0.5000 0.1667 0.0000  plane waves:    1356
 k-point 11 :  -0.3333 0.1667-0.0000  plane waves:    1368
 k-point 12 :  -0.1667 0.1667-0.0000  plane waves:    1348
 k-point 13 :   0.0000 0.3333-0.0000  plane waves:    1370
 k-point 14 :   0.1667 0.3333 0.0000  plane waves:    1360
 k-point 15 :   0.3333 0.3333 0.0000  plane waves:    1386
 k-point 16 :   0.5000 0.3333 0.0000  plane waves:    1372
 k-point 17 :  -0.3333 0.3333-0.0000  plane waves:    1360
 k-point 18 :  -0.1667 0.3333-0.0000  plane waves:    1368
 k-point 19 :   0.0000 0.5000-0.0000  plane waves:    1400
 k-point 20 :   0.1667 0.5000 0.0000  plane waves:    1356
 k-point 21 :   0.3333 0.5000 0.0000  plane waves:    1372
 k-point 22 :   0.5000 0.5000 0.0000  plane waves:    1384
 k-point 23 :  -0.3333 0.5000-0.0000  plane waves:    1372
 k-point 24 :  -0.1667 0.5000-0.0000  plane waves:    1356
 k-point 25 :  -0.0000-0.3333 0.0000  plane waves:    1370
 k-point 26 :   0.1667-0.3333 0.0000  plane waves:    1368
 k-point 27 :   0.3333-0.3333 0.0000  plane waves:    1360
 k-point 28 :   0.5000-0.3333 0.0000  plane waves:    1372
 k-point 29 :  -0.3333-0.3333-0.0000  plane waves:    1386
 k-point 30 :  -0.1667-0.3333 0.0000  plane waves:    1360
 k-point 31 :   0.0000-0.1667 0.0000  plane waves:    1346
 k-point 32 :   0.1667-0.1667 0.0000  plane waves:    1348
 k-point 33 :   0.3333-0.1667 0.0000  plane waves:    1368
 k-point 34 :   0.5000-0.1667 0.0000  plane waves:    1356
 k-point 35 :  -0.3333-0.1667 0.0000  plane waves:    1360
 k-point 36 :  -0.1667-0.1667 0.0000  plane waves:    1362
 k-point 37 :   0.0000 0.0000 0.1667  plane waves:    1346
 k-point 38 :   0.1667 0.0000 0.1667  plane waves:    1362
 k-point 39 :   0.3333-0.0000 0.1667  plane waves:    1360
 k-point 40 :   0.5000-0.0000 0.1667  plane waves:    1356
 k-point 41 :  -0.3333-0.0000 0.1667  plane waves:    1368
 k-point 42 :  -0.1667 0.0000 0.1667  plane waves:    1348
 k-point 43 :  -0.0000 0.1667 0.1667  plane waves:    1362
 k-point 44 :   0.1667 0.1667 0.1667  plane waves:    1346
 k-point 45 :   0.3333 0.1667 0.1667  plane waves:    1348
 k-point 46 :   0.5000 0.1667 0.1667  plane waves:    1368
 k-point 47 :  -0.3333 0.1667 0.1667  plane waves:    1356
 k-point 48 :  -0.1667 0.1667 0.1667  plane waves:    1360
 k-point 49 :  -0.0000 0.3333 0.1667  plane waves:    1360
 k-point 50 :   0.1667 0.3333 0.1667  plane waves:    1348
 k-point 51 :   0.3333 0.3333 0.1667  plane waves:    1360
 k-point 52 :   0.5000 0.3333 0.1667  plane waves:    1352
 k-point 53 :  -0.3333 0.3333 0.1667  plane waves:    1384
 k-point 54 :  -0.1667 0.3333 0.1667  plane waves:    1352
 k-point 55 :  -0.0000 0.5000 0.1667  plane waves:    1356
 k-point 56 :   0.1667 0.5000 0.1667  plane waves:    1368
 k-point 57 :   0.3333 0.5000 0.1667  plane waves:    1352
 k-point 58 :   0.5000 0.5000 0.1667  plane waves:    1372
 k-point 59 :  -0.3333 0.5000 0.1667  plane waves:    1380
 k-point 60 :  -0.1667 0.5000 0.1667  plane waves:    1384
 k-point 61 :  -0.0000-0.3333 0.1667  plane waves:    1368
 k-point 62 :   0.1667-0.3333 0.1667  plane waves:    1356
 k-point 63 :   0.3333-0.3333 0.1667  plane waves:    1384
 k-point 64 :   0.5000-0.3333 0.1667  plane waves:    1380
 k-point 65 :  -0.3333-0.3333 0.1667  plane waves:    1372
 k-point 66 :  -0.1667-0.3333 0.1667  plane waves:    1352
 k-point 67 :   0.0000-0.1667 0.1667  plane waves:    1348
 k-point 68 :   0.1667-0.1667 0.1667  plane waves:    1360
 k-point 69 :   0.3333-0.1667 0.1667  plane waves:    1352
 k-point 70 :   0.5000-0.1667 0.1667  plane waves:    1384
 k-point 71 :  -0.3333-0.1667 0.1667  plane waves:    1352
 k-point 72 :  -0.1667-0.1667 0.1667  plane waves:    1360
 k-point 73 :   0.0000 0.0000 0.3333  plane waves:    1370
 k-point 74 :   0.1667 0.0000 0.3333  plane waves:    1360
 k-point 75 :   0.3333 0.0000 0.3333  plane waves:    1386
 k-point 76 :   0.5000-0.0000 0.3333  plane waves:    1372
 k-point 77 :  -0.3333 0.0000 0.3333  plane waves:    1360
 k-point 78 :  -0.1667 0.0000 0.3333  plane waves:    1368
 k-point 79 :  -0.0000 0.1667 0.3333  plane waves:    1360
 k-point 80 :   0.1667 0.1667 0.3333  plane waves:    1348
 k-point 81 :   0.3333 0.1667 0.3333  plane waves:    1360
 k-point 82 :   0.5000 0.1667 0.3333  plane waves:    1352
 k-point 83 :  -0.3333 0.1667 0.3333  plane waves:    1384
 k-point 84 :  -0.1667 0.1667 0.3333  plane waves:    1352
 k-point 85 :  -0.0000 0.3333 0.3333  plane waves:    1386
 k-point 86 :   0.1667 0.3333 0.3333  plane waves:    1360
 k-point 87 :   0.3333 0.3333 0.3333  plane waves:    1370
 k-point 88 :   0.5000 0.3333 0.3333  plane waves:    1368
 k-point 89 :  -0.3333 0.3333 0.3333  plane waves:    1360
 k-point 90 :  -0.1667 0.3333 0.3333  plane waves:    1372
 k-point 91 :   0.0000 0.5000 0.3333  plane waves:    1372
 k-point 92 :   0.1667 0.5000 0.3333  plane waves:    1352
 k-point 93 :   0.3333 0.5000 0.3333  plane waves:    1368
 k-point 94 :   0.5000 0.5000 0.3333  plane waves:    1356
 k-point 95 :  -0.3333 0.5000 0.3333  plane waves:    1384
 k-point 96 :  -0.1667 0.5000 0.3333  plane waves:    1380
 k-point 97 :   0.0000-0.3333 0.3333  plane waves:    1360
 k-point 98 :   0.1667-0.3333 0.3333  plane waves:    1384
 k-point 99 :   0.3333-0.3333 0.3333  plane waves:    1360
 k-point ** :   0.5000-0.3333 0.3333  plane waves:    1384
 k-point ** :  -0.3333-0.3333 0.3333  plane waves:    1360
 k-point ** :  -0.1667-0.3333 0.3333  plane waves:    1384
 k-point ** :   0.0000-0.1667 0.3333  plane waves:    1368
 k-point ** :   0.1667-0.1667 0.3333  plane waves:    1352
 k-point ** :   0.3333-0.1667 0.3333  plane waves:    1372
 k-point ** :   0.5000-0.1667 0.3333  plane waves:    1380
 k-point ** :  -0.3333-0.1667 0.3333  plane waves:    1384
 k-point ** :  -0.1667-0.1667 0.3333  plane waves:    1356
 k-point ** :   0.0000 0.0000 0.5000  plane waves:    1400
 k-point ** :   0.1667 0.0000 0.5000  plane waves:    1356
 k-point ** :   0.3333 0.0000 0.5000  plane waves:    1372
 k-point ** :   0.5000-0.0000 0.5000  plane waves:    1384
 k-point ** :  -0.3333 0.0000 0.5000  plane waves:    1372
 k-point ** :  -0.1667 0.0000 0.5000  plane waves:    1356
 k-point ** :  -0.0000 0.1667 0.5000  plane waves:    1356
 k-point ** :   0.1667 0.1667 0.5000  plane waves:    1368
 k-point ** :   0.3333 0.1667 0.5000  plane waves:    1352
 k-point ** :   0.5000 0.1667 0.5000  plane waves:    1372
 k-point ** :  -0.3333 0.1667 0.5000  plane waves:    1380
 k-point ** :  -0.1667 0.1667 0.5000  plane waves:    1384
 k-point ** :   0.0000 0.3333 0.5000  plane waves:    1372
 k-point ** :   0.1667 0.3333 0.5000  plane waves:    1352
 k-point ** :   0.3333 0.3333 0.5000  plane waves:    1368
 k-point ** :   0.5000 0.3333 0.5000  plane waves:    1356
 k-point ** :  -0.3333 0.3333 0.5000  plane waves:    1384
 k-point ** :  -0.1667 0.3333 0.5000  plane waves:    1380
 k-point ** :  -0.0000 0.5000 0.5000  plane waves:    1384
 k-point ** :   0.1667 0.5000 0.5000  plane waves:    1372
 k-point ** :   0.3333 0.5000 0.5000  plane waves:    1356
 k-point ** :   0.5000 0.5000 0.5000  plane waves:    1400
 k-point ** :  -0.3333 0.5000 0.5000  plane waves:    1356
 k-point ** :  -0.1667 0.5000 0.5000  plane waves:    1372
 k-point ** :   0.0000-0.3333 0.5000  plane waves:    1372
 k-point ** :   0.1667-0.3333 0.5000  plane waves:    1380
 k-point ** :   0.3333-0.3333 0.5000  plane waves:    1384
 k-point ** :   0.5000-0.3333 0.5000  plane waves:    1356
 k-point ** :  -0.3333-0.3333 0.5000  plane waves:    1368
 k-point ** :  -0.1667-0.3333 0.5000  plane waves:    1352
 k-point ** :   0.0000-0.1667 0.5000  plane waves:    1356
 k-point ** :   0.1667-0.1667 0.5000  plane waves:    1384
 k-point ** :   0.3333-0.1667 0.5000  plane waves:    1380
 k-point ** :   0.5000-0.1667 0.5000  plane waves:    1372
 k-point ** :  -0.3333-0.1667 0.5000  plane waves:    1352
 k-point ** :  -0.1667-0.1667 0.5000  plane waves:    1368
 k-point ** :   0.0000 0.0000-0.3333  plane waves:    1370
 k-point ** :   0.1667-0.0000-0.3333  plane waves:    1368
 k-point ** :   0.3333-0.0000-0.3333  plane waves:    1360
 k-point ** :   0.5000 0.0000-0.3333  plane waves:    1372
 k-point ** :  -0.3333-0.0000-0.3333  plane waves:    1386
 k-point ** :  -0.1667-0.0000-0.3333  plane waves:    1360
 k-point ** :  -0.0000 0.1667-0.3333  plane waves:    1368
 k-point ** :   0.1667 0.1667-0.3333  plane waves:    1356
 k-point ** :   0.3333 0.1667-0.3333  plane waves:    1384
 k-point ** :   0.5000 0.1667-0.3333  plane waves:    1380
 k-point ** :  -0.3333 0.1667-0.3333  plane waves:    1372
 k-point ** :  -0.1667 0.1667-0.3333  plane waves:    1352
 k-point ** :   0.0000 0.3333-0.3333  plane waves:    1360
 k-point ** :   0.1667 0.3333-0.3333  plane waves:    1384
 k-point ** :   0.3333 0.3333-0.3333  plane waves:    1360
 k-point ** :   0.5000 0.3333-0.3333  plane waves:    1384
 k-point ** :  -0.3333 0.3333-0.3333  plane waves:    1360
 k-point ** :  -0.1667 0.3333-0.3333  plane waves:    1384
 k-point ** :  -0.0000 0.5000-0.3333  plane waves:    1372
 k-point ** :   0.1667 0.5000-0.3333  plane waves:    1380
 k-point ** :   0.3333 0.5000-0.3333  plane waves:    1384
 k-point ** :   0.5000 0.5000-0.3333  plane waves:    1356
 k-point ** :  -0.3333 0.5000-0.3333  plane waves:    1368
 k-point ** :  -0.1667 0.5000-0.3333  plane waves:    1352
 k-point ** :   0.0000-0.3333-0.3333  plane waves:    1386
 k-point ** :   0.1667-0.3333-0.3333  plane waves:    1372
 k-point ** :   0.3333-0.3333-0.3333  plane waves:    1360
 k-point ** :   0.5000-0.3333-0.3333  plane waves:    1368
 k-point ** :  -0.3333-0.3333-0.3333  plane waves:    1370
 k-point ** :  -0.1667-0.3333-0.3333  plane waves:    1360
 k-point ** :   0.0000-0.1667-0.3333  plane waves:    1360
 k-point ** :   0.1667-0.1667-0.3333  plane waves:    1352
 k-point ** :   0.3333-0.1667-0.3333  plane waves:    1384
 k-point ** :   0.5000-0.1667-0.3333  plane waves:    1352
 k-point ** :  -0.3333-0.1667-0.3333  plane waves:    1360
 k-point ** :  -0.1667-0.1667-0.3333  plane waves:    1348
 k-point ** :  -0.0000-0.0000-0.1667  plane waves:    1346
 k-point ** :   0.1667-0.0000-0.1667  plane waves:    1348
 k-point ** :   0.3333 0.0000-0.1667  plane waves:    1368
 k-point ** :   0.5000 0.0000-0.1667  plane waves:    1356
 k-point ** :  -0.3333 0.0000-0.1667  plane waves:    1360
 k-point ** :  -0.1667-0.0000-0.1667  plane waves:    1362
 k-point ** :  -0.0000 0.1667-0.1667  plane waves:    1348
 k-point ** :   0.1667 0.1667-0.1667  plane waves:    1360
 k-point ** :   0.3333 0.1667-0.1667  plane waves:    1352
 k-point ** :   0.5000 0.1667-0.1667  plane waves:    1384
 k-point ** :  -0.3333 0.1667-0.1667  plane waves:    1352
 k-point ** :  -0.1667 0.1667-0.1667  plane waves:    1360
 k-point ** :   0.0000 0.3333-0.1667  plane waves:    1368
 k-point ** :   0.1667 0.3333-0.1667  plane waves:    1352
 k-point ** :   0.3333 0.3333-0.1667  plane waves:    1372
 k-point ** :   0.5000 0.3333-0.1667  plane waves:    1380
 k-point ** :  -0.3333 0.3333-0.1667  plane waves:    1384
 k-point ** :  -0.1667 0.3333-0.1667  plane waves:    1356
 k-point ** :  -0.0000 0.5000-0.1667  plane waves:    1356
 k-point ** :   0.1667 0.5000-0.1667  plane waves:    1384
 k-point ** :   0.3333 0.5000-0.1667  plane waves:    1380
 k-point ** :   0.5000 0.5000-0.1667  plane waves:    1372
 k-point ** :  -0.3333 0.5000-0.1667  plane waves:    1352
 k-point ** :  -0.1667 0.5000-0.1667  plane waves:    1368
 k-point ** :   0.0000-0.3333-0.1667  plane waves:    1360
 k-point ** :   0.1667-0.3333-0.1667  plane waves:    1352
 k-point ** :   0.3333-0.3333-0.1667  plane waves:    1384
 k-point ** :   0.5000-0.3333-0.1667  plane waves:    1352
 k-point ** :  -0.3333-0.3333-0.1667  plane waves:    1360
 k-point ** :  -0.1667-0.3333-0.1667  plane waves:    1348
 k-point ** :   0.0000-0.1667-0.1667  plane waves:    1362
 k-point ** :   0.1667-0.1667-0.1667  plane waves:    1360
 k-point ** :   0.3333-0.1667-0.1667  plane waves:    1356
 k-point ** :   0.5000-0.1667-0.1667  plane waves:    1368
 k-point ** :  -0.3333-0.1667-0.1667  plane waves:    1348
 k-point ** :  -0.1667-0.1667-0.1667  plane waves:    1346

 maximum and minimum number of plane-waves per node :       222      172

 maximum number of plane-waves:      1402
 maximum index in each direction: 
   IXMAX=    6   IYMAX=    6   IZMAX=    6
   IXMIN=   -6   IYMIN=   -6   IZMIN=   -6


 parallel 3D FFT for wavefunctions:
    minimum data exchange during FFTs selected (reduces bandwidth)
 parallel 3D FFT for charge:
    minimum data exchange during FFTs selected (reduces bandwidth)


 total amount of memory used by VASP MPI-rank0    59180. kBytes
=======================================================================

   base      :      30000. kBytes
   nonl-proj :       3485. kBytes
   fftplans  :       1930. kBytes
   grid      :       1806. kBytes
   one-center:         62. kBytes
   wavefun   :      21897. kBytes
 
     INWAV:  cpu time    4.7882: real time    4.7864
 Broyden mixing: mesh for mixing (old mesh)
   NGX = 13   NGY = 13   NGZ = 13
  (NGX  = 56   NGY  = 56   NGZ  = 56)
  gives a total of   2197 points

 charge density for first step will be calculated from the start-wavefunctions


--------------------------------------------------------------------------------------------------------


 Maximum index for augmentation-charges         6649 (set IRDMAX)


--------------------------------------------------------------------------------------------------------


 initial charge from wavefunction
 First call to EWALD:  gamma=   0.458
 Maximum number of real-space cells 3x 3x 3
 Maximum number of reciprocal cells 3x 3x 3

    FEWALD:  cpu time    0.0020: real time    0.0020


--------------------------------------- Iteration      1(   1)  ---------------------------------------


    POTLOK:  cpu time    0.0174: real time    0.0187
    SETDIJ:  cpu time    0.0388: real time    0.0389

 total amount of memory used by VASP MPI-rank0   379426. kBytes
=======================================================================

   base      :      30000. kBytes
   nonl-proj :       3485. kBytes
   fftplans  :       1930. kBytes
   grid      :       1806. kBytes
   one-center:         62. kBytes
   wavefun   :     342143. kBytes
 
    EDDIAG:  cpu time  180.8832: real time  180.8487
       DOS:  cpu time    0.0052: real time    0.0052
    --------------------------------------------
      LOOP:  cpu time  180.9446: real time  180.9115

 eigenvalue-minimisations  :     0
 total energy-change (2. order) :-0.1318029E+02  ( 0.0000000E+00)
 number of electron      18.0000000 magnetization      -0.0008800     -0.0021487     -0.0010613
 augmentation part        2.7617009 magnetization       0.0000594      0.0001476      0.0000733

 Free energy of the ion-electron system (eV)
  ---------------------------------------------------
  alpha Z        PSCENC =        65.89697999
  Ewald energy   TEWEN  =     -1741.63824267
  -Hartree energ DENC   =      -672.03596670
  -exchange      EXHF   =         0.00000000
  -V(xc)+E(xc)   XCENC  =       -68.73380322
  PAW double counting   =      2336.01598122    -2260.61968134
  entropy T*S    EENTRO =        -0.00000001
  eigenvalues    EBANDS =      -311.97047827
  atomic energy  EATOM  =      2639.90492407
  Solvation  Ediel_sol  =         0.00000000
  ---------------------------------------------------
  free energy    TOTEN  =       -13.18028693 eV

  energy without entropy =      -13.18028692  energy(sigma->0) =      -13.18028692


--------------------------------------------------------------------------------------------------------




--------------------------------------- Iteration      1(   2)  ---------------------------------------



 total amount of memory used by VASP MPI-rank0   379426. kBytes
=======================================================================

   base      :      30000. kBytes
   nonl-proj :       3485. kBytes
   fftplans  :       1930. kBytes
   grid      :       1806. kBytes
   one-center:         62. kBytes
   wavefun   :     342143. kBytes
 
    EDDIAG:  cpu time  180.5917: real time  180.5218
       DOS:  cpu time    0.0060: real time    0.0060
    --------------------------------------------
      LOOP:  cpu time  180.5977: real time  180.5277

 eigenvalue-minimisations  :     0
 total energy-change (2. order) : 0.2728484E-11  ( 0.0000000E+00)
 number of electron      18.0000000 magnetization      -0.0008800     -0.0021487     -0.0010613
 augmentation part        2.7617009 magnetization       0.0000594      0.0001476      0.0000733

 Free energy of the ion-electron system (eV)
  ---------------------------------------------------
  alpha Z        PSCENC =        65.89697999
  Ewald energy   TEWEN  =     -1741.63824267
  -Hartree energ DENC   =      -672.03596670
  -exchange      EXHF   =         0.00000000
  -V(xc)+E(xc)   XCENC  =       -68.73380322
  PAW double counting   =      2336.01598122    -2260.61968134
  entropy T*S    EENTRO =        -0.00000001
  eigenvalues    EBANDS =      -311.97047827
  atomic energy  EATOM  =      2639.90492407
  Solvation  Ediel_sol  =         0.00000000
  ---------------------------------------------------
  free energy    TOTEN  =       -13.18028693 eV

  energy without entropy =      -13.18028692  energy(sigma->0) =      -13.18028692


--------------------------------------------------------------------------------------------------------




--------------------------------------- Iteration      1(   3)  ---------------------------------------



 total amount of memory used by VASP MPI-rank0   379426. kBytes
=======================================================================

   base      :      30000. kBytes
   nonl-proj :       3485. kBytes
   fftplans  :       1930. kBytes
   grid      :       1806. kBytes
   one-center:         62. kBytes
   wavefun   :     342143. kBytes
 
    EDDIAG:  cpu time  180.7209: real time  180.6927
       DOS:  cpu time    0.0054: real time    0.0054
    --------------------------------------------
      LOOP:  cpu time  180.7263: real time  180.6981

 eigenvalue-minimisations  :     0
 total energy-change (2. order) : 0.7275958E-11  ( 0.0000000E+00)
 number of electron      18.0000000 magnetization      -0.0008800     -0.0021487     -0.0010613
 augmentation part        2.7617009 magnetization       0.0000594      0.0001476      0.0000733

 Free energy of the ion-electron system (eV)
  ---------------------------------------------------
  alpha Z        PSCENC =        65.89697999
  Ewald energy   TEWEN  =     -1741.63824267
  -Hartree energ DENC   =      -672.03596670
  -exchange      EXHF   =         0.00000000
  -V(xc)+E(xc)   XCENC  =       -68.73380322
  PAW double counting   =      2336.01598122    -2260.61968134
  entropy T*S    EENTRO =        -0.00000001
  eigenvalues    EBANDS =      -311.97047827
  atomic energy  EATOM  =      2639.90492407
  Solvation  Ediel_sol  =         0.00000000
  ---------------------------------------------------
  free energy    TOTEN  =       -13.18028693 eV

  energy without entropy =      -13.18028692  energy(sigma->0) =      -13.18028692


--------------------------------------------------------------------------------------------------------




--------------------------------------- Iteration      1(   4)  ---------------------------------------



 total amount of memory used by VASP MPI-rank0   379426. kBytes
=======================================================================

   base      :      30000. kBytes
   nonl-proj :       3485. kBytes
   fftplans  :       1930. kBytes
   grid      :       1806. kBytes
   one-center:         62. kBytes
   wavefun   :     342143. kBytes
 
[...]
    0.000000  126.804306  126.795449  126.796922   18.116276   16.094739   37.900585
    0.895476    1.893792    1.893758    1.893781   -0.266296   -0.236798   -0.556938
    1.790952    6.996971    6.996948    6.996977   -0.035274   -0.031736   -0.073949
    2.686428   11.365684   11.365623   11.365684   -0.011054   -0.009680   -0.022900
    3.581904    2.339291    2.338038    2.339219   -0.006161   -0.004871   -0.011188
    4.477380   13.174637   13.175123   13.174672   -0.003874   -0.003241   -0.008381
    5.372856    6.404658    6.404786    6.404699   -0.004108   -0.003763   -0.008749
    6.268332    7.846508    7.834470    7.839115    0.005813   -0.006908    0.013734
    7.163808    2.665223    2.664136    2.668109    0.017263    0.031798    0.050854
    8.059284    3.657845    3.657849    3.658361   -0.001319   -0.001388   -0.002603
    8.954760    0.864577    0.864213    0.864340   -0.000719   -0.001244   -0.001655
    9.850236    1.034762    1.034739    1.034762   -0.001662   -0.001827   -0.003703
   10.745712    0.925649    0.924962    0.924272    0.005142    0.004247    0.010193
   11.641188    0.455719    0.455513    0.455656    0.000460    0.000274    0.001083
   12.536665    0.526675    0.529134    0.527435    0.001076    0.002303    0.000867
   13.432141    0.614616    0.614631    0.614620    0.000285    0.000269    0.000592
   14.327617    0.673226    0.673254    0.673242    0.000228    0.000202    0.000429
   15.223093    0.520114    0.520379    0.520349    0.001817    0.003043    0.004820
   16.118569    1.379473    1.379627    1.379450    0.000475    0.000232    0.000728
   17.014045    0.532616    0.532645    0.532579    0.000303    0.000225    0.000568
   17.909521    0.842672    0.842543    0.842648    0.000224    0.000509    0.000892
   18.804997    0.835959    0.836195    0.836025    0.000117    0.000192    0.000092
   19.700473    0.174807    0.175104    0.174923    0.000146    0.000221    0.000185
   20.595949    0.264837    0.264922    0.264800    0.000198    0.000139    0.000263
   21.491425    0.225015    0.224322    0.224560    0.000840   -0.000058    0.001868
   22.386901    0.151874    0.151821    0.151870    0.000265    0.000253    0.000608
   23.282377    0.151129    0.151133    0.151139    0.000423    0.000392    0.000895
   24.177853    0.318049    0.318041    0.318048   -0.000063   -0.000056   -0.000121
   25.073329    0.277026    0.276993    0.277025   -0.000437   -0.000375   -0.000869
   25.968805    0.365932    0.365932    0.365949   -0.000365   -0.000369   -0.000778
   26.864281    0.443223    0.443261    0.443253   -0.000180   -0.000079   -0.000340
   27.759757    0.167172    0.166902    0.166995   -0.000013   -0.000252   -0.000026
   28.655233    0.097085    0.097090    0.097083    0.000097    0.000091    0.000200
   29.550709    0.193851    0.193861    0.193857    0.000029    0.000046    0.000070
   30.446185    0.230008    0.229880    0.230072   -0.000191   -0.000371   -0.000311
   31.341661    0.184167    0.184161    0.184165    0.000006    0.000025    0.000020
   32.237137    0.165349    0.165413    0.165401   -0.000071    0.000016   -0.000126
   33.132613    0.202969    0.202983    0.202980   -0.000028   -0.000025   -0.000038
   34.028089    0.195510    0.195483    0.195498    0.000024    0.000018    0.000068
   34.923565    0.159366    0.159348    0.159353   -0.000033   -0.000037   -0.000060
   35.819041    0.147398    0.147500    0.147320   -0.000310   -0.000461   -0.000990
   36.714518    0.237102    0.237179    0.237153   -0.000024    0.000051   -0.000062
   37.609994    0.201180    0.201236    0.201197   -0.000041   -0.000138   -0.000197
   38.505470    0.193676    0.193685    0.193681    0.000036    0.000035    0.000068
   39.400946    0.306747    0.306593    0.306742   -0.000069   -0.000110    0.000046
   40.296422    0.363516    0.363529    0.363520   -0.000005   -0.000018   -0.000020
   41.191898    0.285748    0.286013    0.285867    0.000017    0.000203   -0.000019
   42.087374    1.033001    1.033178    1.032963    0.000045    0.000006   -0.000103
   42.982850    0.369295    0.369306    0.369296   -0.000061   -0.000025   -0.000150
   43.878326    0.602465    0.602522    0.602449    0.000124    0.000130    0.000186
   44.773802    0.413401    0.413618    0.413577   -0.001020   -0.001199   -0.002535
   45.669278    0.320221    0.320211    0.320216   -0.000016   -0.000020   -0.000015
   46.564754    0.260167    0.260175    0.260169    0.000072    0.000092    0.000165
   47.460230    0.321684    0.321690    0.321690    0.000046    0.000061    0.000114
   48.355706    0.542210    0.542231    0.542226    0.000011    0.000010    0.000048
   49.251182    0.805029    0.805070    0.805012    0.000166    0.000112    0.000300
   50.146658    0.433276    0.433191    0.433257   -0.000454   -0.000707   -0.001103
   51.042134    0.438003    0.438005    0.438005   -0.000021   -0.000040   -0.000066
   51.937610    0.119597    0.119600    0.119602   -0.000043   -0.000060   -0.000100
   52.833086    0.180293    0.180285    0.180297   -0.000009   -0.000020   -0.000017
   53.728562    0.248607    0.248542    0.248549    0.000136    0.000261    0.000338
   54.624038    0.202602    0.202690    0.202693   -0.000051    0.000009   -0.000095
   55.519514    0.398268    0.398265    0.398271    0.000021    0.000009    0.000034
   56.414990    0.256178    0.256184    0.256115    0.000052   -0.000037    0.000006
   57.310466    0.124775    0.124795    0.124777    0.000020    0.000018    0.000018
   58.205942    0.132793    0.132788    0.132791   -0.000013   -0.000023   -0.000029
   59.101418    0.175625    0.175615    0.175626   -0.000012   -0.000029   -0.000017
   59.996894    0.152020    0.152030    0.152021    0.000001   -0.000055   -0.000020
   60.892371    0.108143    0.108147    0.108148   -0.000005   -0.000004   -0.000013
   61.787847    0.085241    0.085287    0.085278   -0.000017    0.000020   -0.000032
   62.683323    0.084219    0.084327    0.084247    0.000090    0.000142    0.000105
   63.578799    0.086452    0.086454    0.086454    0.000020    0.000037    0.000050
   64.474275    0.050568    0.050569    0.050566   -0.000002    0.000003   -0.000007
   65.369751    0.082518    0.082520    0.082521   -0.000009   -0.000004   -0.000017
   66.265227    0.090123    0.090120    0.090124    0.000014   -0.000000    0.000025
   67.160703    0.038183    0.038183    0.038184    0.000000   -0.000003   -0.000002
   68.056179    0.029545    0.029546    0.029545   -0.000002   -0.000002   -0.000006
   68.951655    0.014121    0.014118    0.014120   -0.000003   -0.000006   -0.000007
   69.847131    0.027851    0.027851    0.027851   -0.000017   -0.000020   -0.000039
   70.742607    0.015840    0.015859    0.015852    0.000008    0.000019    0.000014
   71.638083    0.027444    0.027447    0.027447    0.000008    0.000012    0.000015
   72.533559    0.015858    0.015857    0.015858    0.000002   -0.000000    0.000002
   73.429035    0.007054    0.007054    0.007054   -0.000001   -0.000001   -0.000002
   74.324511    0.001298    0.001298    0.001298   -0.000001   -0.000002   -0.000004
   75.219987    0.000548    0.000548    0.000548   -0.000001   -0.000002   -0.000004
   76.115463    0.000392    0.000392    0.000392   -0.000001   -0.000002   -0.000004
   77.010939    0.000314    0.000314    0.000314   -0.000001   -0.000002   -0.000003
   77.906415    0.000262    0.000262    0.000262   -0.000001   -0.000002   -0.000003
   78.801891    0.000224    0.000224    0.000224   -0.000001   -0.000002   -0.000003
   79.697367    0.000195    0.000195    0.000195   -0.000001   -0.000002   -0.000003
   80.592843    0.000172    0.000172    0.000172   -0.000001   -0.000002   -0.000003
   81.488319    0.000153    0.000153    0.000153   -0.000001   -0.000001   -0.000003
   82.383795    0.000136    0.000136    0.000136   -0.000001   -0.000001   -0.000003
   83.279271    0.000123    0.000123    0.000123   -0.000001   -0.000001   -0.000003
   84.174747    0.000111    0.000111    0.000111   -0.000001   -0.000001   -0.000002
   85.070224    0.000101    0.000101    0.000101   -0.000001   -0.000001   -0.000002
   85.965700    0.000092    0.000092    0.000092   -0.000001   -0.000001   -0.000002
   86.861176    0.000084    0.000084    0.000084   -0.000001   -0.000001   -0.000002
   87.756652    0.000077    0.000077    0.000077   -0.000001   -0.000001   -0.000002
   88.652128    0.000071    0.000071    0.000071   -0.000001   -0.000001   -0.000002

  frequency dependent      REAL DIELECTRIC FUNCTION (independent particle, no local field effects) current-current (2nd set in vasprun.xml)
     E(ev)        X           Y           Z          XY          YZ          ZX
  --------------------------------------------------------------------------------------------------------------
    0.000000   28.177051   28.175351   28.175669   -7.252790   -6.448790  -15.172382
    0.895476    2.945107    2.945386    2.945415    0.229932    0.204757    0.481023
    1.790952   -0.544434   -0.544496   -0.544388    0.062620    0.055498    0.130891
    2.686428    5.148633    5.148350    5.148635    0.027979    0.024986    0.058815
    3.581904    4.174323    4.172133    4.174204    0.015051    0.012983    0.033203
    4.477380    3.418521    3.417658    3.418475    0.008782    0.007956    0.019109
    5.372856    4.277796    4.278204    4.277900    0.007596    0.007306    0.015586
    6.268332   -0.868358   -0.881667   -0.877011   -0.001282   -0.023720   -0.000314
    7.163808   -1.980673   -1.979580   -1.983038    0.004977   -0.001192    0.002867
    8.059284   -0.267262   -0.266919   -0.267592    0.003908    0.003150    0.007211
    8.954760   -1.892959   -1.892476   -1.892676    0.002606    0.002656    0.005340
    9.850236   -0.296385   -0.296436   -0.296379    0.002504    0.002262    0.005321
   10.745712   -0.533720   -0.533636   -0.533128    0.004043    0.005560    0.010048
   11.641188    0.125936    0.125481    0.125752    0.001083    0.000301    0.002163
   12.536665    0.148924    0.148199    0.148702    0.001362    0.001024    0.003432
   13.432141    0.686850    0.686788    0.686830    0.001208    0.001058    0.002572
   14.327617    0.783885    0.783931    0.783911    0.001089    0.001024    0.002255
   15.223093    0.728288    0.728383    0.728324    0.002173    0.003042    0.005198
   16.118569    1.321612    1.321857    1.321531    0.001119    0.000979    0.002012
   17.014045    0.443039    0.442916    0.443022    0.000909    0.000853    0.002023
   17.909521    0.226751    0.226863    0.226743    0.000901    0.000915    0.001703
   18.804997    0.165177    0.164962    0.165108    0.000611    0.000434    0.001372
   19.700473    0.459510    0.459837    0.459629    0.000638    0.000771    0.001244
   20.595949    0.650069    0.649933    0.650091    0.000350    0.000300    0.000879
   21.491425    0.664320    0.665128    0.664832    0.000855    0.001608    0.002008
   22.386901    0.806737    0.806775    0.806722    0.000520    0.000486    0.001066
   23.282377    0.873460    0.873456    0.873472    0.000312    0.000293    0.000676
   24.177853    0.924685    0.924686    0.924691   -0.003460   -0.003056   -0.007218
   25.073329    0.862881    0.862839    0.862862    0.000259    0.000224    0.000564
   25.968805    0.696005    0.695980    0.695978    0.000212    0.000087    0.000369
   26.864281    0.762520    0.762554    0.762549    0.000102   -0.000032    0.000121
   27.759757    0.764158    0.764198    0.764204    0.001669    0.001635    0.003573
   28.655233    0.963743    0.963740    0.963747    0.000269    0.000251    0.000571
   29.550709    0.972221    0.972221    0.972224    0.000218    0.000193    0.000456
   30.446185    1.035174    1.035348    1.035120    0.000349    0.000094    0.000412
   31.341661    0.990825    0.990848    0.990840    0.000207    0.000214    0.000439
   32.237137    0.939376    0.939442    0.939433    0.000242    0.000278    0.000509
   33.132613    0.962826    0.962842    0.962841    0.000197    0.000186    0.000428
   34.028089    1.114289    1.114295    1.114295    0.000174    0.000178    0.000378
   34.923565    1.043163    1.043136    1.043143    0.000168    0.000122    0.000351
   35.819041    1.081962    1.081870    1.082083   -0.000378   -0.000350   -0.000669
   36.714518    1.165124    1.165108    1.165110    0.000091   -0.000024    0.000135
   37.609994    1.122850    1.122911    1.122869    0.000263    0.000342    0.000528
   38.505470    1.120311    1.120317    1.120323    0.000112    0.000112    0.000241
   39.400946    1.079976    1.079836    1.079974    0.000059    0.000047    0.000261
   40.296422    1.125975    1.125971    1.125987    0.000168    0.000176    0.000391
   41.191898    1.444363    1.444523    1.444524   -0.000128    0.000038   -0.000177
   42.087374    1.159933    1.160025    1.159983    0.000563    0.000592    0.001165
   42.982850    0.817487    0.817438    0.817444    0.000046    0.000016    0.000135
   43.878326    0.995716    0.995762    0.995702    0.000001   -0.000041   -0.000076
   44.773802    0.590160    0.589917    0.589961   -0.000677   -0.001378   -0.001809
   45.669278    0.914358    0.914363    0.914355    0.000053    0.000032    0.000095
   46.564754    0.897130    0.897142    0.897132    0.000050    0.000043    0.000093
   47.460230    0.981231    0.981239    0.981231    0.000105    0.000102    0.000213
   48.355706    1.054581    1.054749    1.054623    0.000182    0.000257    0.000265
   49.251182    0.658537    0.658488    0.658499    0.000558    0.000619    0.001242
   50.146658    0.608939    0.609023    0.608958   -0.000093   -0.000259   -0.000398
   51.042134    0.480277    0.480275    0.480274    0.000108    0.000092    0.000223
   51.937610    0.668291    0.668292    0.668290    0.000048    0.000029    0.000108
   52.833086    0.696295    0.696297    0.696299    0.000003   -0.000028    0.000012
   53.728562    0.622569    0.622499    0.622507   -0.000039   -0.000250   -0.000140
   54.624038    0.835980    0.836003    0.836005    0.000052    0.000085    0.000126
   55.519514    0.835435    0.835453    0.835465    0.000034    0.000071    0.000108
   56.414990    0.637616    0.637629    0.637648    0.000034    0.000003    0.000121
   57.310466    0.704144    0.704152    0.704141    0.000093    0.000085    0.000181
   58.205942    0.748872    0.748873    0.748870    0.000061    0.000053    0.000121
   59.101418    0.729319    0.729317    0.729320    0.000052    0.000048    0.000117
   59.996894    0.745007    0.745009    0.745016    0.000062    0.000114    0.000155
   60.892371    0.702903    0.702906    0.702906    0.000048    0.000037    0.000098
   61.787847    0.781712    0.781722    0.781724    0.000073    0.000108    0.000176
   62.683323    0.753696    0.753671    0.753689    0.000193    0.000270    0.000476
   63.578799    0.723325    0.723322    0.723322    0.000061    0.000055    0.000132
   64.474275    0.761949    0.761947    0.761948    0.000042    0.000037    0.000093
   65.369751    0.810760    0.810759    0.810761    0.000051    0.000044    0.000106
   66.265227    0.785295    0.785293    0.785296    0.000009    0.000020    0.000033
   67.160703    0.782880    0.782880    0.782880    0.000045    0.000039    0.000095
   68.056179    0.797841    0.797842    0.797842    0.000047    0.000043    0.000099
   68.951655    0.792491    0.792493    0.792492    0.000043    0.000040    0.000091
   69.847131    0.818669    0.818670    0.818670    0.000053    0.000050    0.000112
   70.742607    0.832075    0.832079    0.832078   -0.000015   -0.000009   -0.000022
   71.638083    0.840681    0.840684    0.840683    0.000026    0.000023    0.000058
   72.533559    0.817789    0.817790    0.817790    0.000045    0.000034    0.000086
   73.429035    0.831600    0.831600    0.831600    0.000039    0.000035    0.000083
   74.324511    0.847561    0.847561    0.847561    0.000038    0.000034    0.000080
   75.219987    0.855605    0.855605    0.855605    0.000037    0.000033    0.000078
   76.115463    0.863022    0.863022    0.863022    0.000037    0.000033    0.000077
   77.010939    0.869281    0.869281    0.869281    0.000036    0.000032    0.000075
   77.906415    0.874803    0.874803    0.874803    0.000035    0.000031    0.000073
   78.801891    0.879776    0.879776    0.879776    0.000034    0.000030    0.000071
   79.697367    0.884313    0.884313    0.884313    0.000033    0.000030    0.000070
   80.592843    0.888489    0.888489    0.888489    0.000033    0.000029    0.000068
   81.488319    0.892359    0.892359    0.892359    0.000032    0.000028    0.000067
   82.383795    0.895963    0.895964    0.895964    0.000031    0.000028    0.000065
   83.279271    0.899336    0.899336    0.899336    0.000031    0.000027    0.000064
   84.174747    0.902501    0.902501    0.902501    0.000030    0.000027    0.000063
   85.070224    0.905482    0.905482    0.905482    0.000029    0.000026    0.000061
   85.965700    0.908295    0.908295    0.908295    0.000029    0.000026    0.000060
   86.861176    0.910958    0.910958    0.910958    0.000028    0.000025    0.000059
   87.756652    0.913482    0.913482    0.913482    0.000028    0.000024    0.000058
   88.652128    0.915879    0.915880    0.915880    0.000027    0.000024    0.000056
 
 The outermost node in the dielectric function lies at epsilon=  11.6


--------------------------------------------------------------------------------------------------------


    OPTICS:  cpu time    0.7884: real time    0.8177
    4ORBIT:  cpu time    0.0000: real time    0.0000

 Spin-Orbit-Coupling matrix elements

 Ion:    1  E_soc:    -33.0180587
 l=   1
     0.0000000    -5.0847677    -5.0847674
    -5.0847677     0.0000000    -5.0847674
    -5.0847674    -5.0847674     0.0000000
 l=   2
     0.0000000    -0.0836554     0.0000000    -0.0836554    -0.3345753
    -0.0836554     0.0000000    -0.2509315    -0.0836670    -0.0836554
     0.0000000    -0.2509315     0.0000000    -0.2509315     0.0000000
    -0.0836554    -0.0836670    -0.2509315     0.0000000    -0.0836554
    -0.3345753    -0.0836554     0.0000000    -0.0836554     0.0000000
 l=   3
     0.0000000     0.0000000     0.0000000     0.0000000     0.0000000     0.0000000     0.0000000
     0.0000000     0.0000000     0.0000000     0.0000000     0.0000000     0.0000000     0.0000000
     0.0000000     0.0000000     0.0000000     0.0000000     0.0000000     0.0000000     0.0000000
     0.0000000     0.0000000     0.0000000     0.0000000     0.0000000     0.0000000     0.0000000
     0.0000000     0.0000000     0.0000000     0.0000000     0.0000000     0.0000000     0.0000000
     0.0000000     0.0000000     0.0000000     0.0000000     0.0000000     0.0000000     0.0000000
     0.0000000     0.0000000     0.0000000     0.0000000     0.0000000     0.0000000     0.0000000

 total amount of memory used by VASP MPI-rank0    59180. kBytes
=======================================================================

   base      :      30000. kBytes
   nonl-proj :       3485. kBytes
   fftplans  :       1930. kBytes
   grid      :       1806. kBytes
   one-center:         62. kBytes
   wavefun   :      21897. kBytes
 
  
  
 General timing and accounting informations for this job:
 ========================================================
  
                  Total CPU time used (sec):     1100.649
                            User time (sec):     1089.287
                          System time (sec):       11.362
                         Elapsed time (sec):     1101.205
  
                   Maximum memory used (kb):      442756.
                   Average memory used (kb):           0.
  
                          Minor page faults:       114342
                          Major page faults:            0
                 Voluntary context switches:         4050
