   1   1   0   0
  0.5764366E+02  0.4335996E-09  0.4335996E-09  0.4335996E-09  0.1000000E-15
  1.000000000000000E-004
  CAR 
 Og_FCC                                  
     11.72317370    -17.45721389  301     -3.62084677      1.00000000
    -17.457  0.0000E+00  0.0000E+00
    -17.360  0.0000E+00  0.0000E+00
    -17.263  0.0000E+00  0.0000E+00
    -17.165  0.0000E+00  0.0000E+00
    -17.068  0.0000E+00  0.0000E+00
    -16.971  0.0000E+00  0.0000E+00
    -16.874  0.0000E+00  0.0000E+00
    -16.776  0.0000E+00  0.0000E+00
    -16.679  0.0000E+00  0.0000E+00
    -16.582  0.0000E+00  0.0000E+00
    -16.485  0.0000E+00  0.0000E+00
    -16.387  0.0000E+00  0.0000E+00
    -16.290  0.0000E+00  0.0000E+00
    -16.193  0.0000E+00  0.0000E+00
    -16.095  0.0000E+00  0.5831E-02
    -15.998  0.9791E-04  0.1574E+00
    -15.901  0.1439E+01  0.8455E+00
    -15.804  0.0000E+00  0.2000E+01
    -15.706  0.0000E+00  0.2000E+01
    -15.609  0.0000E+00  0.2000E+01
    -15.512  0.0000E+00  0.2000E+01
    -15.415  0.0000E+00  0.2000E+01
    -15.317  0.0000E+00  0.2000E+01
    -15.220  0.0000E+00  0.2000E+01
    -15.123  0.0000E+00  0.2000E+01
    -15.026  0.0000E+00  0.2000E+01
    -14.928  0.0000E+00  0.2000E+01
    -14.831  0.0000E+00  0.2000E+01
    -14.734  0.0000E+00  0.2000E+01
    -14.636  0.0000E+00  0.2000E+01
    -14.539  0.0000E+00  0.2000E+01
    -14.442  0.0000E+00  0.2000E+01
    -14.345  0.0000E+00  0.2000E+01
    -14.247  0.0000E+00  0.2000E+01
    -14.150  0.0000E+00  0.2000E+01
    -14.053  0.0000E+00  0.2000E+01
    -13.956  0.0000E+00  0.2000E+01
    -13.858  0.0000E+00  0.2000E+01
    -13.761  0.0000E+00  0.2000E+01
    -13.664  0.0000E+00  0.2000E+01
    -13.566  0.0000E+00  0.2000E+01
    -13.469  0.0000E+00  0.2000E+01
    -13.372  0.0000E+00  0.2000E+01
    -13.275  0.0000E+00  0.2000E+01
    -13.177  0.0000E+00  0.2000E+01
    -13.080  0.0000E+00  0.2000E+01
    -12.983  0.0000E+00  0.2000E+01
    -12.886  0.0000E+00  0.2000E+01
    -12.788  0.0000E+00  0.2000E+01
    -12.691  0.0000E+00  0.2000E+01
    -12.594  0.0000E+00  0.2000E+01
    -12.497  0.0000E+00  0.2000E+01
    -12.399  0.0000E+00  0.2000E+01
    -12.302  0.0000E+00  0.2000E+01
    -12.205  0.0000E+00  0.2000E+01
    -12.107  0.0000E+00  0.2000E+01
    -12.010  0.0000E+00  0.2000E+01
    -11.913  0.0000E+00  0.2000E+01
    -11.816  0.0000E+00  0.2000E+01
    -11.718  0.0000E+00  0.2000E+01
    -11.621  0.0000E+00  0.2000E+01
    -11.524  0.0000E+00  0.2000E+01
    -11.427  0.0000E+00  0.2000E+01
    -11.329  0.0000E+00  0.2000E+01
    -11.232  0.0000E+00  0.2000E+01
    -11.135  0.0000E+00  0.2000E+01
    -11.038  0.0000E+00  0.2000E+01
    -10.940  0.0000E+00  0.2000E+01
    -10.843  0.0000E+00  0.2000E+01
    -10.746  0.0000E+00  0.2000E+01
    -10.648  0.0000E+00  0.2000E+01
    -10.551  0.0000E+00  0.2000E+01
    -10.454  0.0000E+00  0.2000E+01
    -10.357  0.0000E+00  0.2000E+01
    -10.259  0.0000E+00  0.2000E+01
    -10.162  0.0000E+00  0.2000E+01
    -10.065  0.0000E+00  0.2000E+01
     -9.968  0.0000E+00  0.2000E+01
     -9.870  0.0000E+00  0.2000E+01
     -9.773  0.0000E+00  0.2000E+01
     -9.676  0.0000E+00  0.2000E+01
     -9.579  0.0000E+00  0.2000E+01
     -9.481  0.0000E+00  0.2000E+01
     -9.384  0.0000E+00  0.2000E+01
     -9.287  0.0000E+00  0.2000E+01
     -9.189  0.0000E+00  0.2000E+01
     -9.092  0.0000E+00  0.2000E+01
     -8.995  0.0000E+00  0.2000E+01
     -8.898  0.0000E+00  0.2000E+01
     -8.800  0.0000E+00  0.2000E+01
     -8.703  0.0000E+00  0.2000E+01
     -8.606  0.0000E+00  0.2000E+01
     -8.509  0.0000E+00  0.2000E+01
     -8.411  0.0000E+00  0.2000E+01
     -8.314  0.0000E+00  0.2000E+01
     -8.217  0.0000E+00  0.2000E+01
     -8.119  0.0000E+00  0.2000E+01
     -8.022  0.0000E+00  0.2000E+01
     -7.925  0.0000E+00  0.2000E+01
     -7.828  0.0000E+00  0.2000E+01
     -7.730  0.0000E+00  0.2000E+01
     -7.633  0.0000E+00  0.2000E+01
     -7.536  0.0000E+00  0.2000E+01
     -7.439  0.0000E+00  0.2000E+01
     -7.341  0.0000E+00  0.2000E+01
     -7.244  0.0000E+00  0.2000E+01
     -7.147  0.0000E+00  0.2000E+01
     -7.050  0.0000E+00  0.2000E+01
     -6.952  0.0000E+00  0.2000E+01
     -6.855  0.0000E+00  0.2000E+01
     -6.758  0.0000E+00  0.2000E+01
     -6.660  0.0000E+00  0.2000E+01
     -6.563  0.0000E+00  0.2000E+01
     -6.466  0.0000E+00  0.2000E+01
     -6.369  0.0000E+00  0.2000E+01
     -6.271  0.0000E+00  0.2000E+01
     -6.174  0.0000E+00  0.2000E+01
     -6.077  0.0000E+00  0.2000E+01
     -5.980  0.0000E+00  0.2000E+01
     -5.882  0.0000E+00  0.2000E+01
     -5.785  0.0000E+00  0.2000E+01
     -5.688  0.0000E+00  0.2000E+01
     -5.591  0.0000E+00  0.2000E+01
     -5.493  0.0000E+00  0.2000E+01
     -5.396  0.0000E+00  0.2000E+01
     -5.299  0.0000E+00  0.2047E+01
     -5.201  0.0000E+00  0.2187E+01
     -5.104  0.0000E+00  0.2431E+01
     -5.007  0.0000E+00  0.3131E+01
     -4.910  0.0000E+00  0.3341E+01
     -4.812  0.4532E+00  0.3665E+01
     -4.715  0.0000E+00  0.3843E+01
     -4.618  0.3795E-08  0.3843E+01
     -4.521  0.0000E+00  0.4192E+01
     -4.423  0.0000E+00  0.4752E+01
     -4.326  0.0000E+00  0.4752E+01
     -4.229  0.7194E+00  0.5452E+01
     -4.132  0.2525E+01  0.5837E+01
     -4.034  0.0000E+00  0.6583E+01
     -3.937  0.7195E+00  0.7003E+01
     -3.840  0.0000E+00  0.7516E+01
     -3.742  0.0000E+00  0.7819E+01
     -3.645  0.0000E+00  0.8000E+01
     -3.548  0.0000E+00  0.8000E+01
     -3.451  0.0000E+00  0.8000E+01
     -3.353  0.0000E+00  0.8000E+01
     -3.256  0.0000E+00  0.8000E+01
     -3.159  0.0000E+00  0.8000E+01
     -3.062  0.0000E+00  0.8000E+01
     -2.964  0.0000E+00  0.8000E+01
     -2.867  0.0000E+00  0.8000E+01
     -2.770  0.0000E+00  0.8000E+01
     -2.672  0.0000E+00  0.8000E+01
     -2.575  0.0000E+00  0.8000E+01
     -2.478  0.0000E+00  0.8000E+01
     -2.381  0.0000E+00  0.8000E+01
     -2.283  0.0000E+00  0.8000E+01
     -2.186  0.0000E+00  0.8000E+01
     -2.089  0.0000E+00  0.8000E+01
     -1.992  0.0000E+00  0.8000E+01
     -1.894  0.0000E+00  0.8000E+01
     -1.797  0.0000E+00  0.8000E+01
     -1.700  0.0000E+00  0.8000E+01
     -1.603  0.0000E+00  0.8000E+01
     -1.505  0.0000E+00  0.8000E+01
     -1.408  0.0000E+00  0.8000E+01
     -1.311  0.0000E+00  0.8000E+01
     -1.213  0.0000E+00  0.8000E+01
     -1.116  0.0000E+00  0.8000E+01
     -1.019  0.0000E+00  0.8000E+01
     -0.922  0.0000E+00  0.8000E+01
     -0.824  0.0000E+00  0.8000E+01
     -0.727  0.0000E+00  0.8000E+01
     -0.630  0.0000E+00  0.8000E+01
     -0.533  0.0000E+00  0.8000E+01
     -0.435  0.0000E+00  0.8000E+01
     -0.338  0.0000E+00  0.8000E+01
     -0.241  0.0000E+00  0.8000E+01
     -0.144  0.0000E+00  0.8000E+01
     -0.046  0.0000E+00  0.8000E+01
      0.051  0.0000E+00  0.8000E+01
      0.148  0.0000E+00  0.8000E+01
      0.246  0.0000E+00  0.8000E+01
      0.343  0.0000E+00  0.8000E+01
      0.440  0.0000E+00  0.8000E+01
      0.537  0.0000E+00  0.8000E+01
      0.635  0.0000E+00  0.8000E+01
      0.732  0.0000E+00  0.8000E+01
      0.829  0.0000E+00  0.8000E+01
      0.926  0.0000E+00  0.8000E+01
      1.024  0.0000E+00  0.8000E+01
      1.121  0.0000E+00  0.8000E+01
      1.218  0.0000E+00  0.8000E+01
      1.316  0.0000E+00  0.8000E+01
      1.413  0.0000E+00  0.8000E+01
      1.510  0.0000E+00  0.8000E+01
      1.607  0.0000E+00  0.8000E+01
      1.705  0.0000E+00  0.8000E+01
      1.802  0.0000E+00  0.8000E+01
      1.899  0.0000E+00  0.8000E+01
      1.996  0.0000E+00  0.8000E+01
      2.094  0.0000E+00  0.8000E+01
      2.191  0.0000E+00  0.8000E+01
      2.288  0.0000E+00  0.8000E+01
      2.385  0.0000E+00  0.8000E+01
      2.483  0.0000E+00  0.8000E+01
      2.580  0.0000E+00  0.8006E+01
      2.677  0.0000E+00  0.8006E+01
      2.775  0.0000E+00  0.8006E+01
      2.872  0.0000E+00  0.8006E+01
      2.969  0.0000E+00  0.8006E+01
      3.066  0.0000E+00  0.8006E+01
      3.164  0.0000E+00  0.8052E+01
      3.261  0.0000E+00  0.8052E+01
      3.358  0.0000E+00  0.8087E+01
      3.455  0.0000E+00  0.8087E+01
      3.553  0.0000E+00  0.8087E+01
      3.650  0.0000E+00  0.8087E+01
      3.747  0.3859E-01  0.8091E+01
      3.844  0.0000E+00  0.8192E+01
      3.942  0.0000E+00  0.8309E+01
      4.039  0.0000E+00  0.8356E+01
      4.136  0.0000E+00  0.8496E+01
      4.234  0.0000E+00  0.8531E+01
      4.331  0.0000E+00  0.8671E+01
      4.428  0.0000E+00  0.8810E+01
      4.525  0.1096E-01  0.9091E+01
      4.623  0.0000E+00  0.9405E+01
      4.720  0.0000E+00  0.9405E+01
      4.817  0.5019E-05  0.9685E+01
      4.914  0.0000E+00  0.9755E+01
      5.012  0.0000E+00  0.9755E+01
      5.109  0.3372E+00  0.1021E+02
      5.206  0.0000E+00  0.1042E+02
      5.303  0.0000E+00  0.1042E+02
      5.401  0.0000E+00  0.1042E+02
      5.498  0.0000E+00  0.1070E+02
      5.595  0.0000E+00  0.1084E+02
      5.693  0.0000E+00  0.1098E+02
      5.790  0.8314E+00  0.1106E+02
      5.887  0.0000E+00  0.1133E+02
      5.984  0.0000E+00  0.1161E+02
      6.082  0.0000E+00  0.1161E+02
      6.179  0.0000E+00  0.1185E+02
      6.276  0.0000E+00  0.1199E+02
      6.373  0.0000E+00  0.1199E+02
      6.471  0.0000E+00  0.1225E+02
      6.568  0.0000E+00  0.1258E+02
      6.665  0.0000E+00  0.1258E+02
      6.763  0.2398E+01  0.1309E+02
      6.860  0.0000E+00  0.1309E+02
      6.957  0.0000E+00  0.1313E+02
      7.054  0.0000E+00  0.1349E+02
      7.152  0.0000E+00  0.1373E+02
      7.249  0.1327E+01  0.1409E+02
      7.346  0.0000E+00  0.1429E+02
      7.443  0.0000E+00  0.1443E+02
      7.541  0.0000E+00  0.1450E+02
      7.638  0.0000E+00  0.1457E+02
      7.735  0.0000E+00  0.1471E+02
      7.832  0.0000E+00  0.1492E+02
      7.930  0.0000E+00  0.1520E+02
      8.027  0.0000E+00  0.1520E+02
      8.124  0.0000E+00  0.1520E+02
      8.222  0.0000E+00  0.1534E+02
      8.319  0.0000E+00  0.1555E+02
      8.416  0.0000E+00  0.1555E+02
      8.513  0.0000E+00  0.1558E+02
      8.611  0.0000E+00  0.1558E+02
      8.708  0.0000E+00  0.1576E+02
      8.805  0.0000E+00  0.1576E+02
      8.902  0.0000E+00  0.1590E+02
      9.000  0.0000E+00  0.1590E+02
      9.097  0.0000E+00  0.1590E+02
      9.194  0.0000E+00  0.1590E+02
      9.291  0.0000E+00  0.1590E+02
      9.389  0.0000E+00  0.1590E+02
      9.486  0.0000E+00  0.1590E+02
      9.583  0.0000E+00  0.1590E+02
      9.681  0.0000E+00  0.1597E+02
      9.778  0.0000E+00  0.1597E+02
      9.875  0.0000E+00  0.1597E+02
      9.972  0.0000E+00  0.1597E+02
     10.070  0.0000E+00  0.1597E+02
     10.167  0.0000E+00  0.1597E+02
     10.264  0.0000E+00  0.1597E+02
     10.361  0.0000E+00  0.1597E+02
     10.459  0.0000E+00  0.1600E+02
     10.556  0.0000E+00  0.1600E+02
     10.653  0.0000E+00  0.1600E+02
     10.750  0.0000E+00  0.1600E+02
     10.848  0.0000E+00  0.1600E+02
     10.945  0.0000E+00  0.1600E+02
     11.042  0.0000E+00  0.1600E+02
     11.140  0.0000E+00  0.1600E+02
     11.237  0.0000E+00  0.1600E+02
     11.334  0.0000E+00  0.1600E+02
     11.431  0.0000E+00  0.1600E+02
     11.529  0.0000E+00  0.1600E+02
     11.626  0.0000E+00  0.1600E+02
     11.723  0.0000E+00  0.1600E+02
