    1    1    1    1
  0.5764366E+02  0.4335996E-09  0.4335996E-09  0.4335996E-09  0.1000000E-15
  1.000000000000000E-004
  CAR 
 Og_FCC                                  
      8    172      8
 
  0.0000000E+00  0.0000000E+00  0.0000000E+00  0.2915452E-02
    1      -16.130833   1.000000
    2       -3.678028   1.000000
    3       -3.678028   1.000000
    4       -3.678028   1.000000
    5        2.556834   0.000000
    6        7.024109   0.000000
    7        7.024109   0.000000
    8        7.024109   0.000000
 
  0.1428571E+00 -0.1256194E-16 -0.1387779E-16  0.5830904E-02
    1      -16.089064   1.000000
    2       -4.073631   1.000000
    3       -3.718688   1.000000
    4       -3.718688   1.000000
    5        3.106707   0.000000
    6        6.504309   0.000000
    7        7.211497   0.000000
    8        7.211497   0.000000
 
  0.2857143E+00 -0.2512387E-16 -0.4163336E-16  0.5830904E-02
    1      -15.990935   1.000000
    2       -4.813509   1.000000
    3       -3.806725   1.000000
    4       -3.806725   1.000000
    5        3.912207   0.000000
    6        6.430930   0.000000
    7        7.100949   0.000000
    8        7.100950   0.000000
 
  0.4285714E+00  0.3947555E-17 -0.5551115E-16  0.5830904E-02
    1      -15.908990   1.000000
    2       -5.316885   1.000000
    3       -3.874353   1.000000
    4       -3.874353   1.000000
    5        4.012534   0.000000
    6        6.759728   0.000000
    7        6.759729   0.000000
    8        7.279557   0.000000
 
  0.0000000E+00  0.1428571E+00  0.0000000E+00  0.5830904E-02
    1      -16.089064   1.000000
    2       -4.073631   1.000000
    3       -3.718688   1.000000
    4       -3.718688   1.000000
    5        3.106706   0.000000
    6        6.504309   0.000000
    7        7.211497   0.000000
    8        7.211498   0.000000
 
  0.1428571E+00  0.1428571E+00 -0.2775558E-16  0.5830904E-02
    1      -16.075097   1.000000
    2       -4.064572   1.000000
    3       -3.800866   1.000000
    4       -3.800866   1.000000
    5        3.297703   0.000000
    6        6.157916   0.000000
    7        7.454562   0.000000
    8        7.454562   0.000000
 
  0.2857143E+00  0.1428571E+00 -0.5551115E-16  0.5830904E-02
    1      -15.995497   1.000000
    2       -4.613715   1.000000
    3       -3.912165   1.000000
    4       -3.899228   1.000000
    5        4.102824   0.000000
    6        5.789689   0.000000
    7        6.754670   0.000000
    8        7.674175   0.000000
 
  0.4285714E+00  0.1428571E+00 -0.2775558E-16  0.5830904E-02
    1      -15.907301   1.000000
    2       -5.135550   1.000000
    3       -4.047493   1.000000
    4       -3.969527   1.000000
    5        4.443974   0.000000
    6        5.974274   0.000000
    7        6.729298   0.000000
    8        7.327578   0.000000
 
 -0.4285714E+00  0.1428571E+00  0.2775558E-16  0.5830904E-02
    1      -15.879282   1.000000
    2       -5.279485   1.000000
    3       -4.155400   1.000000
    4       -3.934269   1.000000
    5        4.502007   0.000000
    6        5.893353   0.000000
    7        7.090029   0.000000
    8        7.368096   0.000000
 
 -0.2857143E+00  0.1428571E+00  0.4163336E-16  0.5830904E-02
    1      -15.934609   1.000000
    2       -4.980452   1.000000
    3       -4.131993   1.000000
    4       -3.830524   1.000000
    5        4.527061   0.000000
    6        6.264095   0.000000
    7        6.431555   0.000000
    8        7.247843   0.000000
 
 -0.1428571E+00  0.1428571E+00 -0.8343592E-17  0.5830904E-02
    1      -16.027939   1.000000
    2       -4.448178   1.000000
    3       -3.944665   1.000000
    4       -3.732710   1.000000
    5        3.834131   0.000000
    6        6.088774   0.000000
    7        7.025344   0.000000
    8        7.571933   0.000000
 
  0.3851860E-33  0.2857143E+00  0.0000000E+00  0.5830904E-02
    1      -15.990935   1.000000
    2       -4.813509   1.000000
    3       -3.806725   1.000000
    4       -3.806725   1.000000
    5        3.912207   0.000000
    6        6.430930   0.000000
    7        7.100949   0.000000
    8        7.100950   0.000000
 
  0.1428571E+00  0.2857143E+00 -0.5551115E-16  0.5830904E-02
    1      -15.995497   1.000000
    2       -4.613715   1.000000
    3       -3.912165   1.000000
    4       -3.899228   1.000000
    5        4.102824   0.000000
    6        5.789690   0.000000
    7        6.754670   0.000000
    8        7.674175   0.000000
 
  0.2857143E+00  0.2857143E+00 -0.5551115E-16  0.5830904E-02
    1      -15.944680   1.000000
    2       -4.746196   1.000000
    3       -4.058631   1.000000
    4       -4.058631   1.000000
    5        4.218832   0.000000
    6        5.107867   0.000000
    7        6.944575   0.000000
    8        8.642879   0.000000
 
  0.4285714E+00  0.2857143E+00 -0.2775558E-16  0.5830904E-02
    1      -15.875395   1.000000
    2       -5.029368   1.000000
    3       -4.266688   1.000000
    4       -4.137428   1.000000
    5        4.277378   0.000000
    6        5.078283   0.000000
    7        7.043616   0.000000
    8        8.684258   0.000000
 
 -0.4285714E+00  0.2857143E+00  0.3469447E-16  0.5830904E-02
    1      -15.840216   1.000000
    2       -5.063448   1.000000
    3       -4.589505   1.000000
    4       -4.096540   1.000000
    5        4.536056   0.000000
    6        5.633721   0.000000
    7        7.037704   0.000000
    8        8.201690   0.000000
 
 -0.2857143E+00  0.2857143E+00  0.2411183E-16  0.5830904E-02
    1      -15.867154   1.000000
    2       -4.972268   1.000000
    3       -4.611528   1.000000
    4       -3.962660   1.000000
    5        5.117085   0.000000
    6        5.800497   0.000000
    7        6.413501   0.000000
    8        7.778118   0.000000
 
 -0.1428571E+00  0.2857143E+00 -0.1387779E-16  0.5830904E-02
    1      -15.934609   1.000000
    2       -4.980452   1.000000
    3       -4.131992   1.000000
    4       -3.830524   1.000000
    5        4.527061   0.000000
    6        6.264096   0.000000
    7        6.431556   0.000000
    8        7.247843   0.000000
 
 -0.7703720E-33  0.4285714E+00  0.0000000E+00  0.5830904E-02
    1      -15.908990   1.000000
    2       -5.316885   1.000000
    3       -3.874353   1.000000
    4       -3.874353   1.000000
    5        4.012534   0.000000
    6        6.759728   0.000000
    7        6.759729   0.000000
    8        7.279557   0.000000
 
  0.1428571E+00  0.4285714E+00 -0.2775558E-16  0.5830904E-02
    1      -15.907301   1.000000
    2       -5.135550   1.000000
    3       -4.047493   1.000000
    4       -3.969527   1.000000
    5        4.443974   0.000000
    6        5.974274   0.000000
    7        6.729298   0.000000
    8        7.327578   0.000000
 
  0.2857143E+00  0.4285714E+00 -0.2775558E-16  0.5830904E-02
    1      -15.875395   1.000000
    2       -5.029368   1.000000
    3       -4.266688   1.000000
    4       -4.137428   1.000000
    5        4.277378   0.000000
    6        5.078283   0.000000
    7        7.043616   0.000000
    8        8.684258   0.000000
 
  0.4285714E+00  0.4285714E+00  0.0000000E+00  0.5830904E-02
    1      -15.836298   1.000000
    2       -5.184957   1.000000
    3       -4.249920   1.000000
    4       -4.249920   1.000000
    5        3.748079   0.000000
    6        4.541808   0.000000
    7        8.462623   0.000000
    8       10.396792   0.000000
 
 -0.4285714E+00  0.4285714E+00  0.2030742E-16  0.5830904E-02
    1      -15.820621   1.000000
    2       -5.163676   1.000000
    3       -4.450388   1.000000
    4       -4.232670   1.000000
    5        3.916467   0.000000
    6        4.820221   0.000000
    7        8.243760   0.000000
    8        9.668539   0.000000
 
 -0.2857143E+00  0.4285714E+00  0.6245005E-16  0.5830904E-02
    1      -15.840216   1.000000
    2       -5.063447   1.000000
    3       -4.589505   1.000000
    4       -4.096540   1.000000
    5        4.536056   0.000000
    6        5.633721   0.000000
    7        7.037704   0.000000
    8        8.201690   0.000000
 
 -0.1428571E+00  0.4285714E+00 -0.1387779E-16  0.5830904E-02
    1      -15.879282   1.000000
    2       -5.279485   1.000000
    3       -4.155400   1.000000
    4       -3.934269   1.000000
    5        4.502006   0.000000
    6        5.893353   0.000000
    7        7.090029   0.000000
    8        7.368097   0.000000
 
  0.0000000E+00  0.7703720E-33  0.1428571E+00  0.5830904E-02
    1      -16.089064   1.000000
    2       -4.073631   1.000000
    3       -3.718688   1.000000
    4       -3.718688   1.000000
    5        3.106707   0.000000
    6        6.504309   0.000000
    7        7.211497   0.000000
    8        7.211497   0.000000
 
  0.1428571E+00 -0.1650949E-16  0.1428571E+00  0.5830904E-02
    1      -16.075097   1.000000
    2       -4.064572   1.000000
    3       -3.800866   1.000000
    4       -3.800865   1.000000
    5        3.297703   0.000000
    6        6.157915   0.000000
    7        7.454562   0.000000
    8        7.454562   0.000000
 
  0.2857143E+00 -0.2907143E-16  0.1428571E+00  0.5830904E-02
    1      -15.995497   1.000000
    2       -4.613715   1.000000
    3       -3.912165   1.000000
    4       -3.899228   1.000000
    5        4.102824   0.000000
    6        5.789689   0.000000
    7        6.754670   0.000000
    8        7.674175   0.000000
 
  0.4285714E+00  0.5430624E-32  0.1428571E+00  0.5830904E-02
    1      -15.907301   1.000000
    2       -5.135550   1.000000
    3       -4.047493   1.000000
    4       -3.969527   1.000000
    5        4.443974   0.000000
    6        5.974274   0.000000
    7        6.729297   0.000000
    8        7.327578   0.000000
 
 -0.4285714E+00 -0.7895111E-17  0.1428571E+00  0.5830904E-02
    1      -15.879282   1.000000
    2       -5.279485   1.000000
    3       -4.155400   1.000000
    4       -3.934269   1.000000
    5        4.502007   0.000000
    6        5.893353   0.000000
    7        7.090029   0.000000
    8        7.368096   0.000000
 
 -0.2857143E+00  0.2117632E-16  0.1428571E+00  0.5830904E-02
    1      -15.934609   1.000000
    2       -4.980452   1.000000
    3       -4.131993   1.000000
    4       -3.830524   1.000000
    5        4.527061   0.000000
    6        6.264096   0.000000
    7        6.431556   0.000000
    8        7.247843   0.000000
 
 -0.1428571E+00 -0.1914119E-16  0.1428571E+00  0.5830904E-02
    1      -16.027939   1.000000
    2       -4.448178   1.000000
    3       -3.944665   1.000000
    4       -3.732710   1.000000
    5        3.834132   0.000000
    6        6.088774   0.000000
    7        7.025344   0.000000
    8        7.571933   0.000000
 
  0.0000000E+00  0.1428571E+00  0.1428571E+00  0.5830904E-02
    1      -16.075097   1.000000
    2       -4.064572   1.000000
    3       -3.800866   1.000000
    4       -3.800866   1.000000
    5        3.297703   0.000000
    6        6.157916   0.000000
    7        7.454562   0.000000
    8        7.454562   0.000000
 
  0.1428571E+00  0.1428571E+00  0.1428571E+00  0.5830904E-02
    1      -16.089064   1.000000
    2       -4.073631   1.000000
    3       -3.718688   1.000000
    4       -3.718688   1.000000
    5        3.106706   0.000000
    6        6.504309   0.000000
    7        7.211497   0.000000
    8        7.211497   0.000000
 
  0.2857143E+00  0.1428571E+00  0.1428571E+00  0.5830904E-02
    1      -16.027939   1.000000
    2       -4.448178   1.000000
    3       -3.944665   1.000000
    4       -3.732710   1.000000
    5        3.834131   0.000000
    6        6.088774   0.000000
    7        7.025344   0.000000
    8        7.571933   0.000000
 
  0.4285714E+00  0.1428571E+00  0.1428571E+00  0.5830904E-02
    1      -15.934609   1.000000
    2       -4.980452   1.000000
    3       -4.131993   1.000000
    4       -3.830524   1.000000
    5        4.527061   0.000000
    6        6.264095   0.000000
    7        6.431555   0.000000
    8        7.247843   0.000000
 
 -0.4285714E+00  0.1428571E+00  0.1428571E+00  0.5830904E-02
    1      -15.879282   1.000000
    2       -5.279485   1.000000
    3       -4.155400   1.000000
    4       -3.934269   1.000000
    5        4.502007   0.000000
    6        5.893353   0.000000
    7        7.090029   0.000000
    8        7.368096   0.000000
 
 -0.2857143E+00  0.1428571E+00  0.1428571E+00  0.5830904E-02
    1      -15.907301   1.000000
    2       -5.135550   1.000000
    3       -4.047493   1.000000
    4       -3.969527   1.000000
    5        4.443974   0.000000
    6        5.974274   0.000000
    7        6.729298   0.000000
    8        7.327578   0.000000
 
 -0.1428571E+00  0.1428571E+00  0.1428571E+00  0.5830904E-02
    1      -15.995497   1.000000
    2       -4.613715   1.000000
    3       -3.912165   1.000000
    4       -3.899228   1.000000
    5        4.102824   0.000000
    6        5.789689   0.000000
    7        6.754670   0.000000
    8        7.674175   0.000000
 
  0.3851860E-33  0.2857143E+00  0.1428571E+00  0.5830904E-02
    1      -15.995497   1.000000
    2       -4.613715   1.000000
    3       -3.912165   1.000000
    4       -3.899228   1.000000
    5        4.102824   0.000000
    6        5.789690   0.000000
    7        6.754670   0.000000
    8        7.674175   0.000000
 
  0.1428571E+00  0.2857143E+00  0.1428571E+00  0.5830904E-02
    1      -16.027939   1.000000
    2       -4.448178   1.000000
    3       -3.944665   1.000000
    4       -3.732710   1.000000
    5        3.834131   0.000000
    6        6.088774   0.000000
    7        7.025344   0.000000
    8        7.571934   0.000000
 
  0.2857143E+00  0.2857143E+00  0.1428571E+00  0.5830904E-02
    1      -15.995497   1.000000
    2       -4.613715   1.000000
    3       -3.912165   1.000000
    4       -3.899228   1.000000
    5        4.102824   0.000000
    6        5.789690   0.000000
    7        6.754670   0.000000
    8        7.674174   0.000000
 
  0.4285714E+00  0.2857143E+00  0.1428571E+00  0.5830904E-02
    1      -15.920522   1.000000
    2       -4.885941   1.000000
    3       -4.242273   1.000000
    4       -3.958137   1.000000
    5        4.778923   0.000000
    6        5.572156   0.000000
    7        6.127785   0.000000
    8        8.227621   0.000000
 
 -0.4285714E+00  0.2857143E+00  0.1428571E+00  0.5830904E-02
    1      -15.858731   1.000000
    2       -5.080805   1.000000
    3       -4.455453   1.000000
    4       -4.068166   1.000000
    5        5.098987   0.000000
    6        5.429782   0.000000
    7        6.515266   0.000000
    8        7.911354   0.000000
 
 -0.2857143E+00  0.2857143E+00  0.1428571E+00  0.5830904E-02
    1      -15.858731   1.000000
    2       -5.080805   1.000000
    3       -4.455453   1.000000
    4       -4.068166   1.000000
    5        5.098987   0.000000
    6        5.429782   0.000000
    7        6.515266   0.000000
    8        7.911354   0.000000
 
 -0.1428571E+00  0.2857143E+00  0.1428571E+00  0.5830904E-02
    1      -15.920522   1.000000
    2       -4.885941   1.000000
    3       -4.242273   1.000000
    4       -3.958137   1.000000
    5        4.778923   0.000000
    6        5.572156   0.000000
    7        6.127786   0.000000
    8        8.227621   0.000000
 
 -0.4164444E-33  0.4285714E+00  0.1428571E+00  0.5830904E-02
    1      -15.907301   1.000000
    2       -5.135550   1.000000
    3       -4.047493   1.000000
    4       -3.969527   1.000000
    5        4.443974   0.000000
    6        5.974274   0.000000
    7        6.729298   0.000000
    8        7.327578   0.000000
 
  0.1428571E+00  0.4285714E+00  0.1428571E+00  0.5830904E-02
    1      -15.934609   1.000000
    2       -4.980452   1.000000
    3       -4.131993   1.000000
    4       -3.830524   1.000000
    5        4.527061   0.000000
    6        6.264095   0.000000
    7        6.431555   0.000000
    8        7.247843   0.000000
 
  0.2857143E+00  0.4285714E+00  0.1428571E+00  0.5830904E-02
    1      -15.920522   1.000000
    2       -4.885941   1.000000
    3       -4.242273   1.000000
    4       -3.958137   1.000000
    5        4.778923   0.000000
    6        5.572156   0.000000
    7        6.127785   0.000000
    8        8.227621   0.000000
 
  0.4285714E+00  0.4285714E+00  0.1428571E+00  0.5830904E-02
    1      -15.875395   1.000000
    2       -5.029368   1.000000
    3       -4.266688   1.000000
    4       -4.137428   1.000000
    5        4.277378   0.000000
    6        5.078283   0.000000
    7        7.043616   0.000000
    8        8.684258   0.000000
 
 -0.4285714E+00  0.4285714E+00  0.1428571E+00  0.5830904E-02
    1      -15.832541   1.000000
    2       -5.072079   1.000000
    3       -4.459953   1.000000
    4       -4.266623   1.000000
    5        4.339436   0.000000
    6        5.168131   0.000000
    7        7.180393   0.000000
    8        8.828050   0.000000
 
 -0.2857143E+00  0.4285714E+00  0.1428571E+00  0.5830904E-02
    1      -15.825182   1.000000
    2       -4.874184   1.000000
    3       -4.787957   1.000000
    4       -4.239526   1.000000
    5        4.747582   0.000000
    6        5.822096   0.000000
    7        6.711173   0.000000
    8        7.796761   0.000000
 
 -0.1428571E+00  0.4285714E+00  0.1428571E+00  0.5830904E-02
    1      -15.858731   1.000000
    2       -5.080805   1.000000
    3       -4.455453   1.000000
    4       -4.068166   1.000000
    5        5.098987   0.000000
    6        5.429782   0.000000
    7        6.515266   0.000000
    8        7.911354   0.000000
 
  0.3081488E-32 -0.4285714E+00  0.1428571E+00  0.5830904E-02
    1      -15.879282   1.000000
    2       -5.279485   1.000000
    3       -4.155400   1.000000
    4       -3.934269   1.000000
    5        4.502006   0.000000
    6        5.893353   0.000000
    7        7.090029   0.000000
    8        7.368097   0.000000
 
  0.1428571E+00 -0.4285714E+00  0.1428571E+00  0.5830904E-02
    1      -15.879282   1.000000
    2       -5.279485   1.000000
    3       -4.155400   1.000000
    4       -3.934269   1.000000
    5        4.502006   0.000000
    6        5.893353   0.000000
    7        7.090029   0.000000
    8        7.368097   0.000000
 
  0.2857143E+00 -0.4285714E+00  0.1428571E+00  0.5830904E-02
    1      -15.858731   1.000000
    2       -5.080805   1.000000
    3       -4.455453   1.000000
    4       -4.068166   1.000000
    5        5.098987   0.000000
    6        5.429781   0.000000
    7        6.515265   0.000000
    8        7.911354   0.000000
 
  0.4285714E+00 -0.4285714E+00  0.1428571E+00  0.5830904E-02
    1      -15.832541   1.000000
    2       -5.072079   1.000000
    3       -4.459953   1.000000
    4       -4.266623   1.000000
    5        4.339436   0.000000
    6        5.168131   0.000000
    7        7.180392   0.000000
    8        8.828050   0.000000
 
 -0.4285714E+00 -0.4285714E+00  0.1428571E+00  0.5830904E-02
    1      -15.820621   1.000000
    2       -5.163676   1.000000
    3       -4.450388   1.000000
    4       -4.232670   1.000000
    5        3.916467   0.000000
    6        4.820221   0.000000
    7        8.243760   0.000000
    8        9.668539   0.000000
 
 -0.2857143E+00 -0.4285714E+00  0.1428571E+00  0.5830904E-02
    1      -15.832541   1.000000
    2       -5.072079   1.000000
    3       -4.459953   1.000000
    4       -4.266623   1.000000
    5        4.339436   0.000000
    6        5.168131   0.000000
    7        7.180393   0.000000
    8        8.828050   0.000000
 
 -0.1428571E+00 -0.4285714E+00  0.1428571E+00  0.5830904E-02
    1      -15.858731   1.000000
    2       -5.080805   1.000000
    3       -4.455453   1.000000
    4       -4.068166   1.000000
    5        5.098987   0.000000
    6        5.429782   0.000000
    7        6.515266   0.000000
    8        7.911354   0.000000
 
  0.7703720E-33 -0.2857143E+00  0.1428571E+00  0.5830904E-02
    1      -15.934609   1.000000
    2       -4.980452   1.000000
    3       -4.131992   1.000000
    4       -3.830524   1.000000
    5        4.527061   0.000000
    6        6.264096   0.000000
    7        6.431556   0.000000
    8        7.247843   0.000000
 
  0.1428571E+00 -0.2857143E+00  0.1428571E+00  0.5830904E-02
    1      -15.907301   1.000000
    2       -5.135550   1.000000
    3       -4.047493   1.000000
    4       -3.969527   1.000000
    5        4.443973   0.000000
    6        5.974274   0.000000
    7        6.729298   0.000000
    8        7.327578   0.000000
 
  0.2857143E+00 -0.2857143E+00  0.1428571E+00  0.5830904E-02
    1      -15.858731   1.000000
    2       -5.080805   1.000000
    3       -4.455453   1.000000
    4       -4.068166   1.000000
    5        5.098986   0.000000
    6        5.429782   0.000000
    7        6.515266   0.000000
    8        7.911354   0.000000
 
  0.4285714E+00 -0.2857143E+00  0.1428571E+00  0.5830904E-02
    1      -15.825182   1.000000
    2       -4.874184   1.000000
    3       -4.787957   1.000000
    4       -4.239526   1.000000
    5        4.747582   0.000000
    6        5.822096   0.000000
    7        6.711173   0.000000
    8        7.796760   0.000000
 
 -0.4285714E+00 -0.2857143E+00  0.1428571E+00  0.5830904E-02
    1      -15.832541   1.000000
    2       -5.072079   1.000000
    3       -4.459953   1.000000
    4       -4.266623   1.000000
    5        4.339436   0.000000
    6        5.168131   0.000000
    7        7.180393   0.000000
    8        8.828050   0.000000
 
 -0.2857143E+00 -0.2857143E+00  0.1428571E+00  0.5830904E-02
    1      -15.875395   1.000000
    2       -5.029368   1.000000
    3       -4.266688   1.000000
    4       -4.137428   1.000000
    5        4.277378   0.000000
    6        5.078283   0.000000
    7        7.043616   0.000000
    8        8.684258   0.000000
 
 -0.1428571E+00 -0.2857143E+00  0.1428571E+00  0.5830904E-02
    1      -15.920522   1.000000
    2       -4.885941   1.000000
    3       -4.242273   1.000000
    4       -3.958137   1.000000
    5        4.778923   0.000000
    6        5.572156   0.000000
    7        6.127786   0.000000
    8        8.227621   0.000000
 
  0.7703720E-33 -0.1428571E+00  0.1428571E+00  0.5830904E-02
    1      -16.027939   1.000000
    2       -4.448178   1.000000
    3       -3.944665   1.000000
    4       -3.732710   1.000000
    5        3.834131   0.000000
    6        6.088774   0.000000
    7        7.025344   0.000000
    8        7.571933   0.000000
 
  0.1428571E+00 -0.1428571E+00  0.1428571E+00  0.5830904E-02
    1      -15.995497   1.000000
    2       -4.613715   1.000000
    3       -3.912165   1.000000
    4       -3.899228   1.000000
    5        4.102824   0.000000
    6        5.789689   0.000000
    7        6.754670   0.000000
    8        7.674175   0.000000
 
  0.2857143E+00 -0.1428571E+00  0.1428571E+00  0.5830904E-02
    1      -15.920522   1.000000
    2       -4.885941   1.000000
    3       -4.242273   1.000000
    4       -3.958137   1.000000
    5        4.778923   0.000000
    6        5.572156   0.000000
    7        6.127786   0.000000
    8        8.227621   0.000000
 
  0.4285714E+00 -0.1428571E+00  0.1428571E+00  0.5830904E-02
    1      -15.858731   1.000000
    2       -5.080805   1.000000
    3       -4.455453   1.000000
    4       -4.068166   1.000000
    5        5.098987   0.000000
    6        5.429782   0.000000
    7        6.515265   0.000000
    8        7.911354   0.000000
 
 -0.4285714E+00 -0.1428571E+00  0.1428571E+00  0.5830904E-02
    1      -15.858731   1.000000
    2       -5.080805   1.000000
    3       -4.455453   1.000000
    4       -4.068166   1.000000
    5        5.098987   0.000000
    6        5.429782   0.000000
    7        6.515266   0.000000
    8        7.911354   0.000000
 
 -0.2857143E+00 -0.1428571E+00  0.1428571E+00  0.5830904E-02
    1      -15.920522   1.000000
    2       -4.885941   1.000000
    3       -4.242273   1.000000
    4       -3.958137   1.000000
    5        4.778923   0.000000
    6        5.572156   0.000000
    7        6.127786   0.000000
    8        8.227621   0.000000
 
 -0.1428571E+00 -0.1428571E+00  0.1428571E+00  0.5830904E-02
    1      -15.995497   1.000000
    2       -4.613715   1.000000
    3       -3.912165   1.000000
    4       -3.899228   1.000000
    5        4.102824   0.000000
    6        5.789689   0.000000
    7        6.754670   0.000000
    8        7.674175   0.000000
 
  0.0000000E+00  0.0000000E+00  0.2857143E+00  0.5830904E-02
    1      -15.990935   1.000000
    2       -4.813509   1.000000
    3       -3.806725   1.000000
    4       -3.806725   1.000000
    5        3.912207   0.000000
    6        6.430930   0.000000
    7        7.100949   0.000000
    8        7.100950   0.000000
 
  0.1428571E+00 -0.6579259E-17  0.2857143E+00  0.5830904E-02
    1      -15.995497   1.000000
    2       -4.613715   1.000000
    3       -3.912165   1.000000
    4       -3.899228   1.000000
    5        4.102824   0.000000
    6        5.789689   0.000000
    7        6.754670   0.000000
    8        7.674175   0.000000
 
  0.2857143E+00 -0.3301898E-16  0.2857143E+00  0.5830904E-02
    1      -15.944680   1.000000
    2       -4.746196   1.000000
    3       -4.058631   1.000000
    4       -4.058631   1.000000
    5        4.218832   0.000000
    6        5.107867   0.000000
    7        6.944575   0.000000
    8        8.642879   0.000000
 
  0.4285714E+00 -0.3947555E-17  0.2857143E+00  0.5830904E-02
    1      -15.875395   1.000000
    2       -5.029368   1.000000
    3       -4.266688   1.000000
    4       -4.137428   1.000000
    5        4.277378   0.000000
    6        5.078283   0.000000
    7        7.043616   0.000000
    8        8.684258   0.000000
 
 -0.4285714E+00 -0.1184267E-16  0.2857143E+00  0.5830904E-02
    1      -15.840216   1.000000
    2       -5.063448   1.000000
    3       -4.589505   1.000000
    4       -4.096540   1.000000
    5        4.536056   0.000000
    6        5.633721   0.000000
    7        7.037704   0.000000
    8        8.201690   0.000000
 
 -0.2857143E+00  0.1722876E-16  0.2857143E+00  0.5830904E-02
    1      -15.867154   1.000000
    2       -4.972268   1.000000
    3       -4.611528   1.000000
    4       -3.962660   1.000000
    5        5.117085   0.000000
    6        5.800497   0.000000
    7        6.413501   0.000000
    8        7.778118   0.000000
 
 -0.1428571E+00  0.1854461E-16  0.2857143E+00  0.5830904E-02
    1      -15.934609   1.000000
    2       -4.980452   1.000000
    3       -4.131993   1.000000
    4       -3.830524   1.000000
    5        4.527061   0.000000
    6        6.264096   0.000000
    7        6.431556   0.000000
    8        7.247843   0.000000
 
 -0.1540744E-32  0.1428571E+00  0.2857143E+00  0.5830904E-02
    1      -15.995497   1.000000
    2       -4.613715   1.000000
    3       -3.912165   1.000000
    4       -3.899228   1.000000
    5        4.102824   0.000000
    6        5.789689   0.000000
    7        6.754670   0.000000
    8        7.674175   0.000000
 
  0.1428571E+00  0.1428571E+00  0.2857143E+00  0.5830904E-02
    1      -16.027939   1.000000
    2       -4.448178   1.000000
    3       -3.944665   1.000000
    4       -3.732710   1.000000
    5        3.834131   0.000000
    6        6.088774   0.000000
    7        7.025344   0.000000
    8        7.571933   0.000000
 
  0.2857143E+00  0.1428571E+00  0.2857143E+00  0.5830904E-02
    1      -15.995497   1.000000
    2       -4.613715   1.000000
    3       -3.912165   1.000000
    4       -3.899228   1.000000
    5        4.102824   0.000000
    6        5.789689   0.000000
    7        6.754670   0.000000
    8        7.674175   0.000000
 
  0.4285714E+00  0.1428571E+00  0.2857143E+00  0.5830904E-02
    1      -15.920522   1.000000
    2       -4.885941   1.000000
    3       -4.242273   1.000000
    4       -3.958137   1.000000
    5        4.778923   0.000000
    6        5.572156   0.000000
    7        6.127786   0.000000
    8        8.227621   0.000000
 
 -0.4285714E+00  0.1428571E+00  0.2857143E+00  0.5830904E-02
    1      -15.858731   1.000000
    2       -5.080805   1.000000
    3       -4.455453   1.000000
    4       -4.068166   1.000000
    5        5.098987   0.000000
    6        5.429782   0.000000
    7        6.515265   0.000000
    8        7.911354   0.000000
 
 -0.2857143E+00  0.1428571E+00  0.2857143E+00  0.5830904E-02
    1      -15.858731   1.000000
    2       -5.080805   1.000000
    3       -4.455453   1.000000
    4       -4.068166   1.000000
    5        5.098987   0.000000
    6        5.429782   0.000000
    7        6.515266   0.000000
    8        7.911354   0.000000
 
 -0.1428571E+00  0.1428571E+00  0.2857143E+00  0.5830904E-02
    1      -15.920522   1.000000
    2       -4.885941   1.000000
    3       -4.242273   1.000000
    4       -3.958137   1.000000
    5        4.778923   0.000000
    6        5.572156   0.000000
    7        6.127786   0.000000
    8        8.227621   0.000000
 
  0.1540744E-32  0.2857143E+00  0.2857143E+00  0.5830904E-02
    1      -15.944680   1.000000
    2       -4.746196   1.000000
    3       -4.058631   1.000000
    4       -4.058631   1.000000
    5        4.218832   0.000000
    6        5.107867   0.000000
    7        6.944575   0.000000
    8        8.642879   0.000000
 
  0.1428571E+00  0.2857143E+00  0.2857143E+00  0.5830904E-02
    1      -15.995497   1.000000
    2       -4.613715   1.000000
    3       -3.912165   1.000000
    4       -3.899228   1.000000
    5        4.102824   0.000000
    6        5.789690   0.000000
    7        6.754670   0.000000
    8        7.674174   0.000000
 
  0.2857143E+00  0.2857143E+00  0.2857143E+00  0.5830904E-02
    1      -15.990935   1.000000
    2       -4.813509   1.000000
    3       -3.806725   1.000000
    4       -3.806725   1.000000
    5        3.912207   0.000000
    6        6.430930   0.000000
    7        7.100949   0.000000
    8        7.100950   0.000000
 