 vasp.5.4.4.18Apr17-6-g9f103f2a35 (build Nov 03 2018 10:20:46) complex          
  
 executed on             LinuxIFC date 2018.12.14  05:48:30
 running on   56 total cores
 distrk:  each k-point on   28 cores,    2 groups
 distr:  one band on NCORES_PER_BAND=   7 cores,    4 groups


--------------------------------------------------------------------------------------------------------


 INCAR:
 POTCAR:    PAW_PBE Xe_GW 08Jan2009               

 ----------------------------------------------------------------------------- 
|                                                                             |
|           W    W    AA    RRRRR   N    N  II  N    N   GGGG   !!!           |
|           W    W   A  A   R    R  NN   N  II  NN   N  G    G  !!!           |
|           W    W  A    A  R    R  N N  N  II  N N  N  G       !!!           |
|           W WW W  AAAAAA  RRRRR   N  N N  II  N  N N  G  GGG   !            |
|           WW  WW  A    A  R   R   N   NN  II  N   NN  G    G                |
|           W    W  A    A  R    R  N    N  II  N    N   GGGG   !!!           |
|                                                                             |
|      You have enabled k-point parallelism (KPAR>1).                         |
|      This developmental code was originally  written by Paul Kent at ORNL,  |
|      and carefully double checked in Vienna.                                |
|      GW as well as linear response parallelism added by Martijn Marsman     |
|      and Georg Kresse.                                                      |
|      Carefully verify results versus KPAR=1.                                |
|      Report problems to Paul Kent and Vienna.                               |
|                                                                             |
 ----------------------------------------------------------------------------- 

 POTCAR:    PAW_PBE Xe_GW 08Jan2009               
   VRHFIN =Xe: s2p6                                                             
   LEXCH  = PE                                                                  
   EATOM  =   429.5160 eV,   31.5685 Ry                                         
                                                                                
   TITEL  = PAW_PBE Xe_GW 08Jan2009                                             
   LULTRA =        F    use ultrasoft PP ?                                      
   IUNSCR =        1    unscreen: 0-lin 1-nonlin 2-no                           
   RPACOR =    1.800    partial core radius                                     
   POMASS =  131.294; ZVAL   =    8.000    mass and valenz                      
   RCORE  =    2.500    outmost cutoff radius                                   
   RWIGS  =    2.500; RWIGS  =    1.323    wigner-seitz radius (au A)           
   ENMAX  =  179.547; ENMIN  =  134.660 eV                                      
   RCLOC  =    2.013    cutoff for local pot                                    
   LCOR   =        T    correct aug charges                                     
   LPAW   =        T    paw PP                                                  
   EAUG   =  605.900                                                            
   DEXC   =    0.000                                                            
   RMAX   =    2.564    core radius for proj-oper                               
   RAUG   =    1.300    factor for augmentation sphere                          
   RDEP   =    2.580    radius for radial grids                                 
   RDEPT  =    2.108    core radius for aug-charge                              
                                                                                
   Atomic configuration                                                         
   13 entries                                                                   
     n  l   j            E        occ.                                          
     1  0  0.50    -34364.0918   2.0000                                         
     2  0  0.50     -5347.7047   2.0000                                         
     2  1  1.50     -4797.8080   6.0000                                         
     3  0  0.50     -1093.8565   2.0000                                         
     3  1  1.50      -916.3531   6.0000                                         
     3  2  2.50      -653.3728  10.0000                                         
     4  0  0.50      -197.4109   2.0000                                         
     4  1  1.50      -141.2234   6.0000                                         
     4  2  2.50       -59.3742  10.0000                                         
     5  0  0.50       -19.7401   2.0000                                         
     5  1  0.50        -8.2334   6.0000                                         
     5  2  1.50        -6.8029   0.0000                                         
     4  3  2.50        -6.8029   0.0000                                         
   Description                                                                  
     l       E           TYP  RCUT    TYP  RCUT                                 
     0    -19.7400602     23  1.800                                             
     0    -13.6058260     23  1.800                                             
     1     -8.2333784     23  2.300                                             
     1      2.7211652     23  2.300                                             
     2     -6.8029130     23  2.500                                             
     2     40.8174780     23  2.500                                             
     3      6.8029130     23  2.500                                             
     3     27.2116520     23  2.500                                             
  local pseudopotential read in
  partial core-charges read in
  partial kinetic energy density read in
  kinetic energy density of atom read in
  atomic valenz-charges read in
  non local Contribution for L=           0  read in
    real space projection operators read in
  non local Contribution for L=           0  read in
    real space projection operators read in
  non local Contribution for L=           1  read in
    real space projection operators read in
  non local Contribution for L=           1  read in
    real space projection operators read in
  non local Contribution for L=           2  read in
    real space projection operators read in
  non local Contribution for L=           2  read in
    real space projection operators read in
  non local Contribution for L=           3  read in
    real space projection operators read in
  non local Contribution for L=           3  read in
    real space projection operators read in
    PAW grid and wavefunctions read in
 
   number of l-projection  operators is LMAX  =           8
   number of lm-projection operators is LMMAX =          32
 
  PAW_PBE Xe_GW 08Jan2009               :
 energy of atom  1       EATOM= -429.5160
 kinetic energy error for atom=    0.0132 (will be added to EATOM!!)
 
 
 POSCAR: Xe_FCC                                  
  positions in direct lattice
  velocities in cartesian coordinates
 exchange correlation table for  LEXCH =        8
   RHO(1)=    0.500       N(1)  =     2000
   RHO(2)=  100.500       N(2)  =     4000
 


--------------------------------------------------------------------------------------------------------


 ion  position               nearest neighbor table
   1  0.000  0.000  0.000-
 

IMPORTANT INFORMATION: All symmetrisations will be switched off!
NOSYMM: (Re-)initialisation of all symmetry stuff for point group C_1.

 
 
 KPOINTS: k-points                                

Automatic generation of k-mesh.
Space group operators:
 irot       det(A)        alpha          n_x          n_y          n_z        tau_x        tau_y        tau_z
    1     1.000000     0.000000     1.000000     0.000000     0.000000     0.000000     0.000000     0.000000
 
 Subroutine IBZKPT returns following result:
 ===========================================
 
 Found    172 irreducible k-points:
 
 Following reciprocal coordinates:
            Coordinates               Weight
  0.000000  0.000000  0.000000      1.000000
  0.142857 -0.000000 -0.000000      2.000000
  0.285714 -0.000000 -0.000000      2.000000
  0.428571  0.000000 -0.000000      2.000000
  0.000000  0.142857  0.000000      2.000000
  0.142857  0.142857 -0.000000      2.000000
  0.285714  0.142857 -0.000000      2.000000
  0.428571  0.142857 -0.000000      2.000000
 -0.428571  0.142857  0.000000      2.000000
 -0.285714  0.142857  0.000000      2.000000
 -0.142857  0.142857 -0.000000      2.000000
  0.000000  0.285714  0.000000      2.000000
  0.142857  0.285714 -0.000000      2.000000
  0.285714  0.285714 -0.000000      2.000000
  0.428571  0.285714 -0.000000      2.000000
 -0.428571  0.285714  0.000000      2.000000
 -0.285714  0.285714  0.000000      2.000000
 -0.142857  0.285714 -0.000000      2.000000
 -0.000000  0.428571  0.000000      2.000000
  0.142857  0.428571 -0.000000      2.000000
  0.285714  0.428571 -0.000000      2.000000
  0.428571  0.428571  0.000000      2.000000
 -0.428571  0.428571  0.000000      2.000000
 -0.285714  0.428571  0.000000      2.000000
 -0.142857  0.428571 -0.000000      2.000000
  0.000000  0.000000  0.142857      2.000000
  0.142857 -0.000000  0.142857      2.000000
  0.285714 -0.000000  0.142857      2.000000
  0.428571  0.000000  0.142857      2.000000
 -0.428571 -0.000000  0.142857      2.000000
 -0.285714  0.000000  0.142857      2.000000
 -0.142857 -0.000000  0.142857      2.000000
  0.000000  0.142857  0.142857      2.000000
  0.142857  0.142857  0.142857      2.000000
  0.285714  0.142857  0.142857      2.000000
  0.428571  0.142857  0.142857      2.000000
 -0.428571  0.142857  0.142857      2.000000
 -0.285714  0.142857  0.142857      2.000000
 -0.142857  0.142857  0.142857      2.000000
  0.000000  0.285714  0.142857      2.000000
  0.142857  0.285714  0.142857      2.000000
  0.285714  0.285714  0.142857      2.000000
  0.428571  0.285714  0.142857      2.000000
 -0.428571  0.285714  0.142857      2.000000
 -0.285714  0.285714  0.142857      2.000000
 -0.142857  0.285714  0.142857      2.000000
 -0.000000  0.428571  0.142857      2.000000
  0.142857  0.428571  0.142857      2.000000
  0.285714  0.428571  0.142857      2.000000
  0.428571  0.428571  0.142857      2.000000
 -0.428571  0.428571  0.142857      2.000000
 -0.285714  0.428571  0.142857      2.000000
 -0.142857  0.428571  0.142857      2.000000
  0.000000 -0.428571  0.142857      2.000000
  0.142857 -0.428571  0.142857      2.000000
  0.285714 -0.428571  0.142857      2.000000
  0.428571 -0.428571  0.142857      2.000000
 -0.428571 -0.428571  0.142857      2.000000
 -0.285714 -0.428571  0.142857      2.000000
 -0.142857 -0.428571  0.142857      2.000000
  0.000000 -0.285714  0.142857      2.000000
  0.142857 -0.285714  0.142857      2.000000
  0.285714 -0.285714  0.142857      2.000000
  0.428571 -0.285714  0.142857      2.000000
 -0.428571 -0.285714  0.142857      2.000000
 -0.285714 -0.285714  0.142857      2.000000
 -0.142857 -0.285714  0.142857      2.000000
  0.000000 -0.142857  0.142857      2.000000
  0.142857 -0.142857  0.142857      2.000000
  0.285714 -0.142857  0.142857      2.000000
  0.428571 -0.142857  0.142857      2.000000
 -0.428571 -0.142857  0.142857      2.000000
 -0.285714 -0.142857  0.142857      2.000000
 -0.142857 -0.142857  0.142857      2.000000
  0.000000  0.000000  0.285714      2.000000
  0.142857 -0.000000  0.285714      2.000000
  0.285714 -0.000000  0.285714      2.000000
  0.428571 -0.000000  0.285714      2.000000
 -0.428571 -0.000000  0.285714      2.000000
 -0.285714  0.000000  0.285714      2.000000
 -0.142857  0.000000  0.285714      2.000000
 -0.000000  0.142857  0.285714      2.000000
  0.142857  0.142857  0.285714      2.000000
  0.285714  0.142857  0.285714      2.000000
  0.428571  0.142857  0.285714      2.000000
 -0.428571  0.142857  0.285714      2.000000
 -0.285714  0.142857  0.285714      2.000000
 -0.142857  0.142857  0.285714      2.000000
  0.000000  0.285714  0.285714      2.000000
  0.142857  0.285714  0.285714      2.000000
  0.285714  0.285714  0.285714      2.000000
  0.428571  0.285714  0.285714      2.000000
 -0.428571  0.285714  0.285714      2.000000
 -0.285714  0.285714  0.285714      2.000000
 -0.142857  0.285714  0.285714      2.000000
 -0.000000  0.428571  0.285714      2.000000
  0.142857  0.428571  0.285714      2.000000
  0.285714  0.428571  0.285714      2.000000
  0.428571  0.428571  0.285714      2.000000
 -0.428571  0.428571  0.285714      2.000000
 -0.285714  0.428571  0.285714      2.000000
 -0.142857  0.428571  0.285714      2.000000
  0.000000 -0.428571  0.285714      2.000000
  0.142857 -0.428571  0.285714      2.000000
  0.285714 -0.428571  0.285714      2.000000
  0.428571 -0.428571  0.285714      2.000000
 -0.428571 -0.428571  0.285714      2.000000
 -0.285714 -0.428571  0.285714      2.000000
 -0.142857 -0.428571  0.285714      2.000000
  0.000000 -0.285714  0.285714      2.000000
  0.142857 -0.285714  0.285714      2.000000
  0.285714 -0.285714  0.285714      2.000000
  0.428571 -0.285714  0.285714      2.000000
 -0.428571 -0.285714  0.285714      2.000000
 -0.285714 -0.285714  0.285714      2.000000
 -0.142857 -0.285714  0.285714      2.000000
 -0.000000 -0.142857  0.285714      2.000000
  0.142857 -0.142857  0.285714      2.000000
  0.285714 -0.142857  0.285714      2.000000
  0.428571 -0.142857  0.285714      2.000000
 -0.428571 -0.142857  0.285714      2.000000
 -0.285714 -0.142857  0.285714      2.000000
 -0.142857 -0.142857  0.285714      2.000000
  0.000000  0.000000  0.428571      2.000000
  0.142857 -0.000000  0.428571      2.000000
  0.285714 -0.000000  0.428571      2.000000
  0.428571  0.000000  0.428571      2.000000
 -0.428571  0.000000  0.428571      2.000000
 -0.285714  0.000000  0.428571      2.000000
 -0.142857  0.000000  0.428571      2.000000
  0.000000  0.142857  0.428571      2.000000
  0.142857  0.142857  0.428571      2.000000
  0.285714  0.142857  0.428571      2.000000
  0.428571  0.142857  0.428571      2.000000
 -0.428571  0.142857  0.428571      2.000000
 -0.285714  0.142857  0.428571      2.000000
 -0.142857  0.142857  0.428571      2.000000
  0.000000  0.285714  0.428571      2.000000
  0.142857  0.285714  0.428571      2.000000
  0.285714  0.285714  0.428571      2.000000
  0.428571  0.285714  0.428571      2.000000
 -0.428571  0.285714  0.428571      2.000000
 -0.285714  0.285714  0.428571      2.000000
 -0.142857  0.285714  0.428571      2.000000
  0.000000  0.428571  0.428571      2.000000
  0.142857  0.428571  0.428571      2.000000
  0.285714  0.428571  0.428571      2.000000
  0.428571  0.428571  0.428571      2.000000
 -0.428571  0.428571  0.428571      2.000000
 -0.285714  0.428571  0.428571      2.000000
 -0.142857  0.428571  0.428571      2.000000
  0.000000 -0.428571  0.428571      2.000000
  0.142857 -0.428571  0.428571      2.000000
  0.285714 -0.428571  0.428571      2.000000
  0.428571 -0.428571  0.428571      2.000000
 -0.428571 -0.428571  0.428571      2.000000
 -0.285714 -0.428571  0.428571      2.000000
 -0.142857 -0.428571  0.428571      2.000000
  0.000000 -0.285714  0.428571      2.000000
  0.142857 -0.285714  0.428571      2.000000
  0.285714 -0.285714  0.428571      2.000000
  0.428571 -0.285714  0.428571      2.000000
 -0.428571 -0.285714  0.428571      2.000000
 -0.285714 -0.285714  0.428571      2.000000
 -0.142857 -0.285714  0.428571      2.000000
  0.000000 -0.142857  0.428571      2.000000
  0.142857 -0.142857  0.428571      2.000000
  0.285714 -0.142857  0.428571      2.000000
  0.428571 -0.142857  0.428571      2.000000
 -0.428571 -0.142857  0.428571      2.000000
 -0.285714 -0.142857  0.428571      2.000000
 -0.142857 -0.142857  0.428571      2.000000
 
 Following cartesian coordinates:
            Coordinates               Weight
  0.000000  0.000000  0.000000      1.000000
  0.032232 -0.018609 -0.013159      2.000000
  0.064463 -0.037218 -0.026317      2.000000
  0.096695 -0.055827 -0.039476      2.000000
  0.000000  0.037218 -0.013159      2.000000
  0.032232  0.018609 -0.026317      2.000000
  0.064463  0.000000 -0.039476      2.000000
  0.096695 -0.018609 -0.052634      2.000000
 -0.096695  0.093045  0.026317      2.000000
 -0.064463  0.074436  0.013159      2.000000
 -0.032232  0.055827  0.000000      2.000000
  0.000000  0.074436 -0.026317      2.000000
  0.032232  0.055827 -0.039476      2.000000
  0.064463  0.037218 -0.052634      2.000000
  0.096695  0.018609 -0.065793      2.000000
 -0.096695  0.130263  0.013159      2.000000
 -0.064463  0.111654  0.000000      2.000000
 -0.032232  0.093045 -0.013159      2.000000
  0.000000  0.111654 -0.039476      2.000000
  0.032232  0.093045 -0.052634      2.000000
  0.064463  0.074436 -0.065793      2.000000
  0.096695  0.055827 -0.078951      2.000000
 -0.096695  0.167481  0.000000      2.000000
 -0.064463  0.148872 -0.013159      2.000000
 -0.032232  0.130263 -0.026317      2.000000
 -0.000000  0.000000  0.039476      2.000000
  0.032232 -0.018609  0.026317      2.000000
  0.064463 -0.037218  0.013159      2.000000
  0.096695 -0.055827 -0.000000      2.000000
 -0.096695  0.055827  0.078951      2.000000
 -0.064463  0.037218  0.065793      2.000000
 -0.032232  0.018609  0.052634      2.000000
 -0.000000  0.037218  0.026317      2.000000
  0.032232  0.018609  0.013159      2.000000
  0.064463  0.000000  0.000000      2.000000
  0.096695 -0.018609 -0.013159      2.000000
 -0.096695  0.093045  0.065793      2.000000
 -0.064463  0.074436  0.052634      2.000000
 -0.032232  0.055827  0.039476      2.000000
 -0.000000  0.074436  0.013159      2.000000
  0.032232  0.055827  0.000000      2.000000
  0.064463  0.037218 -0.013159      2.000000
  0.096695  0.018609 -0.026317      2.000000
 -0.096695  0.130263  0.052634      2.000000
 -0.064463  0.111654  0.039476      2.000000
 -0.032232  0.093045  0.026317      2.000000
 -0.000000  0.111654  0.000000      2.000000
  0.032232  0.093045 -0.013159      2.000000
  0.064463  0.074436 -0.026317      2.000000
  0.096695  0.055827 -0.039476      2.000000
 -0.096695  0.167481  0.039476      2.000000
 -0.064463  0.148872  0.026317      2.000000
 -0.032232  0.130263  0.013159      2.000000
 -0.000000 -0.111654  0.078951      2.000000
  0.032232 -0.130263  0.065793      2.000000
  0.064463 -0.148872  0.052634      2.000000
  0.096695 -0.167481  0.039476      2.000000
 -0.096695 -0.055827  0.118427      2.000000
 -0.064463 -0.074436  0.105268      2.000000
 -0.032232 -0.093045  0.092110      2.000000
 -0.000000 -0.074436  0.065793      2.000000
  0.032232 -0.093045  0.052634      2.000000
  0.064463 -0.111654  0.039476      2.000000
  0.096695 -0.130263  0.026317      2.000000
 -0.096695 -0.018609  0.105268      2.000000
 -0.064463 -0.037218  0.092110      2.000000
 -0.032232 -0.055827  0.078951      2.000000
 -0.000000 -0.037218  0.052634      2.000000
  0.032232 -0.055827  0.039476      2.000000
  0.064463 -0.074436  0.026317      2.000000
  0.096695 -0.093045  0.013159      2.000000
 -0.096695  0.018609  0.092110      2.000000
 -0.064463  0.000000  0.078951      2.000000
 -0.032232 -0.018609  0.065793      2.000000
 -0.000000  0.000000  0.078951      2.000000
  0.032232 -0.018609  0.065793      2.000000
  0.064463 -0.037218  0.052634      2.000000
  0.096695 -0.055827  0.039476      2.000000
 -0.096695  0.055827  0.118427      2.000000
 -0.064463  0.037218  0.105268      2.000000
 -0.032232  0.018609  0.092110      2.000000
 -0.000000  0.037218  0.065793      2.000000
  0.032232  0.018609  0.052634      2.000000
  0.064463  0.000000  0.039476      2.000000
  0.096695 -0.018609  0.026317      2.000000
 -0.096695  0.093045  0.105268      2.000000
 -0.064463  0.074436  0.092110      2.000000
 -0.032232  0.055827  0.078951      2.000000
 -0.000000  0.074436  0.052634      2.000000
  0.032232  0.055827  0.039476      2.000000
  0.064463  0.037218  0.026317      2.000000
  0.096695  0.018609  0.013159      2.000000
 -0.096695  0.130263  0.092110      2.000000
 -0.064463  0.111654  0.078951      2.000000
 -0.032232  0.093045  0.065793      2.000000
 -0.000000  0.111654  0.039476      2.000000
  0.032232  0.093045  0.026317      2.000000
  0.064463  0.074436  0.013159      2.000000
  0.096695  0.055827  0.000000      2.000000
 -0.096695  0.167481  0.078951      2.000000
 -0.064463  0.148872  0.065793      2.000000
 -0.032232  0.130263  0.052634      2.000000
 -0.000000 -0.111654  0.118427      2.000000
  0.032232 -0.130263  0.105268      2.000000
  0.064463 -0.148872  0.092110      2.000000
  0.096695 -0.167481  0.078951      2.000000
 -0.096695 -0.055827  0.157902      2.000000
 -0.064463 -0.074436  0.144744      2.000000
 -0.032232 -0.093045  0.131585      2.000000
 -0.000000 -0.074436  0.105268      2.000000
  0.032232 -0.093045  0.092110      2.000000
  0.064463 -0.111654  0.078951      2.000000
  0.096695 -0.130263  0.065793      2.000000
 -0.096695 -0.018609  0.144744      2.000000
 -0.064463 -0.037218  0.131585      2.000000
 -0.032232 -0.055827  0.118427      2.000000
 -0.000000 -0.037218  0.092110      2.000000
  0.032232 -0.055827  0.078951      2.000000
  0.064463 -0.074436  0.065793      2.000000
  0.096695 -0.093045  0.052634      2.000000
 -0.096695  0.018609  0.131585      2.000000
 -0.064463  0.000000  0.118427      2.000000
 -0.032232 -0.018609  0.105268      2.000000
 -0.000000  0.000000  0.118427      2.000000
  0.032232 -0.018609  0.105268      2.000000
  0.064463 -0.037218  0.092110      2.000000
  0.096695 -0.055827  0.078951      2.000000
 -0.096695  0.055827  0.157902      2.000000
 -0.064463  0.037218  0.144744      2.000000
 -0.032232  0.018609  0.131585      2.000000
 -0.000000  0.037218  0.105268      2.000000
  0.032232  0.018609  0.092110      2.000000
  0.064463  0.000000  0.078951      2.000000
  0.096695 -0.018609  0.065793      2.000000
 -0.096695  0.093045  0.144744      2.000000
 -0.064463  0.074436  0.131585      2.000000
 -0.032232  0.055827  0.118427      2.000000
 -0.000000  0.074436  0.092110      2.000000
  0.032232  0.055827  0.078951      2.000000
  0.064463  0.037218  0.065793      2.000000
  0.096695  0.018609  0.052634      2.000000
 -0.096695  0.130263  0.131585      2.000000
 -0.064463  0.111654  0.118427      2.000000
 -0.032232  0.093045  0.105268      2.000000
 -0.000000  0.111654  0.078951      2.000000
  0.032232  0.093045  0.065793      2.000000
  0.064463  0.074436  0.052634      2.000000
  0.096695  0.055827  0.039476      2.000000
 -0.096695  0.167481  0.118427      2.000000
 -0.064463  0.148872  0.105268      2.000000
 -0.032232  0.130263  0.092110      2.000000
 -0.000000 -0.111654  0.157902      2.000000
  0.032232 -0.130263  0.144744      2.000000
  0.064463 -0.148872  0.131585      2.000000
  0.096695 -0.167481  0.118427      2.000000
 -0.096695 -0.055827  0.197378      2.000000
 -0.064463 -0.074436  0.184219      2.000000
 -0.032232 -0.093045  0.171061      2.000000
 -0.000000 -0.074436  0.144744      2.000000
  0.032232 -0.093045  0.131585      2.000000
  0.064463 -0.111654  0.118427      2.000000
  0.096695 -0.130263  0.105268      2.000000
 -0.096695 -0.018609  0.184219      2.000000
 -0.064463 -0.037218  0.171061      2.000000
 -0.032232 -0.055827  0.157902      2.000000
 -0.000000 -0.037218  0.131585      2.000000
  0.032232 -0.055827  0.118427      2.000000
  0.064463 -0.074436  0.105268      2.000000
  0.096695 -0.093045  0.092110      2.000000
 -0.096695  0.018609  0.171061      2.000000
 -0.064463  0.000000  0.157902      2.000000
 -0.032232 -0.018609  0.144744      2.000000
 


--------------------------------------------------------------------------------------------------------




 Dimension of arrays:
   k-points           NKPTS =    172   k-points in BZ     NKDIM =    172   number of bands    NBANDS=      8
   number of dos      NEDOS =    301   number of ions     NIONS =      1
   non local maximal  LDIM  =      8   non local SUM 2l+1 LMDIM =     32
   total plane-waves  NPLWV =  13824
   max r-space proj   IRMAX =      1   max aug-charges    IRDMAX=  94949
   dimension x,y,z NGX =    24 NGY =   24 NGZ =   24
   dimension x,y,z NGXF=    48 NGYF=   48 NGZF=   48
   support grid    NGXF=    96 NGYF=   96 NGZF=   96
   ions per type =               1
   NGX,Y,Z   is equivalent  to a cutoff of   9.20,  9.20,  9.20 a.u.
   NGXF,Y,Z  is equivalent  to a cutoff of  18.40, 18.40, 18.40 a.u.

 SYSTEM =  Og_FCC                                  
 POSCAR =  Xe_FCC                                  

 Startparameter for this run:
   NWRITE =      2    write-flag & timer
   PREC   = accura    normal or accurate (medium, high low for compatibility)
   ISTART =      0    job   : 0-new  1-cont  2-samecut
   ICHARG =      2    charge: 1-file 2-atom 10-const
   ISPIN  =      1    spin polarized calculation?
   LNONCOLLINEAR =      F non collinear calculations
   LSORBIT =      F    spin-orbit coupling
   INIWAV =      1    electr: 0-lowe 1-rand  2-diag
   LASPH  =      F    aspherical Exc in radial PAW
   METAGGA=      F    non-selfconsistent MetaGGA calc.

 Electronic Relaxation 1
   ENCUT  =  300.0 eV  22.05 Ry    4.70 a.u.   6.12  6.12  6.12*2*pi/ulx,y,z
   ENINI  =  300.0     initial cutoff
   ENAUG  =  605.9 eV  augmentation charge cutoff
   NELM   =     50;   NELMIN=  2; NELMDL= -5     # of ELM steps 
   EDIFF  = 0.1E-07   stopping-criterion for ELM
   LREAL  =      F    real-space projection
   NLSPLINE    = F    spline interpolate recip. space projectors
   LCOMPAT=      F    compatible to vasp.4.4
   GGA_COMPAT  = F    GGA compatible to vasp.4.4-vasp.4.6
   LMAXPAW     = -100 max onsite density
   LMAXMIX     =    2 max onsite mixed and CHGCAR
   VOSKOWN=      0    Vosko Wilk Nusair interpolation
   ROPT   =    0.00000
 Ionic relaxation
   EDIFFG = 0.1E-04   stopping-criterion for IOM
   NSW    =      1    number of steps for IOM
   NBLOCK =      1;   KBLOCK =      1    inner block; outer block 
   IBRION =     -1    ionic relax: 0-MD 1-quasi-New 2-CG
   NFREE  =      5    steps in history (QN), initial steepest desc. (CG)
   ISIF   =      3    stress and relaxation
   IWAVPR =     10    prediction:  0-non 1-charg 2-wave 3-comb
   ISYM   =      0    0-nonsym 1-usesym 2-fastsym
   LCORR  =      T    Harris-Foulkes like correction to forces

   POTIM  = 0.1000    time-step for ionic-motion
   TEIN   =    0.0    initial temperature
   TEBEG  =    0.0;   TEEND  =   0.0 temperature during run
   SMASS  =  -3.00    Nose mass-parameter (am)
   estimated Nose-frequenzy (Omega)   =  0.10E-29 period in steps =****** mass=  -0.430E-27a.u.
   SCALEE = 1.0000    scale energy and forces
   NPACO  =    256;   APACO  = 16.0  distance and # of slots for P.C.
   PSTRESS=    0.0 pullay stress

  Mass of Ions in am
   POMASS = 131.29
  Ionic Valenz
   ZVAL   =   8.00
  Atomic Wigner-Seitz radii
   RWIGS  =  -1.00
  virtual crystal weights 
   VCA    =   1.00
   NELECT =       8.0000    total number of electrons
   NUPDOWN=      -1.0000    fix difference up-down

 DOS related values:
   EMIN   =  10.00;   EMAX   =-10.00  energy-range for DOS
   EFERMI =   0.00
   ISMEAR =     0;   SIGMA  =   0.00  broadening in eV -4-tet -1-fermi 0-gaus

 Electronic relaxation 2 (details)
   IALGO  =     38    algorithm
   LDIAG  =      T    sub-space diagonalisation (order eigenvalues)
   LSUBROT=      F    optimize rotation matrix (better conditioning)
   TURBO    =      0    0=normal 1=particle mesh
   IRESTART =      0    0=no restart 2=restart with 2 vectors
   NREBOOT  =      0    no. of reboots
   NMIN     =      0    reboot dimension
   EREF     =   0.00    reference energy to select bands
   IMIX   =      4    mixing-type and parameters
     AMIX     =   0.40;   BMIX     =  1.00
     AMIX_MAG =   1.60;   BMIX_MAG =  1.00
     AMIN     =   0.10
     WC   =   100.;   INIMIX=   1;  MIXPRE=   1;  MAXMIX=  50

 Intra band minimization:
   WEIMIN = 0.0000     energy-eigenvalue tresh-hold
   EBREAK =  0.31E-09  absolut break condition
   DEPER  =   0.30     relativ break condition  

   TIME   =   0.40     timestep for ELM

  volume/ion in A,a.u.               =      57.64       389.00
  Fermi-wavevector in a.u.,A,eV,Ry     =   0.847594  1.601720  9.774627  0.718415
  Thomas-Fermi vector in A             =   1.963124
 
 Write flags
   LWAVE        =      T    write WAVECAR
   LDOWNSAMPLE  =      F    k-point downsampling of WAVECAR
   LCHARG       =      F    write CHGCAR
   LVTOT        =      F    write LOCPOT, total local potential
   LVHAR        =      F    write LOCPOT, Hartree potential only
   LELF         =      F    write electronic localiz. function (ELF)
   LORBIT       =      0    0 simple, 1 ext, 2 COOP (PROOUT), +10 PAW based schemes


 Dipole corrections
   LMONO  =      F    monopole corrections only (constant potential shift)
   LDIPOL =      F    correct potential (dipole corrections)
   IDIPOL =      0    1-x, 2-y, 3-z, 4-all directions 
   EPSILON=  1.0000000 bulk dielectric constant

 Exchange correlation treatment:
   GGA     =    PE    GGA type
   LEXCH   =     8    internal setting for exchange type
   VOSKOWN=      0    Vosko Wilk Nusair interpolation
   LHFCALC =     F    Hartree Fock is set to
   LHFONE  =     F    Hartree Fock one center treatment
   AEXX    =    0.0000 exact exchange contribution

 Linear response parameters
   LEPSILON=     F    determine dielectric tensor
   LRPA    =     F    only Hartree local field effects (RPA)
   LNABLA  =     F    use nabla operator in PAW spheres
   LVEL    =     F    velocity operator in full k-point grid
   LINTERFAST=   F  fast interpolation
   KINTER  =     0    interpolate to denser k-point grid
   CSHIFT  =0.1000    complex shift for real part using Kramers Kronig
   OMEGAMAX=  -1.0    maximum frequency
   DEG_THRESHOLD= 0.2000000E-02 threshold for treating states as degnerate
   RTIME   =   -0.100 relaxation time in fs
  (WPLASMAI=    0.000 imaginary part of plasma frequency in eV, 0.658/RTIME)
   DFIELD  = 0.0000000 0.0000000 0.0000000 field for delta impulse in time
 
 Orbital magnetization related:
   ORBITALMAG=     F  switch on orbital magnetization
   LCHIMAG   =     F  perturbation theory with respect to B field
   DQ        =  0.001000  dq finite difference perturbation B field
   LLRAUG    =     F  two centre corrections for induced B field



--------------------------------------------------------------------------------------------------------


 Static calculation
 charge density and potential will be updated during run
 non-spin polarized calculation
 Variant of blocked Davidson
 Davidson routine will perform the subspace rotation
 perform sub-space diagonalisation
    after iterative eigenvector-optimisation
 modified Broyden-mixing scheme, WC =      100.0
 initial mixing is a Kerker type mixing with AMIX =  0.4000 and BMIX =      1.0000
 Hartree-type preconditioning will be used
 using additional bands            4
 reciprocal scheme for non local part
 use partial core corrections
 calculate Harris-corrections to forces 
   (improved forces if not selfconsistent)
 use gradient corrections 
 use of overlap-Matrix (Vanderbilt PP)
 Gauss-broadening in eV      SIGMA  =   0.00


--------------------------------------------------------------------------------------------------------


  energy-cutoff  :      300.00
  volume of cell :       57.64
      direct lattice vectors                 reciprocal lattice vectors
     4.335995782  0.000000000  0.000000000     0.230627531 -0.133152867 -0.094153295
     2.167997891  3.755082498 -0.000000000     0.000000000  0.266305734 -0.094153295
     2.167997891  1.251694166  3.540325731    -0.000000000  0.000000000  0.282459885

  length of vectors
     4.335995782  4.335995782  4.335995782     0.282459885  0.282459885  0.282459885


 
 k-points in units of 2pi/SCALE and weight: k-points                                
   0.00000000  0.00000000  0.00000000       0.003
   0.03223165 -0.01860895 -0.01315852       0.006
   0.06446331 -0.03721791 -0.02631704       0.006
   0.09669496 -0.05582686 -0.03947555       0.006
   0.00000000  0.03721791 -0.01315852       0.006
   0.03223165  0.01860895 -0.02631704       0.006
   0.06446331  0.00000000 -0.03947555       0.006
   0.09669496 -0.01860895 -0.05263407       0.006
  -0.09669496  0.09304477  0.02631704       0.006
  -0.06446331  0.07443582  0.01315852       0.006
  -0.03223165  0.05582686  0.00000000       0.006
   0.00000000  0.07443582 -0.02631704       0.006
   0.03223165  0.05582686 -0.03947555       0.006
   0.06446331  0.03721791 -0.05263407       0.006
   0.09669496  0.01860895 -0.06579259       0.006
  -0.09669496  0.13026268  0.01315852       0.006
  -0.06446331  0.11165373  0.00000000       0.006
  -0.03223165  0.09304477 -0.01315852       0.006
   0.00000000  0.11165373 -0.03947555       0.006
   0.03223165  0.09304477 -0.05263407       0.006
   0.06446331  0.07443582 -0.06579259       0.006
   0.09669496  0.05582686 -0.07895111       0.006
  -0.09669496  0.16748059  0.00000000       0.006
  -0.06446331  0.14887163 -0.01315852       0.006
  -0.03223165  0.13026268 -0.02631704       0.006
  -0.00000000  0.00000000  0.03947555       0.006
   0.03223165 -0.01860895  0.02631704       0.006
   0.06446331 -0.03721791  0.01315852       0.006
   0.09669496 -0.05582686 -0.00000000       0.006
  -0.09669496  0.05582686  0.07895111       0.006
  -0.06446331  0.03721791  0.06579259       0.006
  -0.03223165  0.01860895  0.05263407       0.006
  -0.00000000  0.03721791  0.02631704       0.006
   0.03223165  0.01860895  0.01315852       0.006
   0.06446331  0.00000000  0.00000000       0.006
   0.09669496 -0.01860895 -0.01315852       0.006
  -0.09669496  0.09304477  0.06579259       0.006
  -0.06446331  0.07443582  0.05263407       0.006
  -0.03223165  0.05582686  0.03947555       0.006
  -0.00000000  0.07443582  0.01315852       0.006
   0.03223165  0.05582686  0.00000000       0.006
   0.06446331  0.03721791 -0.01315852       0.006
   0.09669496  0.01860895 -0.02631704       0.006
  -0.09669496  0.13026268  0.05263407       0.006
  -0.06446331  0.11165373  0.03947555       0.006
  -0.03223165  0.09304477  0.02631704       0.006
  -0.00000000  0.11165373  0.00000000       0.006
   0.03223165  0.09304477 -0.01315852       0.006
   0.06446331  0.07443582 -0.02631704       0.006
   0.09669496  0.05582686 -0.03947555       0.006
  -0.09669496  0.16748059  0.03947555       0.006
  -0.06446331  0.14887163  0.02631704       0.006
  -0.03223165  0.13026268  0.01315852       0.006
  -0.00000000 -0.11165373  0.07895111       0.006
   0.03223165 -0.13026268  0.06579259       0.006
   0.06446331 -0.14887163  0.05263407       0.006
   0.09669496 -0.16748059  0.03947555       0.006
  -0.09669496 -0.05582686  0.11842666       0.006
  -0.06446331 -0.07443582  0.10526814       0.006
  -0.03223165 -0.09304477  0.09210962       0.006
  -0.00000000 -0.07443582  0.06579259       0.006
   0.03223165 -0.09304477  0.05263407       0.006
   0.06446331 -0.11165373  0.03947555       0.006
   0.09669496 -0.13026268  0.02631704       0.006
  -0.09669496 -0.01860895  0.10526814       0.006
  -0.06446331 -0.03721791  0.09210962       0.006
  -0.03223165 -0.05582686  0.07895111       0.006
  -0.00000000 -0.03721791  0.05263407       0.006
   0.03223165 -0.05582686  0.03947555       0.006
   0.06446331 -0.07443582  0.02631704       0.006
   0.09669496 -0.09304477  0.01315852       0.006
  -0.09669496  0.01860895  0.09210962       0.006
  -0.06446331  0.00000000  0.07895111       0.006
  -0.03223165 -0.01860895  0.06579259       0.006
  -0.00000000  0.00000000  0.07895111       0.006
   0.03223165 -0.01860895  0.06579259       0.006
   0.06446331 -0.03721791  0.05263407       0.006
   0.09669496 -0.05582686  0.03947555       0.006
  -0.09669496  0.05582686  0.11842666       0.006
  -0.06446331  0.03721791  0.10526814       0.006
  -0.03223165  0.01860895  0.09210962       0.006
  -0.00000000  0.03721791  0.06579259       0.006
   0.03223165  0.01860895  0.05263407       0.006
   0.06446331  0.00000000  0.03947555       0.006
   0.09669496 -0.01860895  0.02631704       0.006
  -0.09669496  0.09304477  0.10526814       0.006
  -0.06446331  0.07443582  0.09210962       0.006
  -0.03223165  0.05582686  0.07895111       0.006
  -0.00000000  0.07443582  0.05263407       0.006
   0.03223165  0.05582686  0.03947555       0.006
   0.06446331  0.03721791  0.02631704       0.006
   0.09669496  0.01860895  0.01315852       0.006
  -0.09669496  0.13026268  0.09210962       0.006
  -0.06446331  0.11165373  0.07895111       0.006
  -0.03223165  0.09304477  0.06579259       0.006
  -0.00000000  0.11165373  0.03947555       0.006
   0.03223165  0.09304477  0.02631704       0.006
   0.06446331  0.07443582  0.01315852       0.006
   0.09669496  0.05582686  0.00000000       0.006
  -0.09669496  0.16748059  0.07895111       0.006
  -0.06446331  0.14887163  0.06579259       0.006
  -0.03223165  0.13026268  0.05263407       0.006
  -0.00000000 -0.11165373  0.11842666       0.006
   0.03223165 -0.13026268  0.10526814       0.006
   0.06446331 -0.14887163  0.09210962       0.006
   0.09669496 -0.16748059  0.07895111       0.006
  -0.09669496 -0.05582686  0.15790221       0.006
  -0.06446331 -0.07443582  0.14474370       0.006
  -0.03223165 -0.09304477  0.13158518       0.006
  -0.00000000 -0.07443582  0.10526814       0.006
   0.03223165 -0.09304477  0.09210962       0.006
   0.06446331 -0.11165373  0.07895111       0.006
   0.09669496 -0.13026268  0.06579259       0.006
  -0.09669496 -0.01860895  0.14474370       0.006
  -0.06446331 -0.03721791  0.13158518       0.006
  -0.03223165 -0.05582686  0.11842666       0.006
  -0.00000000 -0.03721791  0.09210962       0.006
   0.03223165 -0.05582686  0.07895111       0.006
   0.06446331 -0.07443582  0.06579259       0.006
   0.09669496 -0.09304477  0.05263407       0.006
  -0.09669496  0.01860895  0.13158518       0.006
  -0.06446331  0.00000000  0.11842666       0.006
  -0.03223165 -0.01860895  0.10526814       0.006
  -0.00000000  0.00000000  0.11842666       0.006
   0.03223165 -0.01860895  0.10526814       0.006
   0.06446331 -0.03721791  0.09210962       0.006
   0.09669496 -0.05582686  0.07895111       0.006
  -0.09669496  0.05582686  0.15790221       0.006
  -0.06446331  0.03721791  0.14474370       0.006
  -0.03223165  0.01860895  0.13158518       0.006
  -0.00000000  0.03721791  0.10526814       0.006
   0.03223165  0.01860895  0.09210962       0.006
   0.06446331  0.00000000  0.07895111       0.006
   0.09669496 -0.01860895  0.06579259       0.006
  -0.09669496  0.09304477  0.14474370       0.006
  -0.06446331  0.07443582  0.13158518       0.006
  -0.03223165  0.05582686  0.11842666       0.006
  -0.00000000  0.07443582  0.09210962       0.006
   0.03223165  0.05582686  0.07895111       0.006
   0.06446331  0.03721791  0.06579259       0.006
   0.09669496  0.01860895  0.05263407       0.006
  -0.09669496  0.13026268  0.13158518       0.006
  -0.06446331  0.11165373  0.11842666       0.006
  -0.03223165  0.09304477  0.10526814       0.006
  -0.00000000  0.11165373  0.07895111       0.006
   0.03223165  0.09304477  0.06579259       0.006
   0.06446331  0.07443582  0.05263407       0.006
   0.09669496  0.05582686  0.03947555       0.006
  -0.09669496  0.16748059  0.11842666       0.006
  -0.06446331  0.14887163  0.10526814       0.006
  -0.03223165  0.13026268  0.09210962       0.006
  -0.00000000 -0.11165373  0.15790221       0.006
   0.03223165 -0.13026268  0.14474370       0.006
   0.06446331 -0.14887163  0.13158518       0.006
   0.09669496 -0.16748059  0.11842666       0.006
  -0.09669496 -0.05582686  0.19737777       0.006
  -0.06446331 -0.07443582  0.18421925       0.006
  -0.03223165 -0.09304477  0.17106073       0.006
  -0.00000000 -0.07443582  0.14474370       0.006
   0.03223165 -0.09304477  0.13158518       0.006
   0.06446331 -0.11165373  0.11842666       0.006
   0.09669496 -0.13026268  0.10526814       0.006
  -0.09669496 -0.01860895  0.18421925       0.006
  -0.06446331 -0.03721791  0.17106073       0.006
  -0.03223165 -0.05582686  0.15790221       0.006
  -0.00000000 -0.03721791  0.13158518       0.006
   0.03223165 -0.05582686  0.11842666       0.006
   0.06446331 -0.07443582  0.10526814       0.006
   0.09669496 -0.09304477  0.09210962       0.006
  -0.09669496  0.01860895  0.17106073       0.006
  -0.06446331  0.00000000  0.15790221       0.006
  -0.03223165 -0.01860895  0.14474370       0.006
 
 k-points in reciprocal lattice and weights: k-points                                
   0.00000000  0.00000000  0.00000000       0.003
   0.14285714 -0.00000000 -0.00000000       0.006
   0.28571429 -0.00000000 -0.00000000       0.006
   0.42857143  0.00000000 -0.00000000       0.006
   0.00000000  0.14285714  0.00000000       0.006
   0.14285714  0.14285714 -0.00000000       0.006
   0.28571429  0.14285714 -0.00000000       0.006
   0.42857143  0.14285714 -0.00000000       0.006
  -0.42857143  0.14285714  0.00000000       0.006
  -0.28571429  0.14285714  0.00000000       0.006
  -0.14285714  0.14285714 -0.00000000       0.006
   0.00000000  0.28571429  0.00000000       0.006
   0.14285714  0.28571429 -0.00000000       0.006
   0.28571429  0.28571429 -0.00000000       0.006
   0.42857143  0.28571429 -0.00000000       0.006
  -0.42857143  0.28571429  0.00000000       0.006
  -0.28571429  0.28571429  0.00000000       0.006
  -0.14285714  0.28571429 -0.00000000       0.006
  -0.00000000  0.42857143  0.00000000       0.006
   0.14285714  0.42857143 -0.00000000       0.006
   0.28571429  0.42857143 -0.00000000       0.006
   0.42857143  0.42857143  0.00000000       0.006
  -0.42857143  0.42857143  0.00000000       0.006
  -0.28571429  0.42857143  0.00000000       0.006
  -0.14285714  0.42857143 -0.00000000       0.006
   0.00000000  0.00000000  0.14285714       0.006
   0.14285714 -0.00000000  0.14285714       0.006
   0.28571429 -0.00000000  0.14285714       0.006
   0.42857143  0.00000000  0.14285714       0.006
  -0.42857143 -0.00000000  0.14285714       0.006
  -0.28571429  0.00000000  0.14285714       0.006
  -0.14285714 -0.00000000  0.14285714       0.006
   0.00000000  0.14285714  0.14285714       0.006
   0.14285714  0.14285714  0.14285714       0.006
   0.28571429  0.14285714  0.14285714       0.006
   0.42857143  0.14285714  0.14285714       0.006
  -0.42857143  0.14285714  0.14285714       0.006
  -0.28571429  0.14285714  0.14285714       0.006
  -0.14285714  0.14285714  0.14285714       0.006
   0.00000000  0.28571429  0.14285714       0.006
   0.14285714  0.28571429  0.14285714       0.006
   0.28571429  0.28571429  0.14285714       0.006
   0.42857143  0.28571429  0.14285714       0.006
  -0.42857143  0.28571429  0.14285714       0.006
  -0.28571429  0.28571429  0.14285714       0.006
  -0.14285714  0.28571429  0.14285714       0.006
  -0.00000000  0.42857143  0.14285714       0.006
   0.14285714  0.42857143  0.14285714       0.006
   0.28571429  0.42857143  0.14285714       0.006
   0.42857143  0.42857143  0.14285714       0.006
  -0.42857143  0.42857143  0.14285714       0.006
  -0.28571429  0.42857143  0.14285714       0.006
  -0.14285714  0.42857143  0.14285714       0.006
   0.00000000 -0.42857143  0.14285714       0.006
   0.14285714 -0.42857143  0.14285714       0.006
   0.28571429 -0.42857143  0.14285714       0.006
   0.42857143 -0.42857143  0.14285714       0.006
  -0.42857143 -0.42857143  0.14285714       0.006
  -0.28571429 -0.42857143  0.14285714       0.006
  -0.14285714 -0.42857143  0.14285714       0.006
   0.00000000 -0.28571429  0.14285714       0.006
   0.14285714 -0.28571429  0.14285714       0.006
   0.28571429 -0.28571429  0.14285714       0.006
   0.42857143 -0.28571429  0.14285714       0.006
  -0.42857143 -0.28571429  0.14285714       0.006
  -0.28571429 -0.28571429  0.14285714       0.006
  -0.14285714 -0.28571429  0.14285714       0.006
   0.00000000 -0.14285714  0.14285714       0.006
   0.14285714 -0.14285714  0.14285714       0.006
   0.28571429 -0.14285714  0.14285714       0.006
   0.42857143 -0.14285714  0.14285714       0.006
  -0.42857143 -0.14285714  0.14285714       0.006
  -0.28571429 -0.14285714  0.14285714       0.006
  -0.14285714 -0.14285714  0.14285714       0.006
   0.00000000  0.00000000  0.28571429       0.006
   0.14285714 -0.00000000  0.28571429       0.006
   0.28571429 -0.00000000  0.28571429       0.006
   0.42857143 -0.00000000  0.28571429       0.006
  -0.42857143 -0.00000000  0.28571429       0.006
  -0.28571429  0.00000000  0.28571429       0.006
  -0.14285714  0.00000000  0.28571429       0.006
  -0.00000000  0.14285714  0.28571429       0.006
   0.14285714  0.14285714  0.28571429       0.006
   0.28571429  0.14285714  0.28571429       0.006
   0.42857143  0.14285714  0.28571429       0.006
  -0.42857143  0.14285714  0.28571429       0.006
  -0.28571429  0.14285714  0.28571429       0.006
  -0.14285714  0.14285714  0.28571429       0.006
   0.00000000  0.28571429  0.28571429       0.006
   0.14285714  0.28571429  0.28571429       0.006
   0.28571429  0.28571429  0.28571429       0.006
   0.42857143  0.28571429  0.28571429       0.006
  -0.42857143  0.28571429  0.28571429       0.006
  -0.28571429  0.28571429  0.28571429       0.006
  -0.14285714  0.28571429  0.28571429       0.006
  -0.00000000  0.42857143  0.28571429       0.006
   0.14285714  0.42857143  0.28571429       0.006
   0.28571429  0.42857143  0.28571429       0.006
   0.42857143  0.42857143  0.28571429       0.006
  -0.42857143  0.42857143  0.28571429       0.006
  -0.28571429  0.42857143  0.28571429       0.006
  -0.14285714  0.42857143  0.28571429       0.006
   0.00000000 -0.42857143  0.28571429       0.006
   0.14285714 -0.42857143  0.28571429       0.006
   0.28571429 -0.42857143  0.28571429       0.006
   0.42857143 -0.42857143  0.28571429       0.006
  -0.42857143 -0.42857143  0.28571429       0.006
  -0.28571429 -0.42857143  0.28571429       0.006
  -0.14285714 -0.42857143  0.28571429       0.006
   0.00000000 -0.28571429  0.28571429       0.006
   0.14285714 -0.28571429  0.28571429       0.006
   0.28571429 -0.28571429  0.28571429       0.006
   0.42857143 -0.28571429  0.28571429       0.006
  -0.42857143 -0.28571429  0.28571429       0.006
  -0.28571429 -0.28571429  0.28571429       0.006
  -0.14285714 -0.28571429  0.28571429       0.006
  -0.00000000 -0.14285714  0.28571429       0.006
   0.14285714 -0.14285714  0.28571429       0.006
   0.28571429 -0.14285714  0.28571429       0.006
   0.42857143 -0.14285714  0.28571429       0.006
  -0.42857143 -0.14285714  0.28571429       0.006
  -0.28571429 -0.14285714  0.28571429       0.006
  -0.14285714 -0.14285714  0.28571429       0.006
   0.00000000  0.00000000  0.42857143       0.006
   0.14285714 -0.00000000  0.42857143       0.006
   0.28571429 -0.00000000  0.42857143       0.006
   0.42857143  0.00000000  0.42857143       0.006
  -0.42857143  0.00000000  0.42857143       0.006
  -0.28571429  0.00000000  0.42857143       0.006
  -0.14285714  0.00000000  0.42857143       0.006
   0.00000000  0.14285714  0.42857143       0.006
   0.14285714  0.14285714  0.42857143       0.006
   0.28571429  0.14285714  0.42857143       0.006
   0.42857143  0.14285714  0.42857143       0.006
  -0.42857143  0.14285714  0.42857143       0.006
  -0.28571429  0.14285714  0.42857143       0.006
  -0.14285714  0.14285714  0.42857143       0.006
   0.00000000  0.28571429  0.42857143       0.006
   0.14285714  0.28571429  0.42857143       0.006
   0.28571429  0.28571429  0.42857143       0.006
   0.42857143  0.28571429  0.42857143       0.006
  -0.42857143  0.28571429  0.42857143       0.006
  -0.28571429  0.28571429  0.42857143       0.006
  -0.14285714  0.28571429  0.42857143       0.006
   0.00000000  0.42857143  0.42857143       0.006
   0.14285714  0.42857143  0.42857143       0.006
   0.28571429  0.42857143  0.42857143       0.006
   0.42857143  0.42857143  0.42857143       0.006
  -0.42857143  0.42857143  0.42857143       0.006
  -0.28571429  0.42857143  0.42857143       0.006
  -0.14285714  0.42857143  0.42857143       0.006
   0.00000000 -0.42857143  0.42857143       0.006
   0.14285714 -0.42857143  0.42857143       0.006
   0.28571429 -0.42857143  0.42857143       0.006
   0.42857143 -0.42857143  0.42857143       0.006
  -0.42857143 -0.42857143  0.42857143       0.006
  -0.28571429 -0.42857143  0.42857143       0.006
  -0.14285714 -0.42857143  0.42857143       0.006
   0.00000000 -0.28571429  0.42857143       0.006
   0.14285714 -0.28571429  0.42857143       0.006
   0.28571429 -0.28571429  0.42857143       0.006
   0.42857143 -0.28571429  0.42857143       0.006
  -0.42857143 -0.28571429  0.42857143       0.006
  -0.28571429 -0.28571429  0.42857143       0.006
  -0.14285714 -0.28571429  0.42857143       0.006
   0.00000000 -0.14285714  0.42857143       0.006
   0.14285714 -0.14285714  0.42857143       0.006
   0.28571429 -0.14285714  0.42857143       0.006
   0.42857143 -0.14285714  0.42857143       0.006
  -0.42857143 -0.14285714  0.42857143       0.006
  -0.28571429 -0.14285714  0.42857143       0.006
  -0.14285714 -0.14285714  0.42857143       0.006
 
 position of ions in fractional coordinates (direct lattice) 
   0.00000000  0.00000000  0.00000000
 
 position of ions in cartesian coordinates  (Angst):
   0.00000000  0.00000000  0.00000000
 


--------------------------------------------------------------------------------------------------------


 k-point  1 :   0.0000 0.0000 0.0000  plane waves:     645
 k-point  2 :   0.1429-0.0000-0.0000  plane waves:     673
 k-point  3 :   0.2857-0.0000-0.0000  plane waves:     676
 k-point  4 :   0.4286 0.0000-0.0000  plane waves:     682
 k-point  5 :   0.0000 0.1429 0.0000  plane waves:     673
 k-point  6 :   0.1429 0.1429-0.0000  plane waves:     677
 k-point  7 :   0.2857 0.1429-0.0000  plane waves:     678
 k-point  8 :   0.4286 0.1429-0.0000  plane waves:     677
 k-point  9 :  -0.4286 0.1429 0.0000  plane waves:     676
 k-point 10 :  -0.2857 0.1429 0.0000  plane waves:     680
 k-point 11 :  -0.1429 0.1429-0.0000  plane waves:     670
 k-point 12 :   0.0000 0.2857 0.0000  plane waves:     676
 k-point 13 :   0.1429 0.2857-0.0000  plane waves:     678
 k-point 14 :   0.2857 0.2857-0.0000  plane waves:     673
 k-point 15 :   0.4286 0.2857-0.0000  plane waves:     683
 k-point 16 :  -0.4286 0.2857 0.0000  plane waves:     688
 k-point 17 :  -0.2857 0.2857 0.0000  plane waves:     684
 k-point 18 :  -0.1429 0.2857-0.0000  plane waves:     680
 k-point 19 :  -0.0000 0.4286 0.0000  plane waves:     682
 k-point 20 :   0.1429 0.4286-0.0000  plane waves:     677
 k-point 21 :   0.2857 0.4286-0.0000  plane waves:     683
 k-point 22 :   0.4286 0.4286 0.0000  plane waves:     676
 k-point 23 :  -0.4286 0.4286 0.0000  plane waves:     684
 k-point 24 :  -0.2857 0.4286 0.0000  plane waves:     688
 k-point 25 :  -0.1429 0.4286-0.0000  plane waves:     676
 k-point 26 :   0.0000 0.0000 0.1429  plane waves:     673
 k-point 27 :   0.1429-0.0000 0.1429  plane waves:     677
 k-point 28 :   0.2857-0.0000 0.1429  plane waves:     678
 k-point 29 :   0.4286 0.0000 0.1429  plane waves:     677
 k-point 30 :  -0.4286-0.0000 0.1429  plane waves:     676
 k-point 31 :  -0.2857 0.0000 0.1429  plane waves:     680
 k-point 32 :  -0.1429-0.0000 0.1429  plane waves:     670
 k-point 33 :   0.0000 0.1429 0.1429  plane waves:     677
 k-point 34 :   0.1429 0.1429 0.1429  plane waves:     673
 k-point 35 :   0.2857 0.1429 0.1429  plane waves:     670
 k-point 36 :   0.4286 0.1429 0.1429  plane waves:     680
 k-point 37 :  -0.4286 0.1429 0.1429  plane waves:     676
 k-point 38 :  -0.2857 0.1429 0.1429  plane waves:     677
 k-point 39 :  -0.1429 0.1429 0.1429  plane waves:     678
 k-point 40 :   0.0000 0.2857 0.1429  plane waves:     678
 k-point 41 :   0.1429 0.2857 0.1429  plane waves:     670
 k-point 42 :   0.2857 0.2857 0.1429  plane waves:     678
 k-point 43 :   0.4286 0.2857 0.1429  plane waves:     675
 k-point 44 :  -0.4286 0.2857 0.1429  plane waves:     679
 k-point 45 :  -0.2857 0.2857 0.1429  plane waves:     679
 k-point 46 :  -0.1429 0.2857 0.1429  plane waves:     675
 k-point 47 :  -0.0000 0.4286 0.1429  plane waves:     677
 k-point 48 :   0.1429 0.4286 0.1429  plane waves:     680
 k-point 49 :   0.2857 0.4286 0.1429  plane waves:     675
 k-point 50 :   0.4286 0.4286 0.1429  plane waves:     683
 k-point 51 :  -0.4286 0.4286 0.1429  plane waves:     684
 k-point 52 :  -0.2857 0.4286 0.1429  plane waves:     686
 k-point 53 :  -0.1429 0.4286 0.1429  plane waves:     679
 k-point 54 :   0.0000-0.4286 0.1429  plane waves:     676
 k-point 55 :   0.1429-0.4286 0.1429  plane waves:     676
 k-point 56 :   0.2857-0.4286 0.1429  plane waves:     679
 k-point 57 :   0.4286-0.4286 0.1429  plane waves:     684
 k-point 58 :  -0.4286-0.4286 0.1429  plane waves:     684
 k-point 59 :  -0.2857-0.4286 0.1429  plane waves:     684
 k-point 60 :  -0.1429-0.4286 0.1429  plane waves:     679
 k-point 61 :   0.0000-0.2857 0.1429  plane waves:     680
 k-point 62 :   0.1429-0.2857 0.1429  plane waves:     677
 k-point 63 :   0.2857-0.2857 0.1429  plane waves:     679
 k-point 64 :   0.4286-0.2857 0.1429  plane waves:     686
 k-point 65 :  -0.4286-0.2857 0.1429  plane waves:     684
 k-point 66 :  -0.2857-0.2857 0.1429  plane waves:     683
 k-point 67 :  -0.1429-0.2857 0.1429  plane waves:     675
 k-point 68 :   0.0000-0.1429 0.1429  plane waves:     670
 k-point 69 :   0.1429-0.1429 0.1429  plane waves:     678
 k-point 70 :   0.2857-0.1429 0.1429  plane waves:     675
 k-point 71 :   0.4286-0.1429 0.1429  plane waves:     679
 k-point 72 :  -0.4286-0.1429 0.1429  plane waves:     679
 k-point 73 :  -0.2857-0.1429 0.1429  plane waves:     675
 k-point 74 :  -0.1429-0.1429 0.1429  plane waves:     678
 k-point 75 :   0.0000 0.0000 0.2857  plane waves:     676
 k-point 76 :   0.1429-0.0000 0.2857  plane waves:     678
 k-point 77 :   0.2857-0.0000 0.2857  plane waves:     673
 k-point 78 :   0.4286-0.0000 0.2857  plane waves:     683
 k-point 79 :  -0.4286-0.0000 0.2857  plane waves:     688
 k-point 80 :  -0.2857 0.0000 0.2857  plane waves:     684
 k-point 81 :  -0.1429 0.0000 0.2857  plane waves:     680
 k-point 82 :  -0.0000 0.1429 0.2857  plane waves:     678
 k-point 83 :   0.1429 0.1429 0.2857  plane waves:     670
 k-point 84 :   0.2857 0.1429 0.2857  plane waves:     678
 k-point 85 :   0.4286 0.1429 0.2857  plane waves:     675
 k-point 86 :  -0.4286 0.1429 0.2857  plane waves:     679
 k-point 87 :  -0.2857 0.1429 0.2857  plane waves:     679
 k-point 88 :  -0.1429 0.1429 0.2857  plane waves:     675
 k-point 89 :   0.0000 0.2857 0.2857  plane waves:     673
 k-point 90 :   0.1429 0.2857 0.2857  plane waves:     678
 k-point 91 :   0.2857 0.2857 0.2857  plane waves:     676
 k-point 92 :   0.4286 0.2857 0.2857  plane waves:     680
 k-point 93 :  -0.4286 0.2857 0.2857  plane waves:     684
 k-point 94 :  -0.2857 0.2857 0.2857  plane waves:     688
 k-point 95 :  -0.1429 0.2857 0.2857  plane waves:     683
 k-point 96 :  -0.0000 0.4286 0.2857  plane waves:     683
 k-point 97 :   0.1429 0.4286 0.2857  plane waves:     675
 k-point 98 :   0.2857 0.4286 0.2857  plane waves:     680
 k-point 99 :   0.4286 0.4286 0.2857  plane waves:     677
 k-point ** :  -0.4286 0.4286 0.2857  plane waves:     679
 k-point ** :  -0.2857 0.4286 0.2857  plane waves:     686
 k-point ** :  -0.1429 0.4286 0.2857  plane waves:     684
 k-point ** :   0.0000-0.4286 0.2857  plane waves:     688
 k-point ** :   0.1429-0.4286 0.2857  plane waves:     679
 k-point ** :   0.2857-0.4286 0.2857  plane waves:     684
 k-point ** :   0.4286-0.4286 0.2857  plane waves:     679
 k-point ** :  -0.4286-0.4286 0.2857  plane waves:     688
 k-point ** :  -0.2857-0.4286 0.2857  plane waves:     686
 k-point ** :  -0.1429-0.4286 0.2857  plane waves:     686
 k-point ** :   0.0000-0.2857 0.2857  plane waves:     684
 k-point ** :   0.1429-0.2857 0.2857  plane waves:     679
 k-point ** :   0.2857-0.2857 0.2857  plane waves:     688
 k-point ** :   0.4286-0.2857 0.2857  plane waves:     686
 k-point ** :  -0.4286-0.2857 0.2857  plane waves:     686
 k-point ** :  -0.2857-0.2857 0.2857  plane waves:     688
 k-point ** :  -0.1429-0.2857 0.2857  plane waves:     679
 k-point ** :  -0.0000-0.1429 0.2857  plane waves:     680
 k-point ** :   0.1429-0.1429 0.2857  plane waves:     675
 k-point ** :   0.2857-0.1429 0.2857  plane waves:     683
 k-point ** :   0.4286-0.1429 0.2857  plane waves:     684
 k-point ** :  -0.4286-0.1429 0.2857  plane waves:     686
 k-point ** :  -0.2857-0.1429 0.2857  plane waves:     679
 k-point ** :  -0.1429-0.1429 0.2857  plane waves:     677
 k-point ** :   0.0000 0.0000 0.4286  plane waves:     682
 k-point ** :   0.1429-0.0000 0.4286  plane waves:     677
 k-point ** :   0.2857-0.0000 0.4286  plane waves:     683
 k-point ** :   0.4286 0.0000 0.4286  plane waves:     676
 k-point ** :  -0.4286 0.0000 0.4286  plane waves:     684
 k-point ** :  -0.2857 0.0000 0.4286  plane waves:     688
 k-point ** :  -0.1429 0.0000 0.4286  plane waves:     676
 k-point ** :   0.0000 0.1429 0.4286  plane waves:     677
 k-point ** :   0.1429 0.1429 0.4286  plane waves:     680
 k-point ** :   0.2857 0.1429 0.4286  plane waves:     675
 k-point ** :   0.4286 0.1429 0.4286  plane waves:     683
 k-point ** :  -0.4286 0.1429 0.4286  plane waves:     684
 k-point ** :  -0.2857 0.1429 0.4286  plane waves:     686
 k-point ** :  -0.1429 0.1429 0.4286  plane waves:     679
 k-point ** :   0.0000 0.2857 0.4286  plane waves:     683
 k-point ** :   0.1429 0.2857 0.4286  plane waves:     675
 k-point ** :   0.2857 0.2857 0.4286  plane waves:     680
 k-point ** :   0.4286 0.2857 0.4286  plane waves:     677
 k-point ** :  -0.4286 0.2857 0.4286  plane waves:     679
 k-point ** :  -0.2857 0.2857 0.4286  plane waves:     686
 k-point ** :  -0.1429 0.2857 0.4286  plane waves:     684
 k-point ** :   0.0000 0.4286 0.4286  plane waves:     676
 k-point ** :   0.1429 0.4286 0.4286  plane waves:     683
 k-point ** :   0.2857 0.4286 0.4286  plane waves:     677
 k-point ** :   0.4286 0.4286 0.4286  plane waves:     682
 k-point ** :  -0.4286 0.4286 0.4286  plane waves:     676
 k-point ** :  -0.2857 0.4286 0.4286  plane waves:     688
 k-point ** :  -0.1429 0.4286 0.4286  plane waves:     684
 k-point ** :   0.0000-0.4286 0.4286  plane waves:     684
 k-point ** :   0.1429-0.4286 0.4286  plane waves:     684
 k-point ** :   0.2857-0.4286 0.4286  plane waves:     679
 k-point ** :   0.4286-0.4286 0.4286  plane waves:     676
 k-point ** :  -0.4286-0.4286 0.4286  plane waves:     676
 k-point ** :  -0.2857-0.4286 0.4286  plane waves:     679
 k-point ** :  -0.1429-0.4286 0.4286  plane waves:     684
 k-point ** :   0.0000-0.2857 0.4286  plane waves:     688
 k-point ** :   0.1429-0.2857 0.4286  plane waves:     686
 k-point ** :   0.2857-0.2857 0.4286  plane waves:     686
 k-point ** :   0.4286-0.2857 0.4286  plane waves:     688
 k-point ** :  -0.4286-0.2857 0.4286  plane waves:     679
 k-point ** :  -0.2857-0.2857 0.4286  plane waves:     684
 k-point ** :  -0.1429-0.2857 0.4286  plane waves:     679
 k-point ** :   0.0000-0.1429 0.4286  plane waves:     676
 k-point ** :   0.1429-0.1429 0.4286  plane waves:     679
 k-point ** :   0.2857-0.1429 0.4286  plane waves:     684
 k-point ** :   0.4286-0.1429 0.4286  plane waves:     684
 k-point ** :  -0.4286-0.1429 0.4286  plane waves:     684
 k-point ** :  -0.2857-0.1429 0.4286  plane waves:     679
 k-point ** :  -0.1429-0.1429 0.4286  plane waves:     676

 maximum and minimum number of plane-waves per node :       109       87

 maximum number of plane-waves:       688
 maximum index in each direction: 
   IXMAX=    6   IYMAX=    6   IZMAX=    6
   IXMIN=   -6   IYMIN=   -6   IZMIN=   -6


 parallel 3D FFT for wavefunctions:
    minimum data exchange during FFTs selected (reduces bandwidth)
 parallel 3D FFT for charge:
    minimum data exchange during FFTs selected (reduces bandwidth)


 total amount of memory used by VASP MPI-rank0    37191. kBytes
=======================================================================

   base      :      30000. kBytes
   nonl-proj :       4580. kBytes
   fftplans  :       1372. kBytes
   grid      :        442. kBytes
   one-center:         49. kBytes
   wavefun   :        748. kBytes
 
     INWAV:  cpu time    0.0000: real time    0.0000
 Broyden mixing: mesh for mixing (old mesh)
   NGX = 13   NGY = 13   NGZ = 13
  (NGX  = 48   NGY  = 48   NGZ  = 48)
  gives a total of   2197 points

 initial charge density was supplied:
 charge density of overlapping atoms calculated
 number of electron       8.0000000 magnetization 
 keeping initial charge density in first step


--------------------------------------------------------------------------------------------------------


 Maximum index for augmentation-charges         4514 (set IRDMAX)


--------------------------------------------------------------------------------------------------------


 First call to EWALD:  gamma=   0.459
 Maximum number of real-space cells 3x 3x 3
 Maximum number of reciprocal cells 3x 3x 3

    FEWALD:  cpu time    0.0020: real time    0.0022


--------------------------------------- Iteration      1(   1)  ---------------------------------------


    POTLOK:  cpu time    0.0081: real time    0.0095
    SETDIJ:  cpu time    0.0170: real time    0.0170
     EDDAV:  cpu time    0.1737: real time    0.1737
       DOS:  cpu time    0.0009: real time    0.0008
    --------------------------------------------
      LOOP:  cpu time    0.1996: real time    0.2010

 eigenvalue-minimisations  :  2752
 total energy-change (2. order) : 0.2794311E+02  (-0.2463047E+03)
 number of electron       8.0000000 magnetization 
 augmentation part        8.0000000 magnetization 

 Free energy of the ion-electron system (eV)
  ---------------------------------------------------
  alpha Z        PSCENC =        22.61767795
  Ewald energy   TEWEN  =      -344.53113738
  -Hartree energ DENC   =       -64.52406707
  -exchange      EXHF   =         0.00000000
  -V(xc)+E(xc)   XCENC  =       -72.79702283
  PAW double counting   =       428.77605987     -340.65282128
  entropy T*S    EENTRO =        -0.00000329
  eigenvalues    EBANDS =       -30.44835449
  atomic energy  EATOM  =       429.50278051
  Solvation  Ediel_sol  =         0.00000000
  ---------------------------------------------------
  free energy    TOTEN  =        27.94311198 eV

  energy without entropy =       27.94311527  energy(sigma->0) =       27.94311362


--------------------------------------------------------------------------------------------------------




--------------------------------------- Iteration      1(   2)  ---------------------------------------


     EDDAV:  cpu time    0.2244: real time    0.2273
       DOS:  cpu time    0.0004: real time    0.0004
    --------------------------------------------
      LOOP:  cpu time    0.2248: real time    0.2278

 eigenvalue-minimisations  :  3640
 total energy-change (2. order) :-0.2668602E+02  (-0.2554247E+02)
 number of electron       8.0000000 magnetization 
 augmentation part        8.0000000 magnetization 

 Free energy of the ion-electron system (eV)
  ---------------------------------------------------
  alpha Z        PSCENC =        22.61767795
  Ewald energy   TEWEN  =      -344.53113738
  -Hartree energ DENC   =       -64.52406707
  -exchange      EXHF   =         0.00000000
  -V(xc)+E(xc)   XCENC  =       -72.79702283
  PAW double counting   =       428.77605987     -340.65282128
  entropy T*S    EENTRO =         0.00000000
  eigenvalues    EBANDS =       -57.13437482
  atomic energy  EATOM  =       429.50278051
  Solvation  Ediel_sol  =         0.00000000
  ---------------------------------------------------
  free energy    TOTEN  =         1.25709494 eV

  energy without entropy =        1.25709494  energy(sigma->0) =        1.25709494


--------------------------------------------------------------------------------------------------------




--------------------------------------- Iteration      1(   3)  ---------------------------------------


     EDDAV:  cpu time    0.2068: real time    0.2069
       DOS:  cpu time    0.0004: real time    0.0004
    --------------------------------------------
      LOOP:  cpu time    0.2072: real time    0.2073

 eigenvalue-minimisations  :  3384
 total energy-change (2. order) :-0.1238245E+01  (-0.1238245E+01)
 number of electron       8.0000000 magnetization 
 augmentation part        8.0000000 magnetization 

 Free energy of the ion-electron system (eV)
  ---------------------------------------------------
  alpha Z        PSCENC =        22.61767795
  Ewald energy   TEWEN  =      -344.53113738
  -Hartree energ DENC   =       -64.52406707
  -exchange      EXHF   =         0.00000000
  -V(xc)+E(xc)   XCENC  =       -72.79702283
  PAW double counting   =       428.77605987     -340.65282128
  entropy T*S    EENTRO =         0.00000000
  eigenvalues    EBANDS =       -58.37261974
  atomic energy  EATOM  =       429.50278051
  Solvation  Ediel_sol  =         0.00000000
  ---------------------------------------------------
  free energy    TOTEN  =         0.01885002 eV

  energy without entropy =        0.01885002  energy(sigma->0) =        0.01885002


--------------------------------------------------------------------------------------------------------




--------------------------------------- Iteration      1(   4)  ---------------------------------------


     EDDAV:  cpu time    0.2619: real time    0.2615
       DOS:  cpu time    0.0003: real time    0.0004
    --------------------------------------------
      LOOP:  cpu time    0.2622: real time    0.2619

 eigenvalue-minimisations  :  4312
 total energy-change (2. order) :-0.5580251E-02  (-0.5580251E-02)
 number of electron       8.0000000 magnetization 
 augmentation part        8.0000000 magnetization 

 Free energy of the ion-electron system (eV)
  ---------------------------------------------------
  alpha Z        PSCENC =        22.61767795
  Ewald energy   TEWEN  =      -344.53113738
  -Hartree energ DENC   =       -64.52406707
  -exchange      EXHF   =         0.00000000
  -V(xc)+E(xc)   XCENC  =       -72.79702283
  PAW double counting   =       428.77605987     -340.65282128
  entropy T*S    EENTRO =         0.00000000
  eigenvalues    EBANDS =       -58.37819999
  atomic energy  EATOM  =       429.50278051
  Solvation  Ediel_sol  =         0.00000000
  ---------------------------------------------------
  free energy    TOTEN  =         0.01326977 eV

  energy without entropy =        0.01326977  energy(sigma->0) =        0.01326977


--------------------------------------------------------------------------------------------------------




--------------------------------------- Iteration      1(   5)  ---------------------------------------


     EDDAV:  cpu time    0.2234: real time    0.2238
       DOS:  cpu time    0.0004: real time    0.0004
    CHARGE:  cpu time    0.0194: real time    0.0194
    MIXING:  cpu time    0.0016: real time    0.0016
    --------------------------------------------
      LOOP:  cpu time    0.2449: real time    0.2453

 eigenvalue-minimisations  :  3680
 total energy-change (2. order) :-0.4731229E-05  (-0.4731229E-05)
 number of electron       8.0000000 magnetization 
 augmentation part       -1.3427856 magnetization 

 Broyden mixing:
  rms(total) = 0.70964E-02    rms(broyden)= 0.68108E-02
  rms(prec ) = 0.11967E-01
  weight for this iteration     100.00

 Free energy of the ion-electron system (eV)
  ---------------------------------------------------
  alpha Z        PSCENC =        22.61767795
  Ewald energy   TEWEN  =      -344.53113738
  -Hartree energ DENC   =       -64.52406707
  -exchange      EXHF   =         0.00000000
  -V(xc)+E(xc)   XCENC  =       -72.79702283
  PAW double counting   =       428.77605987     -340.65282128
  entropy T*S    EENTRO =         0.00000000
  eigenvalues    EBANDS =       -58.37820472
  atomic energy  EATOM  =       429.50278051
  Solvation  Ediel_sol  =         0.00000000
  ---------------------------------------------------
  free energy    TOTEN  =         0.01326504 eV

  energy without entropy =        0.01326504  energy(sigma->0) =        0.01326504


--------------------------------------------------------------------------------------------------------




--------------------------------------- Iteration      1(   6)  ---------------------------------------


    POTLOK:  cpu time    0.0035: real time    0.0034
    SETDIJ:  cpu time    0.0171: real time    0.0173
     EDDAV:  cpu time    0.2393: real time    0.2390
       DOS:  cpu time    0.0006: real time    0.0004
    CHARGE:  cpu time    0.0182: real time    0.0185
    MIXING:  cpu time    0.0009: real time    0.0009
    --------------------------------------------
      LOOP:  cpu time    0.2796: real time    0.2796

 eigenvalue-minimisations  :  3976
 total energy-change (2. order) :-0.6262397E-04  (-0.9668325E-05)
 number of electron       8.0000000 magnetization 
 augmentation part       -1.3421139 magnetization 

 Broyden mixing:
  rms(total) = 0.41284E-02    rms(broyden)= 0.41097E-02
  rms(prec ) = 0.63458E-02
  weight for this iteration     100.00

 eigenvalues of (default mixing * dielectric matrix)
  average eigenvalue GAMMA=   2.3479
  2.3479

 Free energy of the ion-electron system (eV)
  ---------------------------------------------------
  alpha Z        PSCENC =        22.61767795
  Ewald energy   TEWEN  =      -344.53113738
  -Hartree energ DENC   =       -64.57666853
  -exchange      EXHF   =         0.00000000
  -V(xc)+E(xc)   XCENC  =       -72.79550566
  PAW double counting   =       429.79336635     -341.67572163
  entropy T*S    EENTRO =         0.00000000
  eigenvalues    EBANDS =       -58.32158919
  atomic energy  EATOM  =       429.50278051
  Solvation  Ediel_sol  =         0.00000000
  ---------------------------------------------------
  free energy    TOTEN  =         0.01320241 eV

  energy without entropy =        0.01320241  energy(sigma->0) =        0.01320241


--------------------------------------------------------------------------------------------------------




--------------------------------------- Iteration      1(   7)  ---------------------------------------


    POTLOK:  cpu time    0.0035: real time    0.0034
    SETDIJ:  cpu time    0.0157: real time    0.0160
     EDDAV:  cpu time    0.2058: real time    0.2058
       DOS:  cpu time    0.0006: real time    0.0004
    CHARGE:  cpu time    0.0185: real time    0.0187
    MIXING:  cpu time    0.0010: real time    0.0010
    --------------------------------------------
      LOOP:  cpu time    0.2451: real time    0.2453

 eigenvalue-minimisations  :  3280
 total energy-change (2. order) :-0.5251452E-04  (-0.7939167E-05)
 number of electron       8.0000000 magnetization 
 augmentation part       -1.3415092 magnetization 

 Broyden mixing:
  rms(total) = 0.11513E-02    rms(broyden)= 0.11486E-02
  rms(prec ) = 0.16275E-02
  weight for this iteration     100.00

 eigenvalues of (default mixing * dielectric matrix)
  average eigenvalue GAMMA=   2.2027
  1.8677  2.5376

 Free energy of the ion-electron system (eV)
  ---------------------------------------------------
  alpha Z        PSCENC =        22.61767795
  Ewald energy   TEWEN  =      -344.53113738
  -Hartree energ DENC   =       -64.62363176
  -exchange      EXHF   =         0.00000000
  -V(xc)+E(xc)   XCENC  =       -72.79432120
  PAW double counting   =       431.09357069     -342.98086576
  entropy T*S    EENTRO =         0.00000000
  eigenvalues    EBANDS =       -58.27092314
  atomic energy  EATOM  =       429.50278051
  Solvation  Ediel_sol  =         0.00000000
  ---------------------------------------------------
  free energy    TOTEN  =         0.01314990 eV

  energy without entropy =        0.01314990  energy(sigma->0) =        0.01314990


--------------------------------------------------------------------------------------------------------




--------------------------------------- Iteration      1(   8)  ---------------------------------------


    POTLOK:  cpu time    0.0035: real time    0.0036
    SETDIJ:  cpu time    0.0174: real time    0.0173
     EDDAV:  cpu time    0.1990: real time    0.1992
       DOS:  cpu time    0.0004: real time    0.0004
    CHARGE:  cpu time    0.0192: real time    0.0192
    MIXING:  cpu time    0.0008: real time    0.0008
    --------------------------------------------
      LOOP:  cpu time    0.2404: real time    0.2406

 eigenvalue-minimisations  :  3120
 total energy-change (2. order) :-0.7201531E-05  (-0.5106175E-06)
 number of electron       8.0000000 magnetization 
 augmentation part       -1.3415301 magnetization 

 Broyden mixing:
  rms(total) = 0.11175E-03    rms(broyden)= 0.11061E-03
  rms(prec ) = 0.25754E-03
  weight for this iteration     100.00

 eigenvalues of (default mixing * dielectric matrix)
  average eigenvalue GAMMA=   1.9807
  1.4888  2.5251  1.9281

 Free energy of the ion-electron system (eV)
  ---------------------------------------------------
  alpha Z        PSCENC =        22.61767795
  Ewald energy   TEWEN  =      -344.53113738
  -Hartree energ DENC   =       -64.62259431
  -exchange      EXHF   =         0.00000000
  -V(xc)+E(xc)   XCENC  =       -72.79431680
  PAW double counting   =       431.61425477     -343.50121168
  entropy T*S    EENTRO =         0.00000000
  eigenvalues    EBANDS =       -58.27231036
  atomic energy  EATOM  =       429.50278051
  Solvation  Ediel_sol  =         0.00000000
  ---------------------------------------------------
  free energy    TOTEN  =         0.01314270 eV

  energy without entropy =        0.01314270  energy(sigma->0) =        0.01314270


--------------------------------------------------------------------------------------------------------




--------------------------------------- Iteration      1(   9)  ---------------------------------------


    POTLOK:  cpu time    0.0042: real time    0.0045
    SETDIJ:  cpu time    0.0165: real time    0.0169
     EDDAV:  cpu time    0.2267: real time    0.2263
       DOS:  cpu time    0.0003: real time    0.0004
    CHARGE:  cpu time    0.0183: real time    0.0184
    MIXING:  cpu time    0.0010: real time    0.0010
    --------------------------------------------
      LOOP:  cpu time    0.2672: real time    0.2675

 eigenvalue-minimisations  :  3728
 total energy-change (2. order) :-0.2683910E-06  (-0.1422348E-07)
 number of electron       8.0000000 magnetization 
 augmentation part       -1.3415352 magnetization 

 Broyden mixing:
  rms(total) = 0.44274E-04    rms(broyden)= 0.44168E-04
  rms(prec ) = 0.11459E-03
  weight for this iteration     100.00

 eigenvalues of (default mixing * dielectric matrix)
  average eigenvalue GAMMA=   2.0883
  1.0261  1.8236  2.9799  2.5235

 Free energy of the ion-electron system (eV)
  ---------------------------------------------------
  alpha Z        PSCENC =        22.61767795
  Ewald energy   TEWEN  =      -344.53113738
  -Hartree energ DENC   =       -64.62354809
  -exchange      EXHF   =         0.00000000
  -V(xc)+E(xc)   XCENC  =       -72.79410075
  PAW double counting   =       431.61527685     -343.50217404
  entropy T*S    EENTRO =         0.00000000
  eigenvalues    EBANDS =       -58.27163261
  atomic energy  EATOM  =       429.50278051
  Solvation  Ediel_sol  =         0.00000000
  ---------------------------------------------------
  free energy    TOTEN  =         0.01314243 eV

  energy without entropy =        0.01314243  energy(sigma->0) =        0.01314243


--------------------------------------------------------------------------------------------------------




--------------------------------------- Iteration      1(  10)  ---------------------------------------


    POTLOK:  cpu time    0.0042: real time    0.0041
    SETDIJ:  cpu time    0.0166: real time    0.0169
     EDDAV:  cpu time    0.1898: real time    0.1895
       DOS:  cpu time    0.0003: real time    0.0004
    CHARGE:  cpu time    0.0183: real time    0.0185
    MIXING:  cpu time    0.0008: real time    0.0009
    --------------------------------------------
      LOOP:  cpu time    0.2297: real time    0.2302

 eigenvalue-minimisations  :  3064
 total energy-change (2. order) :-0.7982959E-07  (-0.7072051E-08)
 number of electron       8.0000000 magnetization 
 augmentation part       -1.3415324 magnetization 

 Broyden mixing:
  rms(total) = 0.98313E-05    rms(broyden)= 0.98130E-05
  rms(prec ) = 0.18550E-04
  weight for this iteration     100.00

 eigenvalues of (default mixing * dielectric matrix)
  average eigenvalue GAMMA=   2.1579
  1.0037  2.9607  1.8775  2.4736  2.4736

 Free energy of the ion-electron system (eV)
  ---------------------------------------------------
  alpha Z        PSCENC =        22.61767795
  Ewald energy   TEWEN  =      -344.53113738
  -Hartree energ DENC   =       -64.62459334
  -exchange      EXHF   =         0.00000000
  -V(xc)+E(xc)   XCENC  =       -72.79394148
  PAW double counting   =       431.61268116     -343.49957085
  entropy T*S    EENTRO =         0.00000000
  eigenvalues    EBANDS =       -58.27075422
  atomic energy  EATOM  =       429.50278051
  Solvation  Ediel_sol  =         0.00000000
  ---------------------------------------------------
  free energy    TOTEN  =         0.01314235 eV

  energy without entropy =        0.01314235  energy(sigma->0) =        0.01314235


--------------------------------------------------------------------------------------------------------




--------------------------------------- Iteration      1(  11)  ---------------------------------------


    POTLOK:  cpu time    0.0034: real time    0.0062
    SETDIJ:  cpu time    0.0164: real time    0.0164
     EDDAV:  cpu time    0.2390: real time    0.2387
       DOS:  cpu time    0.0003: real time    0.0004
    CHARGE:  cpu time    0.0185: real time    0.0185
    MIXING:  cpu time    0.0008: real time    0.0008
    --------------------------------------------
      LOOP:  cpu time    0.2785: real time    0.2810

 eigenvalue-minimisations  :  3888
 total energy-change (2. order) : 0.2714148E-07  (-0.1976012E-09)
 number of electron       8.0000000 magnetization 
 augmentation part       -1.3415341 magnetization 

 Broyden mixing:
  rms(total) = 0.43837E-05    rms(broyden)= 0.43824E-05
  rms(prec ) = 0.97437E-05
  weight for this iteration     100.00

 eigenvalues of (default mixing * dielectric matrix)
  average eigenvalue GAMMA=   2.0506
  3.3902  2.5869  2.5117  1.7966  1.0091  1.0091

 Free energy of the ion-electron system (eV)
  ---------------------------------------------------
  alpha Z        PSCENC =        22.61767795
  Ewald energy   TEWEN  =      -344.53113738
  -Hartree energ DENC   =       -64.62439458
  -exchange      EXHF   =         0.00000000
  -V(xc)+E(xc)   XCENC  =       -72.79396677
  PAW double counting   =       431.60605445     -343.49292457
  entropy T*S    EENTRO =         0.00000000
  eigenvalues    EBANDS =       -58.27094723
  atomic energy  EATOM  =       429.50278051
  Solvation  Ediel_sol  =         0.00000000
  ---------------------------------------------------
  free energy    TOTEN  =         0.01314237 eV

  energy without entropy =        0.01314237  energy(sigma->0) =        0.01314237


--------------------------------------------------------------------------------------------------------




--------------------------------------- Iteration      1(  12)  ---------------------------------------


[...]
   28.041214    0.814503    0.814346    0.814712    0.000134   -0.000139   -0.000006
   28.359865    0.819296    0.819144    0.819499    0.000130   -0.000135   -0.000006
   28.678515    0.823896    0.823748    0.824094    0.000126   -0.000131   -0.000006
   28.997165    0.828314    0.828171    0.828506    0.000122   -0.000127   -0.000006
   29.315815    0.832561    0.832421    0.832747    0.000119   -0.000123   -0.000005
   29.634465    0.836644    0.836508    0.836826    0.000116   -0.000120   -0.000005
   29.953115    0.840574    0.840442    0.840751    0.000112   -0.000116   -0.000005
   30.271766    0.844357    0.844228    0.844529    0.000109   -0.000113   -0.000005
   30.590416    0.848002    0.847876    0.848169    0.000106   -0.000110   -0.000005
   30.909066    0.851515    0.851393    0.851678    0.000104   -0.000107   -0.000005
   31.227716    0.854903    0.854784    0.855062    0.000101   -0.000104   -0.000005
   31.546366    0.858172    0.858055    0.858327    0.000098   -0.000102   -0.000005

  frequency dependent IMAGINARY DIELECTRIC FUNCTION (independent particle, no local field effects) current-current (2nd set in vasprun.xml)
     E(ev)      X         Y         Z        XY        YZ        ZX
  --------------------------------------------------------------------------------------------------------------
    0.000000    8.283817    8.287117    8.279542   -0.102098    0.033749   -0.132038
    0.318650    0.830288    0.830618    0.829860   -0.010215    0.003378   -0.013211
    0.637300    0.418054    0.418220    0.417840   -0.005116    0.001693   -0.006617
    0.955950    0.281987    0.282098    0.281843   -0.003420    0.001134   -0.004424
    1.274601    0.215019    0.215103    0.214910   -0.002575    0.000855   -0.003332
    1.593251    0.175760    0.175828    0.175673   -0.002070    0.000689   -0.002680
    1.911901    0.150437    0.150494    0.150362   -0.001735    0.000580   -0.002248
    2.230551    0.133168    0.133217    0.133103   -0.001498    0.000503   -0.001941
    2.549201    0.121040    0.121085    0.120983   -0.001322    0.000446   -0.001714
    2.867851    0.112467    0.112508    0.112415   -0.001186    0.000402   -0.001539
    3.186502    0.106535    0.106572    0.106487   -0.001079    0.000368   -0.001402
    3.505152    0.102711    0.102746    0.102666   -0.000993    0.000341   -0.001291
    3.823802    0.100706    0.100739    0.100664   -0.000923    0.000319   -0.001200
    4.142452    0.100414    0.100445    0.100374   -0.000864    0.000301   -0.001126
    4.461102    0.101898    0.101928    0.101860   -0.000816    0.000287   -0.001064
    4.779752    0.105436    0.105465    0.105399   -0.000775    0.000275   -0.001012
    5.098403    0.111659    0.111687    0.111623   -0.000741    0.000266   -0.000969
    5.417053    0.122009    0.122037    0.121974   -0.000712    0.000259   -0.000933
    5.735703    0.140788    0.140815    0.140753   -0.000688    0.000253   -0.000903
    6.054353    0.198729    0.198756    0.198694   -0.000668    0.000249   -0.000879
    6.373003    0.280285    0.280312    0.280250   -0.000652    0.000247   -0.000859
    6.691653    0.570434    0.570462    0.570398   -0.000639    0.000246   -0.000844
    7.010304    0.769632    0.769660    0.769596   -0.000630    0.000247   -0.000834
    7.328954    0.743356    0.743385    0.743320   -0.000623    0.000249   -0.000828
    7.647604    1.709628    1.709658    1.709591   -0.000620    0.000253   -0.000826
    7.966254    3.304674    3.304707    3.304629   -0.000614    0.000258   -0.000824
    8.284904    4.011179    4.011212    4.011136   -0.000622    0.000265   -0.000833
    8.603554    5.229028    5.229063    5.228983   -0.000626    0.000276   -0.000845
    8.922205    3.247063    3.247100    3.247015   -0.000637    0.000287   -0.000861
    9.240855    4.715040    4.715082    4.714988   -0.000651    0.000302   -0.000884
    9.559505    5.828586    5.828633    5.828528   -0.000668    0.000322   -0.000915
    9.878155    3.738417    3.738469    3.738356   -0.000695    0.000348   -0.000958
   10.196805    3.472900    3.472959    3.472820   -0.000725    0.000375   -0.000999
   10.515455    4.187444    4.187513    4.187354   -0.000768    0.000415   -0.001066
   10.834106    3.838517    3.838596    3.838415   -0.000827    0.000471   -0.001155
   11.152756    3.312061    3.312154    3.311935   -0.000906    0.000545   -0.001268
   11.471406    3.678514    3.678640    3.678358   -0.000991    0.000646   -0.001437
   11.790056    1.454679    1.454855    1.454462   -0.001144    0.000784   -0.001651
   12.108706    1.606877    1.607146    1.606559   -0.001378    0.001016   -0.001993
   12.427356    1.151894    1.152335    1.151362   -0.001766    0.001424   -0.002545
   12.746007    1.143896    1.144819    1.142776   -0.002587    0.002309   -0.003631
   13.064657    0.807585    0.810861    0.803624   -0.005256    0.005251   -0.006445
   13.383307    0.309375    0.344168    0.267328   -0.016472    0.017089    0.003339
   13.701957    0.169395    0.172372    0.165785    0.001570   -0.002761    0.006783
   14.020607    0.155875    0.156639    0.154935    0.000974   -0.002146    0.003521
   14.339257    0.057778    0.058109    0.057351    0.000499   -0.001801    0.002365
   14.657908    0.062085    0.062268    0.061828    0.000107   -0.001707    0.001816
   14.976558    0.023412    0.023534    0.023163   -0.000428   -0.001832    0.001546
   15.295208    0.018697    0.018822    0.018146   -0.002033   -0.002111    0.001509
   15.613858    0.035212    0.035686    0.031425   -0.008116    0.011615   -0.000937
   15.932508    0.011763    0.011834    0.011421    0.000602    0.002576    0.000077
   16.251158    0.008710    0.008748    0.008593    0.000635    0.001059    0.000291
   16.569809    0.007101    0.007127    0.007038    0.000532    0.000587    0.000324
   16.888459    0.005958    0.005978    0.005916    0.000448    0.000372    0.000317
   17.207109    0.005077    0.005093    0.005047    0.000384    0.000254    0.000299
   17.525759    0.004376    0.004388    0.004353    0.000335    0.000182    0.000278
   17.844409    0.003807    0.003817    0.003789    0.000295    0.000135    0.000257
   18.163059    0.003342    0.003351    0.003328    0.000263    0.000103    0.000238
   18.481710    0.002966    0.002973    0.002954    0.000236    0.000080    0.000220
   18.800360    0.002686    0.002693    0.002677    0.000214    0.000063    0.000204
   19.119010    0.002860    0.002866    0.002852    0.000194    0.000050    0.000189
   19.437660    0.002743    0.002747    0.002736    0.000178    0.000040    0.000176
   19.756310    0.003086    0.003090    0.003080    0.000163    0.000033    0.000163
   20.074960    0.005194    0.005198    0.005189    0.000150    0.000027    0.000152
   20.393610    0.004873    0.004876    0.004869    0.000139    0.000022    0.000142
   20.712261    0.004378    0.004381    0.004374    0.000129    0.000018    0.000133
   21.030911    0.004169    0.004172    0.004166    0.000120    0.000015    0.000125
   21.349561    0.003507    0.003510    0.003504    0.000112    0.000013    0.000117
   21.668211    0.004046    0.004048    0.004044    0.000105    0.000011    0.000110
   21.986861    0.002514    0.002515    0.002511    0.000098    0.000009    0.000104
   22.305511    0.004180    0.004181    0.004177    0.000092    0.000007    0.000098
   22.624162    0.003018    0.003019    0.003015    0.000086    0.000006    0.000093
   22.942812    0.003308    0.003309    0.003306    0.000081    0.000005    0.000087
   23.261462    0.002367    0.002368    0.002365    0.000076    0.000005    0.000082
   23.580112    0.001191    0.001192    0.001189    0.000072    0.000004    0.000078
   23.898762    0.001017    0.001018    0.001015    0.000067    0.000004    0.000073
   24.217412    0.000944    0.000946    0.000940    0.000062    0.000005    0.000068
   24.536063    0.000770    0.000790    0.000745    0.000049    0.000016    0.000062
   24.854713    0.000523    0.000527    0.000518    0.000060   -0.000001    0.000072
   25.173363    0.000433    0.000435    0.000431    0.000057   -0.000001    0.000065
   25.492013    0.000416    0.000417    0.000415    0.000054   -0.000001    0.000061
   25.810663    0.000358    0.000359    0.000357    0.000051   -0.000001    0.000058
   26.129313    0.000334    0.000335    0.000332    0.000045    0.000000    0.000055
   26.447964    0.000305    0.000306    0.000304    0.000047    0.000002    0.000052
   26.766614    0.000282    0.000282    0.000281    0.000045    0.000000    0.000050
   27.085264    0.000262    0.000262    0.000261    0.000043   -0.000000    0.000048
   27.403914    0.000244    0.000244    0.000243    0.000041   -0.000001    0.000046
   27.722564    0.000228    0.000228    0.000227    0.000039   -0.000001    0.000044
   28.041214    0.000213    0.000213    0.000212    0.000038   -0.000001    0.000042
   28.359865    0.000199    0.000199    0.000199    0.000036   -0.000001    0.000041
   28.678515    0.000187    0.000187    0.000186    0.000035   -0.000001    0.000039
   28.997165    0.000175    0.000175    0.000175    0.000033   -0.000001    0.000038
   29.315815    0.000164    0.000165    0.000164    0.000032   -0.000001    0.000036
   29.634465    0.000155    0.000155    0.000154    0.000031   -0.000001    0.000035
   29.953115    0.000145    0.000146    0.000145    0.000030   -0.000001    0.000034
   30.271766    0.000137    0.000137    0.000137    0.000029   -0.000001    0.000032
   30.590416    0.000129    0.000129    0.000129    0.000028   -0.000001    0.000031
   30.909066    0.000122    0.000122    0.000122    0.000027   -0.000001    0.000030
   31.227716    0.000115    0.000115    0.000115    0.000026   -0.000001    0.000029
   31.546366    0.000109    0.000109    0.000108    0.000025   -0.000001    0.000028

  frequency dependent      REAL DIELECTRIC FUNCTION (independent particle, no local field effects) current-current (2nd set in vasprun.xml)
     E(ev)        X           Y           Z          XY          YZ          ZX
  --------------------------------------------------------------------------------------------------------------
    0.000000    2.319201    2.319727    2.318520   -0.000376    0.000396    0.000037
    0.318650    2.320717    2.321243    2.320036   -0.000376    0.000397    0.000037
    0.637300    2.325333    2.325860    2.324651   -0.000377    0.000397    0.000038
    0.955950    2.333107    2.333635    2.332422   -0.000378    0.000398    0.000038
    1.274601    2.344158    2.344689    2.343471   -0.000379    0.000400    0.000038
    1.593251    2.358666    2.359199    2.357976   -0.000381    0.000402    0.000038
    1.911901    2.376872    2.377409    2.376178   -0.000383    0.000404    0.000038
    2.230551    2.399095    2.399636    2.398395   -0.000385    0.000407    0.000039
    2.549201    2.425745    2.426291    2.425039   -0.000389    0.000410    0.000039
    2.867851    2.457349    2.457900    2.456636   -0.000392    0.000414    0.000040
    3.186502    2.494581    2.495138    2.493860   -0.000396    0.000418    0.000040
    3.505152    2.538315    2.538879    2.537585   -0.000401    0.000423    0.000041
    3.823802    2.589692    2.590264    2.588952   -0.000406    0.000428    0.000042
    4.142452    2.650234    2.650815    2.649483   -0.000411    0.000434    0.000042
    4.461102    2.722022    2.722613    2.721258   -0.000418    0.000441    0.000043
    4.779752    2.808012    2.808614    2.807234   -0.000425    0.000448    0.000044
    5.098403    2.912635    2.913250    2.911841   -0.000432    0.000456    0.000046
    5.417053    3.043159    3.043788    3.042348   -0.000441    0.000466    0.000047
    5.735703    3.213694    3.214337    3.212863   -0.000450    0.000476    0.000048
    6.054353    3.462944    3.463604    3.462092   -0.000461    0.000487    0.000050
    6.373003    3.613584    3.614264    3.612709   -0.000472    0.000499    0.000052
    6.691653    4.237053    4.237753    4.236151   -0.000485    0.000513    0.000053
    7.010304    4.119142    4.119866    4.118212   -0.000500    0.000528    0.000056
    7.328954    4.470429    4.471179    4.469466   -0.000516    0.000545    0.000058
    7.647604    5.353521    5.354300    5.352522   -0.000535    0.000564    0.000060
    7.966254    5.347182    5.347995    5.346131   -0.000549    0.000584    0.000071
    8.284904    6.086091    6.086941    6.085002   -0.000577    0.000609    0.000068
    8.603554    2.976532    2.977426    2.975386   -0.000600    0.000636    0.000074
    8.922205    2.863107    2.864051    2.861897   -0.000629    0.000667    0.000080
    9.240855    2.146576    2.147578    2.145294   -0.000662    0.000702    0.000087
    9.559505    0.956103    0.957173    0.954737   -0.000700    0.000744    0.000094
    9.878155    0.571629    0.572778    0.570164   -0.000747    0.000792    0.000103
   10.196805   -0.320204   -0.318955   -0.321790   -0.000798    0.000850    0.000114
   10.515455    1.462767    1.464131    1.461033   -0.000865    0.000919    0.000130
   10.834106   -0.275157   -0.273643   -0.277078   -0.000941    0.001002    0.000152
   11.152756   -0.887066   -0.885365   -0.889226   -0.001036    0.001110    0.000176
   11.471406   -2.090209   -2.088232   -2.092678   -0.001168    0.001233    0.000222
   11.790056   -2.414205   -2.411870   -2.417119   -0.001340    0.001425    0.000280
   12.108706   -1.665831   -1.662960   -1.669401   -0.001593    0.001685    0.000379
   12.427356   -1.825325   -1.821581   -1.829973   -0.001964    0.002096    0.000579
   12.746007   -1.137149   -1.131684   -1.143890   -0.002640    0.002822    0.001050
   13.064657   -1.297218   -1.287175   -1.309504   -0.004025    0.004270    0.003020
   13.383307   -1.109004   -1.109371   -1.108734    0.011478   -0.013242    0.023029
   13.701957   -0.723090   -0.732920   -0.711414    0.005025   -0.005520    0.001008
   14.020607   -0.564585   -0.569766   -0.558563    0.001995   -0.002181   -0.000061
   14.339257   -0.421285   -0.424726   -0.417422    0.000876   -0.000944   -0.000219
   14.657908   -0.256518   -0.259058   -0.253841    0.000144   -0.000110   -0.000286
   14.976558   -0.138689   -0.140666   -0.136885   -0.000643    0.000897   -0.000384
   15.295208   -0.030046   -0.031594   -0.029289   -0.002081    0.003391   -0.000739
   15.613858    0.039789    0.038213    0.042751    0.007549    0.003913   -0.001590
   15.932508    0.112884    0.111517    0.115464    0.003690   -0.002787    0.000097
   16.251158    0.178226    0.177065    0.180138    0.002138   -0.001906    0.000061
   16.569809    0.233993    0.232973    0.235571    0.001541   -0.001451    0.000031
   16.888459    0.282920    0.282010    0.284280    0.001218   -0.001180    0.000015
   17.207109    0.326412    0.325590    0.327613    0.001013   -0.000997    0.000005
   17.525759    0.365415    0.364666    0.366492    0.000869   -0.000865   -0.000001
   17.844409    0.400639    0.399952    0.401615    0.000762   -0.000763   -0.000005
   18.163059    0.432641    0.432007    0.433533    0.000678   -0.000683   -0.000008
   18.481710    0.461882    0.461295    0.462703    0.000610   -0.000618   -0.000009
   18.800360    0.488775    0.488229    0.489536    0.000555   -0.000564   -0.000011
   19.119010    0.513730    0.513219    0.514437    0.000508   -0.000518   -0.000011
   19.437660    0.535947    0.535469    0.536607    0.000469   -0.000478   -0.000012
   19.756310    0.558060    0.557610    0.558679    0.000434   -0.000444   -0.000012
   20.074960    0.577353    0.576929    0.577935    0.000404   -0.000414   -0.000012
   20.393610    0.593385    0.592984    0.593933    0.000378   -0.000388   -0.000012
   20.712261    0.609147    0.608768    0.609665    0.000354   -0.000364   -0.000012
   21.030911    0.623749    0.623389    0.624239    0.000333   -0.000343   -0.000011
   21.349561    0.639434    0.639091    0.639899    0.000314   -0.000324   -0.000011
   21.668211    0.652223    0.651897    0.652665    0.000297   -0.000306   -0.000011
   21.986861    0.665374    0.665063    0.665795    0.000282   -0.000290   -0.000011
   22.305511    0.678101    0.677804    0.678503    0.000268   -0.000276   -0.000010
   22.624162    0.687493    0.687210    0.687877    0.000254   -0.000263   -0.000010
   22.942812    0.698228    0.697957    0.698595    0.000242   -0.000250   -0.000010
   23.261462    0.708048    0.707789    0.708400    0.000231   -0.000239   -0.000010
   23.580112    0.718374    0.718125    0.718710    0.000221   -0.000228   -0.000009
   23.898762    0.727623    0.727385    0.727944    0.000211   -0.000218   -0.000009
   24.217412    0.736281    0.736055    0.736586    0.000201   -0.000208   -0.000007
   24.536063    0.744840    0.744628    0.745127    0.000197   -0.000204    0.000005
   24.854713    0.752666    0.752440    0.752967    0.000194   -0.000201   -0.000007
   25.173363    0.760343    0.760130    0.760629    0.000183   -0.000190   -0.000008
   25.492013    0.767570    0.767366    0.767844    0.000175   -0.000182   -0.000008
   25.810663    0.774433    0.774236    0.774696    0.000168   -0.000174   -0.000008
   26.129313    0.780979    0.780790    0.781233    0.000161   -0.000164   -0.000009
   26.447964    0.787205    0.787022    0.787452    0.000160   -0.000165   -0.000008
   26.766614    0.793163    0.792985    0.793401    0.000153   -0.000159   -0.000007
   27.085264    0.798855    0.798683    0.799086    0.000148   -0.000153   -0.000007
   27.403914    0.804301    0.804135    0.804524    0.000143   -0.000148   -0.000007
   27.722564    0.809516    0.809354    0.809732    0.000138   -0.000143   -0.000007
   28.041214    0.814513    0.814357    0.814723    0.000134   -0.000139   -0.000007
   28.359865    0.819306    0.819154    0.819510    0.000130   -0.000134   -0.000007
   28.678515    0.823907    0.823759    0.824105    0.000126   -0.000130   -0.000006
   28.997165    0.828325    0.828181    0.828517    0.000122   -0.000127   -0.000006
   29.315815    0.832571    0.832432    0.832758    0.000118   -0.000123   -0.000006
   29.634465    0.836655    0.836519    0.836837    0.000115   -0.000120   -0.000006
   29.953115    0.840584    0.840452    0.840761    0.000112   -0.000116   -0.000006
   30.271766    0.844368    0.844239    0.844540    0.000109   -0.000113   -0.000006
   30.590416    0.848012    0.847887    0.848180    0.000106   -0.000110   -0.000006
   30.909066    0.851525    0.851403    0.851689    0.000103   -0.000107   -0.000006
   31.227716    0.854913    0.854794    0.855072    0.000100   -0.000104   -0.000005
   31.546366    0.858182    0.858065    0.858337    0.000098   -0.000102   -0.000005
 
 The outermost node in the dielectric function lies at epsilon=  15.4


--------------------------------------------------------------------------------------------------------


    OPTICS:  cpu time    0.1040: real time    0.1072
    4ORBIT:  cpu time    0.0000: real time    0.0000

 total amount of memory used by VASP MPI-rank0    37191. kBytes
=======================================================================

   base      :      30000. kBytes
   nonl-proj :       4580. kBytes
   fftplans  :       1372. kBytes
   grid      :        442. kBytes
   one-center:         49. kBytes
   wavefun   :        748. kBytes
 
  
  
 General timing and accounting informations for this job:
 ========================================================
  
                  Total CPU time used (sec):        5.973
                            User time (sec):        4.456
                          System time (sec):        1.516
                         Elapsed time (sec):        5.830
  
                   Maximum memory used (kb):      124868.
                   Average memory used (kb):           0.
  
                          Minor page faults:        26393
                          Major page faults:            0
                 Voluntary context switches:         3766
