<?xml version="1.0" encoding="ISO-8859-1"?>
<modeling>
 <generator>
  <i name="program" type="string">vasp </i>
  <i name="version" type="string">5.4.4.18Apr17-6-g9f103f2a35  </i>
  <i name="subversion" type="string">(build Nov 03 2018 10:20:46) complex            parallel </i>
  <i name="platform" type="string">LinuxIFC </i>
  <i name="date" type="string">2018 12 14 </i>
  <i name="time" type="string">05:48:30 </i>
 </generator>
 <incar>
  <i type="string" name="SYSTEM">   Og_FCC</i>
  <i type="string" name="PREC">accurate</i>
  <i type="string" name="ALGO">   Normal</i>
  <i type="logical" name="ADDGRID"> T  </i>
  <i type="logical" name="LSORBIT"> F  </i>
  <i type="int" name="ISPIN">     1</i>
  <i type="int" name="MAXMIX">    50</i>
  <i type="int" name="NELM">    50</i>
  <i type="int" name="NELMDL">    -5</i>
  <i type="int" name="NELMIN">     2</i>
  <i type="int" name="IBRION">    -1</i>
  <i type="int" name="NFREE">     5</i>
  <i name="EDIFF">      0.00000001</i>
  <i name="EDIFFG">      0.00001000</i>
  <i type="int" name="NSW">     1</i>
  <i type="int" name="ISIF">     3</i>
  <i type="int" name="ISYM">     0</i>
  <i name="SYMPREC">      0.00000010</i>
  <i name="ENCUT">    300.00000000</i>
  <i name="POTIM">      0.10000000</i>
  <i type="logical" name="LREAL"> F  </i>
  <i type="int" name="ISMEAR">     0</i>
  <i name="SIGMA">      0.00100000</i>
  <i type="int" name="NWRITE">     2</i>
  <i type="logical" name="LWAVE"> T  </i>
  <i type="logical" name="LCHARG"> F  </i>
  <i type="logical" name="LVTOT"> F  </i>
  <i type="logical" name="LOPTICS"> T  </i>
  <i type="logical" name="GGA_COMPAT"> F  </i>
  <v type="int" name="KPOINT_BSE">    -1     0     0     0</v>
  <i type="int" name="NELM">    50</i>
  <i type="string" name="GGA"> PE</i>
 </incar>
 <structure name="primitive_cell" >
  <crystal>
   <varray name="basis" >
    <v>       4.33599578       0.00000000       0.00000000 </v>
    <v>       2.16799789       3.75508250      -0.00000000 </v>
    <v>       2.16799789       1.25169417       3.54032573 </v>
   </varray>
   <i name="volume">     57.64366099 </i>
   <varray name="rec_basis" >
    <v>       0.23062753      -0.13315287      -0.09415330 </v>
    <v>       0.00000000       0.26630573      -0.09415330 </v>
    <v>      -0.00000000       0.00000000       0.28245989 </v>
   </varray>
  </crystal>
  <varray name="positions" >
   <v>       0.00000000       0.00000000       0.00000000 </v>
  </varray>
 </structure>
 <varray name="primitive_index" >
  <v type="int" >        1 </v>
 </varray>
 <kpoints>
  <generation param="Gamma">
   <v type="int" name="divisions">       7        7        7 </v>
   <v name="usershift">      0.00000000       0.00000000       0.00000000 </v>
   <v name="genvec1">      0.14285714       0.00000000       0.00000000 </v>
   <v name="genvec2">      0.00000000       0.14285714       0.00000000 </v>
   <v name="genvec3">      0.00000000      -0.00000000       0.14285714 </v>
   <v name="shift">      0.00000000       0.00000000       0.00000000 </v>
  </generation>
  <varray name="kpointlist" >
   <v>       0.00000000       0.00000000       0.00000000 </v>
   <v>       0.14285714      -0.00000000      -0.00000000 </v>
   <v>       0.28571429      -0.00000000      -0.00000000 </v>
   <v>       0.42857143       0.00000000      -0.00000000 </v>
   <v>       0.00000000       0.14285714       0.00000000 </v>
   <v>       0.14285714       0.14285714      -0.00000000 </v>
   <v>       0.28571429       0.14285714      -0.00000000 </v>
   <v>       0.42857143       0.14285714      -0.00000000 </v>
   <v>      -0.42857143       0.14285714       0.00000000 </v>
   <v>      -0.28571429       0.14285714       0.00000000 </v>
   <v>      -0.14285714       0.14285714      -0.00000000 </v>
   <v>       0.00000000       0.28571429       0.00000000 </v>
   <v>       0.14285714       0.28571429      -0.00000000 </v>
   <v>       0.28571429       0.28571429      -0.00000000 </v>
   <v>       0.42857143       0.28571429      -0.00000000 </v>
   <v>      -0.42857143       0.28571429       0.00000000 </v>
   <v>      -0.28571429       0.28571429       0.00000000 </v>
   <v>      -0.14285714       0.28571429      -0.00000000 </v>
   <v>      -0.00000000       0.42857143       0.00000000 </v>
   <v>       0.14285714       0.42857143      -0.00000000 </v>
   <v>       0.28571429       0.42857143      -0.00000000 </v>
   <v>       0.42857143       0.42857143       0.00000000 </v>
   <v>      -0.42857143       0.42857143       0.00000000 </v>
   <v>      -0.28571429       0.42857143       0.00000000 </v>
   <v>      -0.14285714       0.42857143      -0.00000000 </v>
   <v>       0.00000000       0.00000000       0.14285714 </v>
   <v>       0.14285714      -0.00000000       0.14285714 </v>
   <v>       0.28571429      -0.00000000       0.14285714 </v>
   <v>       0.42857143       0.00000000       0.14285714 </v>
   <v>      -0.42857143      -0.00000000       0.14285714 </v>
   <v>      -0.28571429       0.00000000       0.14285714 </v>
   <v>      -0.14285714      -0.00000000       0.14285714 </v>
   <v>       0.00000000       0.14285714       0.14285714 </v>
   <v>       0.14285714       0.14285714       0.14285714 </v>
   <v>       0.28571429       0.14285714       0.14285714 </v>
   <v>       0.42857143       0.14285714       0.14285714 </v>
   <v>      -0.42857143       0.14285714       0.14285714 </v>
   <v>      -0.28571429       0.14285714       0.14285714 </v>
   <v>      -0.14285714       0.14285714       0.14285714 </v>
   <v>       0.00000000       0.28571429       0.14285714 </v>
   <v>       0.14285714       0.28571429       0.14285714 </v>
   <v>       0.28571429       0.28571429       0.14285714 </v>
   <v>       0.42857143       0.28571429       0.14285714 </v>
   <v>      -0.42857143       0.28571429       0.14285714 </v>
   <v>      -0.28571429       0.28571429       0.14285714 </v>
   <v>      -0.14285714       0.28571429       0.14285714 </v>
   <v>      -0.00000000       0.42857143       0.14285714 </v>
   <v>       0.14285714       0.42857143       0.14285714 </v>
   <v>       0.28571429       0.42857143       0.14285714 </v>
   <v>       0.42857143       0.42857143       0.14285714 </v>
   <v>      -0.42857143       0.42857143       0.14285714 </v>
   <v>      -0.28571429       0.42857143       0.14285714 </v>
   <v>      -0.14285714       0.42857143       0.14285714 </v>
   <v>       0.00000000      -0.42857143       0.14285714 </v>
   <v>       0.14285714      -0.42857143       0.14285714 </v>
   <v>       0.28571429      -0.42857143       0.14285714 </v>
   <v>       0.42857143      -0.42857143       0.14285714 </v>
   <v>      -0.42857143      -0.42857143       0.14285714 </v>
   <v>      -0.28571429      -0.42857143       0.14285714 </v>
   <v>      -0.14285714      -0.42857143       0.14285714 </v>
   <v>       0.00000000      -0.28571429       0.14285714 </v>
   <v>       0.14285714      -0.28571429       0.14285714 </v>
   <v>       0.28571429      -0.28571429       0.14285714 </v>
   <v>       0.42857143      -0.28571429       0.14285714 </v>
   <v>      -0.42857143      -0.28571429       0.14285714 </v>
   <v>      -0.28571429      -0.28571429       0.14285714 </v>
   <v>      -0.14285714      -0.28571429       0.14285714 </v>
   <v>       0.00000000      -0.14285714       0.14285714 </v>
   <v>       0.14285714      -0.14285714       0.14285714 </v>
   <v>       0.28571429      -0.14285714       0.14285714 </v>
   <v>       0.42857143      -0.14285714       0.14285714 </v>
   <v>      -0.42857143      -0.14285714       0.14285714 </v>
   <v>      -0.28571429      -0.14285714       0.14285714 </v>
   <v>      -0.14285714      -0.14285714       0.14285714 </v>
   <v>       0.00000000       0.00000000       0.28571429 </v>
   <v>       0.14285714      -0.00000000       0.28571429 </v>
   <v>       0.28571429      -0.00000000       0.28571429 </v>
   <v>       0.42857143      -0.00000000       0.28571429 </v>
   <v>      -0.42857143      -0.00000000       0.28571429 </v>
   <v>      -0.28571429       0.00000000       0.28571429 </v>
   <v>      -0.14285714       0.00000000       0.28571429 </v>
   <v>      -0.00000000       0.14285714       0.28571429 </v>
   <v>       0.14285714       0.14285714       0.28571429 </v>
   <v>       0.28571429       0.14285714       0.28571429 </v>
   <v>       0.42857143       0.14285714       0.28571429 </v>
   <v>      -0.42857143       0.14285714       0.28571429 </v>
   <v>      -0.28571429       0.14285714       0.28571429 </v>
   <v>      -0.14285714       0.14285714       0.28571429 </v>
   <v>       0.00000000       0.28571429       0.28571429 </v>
   <v>       0.14285714       0.28571429       0.28571429 </v>
   <v>       0.28571429       0.28571429       0.28571429 </v>
   <v>       0.42857143       0.28571429       0.28571429 </v>
   <v>      -0.42857143       0.28571429       0.28571429 </v>
   <v>      -0.28571429       0.28571429       0.28571429 </v>
   <v>      -0.14285714       0.28571429       0.28571429 </v>
   <v>      -0.00000000       0.42857143       0.28571429 </v>
   <v>       0.14285714       0.42857143       0.28571429 </v>
   <v>       0.28571429       0.42857143       0.28571429 </v>
   <v>       0.42857143       0.42857143       0.28571429 </v>
   <v>      -0.42857143       0.42857143       0.28571429 </v>
   <v>      -0.28571429       0.42857143       0.28571429 </v>
   <v>      -0.14285714       0.42857143       0.28571429 </v>
   <v>       0.00000000      -0.42857143       0.28571429 </v>
   <v>       0.14285714      -0.42857143       0.28571429 </v>
   <v>       0.28571429      -0.42857143       0.28571429 </v>
   <v>       0.42857143      -0.42857143       0.28571429 </v>
   <v>      -0.42857143      -0.42857143       0.28571429 </v>
   <v>      -0.28571429      -0.42857143       0.28571429 </v>
   <v>      -0.14285714      -0.42857143       0.28571429 </v>
   <v>       0.00000000      -0.28571429       0.28571429 </v>
   <v>       0.14285714      -0.28571429       0.28571429 </v>
   <v>       0.28571429      -0.28571429       0.28571429 </v>
   <v>       0.42857143      -0.28571429       0.28571429 </v>
   <v>      -0.42857143      -0.28571429       0.28571429 </v>
   <v>      -0.28571429      -0.28571429       0.28571429 </v>
   <v>      -0.14285714      -0.28571429       0.28571429 </v>
   <v>      -0.00000000      -0.14285714       0.28571429 </v>
   <v>       0.14285714      -0.14285714       0.28571429 </v>
   <v>       0.28571429      -0.14285714       0.28571429 </v>
   <v>       0.42857143      -0.14285714       0.28571429 </v>
   <v>      -0.42857143      -0.14285714       0.28571429 </v>
   <v>      -0.28571429      -0.14285714       0.28571429 </v>
   <v>      -0.14285714      -0.14285714       0.28571429 </v>
   <v>       0.00000000       0.00000000       0.42857143 </v>
   <v>       0.14285714      -0.00000000       0.42857143 </v>
   <v>       0.28571429      -0.00000000       0.42857143 </v>
   <v>       0.42857143       0.00000000       0.42857143 </v>
   <v>      -0.42857143       0.00000000       0.42857143 </v>
   <v>      -0.28571429       0.00000000       0.42857143 </v>
   <v>      -0.14285714       0.00000000       0.42857143 </v>
   <v>       0.00000000       0.14285714       0.42857143 </v>
   <v>       0.14285714       0.14285714       0.42857143 </v>
   <v>       0.28571429       0.14285714       0.42857143 </v>
   <v>       0.42857143       0.14285714       0.42857143 </v>
   <v>      -0.42857143       0.14285714       0.42857143 </v>
   <v>      -0.28571429       0.14285714       0.42857143 </v>
   <v>      -0.14285714       0.14285714       0.42857143 </v>
   <v>       0.00000000       0.28571429       0.42857143 </v>
   <v>       0.14285714       0.28571429       0.42857143 </v>
   <v>       0.28571429       0.28571429       0.42857143 </v>
   <v>       0.42857143       0.28571429       0.42857143 </v>
   <v>      -0.42857143       0.28571429       0.42857143 </v>
   <v>      -0.28571429       0.28571429       0.42857143 </v>
   <v>      -0.14285714       0.28571429       0.42857143 </v>
   <v>       0.00000000       0.42857143       0.42857143 </v>
   <v>       0.14285714       0.42857143       0.42857143 </v>
   <v>       0.28571429       0.42857143       0.42857143 </v>
   <v>       0.42857143       0.42857143       0.42857143 </v>
   <v>      -0.42857143       0.42857143       0.42857143 </v>
   <v>      -0.28571429       0.42857143       0.42857143 </v>
   <v>      -0.14285714       0.42857143       0.42857143 </v>
   <v>       0.00000000      -0.42857143       0.42857143 </v>
   <v>       0.14285714      -0.42857143       0.42857143 </v>
   <v>       0.28571429      -0.42857143       0.42857143 </v>
   <v>       0.42857143      -0.42857143       0.42857143 </v>
   <v>      -0.42857143      -0.42857143       0.42857143 </v>
   <v>      -0.28571429      -0.42857143       0.42857143 </v>
   <v>      -0.14285714      -0.42857143       0.42857143 </v>
   <v>       0.00000000      -0.28571429       0.42857143 </v>
   <v>       0.14285714      -0.28571429       0.42857143 </v>
   <v>       0.28571429      -0.28571429       0.42857143 </v>
   <v>       0.42857143      -0.28571429       0.42857143 </v>
   <v>      -0.42857143      -0.28571429       0.42857143 </v>
   <v>      -0.28571429      -0.28571429       0.42857143 </v>
   <v>      -0.14285714      -0.28571429       0.42857143 </v>
   <v>       0.00000000      -0.14285714       0.42857143 </v>
   <v>       0.14285714      -0.14285714       0.42857143 </v>
   <v>       0.28571429      -0.14285714       0.42857143 </v>
   <v>       0.42857143      -0.14285714       0.42857143 </v>
   <v>      -0.42857143      -0.14285714       0.42857143 </v>
   <v>      -0.28571429      -0.14285714       0.42857143 </v>
   <v>      -0.14285714      -0.14285714       0.42857143 </v>
  </varray>
  <varray name="weights" >
   <v>       0.00291545 </v>
   <v>       0.00583090 </v>
   <v>       0.00583090 </v>
   <v>       0.00583090 </v>
   <v>       0.00583090 </v>
   <v>       0.00583090 </v>
   <v>       0.00583090 </v>
   <v>       0.00583090 </v>
   <v>       0.00583090 </v>
   <v>       0.00583090 </v>
   <v>       0.00583090 </v>
   <v>       0.00583090 </v>
   <v>       0.00583090 </v>
   <v>       0.00583090 </v>
   <v>       0.00583090 </v>
   <v>       0.00583090 </v>
   <v>       0.00583090 </v>
   <v>       0.00583090 </v>
   <v>       0.00583090 </v>
   <v>       0.00583090 </v>
   <v>       0.00583090 </v>
   <v>       0.00583090 </v>
   <v>       0.00583090 </v>
   <v>       0.00583090 </v>
   <v>       0.00583090 </v>
   <v>       0.00583090 </v>
   <v>       0.00583090 </v>
   <v>       0.00583090 </v>
   <v>       0.00583090 </v>
   <v>       0.00583090 </v>
   <v>       0.00583090 </v>
   <v>       0.00583090 </v>
   <v>       0.00583090 </v>
   <v>       0.00583090 </v>
   <v>       0.00583090 </v>
   <v>       0.00583090 </v>
   <v>       0.00583090 </v>
   <v>       0.00583090 </v>
   <v>       0.00583090 </v>
   <v>       0.00583090 </v>
   <v>       0.00583090 </v>
   <v>       0.00583090 </v>
   <v>       0.00583090 </v>
   <v>       0.00583090 </v>
   <v>       0.00583090 </v>
   <v>       0.00583090 </v>
   <v>       0.00583090 </v>
   <v>       0.00583090 </v>
   <v>       0.00583090 </v>
   <v>       0.00583090 </v>
   <v>       0.00583090 </v>
   <v>       0.00583090 </v>
   <v>       0.00583090 </v>
   <v>       0.00583090 </v>
   <v>       0.00583090 </v>
   <v>       0.00583090 </v>
   <v>       0.00583090 </v>
   <v>       0.00583090 </v>
   <v>       0.00583090 </v>
   <v>       0.00583090 </v>
   <v>       0.00583090 </v>
   <v>       0.00583090 </v>
   <v>       0.00583090 </v>
   <v>       0.00583090 </v>
   <v>       0.00583090 </v>
   <v>       0.00583090 </v>
   <v>       0.00583090 </v>
   <v>       0.00583090 </v>
   <v>       0.00583090 </v>
   <v>       0.00583090 </v>
   <v>       0.00583090 </v>
   <v>       0.00583090 </v>
   <v>       0.00583090 </v>
   <v>       0.00583090 </v>
   <v>       0.00583090 </v>
   <v>       0.00583090 </v>
   <v>       0.00583090 </v>
   <v>       0.00583090 </v>
   <v>       0.00583090 </v>
   <v>       0.00583090 </v>
   <v>       0.00583090 </v>
   <v>       0.00583090 </v>
   <v>       0.00583090 </v>
   <v>       0.00583090 </v>
   <v>       0.00583090 </v>
   <v>       0.00583090 </v>
   <v>       0.00583090 </v>
   <v>       0.00583090 </v>
   <v>       0.00583090 </v>
   <v>       0.00583090 </v>
   <v>       0.00583090 </v>
   <v>       0.00583090 </v>
   <v>       0.00583090 </v>
   <v>       0.00583090 </v>
   <v>       0.00583090 </v>
   <v>       0.00583090 </v>
   <v>       0.00583090 </v>
   <v>       0.00583090 </v>
   <v>       0.00583090 </v>
   <v>       0.00583090 </v>
   <v>       0.00583090 </v>
   <v>       0.00583090 </v>
   <v>       0.00583090 </v>
   <v>       0.00583090 </v>
   <v>       0.00583090 </v>
   <v>       0.00583090 </v>
   <v>       0.00583090 </v>
   <v>       0.00583090 </v>
   <v>       0.00583090 </v>
   <v>       0.00583090 </v>
   <v>       0.00583090 </v>
   <v>       0.00583090 </v>
   <v>       0.00583090 </v>
   <v>       0.00583090 </v>
   <v>       0.00583090 </v>
   <v>       0.00583090 </v>
   <v>       0.00583090 </v>
   <v>       0.00583090 </v>
   <v>       0.00583090 </v>
   <v>       0.00583090 </v>
   <v>       0.00583090 </v>
   <v>       0.00583090 </v>
   <v>       0.00583090 </v>
   <v>       0.00583090 </v>
   <v>       0.00583090 </v>
   <v>       0.00583090 </v>
   <v>       0.00583090 </v>
   <v>       0.00583090 </v>
   <v>       0.00583090 </v>
   <v>       0.00583090 </v>
   <v>       0.00583090 </v>
   <v>       0.00583090 </v>
   <v>       0.00583090 </v>
   <v>       0.00583090 </v>
   <v>       0.00583090 </v>
   <v>       0.00583090 </v>
   <v>       0.00583090 </v>
   <v>       0.00583090 </v>
   <v>       0.00583090 </v>
   <v>       0.00583090 </v>
   <v>       0.00583090 </v>
   <v>       0.00583090 </v>
   <v>       0.00583090 </v>
   <v>       0.00583090 </v>
   <v>       0.00583090 </v>
   <v>       0.00583090 </v>
   <v>       0.00583090 </v>
   <v>       0.00583090 </v>
   <v>       0.00583090 </v>
   <v>       0.00583090 </v>
   <v>       0.00583090 </v>
   <v>       0.00583090 </v>
   <v>       0.00583090 </v>
   <v>       0.00583090 </v>
   <v>       0.00583090 </v>
   <v>       0.00583090 </v>
   <v>       0.00583090 </v>
   <v>       0.00583090 </v>
   <v>       0.00583090 </v>
   <v>       0.00583090 </v>
   <v>       0.00583090 </v>
   <v>       0.00583090 </v>
   <v>       0.00583090 </v>
   <v>       0.00583090 </v>
   <v>       0.00583090 </v>
   <v>       0.00583090 </v>
   <v>       0.00583090 </v>
   <v>       0.00583090 </v>
   <v>       0.00583090 </v>
   <v>       0.00583090 </v>
   <v>       0.00583090 </v>
   <v>       0.00583090 </v>
  </varray>
 </kpoints>
 <parameters>
  <separator name="general" >
   <i type="string" name="SYSTEM">Og_FCC</i>
   <i type="logical" name="LCOMPAT"> F  </i>
  </separator>
  <separator name="electronic" >
   <i type="string" name="PREC">accura</i>
   <i name="ENMAX">    300.00000000</i>
   <i name="ENAUG">    605.90000000</i>
   <i name="EDIFF">      0.00000001</i>
   <i type="int" name="IALGO">    38</i>
   <i type="int" name="IWAVPR">    10</i>
   <i type="int" name="NBANDS">     8</i>
   <i name="NELECT">      8.00000000</i>
   <i type="int" name="TURBO">     0</i>
   <i type="int" name="IRESTART">     0</i>
   <i type="int" name="NREBOOT">     0</i>
   <i type="int" name="NMIN">     0</i>
   <i name="EREF">      0.00000000</i>
   <separator name="electronic smearing" >
    <i type="int" name="ISMEAR">     0</i>
    <i name="SIGMA">      0.00100000</i>
    <i name="KSPACING">      0.50000000</i>
    <i type="logical" name="KGAMMA"> T  </i>
   </separator>
   <separator name="electronic projectors" >
    <i type="logical" name="LREAL"> F  </i>
    <v name="ROPT">      0.00000000</v>
    <i type="int" name="LMAXPAW">  -100</i>
    <i type="int" name="LMAXMIX">     2</i>
    <i type="logical" name="NLSPLINE"> F  </i>
   </separator>
   <separator name="electronic startup" >
    <i type="int" name="ISTART">     0</i>
    <i type="int" name="ICHARG">     2</i>
    <i type="int" name="INIWAV">     1</i>
   </separator>
   <separator name="electronic spin" >
    <i type="int" name="ISPIN">     1</i>
    <i type="logical" name="LNONCOLLINEAR"> F  </i>
    <v name="MAGMOM">      1.00000000</v>
    <i name="NUPDOWN">     -1.00000000</i>
    <i type="logical" name="LSORBIT"> F  </i>
    <v name="SAXIS">      0.00000000      0.00000000      1.00000000</v>
    <i type="logical" name="LSPIRAL"> F  </i>
    <v name="QSPIRAL">      0.00000000      0.00000000      0.00000000</v>
    <i type="logical" name="LZEROZ"> F  </i>
   </separator>
   <separator name="electronic exchange-correlation" >
    <i type="logical" name="LASPH"> F  </i>
    <i type="logical" name="LMETAGGA"> F  </i>
   </separator>
   <separator name="electronic convergence" >
    <i type="int" name="NELM">    50</i>
    <i type="int" name="NELMDL">    -5</i>
    <i type="int" name="NELMIN">     2</i>
    <i name="ENINI">    300.00000000</i>
    <separator name="electronic convergence detail" >
     <i type="logical" name="LDIAG"> T  </i>
     <i type="logical" name="LSUBROT"> F  </i>
     <i name="WEIMIN">      0.00000000</i>
     <i name="EBREAK">      0.00000000</i>
     <i name="DEPER">      0.30000000</i>
     <i type="int" name="NRMM">     4</i>
     <i name="TIME">      0.40000000</i>
    </separator>
   </separator>
   <separator name="electronic mixer" >
    <i name="AMIX">      0.40000000</i>
    <i name="BMIX">      1.00000000</i>
    <i name="AMIN">      0.10000000</i>
    <i name="AMIX_MAG">      1.60000000</i>
    <i name="BMIX_MAG">      1.00000000</i>
    <separator name="electronic mixer details" >
     <i type="int" name="IMIX">     4</i>
     <i type="logical" name="MIXFIRST"> F  </i>
     <i type="int" name="MAXMIX">    50</i>
     <i name="WC">    100.00000000</i>
     <i type="int" name="INIMIX">     1</i>
     <i type="int" name="MIXPRE">     1</i>
     <i type="int" name="MREMOVE">     5</i>
    </separator>
   </separator>
   <separator name="electronic dipolcorrection" >
    <i type="logical" name="LDIPOL"> F  </i>
    <i type="logical" name="LMONO"> F  </i>
    <i type="int" name="IDIPOL">     0</i>
    <i name="EPSILON">      1.00000000</i>
    <v name="DIPOL">   -100.00000000   -100.00000000   -100.00000000</v>
    <i name="EFIELD">      0.00000000</i>
   </separator>
  </separator>
  <separator name="grids" >
   <i type="int" name="NGX">    24</i>
   <i type="int" name="NGY">    24</i>
   <i type="int" name="NGZ">    24</i>
   <i type="int" name="NGXF">    48</i>
   <i type="int" name="NGYF">    48</i>
   <i type="int" name="NGZF">    48</i>
   <i type="logical" name="ADDGRID"> T  </i>
  </separator>
  <separator name="ionic" >
   <i type="int" name="NSW">     1</i>
   <i type="int" name="IBRION">    -1</i>
   <i type="int" name="MDALGO">     0</i>
   <i type="int" name="ISIF">     3</i>
   <i name="PSTRESS">      0.00000000</i>
   <i name="EDIFFG">      0.00001000</i>
   <i type="int" name="NFREE">     5</i>
   <i name="POTIM">      0.10000000</i>
   <i name="SMASS">     -3.00000000</i>
   <i name="SCALEE">      1.00000000</i>
  </separator>
  <separator name="ionic md" >
   <i name="TEBEG">      0.00010000</i>
   <i name="TEEND">      0.00010000</i>
   <i type="int" name="NBLOCK">     1</i>
   <i type="int" name="KBLOCK">     1</i>
   <i type="int" name="NPACO">   256</i>
   <i name="APACO">     16.00000000</i>
  </separator>
  <separator name="symmetry" >
   <i type="int" name="ISYM">     0</i>
   <i name="SYMPREC">      0.00000010</i>
  </separator>
  <separator name="dos" >
   <i type="int" name="LORBIT">     0</i>
   <v name="RWIGS">     -1.00000000</v>
   <i type="int" name="NEDOS">   301</i>
   <i name="EMIN">     10.00000000</i>
   <i name="EMAX">    -10.00000000</i>
   <i name="EFERMI">      0.00000000</i>
  </separator>
  <separator name="writing" >
   <i type="int" name="NWRITE">     2</i>
   <i type="logical" name="LWAVE"> T  </i>
   <i type="logical" name="LDOWNSAMPLE"> F  </i>
   <i type="logical" name="LCHARG"> F  </i>
   <i type="logical" name="LPARD"> F  </i>
   <i type="logical" name="LVTOT"> F  </i>
   <i type="logical" name="LVHAR"> F  </i>
   <i type="logical" name="LELF"> F  </i>
   <i type="logical" name="LOPTICS"> T  </i>
   <v name="STM">      0.00000000      0.00000000      0.00000000      0.00000000      0.00000000      0.00000000      0.00000000</v>
  </separator>
  <separator name="performance" >
   <i type="int" name="NPAR">     4</i>
   <i type="int" name="NSIM">     4</i>
   <i type="int" name="NBLK">    -1</i>
   <i type="logical" name="LPLANE"> T  </i>
   <i type="logical" name="LSCALAPACK"> T  </i>
   <i type="logical" name="LSCAAWARE"> F  </i>
   <i type="logical" name="LSCALU"> F  </i>
   <i type="logical" name="LASYNC"> F  </i>
   <i type="logical" name="LORBITALREAL"> F  </i>
  </separator>
  <separator name="miscellaneous" >
   <i type="int" name="IDIOT">     3</i>
   <i type="int" name="ISPECIAL">     0</i>
   <i type="logical" name="LMUSIC"> F  </i>
   <v name="POMASS">    131.29400000</v>
   <v name="DARWINR">      0.00000000</v>
   <v name="DARWINV">      1.00000000</v>
   <i type="logical" name="LCORR"> T  </i>
  </separator>
  <i type="logical" name="GGA_COMPAT"> F  </i>
  <i type="logical" name="LBERRY"> F  </i>
  <i type="int" name="ICORELEVEL">     0</i>
  <i type="logical" name="LDAU"> F  </i>
  <i type="int" name="I_CONSTRAINED_M">     0</i>
  <separator name="electronic exchange-correlation" >
   <i type="string" name="GGA">PE</i>
   <i type="int" name="VOSKOWN">     0</i>
   <i type="logical" name="LHFCALC"> F  </i>
   <i type="string" name="PRECFOCK"></i>
   <i type="logical" name="LSYMGRAD"> F  </i>
   <i type="logical" name="LHFONE"> F  </i>
   <i type="logical" name="LRHFCALC"> F  </i>
   <i type="logical" name="LTHOMAS"> F  </i>
   <i type="logical" name="LMODELHF"> F  </i>
   <i name="ENCUT4O">     -1.00000000</i>
   <i type="int" name="EXXOEP">     0</i>
   <i type="int" name="FOURORBIT">     0</i>
   <i name="AEXX">      0.00000000</i>
   <i name="HFALPHA">      0.00000000</i>
   <i name="MCALPHA">      0.00000000</i>
   <i name="ALDAX">      1.00000000</i>
   <i name="AGGAX">      1.00000000</i>
   <i name="ALDAC">      1.00000000</i>
   <i name="AGGAC">      1.00000000</i>
   <i type="int" name="NKREDX">     1</i>
   <i type="int" name="NKREDY">     1</i>
   <i type="int" name="NKREDZ">     1</i>
   <i type="logical" name="SHIFTRED"> F  </i>
   <i type="logical" name="ODDONLY"> F  </i>
   <i type="logical" name="EVENONLY"> F  </i>
   <i type="int" name="LMAXFOCK">     0</i>
   <i type="int" name="NMAXFOCKAE">     0</i>
   <i type="logical" name="LFOCKAEDFT"> F  </i>
   <i name="HFSCREEN">      0.00000000</i>
   <i name="HFSCREENC">      0.00000000</i>
   <i type="int" name="NBANDSGWLOW">     0</i>
  </separator>
  <separator name="vdW DFT" >
   <i type="logical" name="LUSE_VDW"> F  </i>
   <i name="Zab_VDW">     -0.84910000</i>
   <i name="PARAM1">      0.12340000</i>
   <i name="PARAM2">      1.00000000</i>
   <i name="PARAM3">      0.00000000</i>
  </separator>
  <separator name="model GW" >
   <i type="int" name="MODEL_GW">     0</i>
   <i name="MODEL_EPS0">     34.58619660</i>
   <i name="MODEL_ALPHA">      1.00000000</i>
  </separator>
  <separator name="linear response parameters" >
   <i type="logical" name="LEPSILON"> F  </i>
   <i type="logical" name="LRPA"> F  </i>
   <i type="logical" name="LNABLA"> F  </i>
   <i type="logical" name="LVEL"> F  </i>
   <i type="int" name="KINTER">     0</i>
   <i name="CSHIFT">      0.10000000</i>
   <i name="OMEGAMAX">     -1.00000000</i>
   <i name="DEG_THRESHOLD">      0.00200000</i>
   <i name="RTIME">     -0.10000000</i>
   <i name="WPLASMAI">      0.00000000</i>
   <v name="DFIELD">      0.00000000      0.00000000      0.00000000</v>
   <v name="WPLASMA">      0.00000000      0.00000000      0.00000000      0.00000000      0.00000000      0.00000000      0.00000000      0.00000000      0.00000000</v>
  </separator>
  <separator name="orbital magnetization" >
   <i type="logical" name="NUCIND"> F  </i>
   <v name="MAGPOS">      0.00000000      0.00000000      0.00000000</v>
   <i type="logical" name="LNICSALL"> T  </i>
   <i type="logical" name="ORBITALMAG"> F  </i>
   <i type="logical" name="LMAGBLOCH"> F  </i>
   <i type="logical" name="LCHIMAG"> F  </i>
   <i type="logical" name="LGAUGE"> T  </i>
   <i type="int" name="MAGATOM">     0</i>
   <v name="MAGDIPOL">      0.00000000      0.00000000      0.00000000</v>
   <v name="AVECCONST">      0.00000000      0.00000000      0.00000000</v>
  </separator>
  <separator name="response functions" >
   <i type="logical" name="LADDER"> F  </i>
   <i type="logical" name="LRPAFORCE"> F  </i>
   <i type="logical" name="LFXC"> F  </i>
   <i type="logical" name="LHARTREE"> T  </i>
   <i type="int" name="IBSE">     0</i>
   <v type="int" name="KPOINT">    -1     0     0     0</v>
   <i type="logical" name="LTCTE"> F  </i>
   <i type="logical" name="LTETE"> F  </i>
   <i type="logical" name="LTRIPLET"> F  </i>
   <i type="logical" name="LFXCEPS"> F  </i>
   <i type="logical" name="LFXHEG"> F  </i>
   <i type="int" name="NATURALO">     2</i>
   <i type="logical" name="L2ORDER"> F  </i>
   <i type="logical" name="LMP2LT"> F  </i>
   <i type="logical" name="LUSEW"> F  </i>
   <i name="ENCUTGW">     -2.00000000</i>
   <i name="ENCUTGWSOFT">     -2.00000000</i>
   <i name="ENCUTLF">     -1.00000000</i>
   <i type="int" name="LMAXMP2">    -1</i>
   <i name="SCISSOR">      0.00000000</i>
   <i type="int" name="NOMEGA">     0</i>
   <i type="int" name="NOMEGAR">     0</i>
   <i type="int" name="NBANDSGW">    -1</i>
   <i type="int" name="NBANDSO">    -1</i>
   <i type="int" name="NBANDSV">    -1</i>
   <i type="int" name="NELM">    50</i>
   <i type="int" name="NELMHF">     1</i>
   <i type="int" name="DIM">     3</i>
   <i type="int" name="ANTIRES">     0</i>
   <i name="OMEGAMAX">    -30.00000000</i>
   <i name="OMEGAMIN">    -30.00000000</i>
   <i name="OMEGATL">   -200.00000000</i>
   <i type="int" name="OMEGAGRID">   140</i>
   <i name="CSHIFT">     -0.10000000</i>
   <i type="logical" name="SELFENERGY"> F  </i>
   <i type="logical" name="LSPECTRAL"> F  </i>
   <i type="logical" name="LSPECTRALGW"> F  </i>
   <i type="logical" name="LSINGLES"> F  </i>
   <i type="logical" name="LFERMIGW"> F  </i>
   <i type="logical" name="ODDONLYGW"> F  </i>
   <i type="logical" name="EVENONLYGW"> F  </i>
   <i type="int" name="NKREDLFX">     1</i>
   <i type="int" name="NKREDLFY">     1</i>
   <i type="int" name="NKREDLFZ">     1</i>
   <i type="int" name="MAXMEM">  2800</i>
   <i type="int" name="TELESCOPE">     0</i>
   <i type="int" name="TAUPAR">     1</i>
   <i type="int" name="OMEGAPAR">    -1</i>
   <i name="LAMBDA">      1.00000000</i>
  </separator>
  <separator name="External order field" >
   <i name="OFIELD_KAPPA">      0.00000000</i>
   <v name="OFIELD_K">      0.00000000      0.00000000      0.00000000</v>
   <i name="OFIELD_Q6_NEAR">      0.00000000</i>
   <i name="OFIELD_Q6_FAR">      0.00000000</i>
   <i name="OFIELD_A">      0.00000000</i>
  </separator>
 </parameters>
 <atominfo>
  <atoms>       1 </atoms>
  <types>       1 </types>
  <array name="atoms" >
   <dimension dim="1">ion</dimension>
   <field type="string">element</field>
   <field type="int">atomtype</field>
   <set>
    <rc><c>Xe</c><c>   1</c></rc>
   </set>
  </array>
  <array name="atomtypes" >
   <dimension dim="1">type</dimension>
   <field type="int">atomspertype</field>
   <field type="string">element</field>
   <field>mass</field>
   <field>valence</field>
   <field type="string">pseudopotential</field>
   <set>
    <rc><c>   1</c><c>Xe</c><c>    131.29400000</c><c>      8.00000000</c><c>  PAW_PBE Xe_GW 08Jan2009               </c></rc>
   </set>
  </array>
 </atominfo>
 <structure name="initialpos" >
  <crystal>
   <varray name="basis" >
    <v>       4.33599578       0.00000000       0.00000000 </v>
    <v>       2.16799789       3.75508250      -0.00000000 </v>
    <v>       2.16799789       1.25169417       3.54032573 </v>
   </varray>
   <i name="volume">     57.64366099 </i>
   <varray name="rec_basis" >
    <v>       0.23062753      -0.13315287      -0.09415330 </v>
    <v>       0.00000000       0.26630573      -0.09415330 </v>
    <v>      -0.00000000       0.00000000       0.28245989 </v>
   </varray>
  </crystal>
  <varray name="positions" >
   <v>       0.00000000       0.00000000       0.00000000 </v>
  </varray>
  <varray name="velocities" >
   <v>       0.00000000       0.00000000       0.00000000 </v>
  </varray>
 </structure>
 <calculation>
  <scstep>
   <time name="dav">    0.17    0.17</time>
   <time name="total">    0.20    0.20</time>
   <energy>
    <i name="alphaZ">     22.61767795 </i>
    <i name="ewald">   -344.53113738 </i>
    <i name="hartreedc">    -64.52406707 </i>
    <i name="XCdc">    -72.79702283 </i>
    <i name="pawpsdc">    428.77605987 </i>
    <i name="pawaedc">   -340.65282128 </i>
    <i name="eentropy">     -0.00000329 </i>
    <i name="bandstr">    -30.44835449 </i>
    <i name="atom">    429.50278051 </i>
    <i name="e_fr_energy">     27.94311198 </i>
    <i name="e_wo_entrp">     27.94311527 </i>
    <i name="e_0_energy">     27.94311362 </i>
   </energy>
  </scstep>
  <scstep>
   <time name="dav">    0.22    0.23</time>
   <time name="total">    0.22    0.23</time>
   <energy>
    <i name="e_fr_energy">      1.25709494 </i>
    <i name="e_wo_entrp">      1.25709494 </i>
    <i name="e_0_energy">      1.25709494 </i>
   </energy>
  </scstep>
  <scstep>
   <time name="dav">    0.21    0.21</time>
   <time name="total">    0.21    0.21</time>
   <energy>
    <i name="e_fr_energy">      0.01885002 </i>
    <i name="e_wo_entrp">      0.01885002 </i>
    <i name="e_0_energy">      0.01885002 </i>
   </energy>
  </scstep>
  <scstep>
   <time name="dav">    0.26    0.26</time>
   <time name="total">    0.26    0.26</time>
   <energy>
    <i name="e_fr_energy">      0.01326977 </i>
    <i name="e_wo_entrp">      0.01326977 </i>
    <i name="e_0_energy">      0.01326977 </i>
   </energy>
  </scstep>
  <scstep>
   <time name="dav">    0.22    0.22</time>
   <time name="total">    0.24    0.25</time>
   <energy>
    <i name="e_fr_energy">      0.01326504 </i>
    <i name="e_wo_entrp">      0.01326504 </i>
    <i name="e_0_energy">      0.01326504 </i>
   </energy>
  </scstep>
  <scstep>
   <time name="dav">    0.24    0.24</time>
   <time name="total">    0.28    0.28</time>
   <energy>
    <i name="e_fr_energy">      0.01320241 </i>
    <i name="e_wo_entrp">      0.01320241 </i>
    <i name="e_0_energy">      0.01320241 </i>
   </energy>
  </scstep>
  <scstep>
   <time name="dav">    0.21    0.21</time>
   <time name="total">    0.25    0.25</time>
   <energy>
    <i name="e_fr_energy">      0.01314990 </i>
    <i name="e_wo_entrp">      0.01314990 </i>
    <i name="e_0_energy">      0.01314990 </i>
   </energy>
  </scstep>
  <scstep>
   <time name="dav">    0.20    0.20</time>
   <time name="total">    0.24    0.24</time>
   <energy>
    <i name="e_fr_energy">      0.01314270 </i>
    <i name="e_wo_entrp">      0.01314270 </i>
    <i name="e_0_energy">      0.01314270 </i>
   </energy>
  </scstep>
  <scstep>
   <time name="dav">    0.23    0.23</time>
   <time name="total">    0.27    0.27</time>
   <energy>
    <i name="e_fr_energy">      0.01314243 </i>
    <i name="e_wo_entrp">      0.01314243 </i>
    <i name="e_0_energy">      0.01314243 </i>
   </energy>
  </scstep>
  <scstep>
   <time name="dav">    0.19    0.19</time>
   <time name="total">    0.23    0.23</time>
   <energy>
    <i name="e_fr_energy">      0.01314235 </i>
    <i name="e_wo_entrp">      0.01314235 </i>
    <i name="e_0_energy">      0.01314235 </i>
   </energy>
  </scstep>
  <scstep>
   <time name="dav">    0.24    0.24</time>
   <time name="total">    0.28    0.28</time>
   <energy>
    <i name="e_fr_energy">      0.01314237 </i>
    <i name="e_wo_entrp">      0.01314237 </i>
    <i name="e_0_energy">      0.01314237 </i>
   </energy>
  </scstep>
  <scstep>
   <time name="dav">    0.14    0.14</time>
   <time name="total">    0.16    0.16</time>
   <energy>
    <i name="alphaZ">     22.61767795 </i>
    <i name="ewald">   -344.53113738 </i>
    <i name="hartreedc">    -64.62446696 </i>
    <i name="XCdc">    -72.79396555 </i>
    <i name="pawpsdc">    431.60462699 </i>
    <i name="pawaedc">   -343.49150484 </i>
    <i name="eentropy">      0.00000000 </i>
    <i name="bandstr">    -58.27086834 </i>
    <i name="atom">    429.50278051 </i>
    <i name="e_fr_energy">      0.01314237 </i>
    <i name="e_wo_entrp">      0.01314237 </i>
    <i name="e_0_energy">      0.01314237 </i>
   </energy>
  </scstep>
  <structure>
   <crystal>
    <varray name="basis" >
     <v>       4.33599578       0.00000000       0.00000000 </v>
     <v>       2.16799789       3.75508250      -0.00000000 </v>
     <v>       2.16799789       1.25169417       3.54032573 </v>
    </varray>
    <i name="volume">     57.64366099 </i>
    <varray name="rec_basis" >
     <v>       0.23062753      -0.13315287      -0.09415330 </v>
     <v>       0.00000000       0.26630573      -0.09415330 </v>
     <v>      -0.00000000       0.00000000       0.28245989 </v>
    </varray>
   </crystal>
   <varray name="positions" >
    <v>       0.00000000       0.00000000       0.00000000 </v>
   </varray>
  </structure>
  <varray name="forces" >
   <v>      -0.00000004      -0.00000003      -0.00000001 </v>
  </varray>
  <varray name="stress" >
   <v>       1.90071656       0.00001179       0.00000461 </v>
   <v>       0.00001181       1.90070026       0.00000462 </v>
   <v>       0.00000463       0.00000465       1.90070701 </v>
  </varray>
  <energy>
   <i name="e_fr_energy">     -0.17219179 </i>
   <i name="e_wo_entrp">     -0.17219179 </i>
   <i name="e_0_energy">      0.00000000 </i>
  </energy>
  <time name="totalsc">    3.44    3.49</time>
  <eigenvalues>
   <array>
    <dimension dim="1">band</dimension>
    <dimension dim="2">kpoint</dimension>
    <dimension dim="3">spin</dimension>
    <field>eigene</field>
    <field>occ</field>
    <set>
     <set comment="spin 1">
      <set comment="kpoint 1">
       <r>  -16.1308    1.0000 </r>
       <r>   -3.6780    1.0000 </r>
       <r>   -3.6780    1.0000 </r>
       <r>   -3.6780    1.0000 </r>
       <r>    2.5568    0.0000 </r>
       <r>    7.0241    0.0000 </r>
       <r>    7.0241    0.0000 </r>
       <r>    7.0241    0.0000 </r>
      </set>
      <set comment="kpoint 2">
       <r>  -16.0891    1.0000 </r>
       <r>   -4.0736    1.0000 </r>
       <r>   -3.7187    1.0000 </r>
       <r>   -3.7187    1.0000 </r>
       <r>    3.1067    0.0000 </r>
       <r>    6.5043    0.0000 </r>
       <r>    7.2115    0.0000 </r>
       <r>    7.2115    0.0000 </r>
      </set>
      <set comment="kpoint 3">
       <r>  -15.9909    1.0000 </r>
       <r>   -4.8135    1.0000 </r>
       <r>   -3.8067    1.0000 </r>
       <r>   -3.8067    1.0000 </r>
       <r>    3.9122    0.0000 </r>
       <r>    6.4309    0.0000 </r>
       <r>    7.1009    0.0000 </r>
       <r>    7.1009    0.0000 </r>
      </set>
      <set comment="kpoint 4">
       <r>  -15.9090    1.0000 </r>
       <r>   -5.3169    1.0000 </r>
       <r>   -3.8744    1.0000 </r>
       <r>   -3.8744    1.0000 </r>
       <r>    4.0125    0.0000 </r>
       <r>    6.7597    0.0000 </r>
       <r>    6.7597    0.0000 </r>
       <r>    7.2796    0.0000 </r>
      </set>
      <set comment="kpoint 5">
       <r>  -16.0891    1.0000 </r>
       <r>   -4.0736    1.0000 </r>
       <r>   -3.7187    1.0000 </r>
       <r>   -3.7187    1.0000 </r>
       <r>    3.1067    0.0000 </r>
       <r>    6.5043    0.0000 </r>
       <r>    7.2115    0.0000 </r>
       <r>    7.2115    0.0000 </r>
      </set>
      <set comment="kpoint 6">
       <r>  -16.0751    1.0000 </r>
       <r>   -4.0646    1.0000 </r>
       <r>   -3.8009    1.0000 </r>
       <r>   -3.8009    1.0000 </r>
       <r>    3.2977    0.0000 </r>
       <r>    6.1579    0.0000 </r>
       <r>    7.4546    0.0000 </r>
       <r>    7.4546    0.0000 </r>
      </set>
      <set comment="kpoint 7">
       <r>  -15.9955    1.0000 </r>
       <r>   -4.6137    1.0000 </r>
       <r>   -3.9122    1.0000 </r>
       <r>   -3.8992    1.0000 </r>
       <r>    4.1028    0.0000 </r>
       <r>    5.7897    0.0000 </r>
       <r>    6.7547    0.0000 </r>
       <r>    7.6742    0.0000 </r>
      </set>
      <set comment="kpoint 8">
       <r>  -15.9073    1.0000 </r>
       <r>   -5.1355    1.0000 </r>
       <r>   -4.0475    1.0000 </r>
       <r>   -3.9695    1.0000 </r>
       <r>    4.4440    0.0000 </r>
       <r>    5.9743    0.0000 </r>
       <r>    6.7293    0.0000 </r>
       <r>    7.3276    0.0000 </r>
      </set>
      <set comment="kpoint 9">
       <r>  -15.8793    1.0000 </r>
       <r>   -5.2795    1.0000 </r>
       <r>   -4.1554    1.0000 </r>
       <r>   -3.9343    1.0000 </r>
       <r>    4.5020    0.0000 </r>
       <r>    5.8934    0.0000 </r>
       <r>    7.0900    0.0000 </r>
       <r>    7.3681    0.0000 </r>
      </set>
      <set comment="kpoint 10">
       <r>  -15.9346    1.0000 </r>
       <r>   -4.9805    1.0000 </r>
       <r>   -4.1320    1.0000 </r>
       <r>   -3.8305    1.0000 </r>
       <r>    4.5271    0.0000 </r>
       <r>    6.2641    0.0000 </r>
       <r>    6.4316    0.0000 </r>
       <r>    7.2478    0.0000 </r>
      </set>
      <set comment="kpoint 11">
       <r>  -16.0279    1.0000 </r>
       <r>   -4.4482    1.0000 </r>
       <r>   -3.9447    1.0000 </r>
       <r>   -3.7327    1.0000 </r>
       <r>    3.8341    0.0000 </r>
       <r>    6.0888    0.0000 </r>
       <r>    7.0253    0.0000 </r>
       <r>    7.5719    0.0000 </r>
      </set>
      <set comment="kpoint 12">
       <r>  -15.9909    1.0000 </r>
       <r>   -4.8135    1.0000 </r>
       <r>   -3.8067    1.0000 </r>
       <r>   -3.8067    1.0000 </r>
       <r>    3.9122    0.0000 </r>
       <r>    6.4309    0.0000 </r>
       <r>    7.1009    0.0000 </r>
       <r>    7.1009    0.0000 </r>
      </set>
      <set comment="kpoint 13">
       <r>  -15.9955    1.0000 </r>
       <r>   -4.6137    1.0000 </r>
       <r>   -3.9122    1.0000 </r>
       <r>   -3.8992    1.0000 </r>
       <r>    4.1028    0.0000 </r>
       <r>    5.7897    0.0000 </r>
       <r>    6.7547    0.0000 </r>
       <r>    7.6742    0.0000 </r>
      </set>
      <set comment="kpoint 14">
       <r>  -15.9447    1.0000 </r>
       <r>   -4.7462    1.0000 </r>
       <r>   -4.0586    1.0000 </r>
       <r>   -4.0586    1.0000 </r>
       <r>    4.2188    0.0000 </r>
       <r>    5.1079    0.0000 </r>
       <r>    6.9446    0.0000 </r>
       <r>    8.6429    0.0000 </r>
      </set>
      <set comment="kpoint 15">
       <r>  -15.8754    1.0000 </r>
       <r>   -5.0294    1.0000 </r>
       <r>   -4.2667    1.0000 </r>
       <r>   -4.1374    1.0000 </r>
       <r>    4.2774    0.0000 </r>
       <r>    5.0783    0.0000 </r>
       <r>    7.0436    0.0000 </r>
       <r>    8.6843    0.0000 </r>
      </set>
      <set comment="kpoint 16">
       <r>  -15.8402    1.0000 </r>
       <r>   -5.0634    1.0000 </r>
       <r>   -4.5895    1.0000 </r>
       <r>   -4.0965    1.0000 </r>
       <r>    4.5361    0.0000 </r>
       <r>    5.6337    0.0000 </r>
       <r>    7.0377    0.0000 </r>
       <r>    8.2017    0.0000 </r>
      </set>
      <set comment="kpoint 17">
       <r>  -15.8672    1.0000 </r>
       <r>   -4.9723    1.0000 </r>
       <r>   -4.6115    1.0000 </r>
       <r>   -3.9627    1.0000 </r>
       <r>    5.1171    0.0000 </r>
       <r>    5.8005    0.0000 </r>
       <r>    6.4135    0.0000 </r>
       <r>    7.7781    0.0000 </r>
      </set>
      <set comment="kpoint 18">
       <r>  -15.9346    1.0000 </r>
       <r>   -4.9805    1.0000 </r>
       <r>   -4.1320    1.0000 </r>
       <r>   -3.8305    1.0000 </r>
       <r>    4.5271    0.0000 </r>
       <r>    6.2641    0.0000 </r>
       <r>    6.4316    0.0000 </r>
       <r>    7.2478    0.0000 </r>
      </set>
      <set comment="kpoint 19">
       <r>  -15.9090    1.0000 </r>
       <r>   -5.3169    1.0000 </r>
       <r>   -3.8744    1.0000 </r>
       <r>   -3.8744    1.0000 </r>
       <r>    4.0125    0.0000 </r>
       <r>    6.7597    0.0000 </r>
       <r>    6.7597    0.0000 </r>
       <r>    7.2796    0.0000 </r>
      </set>
      <set comment="kpoint 20">
       <r>  -15.9073    1.0000 </r>
       <r>   -5.1355    1.0000 </r>
       <r>   -4.0475    1.0000 </r>
       <r>   -3.9695    1.0000 </r>
       <r>    4.4440    0.0000 </r>
       <r>    5.9743    0.0000 </r>
       <r>    6.7293    0.0000 </r>
       <r>    7.3276    0.0000 </r>
      </set>
      <set comment="kpoint 21">
       <r>  -15.8754    1.0000 </r>
       <r>   -5.0294    1.0000 </r>
       <r>   -4.2667    1.0000 </r>
       <r>   -4.1374    1.0000 </r>
       <r>    4.2774    0.0000 </r>
       <r>    5.0783    0.0000 </r>
       <r>    7.0436    0.0000 </r>
       <r>    8.6843    0.0000 </r>
      </set>
      <set comment="kpoint 22">
       <r>  -15.8363    1.0000 </r>
       <r>   -5.1850    1.0000 </r>
       <r>   -4.2499    1.0000 </r>
       <r>   -4.2499    1.0000 </r>
       <r>    3.7481    0.0000 </r>
       <r>    4.5418    0.0000 </r>
       <r>    8.4626    0.0000 </r>
       <r>   10.3968    0.0000 </r>
      </set>
      <set comment="kpoint 23">
       <r>  -15.8206    1.0000 </r>
       <r>   -5.1637    1.0000 </r>
       <r>   -4.4504    1.0000 </r>
       <r>   -4.2327    1.0000 </r>
       <r>    3.9165    0.0000 </r>
       <r>    4.8202    0.0000 </r>
       <r>    8.2438    0.0000 </r>
       <r>    9.6685    0.0000 </r>
      </set>
      <set comment="kpoint 24">
       <r>  -15.8402    1.0000 </r>
       <r>   -5.0634    1.0000 </r>
       <r>   -4.5895    1.0000 </r>
       <r>   -4.0965    1.0000 </r>
       <r>    4.5361    0.0000 </r>
       <r>    5.6337    0.0000 </r>
       <r>    7.0377    0.0000 </r>
       <r>    8.2017    0.0000 </r>
      </set>
      <set comment="kpoint 25">
       <r>  -15.8793    1.0000 </r>
       <r>   -5.2795    1.0000 </r>
       <r>   -4.1554    1.0000 </r>
       <r>   -3.9343    1.0000 </r>
       <r>    4.5020    0.0000 </r>
       <r>    5.8934    0.0000 </r>
       <r>    7.0900    0.0000 </r>
       <r>    7.3681    0.0000 </r>
      </set>
      <set comment="kpoint 26">
       <r>  -16.0891    1.0000 </r>
       <r>   -4.0736    1.0000 </r>
       <r>   -3.7187    1.0000 </r>
       <r>   -3.7187    1.0000 </r>
       <r>    3.1067    0.0000 </r>
       <r>    6.5043    0.0000 </r>
       <r>    7.2115    0.0000 </r>
       <r>    7.2115    0.0000 </r>
      </set>
      <set comment="kpoint 27">
       <r>  -16.0751    1.0000 </r>
       <r>   -4.0646    1.0000 </r>
       <r>   -3.8009    1.0000 </r>
       <r>   -3.8009    1.0000 </r>
       <r>    3.2977    0.0000 </r>
       <r>    6.1579    0.0000 </r>
       <r>    7.4546    0.0000 </r>
       <r>    7.4546    0.0000 </r>
      </set>
      <set comment="kpoint 28">
       <r>  -15.9955    1.0000 </r>
       <r>   -4.6137    1.0000 </r>
       <r>   -3.9122    1.0000 </r>
       <r>   -3.8992    1.0000 </r>
       <r>    4.1028    0.0000 </r>
       <r>    5.7897    0.0000 </r>
       <r>    6.7547    0.0000 </r>
       <r>    7.6742    0.0000 </r>
      </set>
      <set comment="kpoint 29">
       <r>  -15.9073    1.0000 </r>
       <r>   -5.1355    1.0000 </r>
       <r>   -4.0475    1.0000 </r>
       <r>   -3.9695    1.0000 </r>
       <r>    4.4440    0.0000 </r>
       <r>    5.9743    0.0000 </r>
       <r>    6.7293    0.0000 </r>
       <r>    7.3276    0.0000 </r>
      </set>
      <set comment="kpoint 30">
       <r>  -15.8793    1.0000 </r>
       <r>   -5.2795    1.0000 </r>
       <r>   -4.1554    1.0000 </r>
       <r>   -3.9343    1.0000 </r>
       <r>    4.5020    0.0000 </r>
       <r>    5.8934    0.0000 </r>
       <r>    7.0900    0.0000 </r>
       <r>    7.3681    0.0000 </r>
      </set>
      <set comment="kpoint 31">
       <r>  -15.9346    1.0000 </r>
       <r>   -4.9805    1.0000 </r>
       <r>   -4.1320    1.0000 </r>
       <r>   -3.8305    1.0000 </r>
       <r>    4.5271    0.0000 </r>
       <r>    6.2641    0.0000 </r>
       <r>    6.4316    0.0000 </r>
       <r>    7.2478    0.0000 </r>
      </set>
      <set comment="kpoint 32">
       <r>  -16.0279    1.0000 </r>
       <r>   -4.4482    1.0000 </r>
       <r>   -3.9447    1.0000 </r>
       <r>   -3.7327    1.0000 </r>
       <r>    3.8341    0.0000 </r>
       <r>    6.0888    0.0000 </r>
       <r>    7.0253    0.0000 </r>
       <r>    7.5719    0.0000 </r>
      </set>
      <set comment="kpoint 33">
       <r>  -16.0751    1.0000 </r>
       <r>   -4.0646    1.0000 </r>
       <r>   -3.8009    1.0000 </r>
       <r>   -3.8009    1.0000 </r>
       <r>    3.2977    0.0000 </r>
       <r>    6.1579    0.0000 </r>
       <r>    7.4546    0.0000 </r>
       <r>    7.4546    0.0000 </r>
      </set>
      <set comment="kpoint 34">
       <r>  -16.0891    1.0000 </r>
       <r>   -4.0736    1.0000 </r>
       <r>   -3.7187    1.0000 </r>
       <r>   -3.7187    1.0000 </r>
       <r>    3.1067    0.0000 </r>
       <r>    6.5043    0.0000 </r>
       <r>    7.2115    0.0000 </r>
       <r>    7.2115    0.0000 </r>
      </set>
      <set comment="kpoint 35">
       <r>  -16.0279    1.0000 </r>
       <r>   -4.4482    1.0000 </r>
       <r>   -3.9447    1.0000 </r>
       <r>   -3.7327    1.0000 </r>
       <r>    3.8341    0.0000 </r>
       <r>    6.0888    0.0000 </r>
       <r>    7.0253    0.0000 </r>
       <r>    7.5719    0.0000 </r>
      </set>
      <set comment="kpoint 36">
       <r>  -15.9346    1.0000 </r>
       <r>   -4.9805    1.0000 </r>
       <r>   -4.1320    1.0000 </r>
       <r>   -3.8305    1.0000 </r>
       <r>    4.5271    0.0000 </r>
       <r>    6.2641    0.0000 </r>
       <r>    6.4316    0.0000 </r>
       <r>    7.2478    0.0000 </r>
      </set>
      <set comment="kpoint 37">
       <r>  -15.8793    1.0000 </r>
       <r>   -5.2795    1.0000 </r>
       <r>   -4.1554    1.0000 </r>
       <r>   -3.9343    1.0000 </r>
       <r>    4.5020    0.0000 </r>
       <r>    5.8934    0.0000 </r>
       <r>    7.0900    0.0000 </r>
       <r>    7.3681    0.0000 </r>
      </set>
      <set comment="kpoint 38">
       <r>  -15.9073    1.0000 </r>
       <r>   -5.1355    1.0000 </r>
       <r>   -4.0475    1.0000 </r>
       <r>   -3.9695    1.0000 </r>
       <r>    4.4440    0.0000 </r>
       <r>    5.9743    0.0000 </r>
       <r>    6.7293    0.0000 </r>
       <r>    7.3276    0.0000 </r>
      </set>
      <set comment="kpoint 39">
       <r>  -15.9955    1.0000 </r>
       <r>   -4.6137    1.0000 </r>
       <r>   -3.9122    1.0000 </r>
       <r>   -3.8992    1.0000 </r>
       <r>    4.1028    0.0000 </r>
       <r>    5.7897    0.0000 </r>
       <r>    6.7547    0.0000 </r>
       <r>    7.6742    0.0000 </r>
      </set>
      <set comment="kpoint 40">
       <r>  -15.9955    1.0000 </r>
       <r>   -4.6137    1.0000 </r>
       <r>   -3.9122    1.0000 </r>
       <r>   -3.8992    1.0000 </r>
       <r>    4.1028    0.0000 </r>
       <r>    5.7897    0.0000 </r>
       <r>    6.7547    0.0000 </r>
       <r>    7.6742    0.0000 </r>
      </set>
      <set comment="kpoint 41">
       <r>  -16.0279    1.0000 </r>
       <r>   -4.4482    1.0000 </r>
       <r>   -3.9447    1.0000 </r>
       <r>   -3.7327    1.0000 </r>
       <r>    3.8341    0.0000 </r>
       <r>    6.0888    0.0000 </r>
       <r>    7.0253    0.0000 </r>
       <r>    7.5719    0.0000 </r>
      </set>
      <set comment="kpoint 42">
       <r>  -15.9955    1.0000 </r>
       <r>   -4.6137    1.0000 </r>
       <r>   -3.9122    1.0000 </r>
       <r>   -3.8992    1.0000 </r>
       <r>    4.1028    0.0000 </r>
       <r>    5.7897    0.0000 </r>
       <r>    6.7547    0.0000 </r>
       <r>    7.6742    0.0000 </r>
      </set>
      <set comment="kpoint 43">
       <r>  -15.9205    1.0000 </r>
       <r>   -4.8859    1.0000 </r>
       <r>   -4.2423    1.0000 </r>
       <r>   -3.9581    1.0000 </r>
       <r>    4.7789    0.0000 </r>
       <r>    5.5722    0.0000 </r>
       <r>    6.1278    0.0000 </r>
       <r>    8.2276    0.0000 </r>
      </set>
      <set comment="kpoint 44">
       <r>  -15.8587    1.0000 </r>
       <r>   -5.0808    1.0000 </r>
       <r>   -4.4555    1.0000 </r>
       <r>   -4.0682    1.0000 </r>
       <r>    5.0990    0.0000 </r>
       <r>    5.4298    0.0000 </r>
       <r>    6.5153    0.0000 </r>
       <r>    7.9114    0.0000 </r>
      </set>
      <set comment="kpoint 45">
       <r>  -15.8587    1.0000 </r>
       <r>   -5.0808    1.0000 </r>
       <r>   -4.4555    1.0000 </r>
       <r>   -4.0682    1.0000 </r>
       <r>    5.0990    0.0000 </r>
       <r>    5.4298    0.0000 </r>
       <r>    6.5153    0.0000 </r>
       <r>    7.9114    0.0000 </r>
      </set>
      <set comment="kpoint 46">
       <r>  -15.9205    1.0000 </r>
       <r>   -4.8859    1.0000 </r>
       <r>   -4.2423    1.0000 </r>
       <r>   -3.9581    1.0000 </r>
       <r>    4.7789    0.0000 </r>
       <r>    5.5722    0.0000 </r>
       <r>    6.1278    0.0000 </r>
       <r>    8.2276    0.0000 </r>
      </set>
      <set comment="kpoint 47">
       <r>  -15.9073    1.0000 </r>
       <r>   -5.1355    1.0000 </r>
       <r>   -4.0475    1.0000 </r>
       <r>   -3.9695    1.0000 </r>
       <r>    4.4440    0.0000 </r>
       <r>    5.9743    0.0000 </r>
       <r>    6.7293    0.0000 </r>
       <r>    7.3276    0.0000 </r>
      </set>
      <set comment="kpoint 48">
       <r>  -15.9346    1.0000 </r>
       <r>   -4.9805    1.0000 </r>
       <r>   -4.1320    1.0000 </r>
       <r>   -3.8305    1.0000 </r>
       <r>    4.5271    0.0000 </r>
       <r>    6.2641    0.0000 </r>
       <r>    6.4316    0.0000 </r>
       <r>    7.2478    0.0000 </r>
      </set>
      <set comment="kpoint 49">
       <r>  -15.9205    1.0000 </r>
       <r>   -4.8859    1.0000 </r>
       <r>   -4.2423    1.0000 </r>
       <r>   -3.9581    1.0000 </r>
       <r>    4.7789    0.0000 </r>
       <r>    5.5722    0.0000 </r>
       <r>    6.1278    0.0000 </r>
       <r>    8.2276    0.0000 </r>
      </set>
      <set comment="kpoint 50">
       <r>  -15.8754    1.0000 </r>
       <r>   -5.0294    1.0000 </r>
       <r>   -4.2667    1.0000 </r>
       <r>   -4.1374    1.0000 </r>
       <r>    4.2774    0.0000 </r>
       <r>    5.0783    0.0000 </r>
       <r>    7.0436    0.0000 </r>
       <r>    8.6843    0.0000 </r>
      </set>
      <set comment="kpoint 51">
       <r>  -15.8325    1.0000 </r>
       <r>   -5.0721    1.0000 </r>
       <r>   -4.4600    1.0000 </r>
       <r>   -4.2666    1.0000 </r>
       <r>    4.3394    0.0000 </r>
       <r>    5.1681    0.0000 </r>
       <r>    7.1804    0.0000 </r>
       <r>    8.8281    0.0000 </r>
      </set>
      <set comment="kpoint 52">
       <r>  -15.8252    1.0000 </r>
       <r>   -4.8742    1.0000 </r>
       <r>   -4.7880    1.0000 </r>
       <r>   -4.2395    1.0000 </r>
       <r>    4.7476    0.0000 </r>
       <r>    5.8221    0.0000 </r>
       <r>    6.7112    0.0000 </r>
       <r>    7.7968    0.0000 </r>
      </set>
      <set comment="kpoint 53">
       <r>  -15.8587    1.0000 </r>
       <r>   -5.0808    1.0000 </r>
       <r>   -4.4555    1.0000 </r>
       <r>   -4.0682    1.0000 </r>
       <r>    5.0990    0.0000 </r>
       <r>    5.4298    0.0000 </r>
       <r>    6.5153    0.0000 </r>
       <r>    7.9114    0.0000 </r>
      </set>
      <set comment="kpoint 54">
       <r>  -15.8793    1.0000 </r>
       <r>   -5.2795    1.0000 </r>
       <r>   -4.1554    1.0000 </r>
       <r>   -3.9343    1.0000 </r>
       <r>    4.5020    0.0000 </r>
       <r>    5.8934    0.0000 </r>
       <r>    7.0900    0.0000 </r>
       <r>    7.3681    0.0000 </r>
      </set>
      <set comment="kpoint 55">
       <r>  -15.8793    1.0000 </r>
       <r>   -5.2795    1.0000 </r>
       <r>   -4.1554    1.0000 </r>
       <r>   -3.9343    1.0000 </r>
       <r>    4.5020    0.0000 </r>
       <r>    5.8934    0.0000 </r>
       <r>    7.0900    0.0000 </r>
       <r>    7.3681    0.0000 </r>
      </set>
      <set comment="kpoint 56">
       <r>  -15.8587    1.0000 </r>
       <r>   -5.0808    1.0000 </r>
       <r>   -4.4555    1.0000 </r>
       <r>   -4.0682    1.0000 </r>
       <r>    5.0990    0.0000 </r>
       <r>    5.4298    0.0000 </r>
       <r>    6.5153    0.0000 </r>
       <r>    7.9114    0.0000 </r>
      </set>
      <set comment="kpoint 57">
       <r>  -15.8325    1.0000 </r>
       <r>   -5.0721    1.0000 </r>
       <r>   -4.4600    1.0000 </r>
       <r>   -4.2666    1.0000 </r>
       <r>    4.3394    0.0000 </r>
       <r>    5.1681    0.0000 </r>
       <r>    7.1804    0.0000 </r>
       <r>    8.8281    0.0000 </r>
      </set>
      <set comment="kpoint 58">
       <r>  -15.8206    1.0000 </r>
       <r>   -5.1637    1.0000 </r>
       <r>   -4.4504    1.0000 </r>
       <r>   -4.2327    1.0000 </r>
       <r>    3.9165    0.0000 </r>
       <r>    4.8202    0.0000 </r>
       <r>    8.2438    0.0000 </r>
       <r>    9.6685    0.0000 </r>
      </set>
      <set comment="kpoint 59">
       <r>  -15.8325    1.0000 </r>
       <r>   -5.0721    1.0000 </r>
       <r>   -4.4600    1.0000 </r>
       <r>   -4.2666    1.0000 </r>
       <r>    4.3394    0.0000 </r>
       <r>    5.1681    0.0000 </r>
       <r>    7.1804    0.0000 </r>
       <r>    8.8281    0.0000 </r>
      </set>
      <set comment="kpoint 60">
       <r>  -15.8587    1.0000 </r>
       <r>   -5.0808    1.0000 </r>
       <r>   -4.4555    1.0000 </r>
       <r>   -4.0682    1.0000 </r>
       <r>    5.0990    0.0000 </r>
       <r>    5.4298    0.0000 </r>
       <r>    6.5153    0.0000 </r>
       <r>    7.9114    0.0000 </r>
      </set>
      <set comment="kpoint 61">
       <r>  -15.9346    1.0000 </r>
       <r>   -4.9805    1.0000 </r>
       <r>   -4.1320    1.0000 </r>
       <r>   -3.8305    1.0000 </r>
       <r>    4.5271    0.0000 </r>
       <r>    6.2641    0.0000 </r>
       <r>    6.4316    0.0000 </r>
       <r>    7.2478    0.0000 </r>
      </set>
      <set comment="kpoint 62">
       <r>  -15.9073    1.0000 </r>
       <r>   -5.1355    1.0000 </r>
       <r>   -4.0475    1.0000 </r>
       <r>   -3.9695    1.0000 </r>
       <r>    4.4440    0.0000 </r>
       <r>    5.9743    0.0000 </r>
       <r>    6.7293    0.0000 </r>
       <r>    7.3276    0.0000 </r>
      </set>
      <set comment="kpoint 63">
       <r>  -15.8587    1.0000 </r>
       <r>   -5.0808    1.0000 </r>
       <r>   -4.4555    1.0000 </r>
       <r>   -4.0682    1.0000 </r>
       <r>    5.0990    0.0000 </r>
       <r>    5.4298    0.0000 </r>
       <r>    6.5153    0.0000 </r>
       <r>    7.9114    0.0000 </r>
      </set>
      <set comment="kpoint 64">
       <r>  -15.8252    1.0000 </r>
       <r>   -4.8742    1.0000 </r>
       <r>   -4.7880    1.0000 </r>
       <r>   -4.2395    1.0000 </r>
       <r>    4.7476    0.0000 </r>
       <r>    5.8221    0.0000 </r>
       <r>    6.7112    0.0000 </r>
       <r>    7.7968    0.0000 </r>
      </set>
      <set comment="kpoint 65">
       <r>  -15.8325    1.0000 </r>
       <r>   -5.0721    1.0000 </r>
       <r>   -4.4600    1.0000 </r>
       <r>   -4.2666    1.0000 </r>
       <r>    4.3394    0.0000 </r>
       <r>    5.1681    0.0000 </r>
       <r>    7.1804    0.0000 </r>
       <r>    8.8280    0.0000 </r>
      </set>
      <set comment="kpoint 66">
       <r>  -15.8754    1.0000 </r>
       <r>   -5.0294    1.0000 </r>
       <r>   -4.2667    1.0000 </r>
       <r>   -4.1374    1.0000 </r>
       <r>    4.2774    0.0000 </r>
       <r>    5.0783    0.0000 </r>
       <r>    7.0436    0.0000 </r>
       <r>    8.6843    0.0000 </r>
      </set>
      <set comment="kpoint 67">
       <r>  -15.9205    1.0000 </r>
       <r>   -4.8859    1.0000 </r>
       <r>   -4.2423    1.0000 </r>
       <r>   -3.9581    1.0000 </r>
       <r>    4.7789    0.0000 </r>
       <r>    5.5722    0.0000 </r>
       <r>    6.1278    0.0000 </r>
       <r>    8.2276    0.0000 </r>
      </set>
      <set comment="kpoint 68">
       <r>  -16.0279    1.0000 </r>
       <r>   -4.4482    1.0000 </r>
       <r>   -3.9447    1.0000 </r>
       <r>   -3.7327    1.0000 </r>
       <r>    3.8341    0.0000 </r>
       <r>    6.0888    0.0000 </r>
       <r>    7.0253    0.0000 </r>
       <r>    7.5719    0.0000 </r>
      </set>
      <set comment="kpoint 69">
       <r>  -15.9955    1.0000 </r>
       <r>   -4.6137    1.0000 </r>
       <r>   -3.9122    1.0000 </r>
       <r>   -3.8992    1.0000 </r>
       <r>    4.1028    0.0000 </r>
       <r>    5.7897    0.0000 </r>
       <r>    6.7547    0.0000 </r>
       <r>    7.6742    0.0000 </r>
      </set>
      <set comment="kpoint 70">
       <r>  -15.9205    1.0000 </r>
       <r>   -4.8859    1.0000 </r>
       <r>   -4.2423    1.0000 </r>
       <r>   -3.9581    1.0000 </r>
       <r>    4.7789    0.0000 </r>
       <r>    5.5722    0.0000 </r>
       <r>    6.1278    0.0000 </r>
       <r>    8.2276    0.0000 </r>
      </set>
      <set comment="kpoint 71">
       <r>  -15.8587    1.0000 </r>
       <r>   -5.0808    1.0000 </r>
       <r>   -4.4555    1.0000 </r>
       <r>   -4.0682    1.0000 </r>
       <r>    5.0990    0.0000 </r>
       <r>    5.4298    0.0000 </r>
       <r>    6.5153    0.0000 </r>
       <r>    7.9114    0.0000 </r>
      </set>
      <set comment="kpoint 72">
       <r>  -15.8587    1.0000 </r>
       <r>   -5.0808    1.0000 </r>
       <r>   -4.4555    1.0000 </r>
       <r>   -4.0682    1.0000 </r>
       <r>    5.0990    0.0000 </r>
       <r>    5.4298    0.0000 </r>
       <r>    6.5153    0.0000 </r>
       <r>    7.9114    0.0000 </r>
      </set>
      <set comment="kpoint 73">
       <r>  -15.9205    1.0000 </r>
       <r>   -4.8859    1.0000 </r>
       <r>   -4.2423    1.0000 </r>
       <r>   -3.9581    1.0000 </r>
       <r>    4.7789    0.0000 </r>
       <r>    5.5722    0.0000 </r>
       <r>    6.1278    0.0000 </r>
       <r>    8.2276    0.0000 </r>
      </set>
      <set comment="kpoint 74">
       <r>  -15.9955    1.0000 </r>
       <r>   -4.6137    1.0000 </r>
       <r>   -3.9122    1.0000 </r>
       <r>   -3.8992    1.0000 </r>
       <r>    4.1028    0.0000 </r>
       <r>    5.7897    0.0000 </r>
       <r>    6.7547    0.0000 </r>
       <r>    7.6742    0.0000 </r>
      </set>
      <set comment="kpoint 75">
       <r>  -15.9909    1.0000 </r>
       <r>   -4.8135    1.0000 </r>
       <r>   -3.8067    1.0000 </r>
       <r>   -3.8067    1.0000 </r>
       <r>    3.9122    0.0000 </r>
       <r>    6.4309    0.0000 </r>
       <r>    7.1009    0.0000 </r>
       <r>    7.1009    0.0000 </r>
      </set>
      <set comment="kpoint 76">
       <r>  -15.9955    1.0000 </r>
       <r>   -4.6137    1.0000 </r>
       <r>   -3.9122    1.0000 </r>
       <r>   -3.8992    1.0000 </r>
       <r>    4.1028    0.0000 </r>
       <r>    5.7897    0.0000 </r>
       <r>    6.7547    0.0000 </r>
       <r>    7.6742    0.0000 </r>
      </set>
      <set comment="kpoint 77">
       <r>  -15.9447    1.0000 </r>
       <r>   -4.7462    1.0000 </r>
       <r>   -4.0586    1.0000 </r>
       <r>   -4.0586    1.0000 </r>
       <r>    4.2188    0.0000 </r>
       <r>    5.1079    0.0000 </r>
       <r>    6.9446    0.0000 </r>
       <r>    8.6429    0.0000 </r>
      </set>
      <set comment="kpoint 78">
       <r>  -15.8754    1.0000 </r>
       <r>   -5.0294    1.0000 </r>
       <r>   -4.2667    1.0000 </r>
       <r>   -4.1374    1.0000 </r>
       <r>    4.2774    0.0000 </r>
       <r>    5.0783    0.0000 </r>
       <r>    7.0436    0.0000 </r>
       <r>    8.6843    0.0000 </r>
      </set>
      <set comment="kpoint 79">
       <r>  -15.8402    1.0000 </r>
       <r>   -5.0634    1.0000 </r>
       <r>   -4.5895    1.0000 </r>
       <r>   -4.0965    1.0000 </r>
       <r>    4.5361    0.0000 </r>
       <r>    5.6337    0.0000 </r>
       <r>    7.0377    0.0000 </r>
       <r>    8.2017    0.0000 </r>
      </set>
      <set comment="kpoint 80">
       <r>  -15.8672    1.0000 </r>
       <r>   -4.9723    1.0000 </r>
       <r>   -4.6115    1.0000 </r>
       <r>   -3.9627    1.0000 </r>
       <r>    5.1171    0.0000 </r>
       <r>    5.8005    0.0000 </r>
       <r>    6.4135    0.0000 </r>
       <r>    7.7781    0.0000 </r>
      </set>
      <set comment="kpoint 81">
       <r>  -15.9346    1.0000 </r>
       <r>   -4.9805    1.0000 </r>
       <r>   -4.1320    1.0000 </r>
       <r>   -3.8305    1.0000 </r>
       <r>    4.5271    0.0000 </r>
       <r>    6.2641    0.0000 </r>
       <r>    6.4316    0.0000 </r>
       <r>    7.2478    0.0000 </r>
      </set>
      <set comment="kpoint 82">
       <r>  -15.9955    1.0000 </r>
       <r>   -4.6137    1.0000 </r>
       <r>   -3.9122    1.0000 </r>
       <r>   -3.8992    1.0000 </r>
       <r>    4.1028    0.0000 </r>
       <r>    5.7897    0.0000 </r>
       <r>    6.7547    0.0000 </r>
       <r>    7.6742    0.0000 </r>
      </set>
      <set comment="kpoint 83">
       <r>  -16.0279    1.0000 </r>
       <r>   -4.4482    1.0000 </r>
       <r>   -3.9447    1.0000 </r>
       <r>   -3.7327    1.0000 </r>
       <r>    3.8341    0.0000 </r>
       <r>    6.0888    0.0000 </r>
       <r>    7.0253    0.0000 </r>
       <r>    7.5719    0.0000 </r>
      </set>
      <set comment="kpoint 84">
       <r>  -15.9955    1.0000 </r>
       <r>   -4.6137    1.0000 </r>
       <r>   -3.9122    1.0000 </r>
       <r>   -3.8992    1.0000 </r>
       <r>    4.1028    0.0000 </r>
       <r>    5.7897    0.0000 </r>
       <r>    6.7547    0.0000 </r>
       <r>    7.6742    0.0000 </r>
      </set>
      <set comment="kpoint 85">
       <r>  -15.9205    1.0000 </r>
       <r>   -4.8859    1.0000 </r>
       <r>   -4.2423    1.0000 </r>
       <r>   -3.9581    1.0000 </r>
       <r>    4.7789    0.0000 </r>
       <r>    5.5722    0.0000 </r>
       <r>    6.1278    0.0000 </r>
       <r>    8.2276    0.0000 </r>
      </set>
      <set comment="kpoint 86">
       <r>  -15.8587    1.0000 </r>
       <r>   -5.0808    1.0000 </r>
       <r>   -4.4555    1.0000 </r>
       <r>   -4.0682    1.0000 </r>
       <r>    5.0990    0.0000 </r>
       <r>    5.4298    0.0000 </r>
       <r>    6.5153    0.0000 </r>
       <r>    7.9114    0.0000 </r>
      </set>
      <set comment="kpoint 87">
       <r>  -15.8587    1.0000 </r>
       <r>   -5.0808    1.0000 </r>
       <r>   -4.4555    1.0000 </r>
       <r>   -4.0682    1.0000 </r>
       <r>    5.0990    0.0000 </r>
       <r>    5.4298    0.0000 </r>
       <r>    6.5153    0.0000 </r>
       <r>    7.9114    0.0000 </r>
      </set>
      <set comment="kpoint 88">
       <r>  -15.9205    1.0000 </r>
       <r>   -4.8859    1.0000 </r>
       <r>   -4.2423    1.0000 </r>
       <r>   -3.9581    1.0000 </r>
       <r>    4.7789    0.0000 </r>
       <r>    5.5722    0.0000 </r>
       <r>    6.1278    0.0000 </r>
       <r>    8.2276    0.0000 </r>
      </set>
      <set comment="kpoint 89">
       <r>  -15.9447    1.0000 </r>
       <r>   -4.7462    1.0000 </r>
       <r>   -4.0586    1.0000 </r>
       <r>   -4.0586    1.0000 </r>
       <r>    4.2188    0.0000 </r>
       <r>    5.1079    0.0000 </r>
       <r>    6.9446    0.0000 </r>
       <r>    8.6429    0.0000 </r>
      </set>
      <set comment="kpoint 90">
       <r>  -15.9955    1.0000 </r>
       <r>   -4.6137    1.0000 </r>
       <r>   -3.9122    1.0000 </r>
       <r>   -3.8992    1.0000 </r>
       <r>    4.1028    0.0000 </r>
       <r>    5.7897    0.0000 </r>
       <r>    6.7547    0.0000 </r>
       <r>    7.6742    0.0000 </r>
      </set>
      <set comment="kpoint 91">
       <r>  -15.9909    1.0000 </r>
       <r>   -4.8135    1.0000 </r>
       <r>   -3.8067    1.0000 </r>
       <r>   -3.8067    1.0000 </r>
       <r>    3.9122    0.0000 </r>
       <r>    6.4309    0.0000 </r>
       <r>    7.1009    0.0000 </r>
       <r>    7.1009    0.0000 </r>
      </set>
      <set comment="kpoint 92">
       <r>  -15.9346    1.0000 </r>
       <r>   -4.9805    1.0000 </r>
       <r>   -4.1320    1.0000 </r>
       <r>   -3.8305    1.0000 </r>
       <r>    4.5271    0.0000 </r>
       <r>    6.2641    0.0000 </r>
       <r>    6.4316    0.0000 </r>
       <r>    7.2478    0.0000 </r>
      </set>
      <set comment="kpoint 93">
       <r>  -15.8672    1.0000 </r>
       <r>   -4.9723    1.0000 </r>
       <r>   -4.6115    1.0000 </r>
       <r>   -3.9627    1.0000 </r>
       <r>    5.1171    0.0000 </r>
       <r>    5.8005    0.0000 </r>
       <r>    6.4135    0.0000 </r>
       <r>    7.7781    0.0000 </r>
      </set>
      <set comment="kpoint 94">
       <r>  -15.8402    1.0000 </r>
       <r>   -5.0634    1.0000 </r>
       <r>   -4.5895    1.0000 </r>
       <r>   -4.0965    1.0000 </r>
       <r>    4.5361    0.0000 </r>
       <r>    5.6337    0.0000 </r>
       <r>    7.0377    0.0000 </r>
       <r>    8.2017    0.0000 </r>
      </set>
      <set comment="kpoint 95">
       <r>  -15.8754    1.0000 </r>
       <r>   -5.0294    1.0000 </r>
       <r>   -4.2667    1.0000 </r>
       <r>   -4.1374    1.0000 </r>
       <r>    4.2774    0.0000 </r>
       <r>    5.0783    0.0000 </r>
       <r>    7.0436    0.0000 </r>
       <r>    8.6843    0.0000 </r>
      </set>
      <set comment="kpoint 96">
       <r>  -15.8754    1.0000 </r>
       <r>   -5.0294    1.0000 </r>
       <r>   -4.2667    1.0000 </r>
       <r>   -4.1374    1.0000 </r>
       <r>    4.2774    0.0000 </r>
       <r>    5.0783    0.0000 </r>
       <r>    7.0436    0.0000 </r>
       <r>    8.6843    0.0000 </r>
      </set>
      <set comment="kpoint 97">
       <r>  -15.9205    1.0000 </r>
       <r>   -4.8859    1.0000 </r>
       <r>   -4.2423    1.0000 </r>
       <r>   -3.9581    1.0000 </r>
       <r>    4.7789    0.0000 </r>
       <r>    5.5722    0.0000 </r>
       <r>    6.1278    0.0000 </r>
       <r>    8.2276    0.0000 </r>
      </set>
      <set comment="kpoint 98">
       <r>  -15.9346    1.0000 </r>
       <r>   -4.9805    1.0000 </r>
       <r>   -4.1320    1.0000 </r>
       <r>   -3.8305    1.0000 </r>
       <r>    4.5271    0.0000 </r>
       <r>    6.2641    0.0000 </r>
       <r>    6.4316    0.0000 </r>
       <r>    7.2478    0.0000 </r>
      </set>
      <set comment="kpoint 99">
       <r>  -15.9073    1.0000 </r>
       <r>   -5.1355    1.0000 </r>
       <r>   -4.0475    1.0000 </r>
       <r>   -3.9695    1.0000 </r>
       <r>    4.4440    0.0000 </r>
       <r>    5.9743    0.0000 </r>
       <r>    6.7293    0.0000 </r>
       <r>    7.3276    0.0000 </r>
      </set>
      <set comment="kpoint 100">
       <r>  -15.8587    1.0000 </r>
       <r>   -5.0808    1.0000 </r>
       <r>   -4.4555    1.0000 </r>
       <r>   -4.0682    1.0000 </r>
       <r>    5.0990    0.0000 </r>
       <r>    5.4298    0.0000 </r>
       <r>    6.5153    0.0000 </r>
       <r>    7.9114    0.0000 </r>
      </set>
      <set comment="kpoint 101">
       <r>  -15.8252    1.0000 </r>
       <r>   -4.8742    1.0000 </r>
       <r>   -4.7880    1.0000 </r>
       <r>   -4.2395    1.0000 </r>
       <r>    4.7476    0.0000 </r>
       <r>    5.8221    0.0000 </r>
       <r>    6.7112    0.0000 </r>
       <r>    7.7968    0.0000 </r>
      </set>
      <set comment="kpoint 102">
       <r>  -15.8325    1.0000 </r>
       <r>   -5.0721    1.0000 </r>
       <r>   -4.4600    1.0000 </r>
       <r>   -4.2666    1.0000 </r>
       <r>    4.3394    0.0000 </r>
       <r>    5.1681    0.0000 </r>
       <r>    7.1804    0.0000 </r>
       <r>    8.8281    0.0000 </r>
      </set>
      <set comment="kpoint 103">
       <r>  -15.8402    1.0000 </r>
       <r>   -5.0634    1.0000 </r>
       <r>   -4.5895    1.0000 </r>
       <r>   -4.0965    1.0000 </r>
       <r>    4.5361    0.0000 </r>
       <r>    5.6337    0.0000 </r>
       <r>    7.0377    0.0000 </r>
       <r>    8.2017    0.0000 </r>
      </set>
      <set comment="kpoint 104">
       <r>  -15.8587    1.0000 </r>
       <r>   -5.0808    1.0000 </r>
       <r>   -4.4555    1.0000 </r>
       <r>   -4.0682    1.0000 </r>
       <r>    5.0990    0.0000 </r>
       <r>    5.4298    0.0000 </r>
       <r>    6.5153    0.0000 </r>
       <r>    7.9114    0.0000 </r>
      </set>
      <set comment="kpoint 105">
       <r>  -15.8672    1.0000 </r>
       <r>   -4.9723    1.0000 </r>
       <r>   -4.6115    1.0000 </r>
       <r>   -3.9627    1.0000 </r>
       <r>    5.1171    0.0000 </r>
       <r>    5.8005    0.0000 </r>
       <r>    6.4135    0.0000 </r>
       <r>    7.7781    0.0000 </r>
      </set>
      <set comment="kpoint 106">
       <r>  -15.8587    1.0000 </r>
       <r>   -5.0808    1.0000 </r>
       <r>   -4.4555    1.0000 </r>
       <r>   -4.0682    1.0000 </r>
       <r>    5.0990    0.0000 </r>
       <r>    5.4298    0.0000 </r>
       <r>    6.5153    0.0000 </r>
       <r>    7.9114    0.0000 </r>
      </set>
      <set comment="kpoint 107">
       <r>  -15.8402    1.0000 </r>
       <r>   -5.0634    1.0000 </r>
       <r>   -4.5895    1.0000 </r>
       <r>   -4.0965    1.0000 </r>
       <r>    4.5361    0.0000 </r>
       <r>    5.6337    0.0000 </r>
       <r>    7.0377    0.0000 </r>
       <r>    8.2017    0.0000 </r>
      </set>
      <set comment="kpoint 108">
       <r>  -15.8252    1.0000 </r>
       <r>   -4.8742    1.0000 </r>
       <r>   -4.7880    1.0000 </r>
       <r>   -4.2395    1.0000 </r>
       <r>    4.7476    0.0000 </r>
       <r>    5.8221    0.0000 </r>
       <r>    6.7112    0.0000 </r>
       <r>    7.7968    0.0000 </r>
      </set>
      <set comment="kpoint 109">
       <r>  -15.8252    1.0000 </r>
       <r>   -4.8742    1.0000 </r>
       <r>   -4.7880    1.0000 </r>
       <r>   -4.2395    1.0000 </r>
       <r>    4.7476    0.0000 </r>
       <r>    5.8221    0.0000 </r>
       <r>    6.7112    0.0000 </r>
       <r>    7.7968    0.0000 </r>
      </set>
      <set comment="kpoint 110">
       <r>  -15.8672    1.0000 </r>
       <r>   -4.9723    1.0000 </r>
       <r>   -4.6115    1.0000 </r>
       <r>   -3.9627    1.0000 </r>
       <r>    5.1171    0.0000 </r>
       <r>    5.8005    0.0000 </r>
       <r>    6.4135    0.0000 </r>
       <r>    7.7781    0.0000 </r>
      </set>
      <set comment="kpoint 111">
       <r>  -15.8587    1.0000 </r>
       <r>   -5.0808    1.0000 </r>
       <r>   -4.4555    1.0000 </r>
       <r>   -4.0682    1.0000 </r>
       <r>    5.0990    0.0000 </r>
       <r>    5.4298    0.0000 </r>
       <r>    6.5153    0.0000 </r>
       <r>    7.9114    0.0000 </r>
      </set>
      <set comment="kpoint 112">
       <r>  -15.8402    1.0000 </r>
       <r>   -5.0634    1.0000 </r>
       <r>   -4.5895    1.0000 </r>
       <r>   -4.0965    1.0000 </r>
       <r>    4.5361    0.0000 </r>
       <r>    5.6337    0.0000 </r>
       <r>    7.0377    0.0000 </r>
       <r>    8.2017    0.0000 </r>
      </set>
      <set comment="kpoint 113">
       <r>  -15.8252    1.0000 </r>
       <r>   -4.8742    1.0000 </r>
       <r>   -4.7880    1.0000 </r>
       <r>   -4.2395    1.0000 </r>
       <r>    4.7476    0.0000 </r>
       <r>    5.8221    0.0000 </r>
       <r>    6.7112    0.0000 </r>
       <r>    7.7968    0.0000 </r>
      </set>
      <set comment="kpoint 114">
       <r>  -15.8252    1.0000 </r>
       <r>   -4.8742    1.0000 </r>
       <r>   -4.7880    1.0000 </r>
       <r>   -4.2395    1.0000 </r>
       <r>    4.7476    0.0000 </r>
       <r>    5.8221    0.0000 </r>
       <r>    6.7112    0.0000 </r>
       <r>    7.7968    0.0000 </r>
      </set>
      <set comment="kpoint 115">
       <r>  -15.8402    1.0000 </r>
       <r>   -5.0634    1.0000 </r>
       <r>   -4.5895    1.0000 </r>
       <r>   -4.0965    1.0000 </r>
       <r>    4.5361    0.0000 </r>
       <r>    5.6337    0.0000 </r>
       <r>    7.0377    0.0000 </r>
       <r>    8.2017    0.0000 </r>
      </set>
      <set comment="kpoint 116">
       <r>  -15.8587    1.0000 </r>
       <r>   -5.0808    1.0000 </r>
       <r>   -4.4555    1.0000 </r>
       <r>   -4.0682    1.0000 </r>
       <r>    5.0990    0.0000 </r>
       <r>    5.4298    0.0000 </r>
       <r>    6.5153    0.0000 </r>
       <r>    7.9114    0.0000 </r>
      </set>
      <set comment="kpoint 117">
       <r>  -15.9346    1.0000 </r>
       <r>   -4.9805    1.0000 </r>
       <r>   -4.1320    1.0000 </r>
       <r>   -3.8305    1.0000 </r>
       <r>    4.5271    0.0000 </r>
       <r>    6.2641    0.0000 </r>
       <r>    6.4316    0.0000 </r>
       <r>    7.2478    0.0000 </r>
      </set>
      <set comment="kpoint 118">
       <r>  -15.9205    1.0000 </r>
       <r>   -4.8859    1.0000 </r>
       <r>   -4.2423    1.0000 </r>
       <r>   -3.9581    1.0000 </r>
       <r>    4.7789    0.0000 </r>
       <r>    5.5722    0.0000 </r>
       <r>    6.1278    0.0000 </r>
       <r>    8.2276    0.0000 </r>
      </set>
      <set comment="kpoint 119">
       <r>  -15.8754    1.0000 </r>
       <r>   -5.0294    1.0000 </r>
       <r>   -4.2667    1.0000 </r>
       <r>   -4.1374    1.0000 </r>
       <r>    4.2774    0.0000 </r>
       <r>    5.0783    0.0000 </r>
       <r>    7.0436    0.0000 </r>
       <r>    8.6843    0.0000 </r>
      </set>
      <set comment="kpoint 120">
       <r>  -15.8325    1.0000 </r>
       <r>   -5.0721    1.0000 </r>
       <r>   -4.4600    1.0000 </r>
       <r>   -4.2666    1.0000 </r>
       <r>    4.3394    0.0000 </r>
       <r>    5.1681    0.0000 </r>
       <r>    7.1804    0.0000 </r>
       <r>    8.8281    0.0000 </r>
      </set>
      <set comment="kpoint 121">
       <r>  -15.8252    1.0000 </r>
       <r>   -4.8742    1.0000 </r>
       <r>   -4.7880    1.0000 </r>
       <r>   -4.2395    1.0000 </r>
       <r>    4.7476    0.0000 </r>
       <r>    5.8221    0.0000 </r>
       <r>    6.7112    0.0000 </r>
       <r>    7.7968    0.0000 </r>
      </set>
      <set comment="kpoint 122">
       <r>  -15.8587    1.0000 </r>
       <r>   -5.0808    1.0000 </r>
       <r>   -4.4555    1.0000 </r>
       <r>   -4.0682    1.0000 </r>
       <r>    5.0990    0.0000 </r>
       <r>    5.4298    0.0000 </r>
       <r>    6.5153    0.0000 </r>
       <r>    7.9114    0.0000 </r>
      </set>
      <set comment="kpoint 123">
       <r>  -15.9073    1.0000 </r>
       <r>   -5.1355    1.0000 </r>
       <r>   -4.0475    1.0000 </r>
       <r>   -3.9695    1.0000 </r>
       <r>    4.4440    0.0000 </r>
       <r>    5.9743    0.0000 </r>
       <r>    6.7293    0.0000 </r>
       <r>    7.3276    0.0000 </r>
      </set>
      <set comment="kpoint 124">
       <r>  -15.9090    1.0000 </r>
       <r>   -5.3169    1.0000 </r>
       <r>   -3.8744    1.0000 </r>
       <r>   -3.8744    1.0000 </r>
       <r>    4.0125    0.0000 </r>
       <r>    6.7597    0.0000 </r>
       <r>    6.7597    0.0000 </r>
       <r>    7.2796    0.0000 </r>
      </set>
      <set comment="kpoint 125">
       <r>  -15.9073    1.0000 </r>
       <r>   -5.1355    1.0000 </r>
[...]
     <r>     0.9487     0.0000     0.0000     0.0000     0.0000     0.0000     0.0000 </r>
     <r>     0.9587     0.0000     0.0000     0.0000     0.0000     0.0000     0.0000 </r>
     <r>     0.9687     0.0000     0.0000     0.0000     0.0000     0.0000     0.0000 </r>
     <r>     0.9788     0.0000     0.0000     0.0000     0.0000     0.0000     0.0000 </r>
     <r>     0.9888     0.0000     0.0000     0.0000     0.0000     0.0000     0.0000 </r>
     <r>     0.9988     0.0000     0.0000     0.0000     0.0000     0.0000     0.0000 </r>
     <r>     1.0088     0.0000     0.0000     0.0000     0.0000     0.0000     0.0000 </r>
     <r>     1.0188     0.0000     0.0000     0.0000     0.0000     0.0000     0.0000 </r>
     <r>     1.0288     0.0000     0.0000     0.0000     0.0000     0.0000     0.0000 </r>
     <r>     1.0388     0.0000     0.0000     0.0000     0.0000     0.0000     0.0000 </r>
     <r>     1.0488     0.0000     0.0000     0.0000     0.0000     0.0000     0.0000 </r>
     <r>     1.0588     0.0000     0.0000     0.0000     0.0000     0.0000     0.0000 </r>
     <r>     1.0688     0.0000     0.0000     0.0000     0.0000     0.0000     0.0000 </r>
     <r>     1.0789     0.0000     0.0000     0.0000     0.0000     0.0000     0.0000 </r>
     <r>     1.0889     0.0000     0.0000     0.0000     0.0000     0.0000     0.0000 </r>
     <r>     1.0989     0.0000     0.0000     0.0000     0.0000     0.0000     0.0000 </r>
     <r>     1.1089     0.0000     0.0000     0.0000     0.0000     0.0000     0.0000 </r>
     <r>     1.1189     0.0000     0.0000     0.0000     0.0000     0.0000     0.0000 </r>
     <r>     1.1289     0.0000     0.0000     0.0000     0.0000     0.0000     0.0000 </r>
     <r>     1.1389     0.0000     0.0000     0.0000     0.0000     0.0000     0.0000 </r>
     <r>     1.1489     0.0000     0.0000     0.0000     0.0000     0.0000     0.0000 </r>
     <r>     1.1589     0.0000     0.0000     0.0000     0.0000     0.0000     0.0000 </r>
     <r>     1.1689     0.0000     0.0000     0.0000     0.0000     0.0000     0.0000 </r>
     <r>     1.1790     0.0000     0.0000     0.0000     0.0000     0.0000     0.0000 </r>
     <r>     1.1890     0.0000     0.0000     0.0000     0.0000     0.0000     0.0000 </r>
     <r>     1.1990     0.0000     0.0000     0.0000     0.0000     0.0000     0.0000 </r>
     <r>     1.2090     0.0000     0.0000     0.0000     0.0000     0.0000     0.0000 </r>
     <r>     1.2190     0.0000     0.0000     0.0000     0.0000     0.0000     0.0000 </r>
     <r>     1.2290     0.0000     0.0000     0.0000     0.0000     0.0000     0.0000 </r>
     <r>     1.2390     0.0000     0.0000     0.0000     0.0000     0.0000     0.0000 </r>
     <r>     1.2490     0.0000     0.0000     0.0000     0.0000     0.0000     0.0000 </r>
     <r>     1.2590     0.0000     0.0000     0.0000     0.0000     0.0000     0.0000 </r>
     <r>     1.2690     0.0000     0.0000     0.0000     0.0000     0.0000     0.0000 </r>
     <r>     1.2791     0.0000     0.0000     0.0000     0.0000     0.0000     0.0000 </r>
     <r>     1.2891     0.0000     0.0000     0.0000     0.0000     0.0000     0.0000 </r>
     <r>     1.2991     0.0000     0.0000     0.0000     0.0000     0.0000     0.0000 </r>
     <r>     1.3091     0.0000     0.0000     0.0000     0.0000     0.0000     0.0000 </r>
     <r>     1.3191     0.0000     0.0000     0.0000     0.0000     0.0000     0.0000 </r>
     <r>     1.3291     0.0000     0.0000     0.0000     0.0000     0.0000     0.0000 </r>
     <r>     1.3391     0.0000     0.0000     0.0000     0.0000     0.0000     0.0000 </r>
     <r>     1.3491     0.0000     0.0000     0.0000     0.0000     0.0000     0.0000 </r>
     <r>     1.3591     0.0000     0.0000     0.0000     0.0000     0.0000     0.0000 </r>
     <r>     1.3691     0.0000     0.0000     0.0000     0.0000     0.0000     0.0000 </r>
     <r>     1.3792     0.0000     0.0000     0.0000     0.0000     0.0000     0.0000 </r>
    </set>
   </array>
  </conductivity>
  <dos>
   <i name="efermi">     -3.62084677 </i>
   <total>
    <array>
     <dimension dim="1">gridpoints</dimension>
     <dimension dim="2">spin</dimension>
     <field>energy</field>
     <field>total</field>
     <field>integrated</field>
     <set>
      <set comment="spin 1">
       <r>   -17.4572     0.0000     0.0000 </r>
       <r>   -17.3599     0.0000     0.0000 </r>
       <r>   -17.2627     0.0000     0.0000 </r>
       <r>   -17.1654     0.0000     0.0000 </r>
       <r>   -17.0681     0.0000     0.0000 </r>
       <r>   -16.9709     0.0000     0.0000 </r>
       <r>   -16.8736     0.0000     0.0000 </r>
       <r>   -16.7763     0.0000     0.0000 </r>
       <r>   -16.6791     0.0000     0.0000 </r>
       <r>   -16.5818     0.0000     0.0000 </r>
       <r>   -16.4845     0.0000     0.0000 </r>
       <r>   -16.3873     0.0000     0.0000 </r>
       <r>   -16.2900     0.0000     0.0000 </r>
       <r>   -16.1927     0.0000     0.0000 </r>
       <r>   -16.0955     0.0000     0.0058 </r>
       <r>   -15.9982     0.0001     0.1574 </r>
       <r>   -15.9009     1.4387     0.8455 </r>
       <r>   -15.8037     0.0000     2.0000 </r>
       <r>   -15.7064     0.0000     2.0000 </r>
       <r>   -15.6091     0.0000     2.0000 </r>
       <r>   -15.5119     0.0000     2.0000 </r>
       <r>   -15.4146     0.0000     2.0000 </r>
       <r>   -15.3173     0.0000     2.0000 </r>
       <r>   -15.2201     0.0000     2.0000 </r>
       <r>   -15.1228     0.0000     2.0000 </r>
       <r>   -15.0255     0.0000     2.0000 </r>
       <r>   -14.9282     0.0000     2.0000 </r>
       <r>   -14.8310     0.0000     2.0000 </r>
       <r>   -14.7337     0.0000     2.0000 </r>
       <r>   -14.6364     0.0000     2.0000 </r>
       <r>   -14.5392     0.0000     2.0000 </r>
       <r>   -14.4419     0.0000     2.0000 </r>
       <r>   -14.3446     0.0000     2.0000 </r>
       <r>   -14.2474     0.0000     2.0000 </r>
       <r>   -14.1501     0.0000     2.0000 </r>
       <r>   -14.0528     0.0000     2.0000 </r>
       <r>   -13.9556     0.0000     2.0000 </r>
       <r>   -13.8583     0.0000     2.0000 </r>
       <r>   -13.7610     0.0000     2.0000 </r>
       <r>   -13.6638     0.0000     2.0000 </r>
       <r>   -13.5665     0.0000     2.0000 </r>
       <r>   -13.4692     0.0000     2.0000 </r>
       <r>   -13.3720     0.0000     2.0000 </r>
       <r>   -13.2747     0.0000     2.0000 </r>
       <r>   -13.1774     0.0000     2.0000 </r>
       <r>   -13.0802     0.0000     2.0000 </r>
       <r>   -12.9829     0.0000     2.0000 </r>
       <r>   -12.8856     0.0000     2.0000 </r>
       <r>   -12.7884     0.0000     2.0000 </r>
       <r>   -12.6911     0.0000     2.0000 </r>
       <r>   -12.5938     0.0000     2.0000 </r>
       <r>   -12.4965     0.0000     2.0000 </r>
       <r>   -12.3993     0.0000     2.0000 </r>
       <r>   -12.3020     0.0000     2.0000 </r>
       <r>   -12.2047     0.0000     2.0000 </r>
       <r>   -12.1075     0.0000     2.0000 </r>
       <r>   -12.0102     0.0000     2.0000 </r>
       <r>   -11.9129     0.0000     2.0000 </r>
       <r>   -11.8157     0.0000     2.0000 </r>
       <r>   -11.7184     0.0000     2.0000 </r>
       <r>   -11.6211     0.0000     2.0000 </r>
       <r>   -11.5239     0.0000     2.0000 </r>
       <r>   -11.4266     0.0000     2.0000 </r>
       <r>   -11.3293     0.0000     2.0000 </r>
       <r>   -11.2321     0.0000     2.0000 </r>
       <r>   -11.1348     0.0000     2.0000 </r>
       <r>   -11.0375     0.0000     2.0000 </r>
       <r>   -10.9403     0.0000     2.0000 </r>
       <r>   -10.8430     0.0000     2.0000 </r>
       <r>   -10.7457     0.0000     2.0000 </r>
       <r>   -10.6485     0.0000     2.0000 </r>
       <r>   -10.5512     0.0000     2.0000 </r>
       <r>   -10.4539     0.0000     2.0000 </r>
       <r>   -10.3567     0.0000     2.0000 </r>
       <r>   -10.2594     0.0000     2.0000 </r>
       <r>   -10.1621     0.0000     2.0000 </r>
       <r>   -10.0648     0.0000     2.0000 </r>
       <r>    -9.9676     0.0000     2.0000 </r>
       <r>    -9.8703     0.0000     2.0000 </r>
       <r>    -9.7730     0.0000     2.0000 </r>
       <r>    -9.6758     0.0000     2.0000 </r>
       <r>    -9.5785     0.0000     2.0000 </r>
       <r>    -9.4812     0.0000     2.0000 </r>
       <r>    -9.3840     0.0000     2.0000 </r>
       <r>    -9.2867     0.0000     2.0000 </r>
       <r>    -9.1894     0.0000     2.0000 </r>
       <r>    -9.0922     0.0000     2.0000 </r>
       <r>    -8.9949     0.0000     2.0000 </r>
       <r>    -8.8976     0.0000     2.0000 </r>
       <r>    -8.8004     0.0000     2.0000 </r>
       <r>    -8.7031     0.0000     2.0000 </r>
       <r>    -8.6058     0.0000     2.0000 </r>
       <r>    -8.5086     0.0000     2.0000 </r>
       <r>    -8.4113     0.0000     2.0000 </r>
       <r>    -8.3140     0.0000     2.0000 </r>
       <r>    -8.2168     0.0000     2.0000 </r>
       <r>    -8.1195     0.0000     2.0000 </r>
       <r>    -8.0222     0.0000     2.0000 </r>
       <r>    -7.9250     0.0000     2.0000 </r>
       <r>    -7.8277     0.0000     2.0000 </r>
       <r>    -7.7304     0.0000     2.0000 </r>
       <r>    -7.6332     0.0000     2.0000 </r>
       <r>    -7.5359     0.0000     2.0000 </r>
       <r>    -7.4386     0.0000     2.0000 </r>
       <r>    -7.3413     0.0000     2.0000 </r>
       <r>    -7.2441     0.0000     2.0000 </r>
       <r>    -7.1468     0.0000     2.0000 </r>
       <r>    -7.0495     0.0000     2.0000 </r>
       <r>    -6.9523     0.0000     2.0000 </r>
       <r>    -6.8550     0.0000     2.0000 </r>
       <r>    -6.7577     0.0000     2.0000 </r>
       <r>    -6.6605     0.0000     2.0000 </r>
       <r>    -6.5632     0.0000     2.0000 </r>
       <r>    -6.4659     0.0000     2.0000 </r>
       <r>    -6.3687     0.0000     2.0000 </r>
       <r>    -6.2714     0.0000     2.0000 </r>
       <r>    -6.1741     0.0000     2.0000 </r>
       <r>    -6.0769     0.0000     2.0000 </r>
       <r>    -5.9796     0.0000     2.0000 </r>
       <r>    -5.8823     0.0000     2.0000 </r>
       <r>    -5.7851     0.0000     2.0000 </r>
       <r>    -5.6878     0.0000     2.0000 </r>
       <r>    -5.5905     0.0000     2.0000 </r>
       <r>    -5.4933     0.0000     2.0000 </r>
       <r>    -5.3960     0.0000     2.0000 </r>
       <r>    -5.2987     0.0000     2.0466 </r>
       <r>    -5.2015     0.0000     2.1866 </r>
       <r>    -5.1042     0.0000     2.4315 </r>
       <r>    -5.0069     0.0000     3.1312 </r>
       <r>    -4.9096     0.0000     3.3411 </r>
       <r>    -4.8124     0.4532     3.6651 </r>
       <r>    -4.7151     0.0000     3.8426 </r>
       <r>    -4.6178     0.0000     3.8426 </r>
       <r>    -4.5206     0.0000     4.1924 </r>
       <r>    -4.4233     0.0000     4.7522 </r>
       <r>    -4.3260     0.0000     4.7522 </r>
       <r>    -4.2288     0.7194     5.4519 </r>
       <r>    -4.1315     2.5255     5.8375 </r>
       <r>    -4.0342     0.0000     6.5831 </r>
       <r>    -3.9370     0.7195     7.0029 </r>
       <r>    -3.8397     0.0000     7.5160 </r>
       <r>    -3.7424     0.0000     7.8192 </r>
       <r>    -3.6452     0.0000     8.0000 </r>
       <r>    -3.5479     0.0000     8.0000 </r>
       <r>    -3.4506     0.0000     8.0000 </r>
       <r>    -3.3534     0.0000     8.0000 </r>
       <r>    -3.2561     0.0000     8.0000 </r>
       <r>    -3.1588     0.0000     8.0000 </r>
       <r>    -3.0616     0.0000     8.0000 </r>
       <r>    -2.9643     0.0000     8.0000 </r>
       <r>    -2.8670     0.0000     8.0000 </r>
       <r>    -2.7698     0.0000     8.0000 </r>
       <r>    -2.6725     0.0000     8.0000 </r>
       <r>    -2.5752     0.0000     8.0000 </r>
       <r>    -2.4779     0.0000     8.0000 </r>
       <r>    -2.3807     0.0000     8.0000 </r>
       <r>    -2.2834     0.0000     8.0000 </r>
       <r>    -2.1861     0.0000     8.0000 </r>
       <r>    -2.0889     0.0000     8.0000 </r>
       <r>    -1.9916     0.0000     8.0000 </r>
       <r>    -1.8943     0.0000     8.0000 </r>
       <r>    -1.7971     0.0000     8.0000 </r>
       <r>    -1.6998     0.0000     8.0000 </r>
       <r>    -1.6025     0.0000     8.0000 </r>
       <r>    -1.5053     0.0000     8.0000 </r>
       <r>    -1.4080     0.0000     8.0000 </r>
       <r>    -1.3107     0.0000     8.0000 </r>
       <r>    -1.2135     0.0000     8.0000 </r>
       <r>    -1.1162     0.0000     8.0000 </r>
       <r>    -1.0189     0.0000     8.0000 </r>
       <r>    -0.9217     0.0000     8.0000 </r>
       <r>    -0.8244     0.0000     8.0000 </r>
       <r>    -0.7271     0.0000     8.0000 </r>
       <r>    -0.6299     0.0000     8.0000 </r>
       <r>    -0.5326     0.0000     8.0000 </r>
       <r>    -0.4353     0.0000     8.0000 </r>
       <r>    -0.3381     0.0000     8.0000 </r>
       <r>    -0.2408     0.0000     8.0000 </r>
       <r>    -0.1435     0.0000     8.0000 </r>
       <r>    -0.0462     0.0000     8.0000 </r>
       <r>     0.0510     0.0000     8.0000 </r>
       <r>     0.1483     0.0000     8.0000 </r>
       <r>     0.2456     0.0000     8.0000 </r>
       <r>     0.3428     0.0000     8.0000 </r>
       <r>     0.4401     0.0000     8.0000 </r>
       <r>     0.5374     0.0000     8.0000 </r>
       <r>     0.6346     0.0000     8.0000 </r>
       <r>     0.7319     0.0000     8.0000 </r>
       <r>     0.8292     0.0000     8.0000 </r>
       <r>     0.9264     0.0000     8.0000 </r>
       <r>     1.0237     0.0000     8.0000 </r>
       <r>     1.1210     0.0000     8.0000 </r>
       <r>     1.2182     0.0000     8.0000 </r>
       <r>     1.3155     0.0000     8.0000 </r>
       <r>     1.4128     0.0000     8.0000 </r>
       <r>     1.5100     0.0000     8.0000 </r>
       <r>     1.6073     0.0000     8.0000 </r>
       <r>     1.7046     0.0000     8.0000 </r>
       <r>     1.8018     0.0000     8.0000 </r>
       <r>     1.8991     0.0000     8.0000 </r>
       <r>     1.9964     0.0000     8.0000 </r>
       <r>     2.0936     0.0000     8.0000 </r>
       <r>     2.1909     0.0000     8.0000 </r>
       <r>     2.2882     0.0000     8.0000 </r>
       <r>     2.3854     0.0000     8.0000 </r>
       <r>     2.4827     0.0000     8.0000 </r>
       <r>     2.5800     0.0000     8.0058 </r>
       <r>     2.6773     0.0000     8.0058 </r>
       <r>     2.7745     0.0000     8.0058 </r>
       <r>     2.8718     0.0000     8.0058 </r>
       <r>     2.9691     0.0000     8.0058 </r>
       <r>     3.0663     0.0000     8.0058 </r>
       <r>     3.1636     0.0000     8.0525 </r>
       <r>     3.2609     0.0000     8.0525 </r>
       <r>     3.3581     0.0000     8.0875 </r>
       <r>     3.4554     0.0000     8.0875 </r>
       <r>     3.5527     0.0000     8.0875 </r>
       <r>     3.6499     0.0000     8.0875 </r>
       <r>     3.7472     0.0386     8.0912 </r>
       <r>     3.8445     0.0000     8.1924 </r>
       <r>     3.9417     0.0000     8.3090 </r>
       <r>     4.0390     0.0000     8.3557 </r>
       <r>     4.1363     0.0000     8.4956 </r>
       <r>     4.2335     0.0000     8.5306 </r>
       <r>     4.3308     0.0000     8.6706 </r>
       <r>     4.4281     0.0000     8.8105 </r>
       <r>     4.5253     0.0110     9.0914 </r>
       <r>     4.6226     0.0000     9.4052 </r>
       <r>     4.7199     0.0000     9.4052 </r>
       <r>     4.8171     0.0000     9.6851 </r>
       <r>     4.9144     0.0000     9.7551 </r>
       <r>     5.0117     0.0000     9.7551 </r>
       <r>     5.1090     0.3372    10.2077 </r>
       <r>     5.2062     0.0000    10.4198 </r>
       <r>     5.3035     0.0000    10.4198 </r>
       <r>     5.4008     0.0000    10.4198 </r>
       <r>     5.4980     0.0000    10.6997 </r>
       <r>     5.5953     0.0000    10.8397 </r>
       <r>     5.6926     0.0000    10.9796 </r>
       <r>     5.7898     0.8314    11.0605 </r>
       <r>     5.8871     0.0000    11.3294 </r>
       <r>     5.9844     0.0000    11.6093 </r>
       <r>     6.0816     0.0000    11.6093 </r>
       <r>     6.1789     0.0000    11.8542 </r>
       <r>     6.2762     0.0000    11.9942 </r>
       <r>     6.3734     0.0000    11.9942 </r>
       <r>     6.4707     0.0000    12.2507 </r>
       <r>     6.5680     0.0000    12.5773 </r>
       <r>     6.6652     0.0000    12.5773 </r>
       <r>     6.7625     2.3978    13.0904 </r>
       <r>     6.8598     0.0000    13.0904 </r>
       <r>     6.9570     0.0000    13.1254 </r>
       <r>     7.0543     0.0000    13.4927 </r>
       <r>     7.1516     0.0000    13.7259 </r>
       <r>     7.2488     1.3270    14.0883 </r>
       <r>     7.3461     0.0000    14.2857 </r>
       <r>     7.4434     0.0000    14.4257 </r>
       <r>     7.5407     0.0000    14.4956 </r>
       <r>     7.6379     0.0000    14.5656 </r>
       <r>     7.7352     0.0000    14.7055 </r>
       <r>     7.8325     0.0000    14.9155 </r>
       <r>     7.9297     0.0000    15.1953 </r>
       <r>     8.0270     0.0000    15.1953 </r>
       <r>     8.1243     0.0000    15.1953 </r>
       <r>     8.2215     0.0000    15.3353 </r>
       <r>     8.3188     0.0000    15.5452 </r>
       <r>     8.4161     0.0000    15.5452 </r>
       <r>     8.5133     0.0000    15.5802 </r>
       <r>     8.6106     0.0000    15.5802 </r>
       <r>     8.7079     0.0000    15.7551 </r>
       <r>     8.8051     0.0000    15.7551 </r>
       <r>     8.9024     0.0000    15.8950 </r>
       <r>     8.9997     0.0000    15.8950 </r>
       <r>     9.0969     0.0000    15.8950 </r>
       <r>     9.1942     0.0000    15.8950 </r>
       <r>     9.2915     0.0000    15.8950 </r>
       <r>     9.3887     0.0000    15.8950 </r>
       <r>     9.4860     0.0000    15.8950 </r>
       <r>     9.5833     0.0000    15.8950 </r>
       <r>     9.6805     0.0000    15.9650 </r>
       <r>     9.7778     0.0000    15.9650 </r>
       <r>     9.8751     0.0000    15.9650 </r>
       <r>     9.9724     0.0000    15.9650 </r>
       <r>    10.0696     0.0000    15.9650 </r>
       <r>    10.1669     0.0000    15.9650 </r>
       <r>    10.2642     0.0000    15.9650 </r>
       <r>    10.3614     0.0000    15.9650 </r>
       <r>    10.4587     0.0000    16.0000 </r>
       <r>    10.5560     0.0000    16.0000 </r>
       <r>    10.6532     0.0000    16.0000 </r>
       <r>    10.7505     0.0000    16.0000 </r>
       <r>    10.8478     0.0000    16.0000 </r>
       <r>    10.9450     0.0000    16.0000 </r>
       <r>    11.0423     0.0000    16.0000 </r>
       <r>    11.1396     0.0000    16.0000 </r>
       <r>    11.2368     0.0000    16.0000 </r>
       <r>    11.3341     0.0000    16.0000 </r>
       <r>    11.4314     0.0000    16.0000 </r>
       <r>    11.5286     0.0000    16.0000 </r>
       <r>    11.6259     0.0000    16.0000 </r>
       <r>    11.7232     0.0000    16.0000 </r>
      </set>
     </set>
    </array>
   </total>
  </dos>
 </calculation>
 <structure name="finalpos" >
  <crystal>
   <varray name="basis" >
    <v>       4.33599578       0.00000000       0.00000000 </v>
    <v>       2.16799789       3.75508250      -0.00000000 </v>
    <v>       2.16799789       1.25169417       3.54032573 </v>
   </varray>
   <i name="volume">     57.64366099 </i>
   <varray name="rec_basis" >
    <v>       0.23062753      -0.13315287      -0.09415330 </v>
    <v>       0.00000000       0.26630573      -0.09415330 </v>
    <v>      -0.00000000       0.00000000       0.28245989 </v>
   </varray>
  </crystal>
  <varray name="positions" >
   <v>       0.00000000       0.00000000       0.00000000 </v>
  </varray>
  <varray name="velocities" >
   <v>       0.00000000       0.00000000       0.00000000 </v>
  </varray>
 </structure>
</modeling>
