   1   1   0   0
  0.4928368E+02  0.4115343E-09  0.4115343E-09  0.4115343E-09  0.1000000E-15
  1.000000000000000E-004
  CAR 
 Og_FCC                                  
     72.15572198    -31.32220330  301     -9.85053380      1.00000000
    -31.322  0.0000E+00  0.0000E+00
    -30.977  0.0000E+00  0.0000E+00
    -30.632  0.0000E+00  0.0000E+00
    -30.287  0.0000E+00  0.0000E+00
    -29.942  0.0000E+00  0.0000E+00
    -29.598  0.0000E+00  0.0000E+00
    -29.253  0.0000E+00  0.0000E+00
    -28.908  0.0000E+00  0.0000E+00
    -28.563  0.0000E+00  0.0000E+00
    -28.218  0.0000E+00  0.0000E+00
    -27.873  0.0000E+00  0.0000E+00
    -27.528  0.0000E+00  0.0000E+00
    -27.183  0.0000E+00  0.0000E+00
    -26.838  0.0000E+00  0.0000E+00
    -26.493  0.5211E-14  0.1306E+01
    -26.148  0.0000E+00  0.2000E+01
    -25.803  0.0000E+00  0.2000E+01
    -25.458  0.0000E+00  0.2000E+01
    -25.114  0.0000E+00  0.2000E+01
    -24.769  0.0000E+00  0.2000E+01
    -24.424  0.0000E+00  0.2000E+01
    -24.079  0.0000E+00  0.2000E+01
    -23.734  0.0000E+00  0.2000E+01
    -23.389  0.0000E+00  0.2000E+01
    -23.044  0.0000E+00  0.2000E+01
    -22.699  0.0000E+00  0.2000E+01
    -22.354  0.0000E+00  0.2000E+01
    -22.009  0.0000E+00  0.2000E+01
    -21.664  0.0000E+00  0.2000E+01
    -21.319  0.0000E+00  0.2000E+01
    -20.974  0.0000E+00  0.2000E+01
    -20.629  0.0000E+00  0.2000E+01
    -20.285  0.0000E+00  0.2000E+01
    -19.940  0.0000E+00  0.2000E+01
    -19.595  0.0000E+00  0.2000E+01
    -19.250  0.0000E+00  0.2000E+01
    -18.905  0.0000E+00  0.2000E+01
    -18.560  0.0000E+00  0.2000E+01
    -18.215  0.0000E+00  0.2000E+01
    -17.870  0.0000E+00  0.2000E+01
    -17.525  0.0000E+00  0.2000E+01
    -17.180  0.0000E+00  0.2000E+01
    -16.835  0.0000E+00  0.2000E+01
    -16.490  0.0000E+00  0.2000E+01
    -16.145  0.0000E+00  0.2000E+01
    -15.801  0.0000E+00  0.2000E+01
    -15.456  0.0000E+00  0.2000E+01
    -15.111  0.0000E+00  0.2000E+01
    -14.766  0.0000E+00  0.2000E+01
    -14.421  0.0000E+00  0.2000E+01
    -14.076  0.0000E+00  0.2000E+01
    -13.731  0.0000E+00  0.2000E+01
    -13.386  0.0000E+00  0.2000E+01
    -13.041  0.0000E+00  0.2000E+01
    -12.696  0.0000E+00  0.2000E+01
    -12.351  0.0000E+00  0.2000E+01
    -12.006  0.0000E+00  0.2000E+01
    -11.661  0.0000E+00  0.2000E+01
    -11.316  0.0000E+00  0.3750E+01
    -10.972  0.0000E+00  0.4000E+01
    -10.627  0.1611E+00  0.5417E+01
    -10.282  0.8053E+00  0.7333E+01
     -9.937  0.0000E+00  0.8000E+01
     -9.592  0.0000E+00  0.8000E+01
     -9.247  0.0000E+00  0.8000E+01
     -8.902  0.0000E+00  0.8000E+01
     -8.557  0.0000E+00  0.8000E+01
     -8.212  0.0000E+00  0.8000E+01
     -7.867  0.0000E+00  0.8000E+01
     -7.522  0.0000E+00  0.8000E+01
     -7.177  0.0000E+00  0.8000E+01
     -6.832  0.0000E+00  0.8000E+01
     -6.488  0.0000E+00  0.8000E+01
     -6.143  0.0000E+00  0.8000E+01
     -5.798  0.0000E+00  0.8000E+01
     -5.453  0.0000E+00  0.8000E+01
     -5.108  0.0000E+00  0.8000E+01
     -4.763  0.0000E+00  0.8000E+01
     -4.418  0.0000E+00  0.8000E+01
     -4.073  0.0000E+00  0.8000E+01
     -3.728  0.0000E+00  0.8000E+01
     -3.383  0.0000E+00  0.8000E+01
     -3.038  0.0000E+00  0.8000E+01
     -2.693  0.0000E+00  0.8000E+01
     -2.348  0.0000E+00  0.8000E+01
     -2.003  0.0000E+00  0.8000E+01
     -1.659  0.0000E+00  0.8000E+01
     -1.314  0.0000E+00  0.8000E+01
     -0.969  0.0000E+00  0.8000E+01
     -0.624  0.0000E+00  0.8000E+01
     -0.279  0.0000E+00  0.8000E+01
      0.066  0.0000E+00  0.8000E+01
      0.411  0.0000E+00  0.8000E+01
      0.756  0.0000E+00  0.8000E+01
      1.101  0.0000E+00  0.8000E+01
      1.446  0.0000E+00  0.8000E+01
      1.791  0.0000E+00  0.8000E+01
      2.136  0.0000E+00  0.8000E+01
      2.481  0.0000E+00  0.8000E+01
      2.826  0.0000E+00  0.8000E+01
      3.170  0.0000E+00  0.8000E+01
      3.515  0.0000E+00  0.8000E+01
      3.860  0.0000E+00  0.8000E+01
      4.205  0.0000E+00  0.8009E+01
      4.550  0.0000E+00  0.8009E+01
      4.895  0.0000E+00  0.8139E+01
      5.240  0.0000E+00  0.8139E+01
      5.585  0.0000E+00  0.8250E+01
      5.930  0.0000E+00  0.8250E+01
      6.275  0.0000E+00  0.8546E+01
      6.620  0.0000E+00  0.8602E+01
      6.965  0.0000E+00  0.8889E+01
      7.310  0.0000E+00  0.9556E+01
      7.654  0.0000E+00  0.9667E+01
      7.999  0.0000E+00  0.1000E+02
      8.344  0.8498E-01  0.1003E+02
      8.689  0.0000E+00  0.1084E+02
      9.034  0.0000E+00  0.1123E+02
      9.379  0.0000E+00  0.1197E+02
      9.724  0.0000E+00  0.1231E+02
     10.069  0.0000E+00  0.1303E+02
     10.414  0.0000E+00  0.1346E+02
     10.759  0.0000E+00  0.1391E+02
     11.104  0.0000E+00  0.1398E+02
     11.449  0.0000E+00  0.1413E+02
     11.794  0.0000E+00  0.1551E+02
     12.139  0.0000E+00  0.1606E+02
     12.483  0.0000E+00  0.1686E+02
     12.828  0.2148E+00  0.1758E+02
     13.173  0.0000E+00  0.1834E+02
     13.518  0.3698E-05  0.1857E+02
     13.863  0.0000E+00  0.1873E+02
     14.208  0.5659E-12  0.1919E+02
     14.553  0.0000E+00  0.1986E+02
     14.898  0.0000E+00  0.2125E+02
     15.243  0.0000E+00  0.2236E+02
     15.588  0.0000E+00  0.2253E+02
     15.933  0.0000E+00  0.2275E+02
     16.278  0.0000E+00  0.2297E+02
     16.623  0.0000E+00  0.2297E+02
     16.967  0.1074E+00  0.2360E+02
     17.312  0.0000E+00  0.2439E+02
     17.657  0.0000E+00  0.2511E+02
     18.002  0.0000E+00  0.2578E+02
     18.347  0.0000E+00  0.2644E+02
     18.692  0.0000E+00  0.2706E+02
     19.037  0.2148E+00  0.2757E+02
     19.382  0.0000E+00  0.2806E+02
     19.727  0.0000E+00  0.2844E+02
     20.072  0.0000E+00  0.2899E+02
     20.417  0.0000E+00  0.2932E+02
     20.762  0.2547E+00  0.2960E+02
     21.107  0.0000E+00  0.2994E+02
     21.452  0.0000E+00  0.3056E+02
     21.796  0.0000E+00  0.3089E+02
     22.141  0.0000E+00  0.3144E+02
     22.486  0.1088E+00  0.3211E+02
     22.831  0.0000E+00  0.3319E+02
     23.176  0.0000E+00  0.3361E+02
     23.521  0.0000E+00  0.3376E+02
     23.866  0.0000E+00  0.3498E+02
     24.211  0.0000E+00  0.3509E+02
     24.556  0.0000E+00  0.3600E+02
     24.901  0.0000E+00  0.3650E+02
     25.246  0.0000E+00  0.3709E+02
     25.591  0.0000E+00  0.3782E+02
     25.936  0.0000E+00  0.3861E+02
     26.281  0.0000E+00  0.3883E+02
     26.625  0.1010E-11  0.3930E+02
     26.970  0.1015E-05  0.3954E+02
     27.315  0.0000E+00  0.4055E+02
     27.660  0.0000E+00  0.4084E+02
     28.005  0.0000E+00  0.4212E+02
     28.350  0.0000E+00  0.4264E+02
     28.695  0.0000E+00  0.4353E+02
     29.040  0.0000E+00  0.4425E+02
     29.385  0.3319E-08  0.4494E+02
     29.730  0.7203E-10  0.4577E+02
     30.075  0.0000E+00  0.4594E+02
     30.420  0.0000E+00  0.4637E+02
     30.765  0.0000E+00  0.4683E+02
     31.109  0.0000E+00  0.4750E+02
     31.454  0.0000E+00  0.4794E+02
     31.799  0.0000E+00  0.4864E+02
     32.144  0.0000E+00  0.4939E+02
     32.489  0.1132E-02  0.5064E+02
     32.834  0.0000E+00  0.5125E+02
     33.179  0.0000E+00  0.5218E+02
     33.524  0.0000E+00  0.5273E+02
     33.869  0.2062E-14  0.5340E+02
     34.214  0.0000E+00  0.5442E+02
     34.559  0.3194E+00  0.5536E+02
     34.904  0.0000E+00  0.5551E+02
     35.249  0.0000E+00  0.5595E+02
     35.594  0.0000E+00  0.5619E+02
     35.938  0.0000E+00  0.5658E+02
     36.283  0.0000E+00  0.5683E+02
     36.628  0.0000E+00  0.5812E+02
     36.973  0.0000E+00  0.5910E+02
     37.318  0.0000E+00  0.6025E+02
     37.663  0.6443E+00  0.6121E+02
     38.008  0.6364E+00  0.6238E+02
     38.353  0.0000E+00  0.6357E+02
     38.698  0.0000E+00  0.6391E+02
     39.043  0.0000E+00  0.6467E+02
     39.388  0.0000E+00  0.6504E+02
     39.733  0.0000E+00  0.6543E+02
     40.078  0.8941E-16  0.6583E+02
     40.422  0.0000E+00  0.6717E+02
     40.767  0.0000E+00  0.6724E+02
     41.112  0.0000E+00  0.6782E+02
     41.457  0.6443E+00  0.6894E+02
     41.802  0.0000E+00  0.6927E+02
     42.147  0.0000E+00  0.6982E+02
     42.492  0.9281E-02  0.7056E+02
     42.837  0.5369E-01  0.7166E+02
     43.182  0.0000E+00  0.7263E+02
     43.527  0.1436E-04  0.7413E+02
     43.872  0.6442E+00  0.7449E+02
     44.217  0.0000E+00  0.7558E+02
     44.562  0.1074E+00  0.7636E+02
     44.907  0.0000E+00  0.7721E+02
     45.251  0.0000E+00  0.7827E+02
     45.596  0.5756E-01  0.7879E+02
     45.941  0.0000E+00  0.7969E+02
     46.286  0.0000E+00  0.8023E+02
     46.631  0.4114E-14  0.8066E+02
     46.976  0.0000E+00  0.8164E+02
     47.321  0.0000E+00  0.8186E+02
     47.666  0.0000E+00  0.8231E+02
     48.011  0.0000E+00  0.8289E+02
     48.356  0.0000E+00  0.8365E+02
     48.701  0.1167E-10  0.8463E+02
     49.046  0.0000E+00  0.8603E+02
     49.391  0.2148E+00  0.8735E+02
     49.736  0.6443E+00  0.8848E+02
     50.080  0.0000E+00  0.8894E+02
     50.425  0.0000E+00  0.8982E+02
     50.770  0.6443E+00  0.9082E+02
     51.115  0.0000E+00  0.9160E+02
     51.460  0.0000E+00  0.9251E+02
     51.805  0.0000E+00  0.9312E+02
     52.150  0.0000E+00  0.9400E+02
     52.495  0.8053E-01  0.9503E+02
     52.840  0.0000E+00  0.9589E+02
     53.185  0.0000E+00  0.9622E+02
     53.530  0.0000E+00  0.9739E+02
     53.875  0.3221E+00  0.9819E+02
     54.220  0.1004E+00  0.9890E+02
     54.564  0.0000E+00  0.9953E+02
     54.909  0.0000E+00  0.1000E+03
     55.254  0.6443E+00  0.1008E+03
     55.599  0.3188E+00  0.1015E+03
     55.944  0.0000E+00  0.1025E+03
     56.289  0.5751E-04  0.1030E+03
     56.634  0.0000E+00  0.1042E+03
     56.979  0.0000E+00  0.1054E+03
     57.324  0.0000E+00  0.1062E+03
     57.669  0.0000E+00  0.1076E+03
     58.014  0.0000E+00  0.1079E+03
     58.359  0.0000E+00  0.1090E+03
     58.704  0.0000E+00  0.1102E+03
     59.049  0.0000E+00  0.1114E+03
     59.393  0.0000E+00  0.1121E+03
     59.738  0.0000E+00  0.1128E+03
     60.083  0.6443E+00  0.1138E+03
     60.428  0.0000E+00  0.1146E+03
     60.773  0.1426E+00  0.1152E+03
     61.118  0.0000E+00  0.1164E+03
     61.463  0.0000E+00  0.1175E+03
     61.808  0.0000E+00  0.1183E+03
     62.153  0.0000E+00  0.1189E+03
     62.498  0.0000E+00  0.1201E+03
     62.843  0.0000E+00  0.1208E+03
     63.188  0.0000E+00  0.1210E+03
     63.533  0.0000E+00  0.1217E+03
     63.877  0.0000E+00  0.1231E+03
     64.222  0.0000E+00  0.1237E+03
     64.567  0.0000E+00  0.1253E+03
     64.912  0.0000E+00  0.1259E+03
     65.257  0.0000E+00  0.1269E+03
     65.602  0.0000E+00  0.1275E+03
     65.947  0.0000E+00  0.1277E+03
     66.292  0.0000E+00  0.1278E+03
     66.637  0.0000E+00  0.1279E+03
     66.982  0.0000E+00  0.1279E+03
     67.327  0.0000E+00  0.1279E+03
     67.672  0.0000E+00  0.1280E+03
     68.017  0.0000E+00  0.1280E+03
     68.362  0.0000E+00  0.1280E+03
     68.706  0.0000E+00  0.1280E+03
     69.051  0.0000E+00  0.1280E+03
     69.396  0.0000E+00  0.1280E+03
     69.741  0.0000E+00  0.1280E+03
     70.086  0.0000E+00  0.1280E+03
     70.431  0.0000E+00  0.1280E+03
     70.776  0.0000E+00  0.1280E+03
     71.121  0.0000E+00  0.1280E+03
     71.466  0.0000E+00  0.1280E+03
     71.811  0.0000E+00  0.1280E+03
     72.156  0.0000E+00  0.1280E+03
