   1   1   0   0
  0.2224118E+02  0.3156634E-09  0.3156634E-09  0.3156634E-09  0.1000000E-15
  1.000000000000000E-004
  CAR 
 Og_FCC                                  
    193.72386758    -57.19825294  301    -17.67801896      1.00000000
    -57.198  0.0000E+00  0.0000E+00
    -56.362  0.0000E+00  0.0000E+00
    -55.525  0.0000E+00  0.0000E+00
    -54.689  0.0000E+00  0.0000E+00
    -53.853  0.0000E+00  0.0000E+00
    -53.016  0.0000E+00  0.0000E+00
    -52.180  0.0000E+00  0.0000E+00
    -51.343  0.0000E+00  0.0000E+00
    -50.507  0.0000E+00  0.0000E+00
    -49.671  0.0000E+00  0.0000E+00
    -48.834  0.0000E+00  0.0000E+00
    -47.998  0.0000E+00  0.0000E+00
    -47.161  0.0000E+00  0.0000E+00
    -46.325  0.0000E+00  0.0000E+00
    -45.489  0.0000E+00  0.2000E+01
    -44.652  0.0000E+00  0.2000E+01
    -43.816  0.0000E+00  0.2000E+01
    -42.979  0.0000E+00  0.2000E+01
    -42.143  0.0000E+00  0.2000E+01
    -41.307  0.0000E+00  0.2000E+01
    -40.470  0.0000E+00  0.2000E+01
    -39.634  0.0000E+00  0.2000E+01
    -38.797  0.0000E+00  0.2000E+01
    -37.961  0.0000E+00  0.2000E+01
    -37.124  0.0000E+00  0.2000E+01
    -36.288  0.0000E+00  0.2000E+01
    -35.452  0.0000E+00  0.2000E+01
    -34.615  0.0000E+00  0.2000E+01
    -33.779  0.0000E+00  0.2000E+01
    -32.942  0.0000E+00  0.2000E+01
    -32.106  0.0000E+00  0.2000E+01
    -31.270  0.0000E+00  0.2000E+01
    -30.433  0.0000E+00  0.2000E+01
    -29.597  0.0000E+00  0.2000E+01
    -28.760  0.0000E+00  0.2000E+01
    -27.924  0.0000E+00  0.2000E+01
    -27.088  0.0000E+00  0.2000E+01
    -26.251  0.0000E+00  0.2000E+01
    -25.415  0.0000E+00  0.2000E+01
    -24.578  0.0000E+00  0.2000E+01
    -23.742  0.0000E+00  0.2000E+01
    -22.906  0.0000E+00  0.2000E+01
    -22.069  0.0000E+00  0.2000E+01
    -21.233  0.0000E+00  0.2000E+01
    -20.396  0.0000E+00  0.2000E+01
    -19.560  0.0000E+00  0.2000E+01
    -18.724  0.2928E+00  0.3773E+01
    -17.887  0.0000E+00  0.8000E+01
    -17.051  0.0000E+00  0.8000E+01
    -16.214  0.0000E+00  0.8000E+01
    -15.378  0.0000E+00  0.8000E+01
    -14.541  0.0000E+00  0.8000E+01
    -13.705  0.0000E+00  0.8000E+01
    -12.869  0.0000E+00  0.8000E+01
    -12.032  0.0000E+00  0.8000E+01
    -11.196  0.0000E+00  0.8000E+01
    -10.359  0.0000E+00  0.8000E+01
     -9.523  0.0000E+00  0.8000E+01
     -8.687  0.0000E+00  0.8000E+01
     -7.850  0.0000E+00  0.8000E+01
     -7.014  0.0000E+00  0.8000E+01
     -6.177  0.0000E+00  0.8000E+01
     -5.341  0.0000E+00  0.8000E+01
     -4.505  0.0000E+00  0.8000E+01
     -3.668  0.0000E+00  0.8000E+01
     -2.832  0.0000E+00  0.8000E+01
     -1.995  0.0000E+00  0.8000E+01
     -1.159  0.0000E+00  0.8000E+01
     -0.323  0.0000E+00  0.8000E+01
      0.514  0.0000E+00  0.8000E+01
      1.350  0.0000E+00  0.8000E+01
      2.187  0.0000E+00  0.8000E+01
      3.023  0.0000E+00  0.8000E+01
      3.859  0.0000E+00  0.8052E+01
      4.696  0.0000E+00  0.8087E+01
      5.532  0.0000E+00  0.8344E+01
      6.369  0.0000E+00  0.8379E+01
      7.205  0.0000E+00  0.8659E+01
      8.041  0.0000E+00  0.8985E+01
      8.878  0.0000E+00  0.9055E+01
      9.714  0.0000E+00  0.9650E+01
     10.551  0.0000E+00  0.1000E+02
     11.387  0.0000E+00  0.1019E+02
     12.224  0.0000E+00  0.1068E+02
     13.060  0.0000E+00  0.1134E+02
     13.896  0.0000E+00  0.1190E+02
     14.733  0.0000E+00  0.1223E+02
     15.569  0.0000E+00  0.1282E+02
     16.406  0.0000E+00  0.1317E+02
     17.242  0.0000E+00  0.1394E+02
     18.078  0.0000E+00  0.1422E+02
     18.915  0.0000E+00  0.1518E+02
     19.751  0.0000E+00  0.1632E+02
     20.588  0.0000E+00  0.1736E+02
     21.424  0.0000E+00  0.1799E+02
     22.260  0.0000E+00  0.1884E+02
     23.097  0.0000E+00  0.1970E+02
     23.933  0.0000E+00  0.2061E+02
     24.770  0.0000E+00  0.2092E+02
     25.606  0.0000E+00  0.2170E+02
     26.442  0.0000E+00  0.2250E+02
     27.279  0.4914E-11  0.2352E+02
     28.115  0.0000E+00  0.2434E+02
     28.952  0.0000E+00  0.2544E+02
     29.788  0.0000E+00  0.2648E+02
     30.624  0.0000E+00  0.2750E+02
     31.461  0.0000E+00  0.2792E+02
     32.297  0.0000E+00  0.2841E+02
     33.134  0.0000E+00  0.2913E+02
     33.970  0.0000E+00  0.2969E+02
     34.807  0.1611E+00  0.3092E+02
     35.643  0.0000E+00  0.3131E+02
     36.479  0.0000E+00  0.3176E+02
     37.316  0.0000E+00  0.3252E+02
     38.152  0.1673E+00  0.3340E+02
     38.989  0.0000E+00  0.3438E+02
     39.825  0.0000E+00  0.3504E+02
     40.661  0.0000E+00  0.3613E+02
     41.498  0.0000E+00  0.3693E+02
     42.334  0.0000E+00  0.3805E+02
     43.171  0.0000E+00  0.3885E+02
     44.007  0.0000E+00  0.3974E+02
     44.843  0.0000E+00  0.4055E+02
     45.680  0.0000E+00  0.4122E+02
     46.516  0.0000E+00  0.4217E+02
     47.353  0.0000E+00  0.4335E+02
     48.189  0.0000E+00  0.4447E+02
     49.025  0.0000E+00  0.4517E+02
     49.862  0.0000E+00  0.4588E+02
     50.698  0.0000E+00  0.4721E+02
     51.535  0.8492E-09  0.4771E+02
     52.371  0.0000E+00  0.4855E+02
     53.207  0.0000E+00  0.4942E+02
     54.044  0.0000E+00  0.5081E+02
     54.880  0.0000E+00  0.5245E+02
     55.717  0.0000E+00  0.5310E+02
     56.553  0.0000E+00  0.5416E+02
     57.390  0.0000E+00  0.5483E+02
     58.226  0.0000E+00  0.5619E+02
     59.062  0.0000E+00  0.5758E+02
     59.899  0.0000E+00  0.5852E+02
     60.735  0.0000E+00  0.5985E+02
     61.572  0.3545E-15  0.6034E+02
     62.408  0.0000E+00  0.6136E+02
     63.244  0.0000E+00  0.6260E+02
     64.081  0.0000E+00  0.6352E+02
     64.917  0.0000E+00  0.6440E+02
     65.754  0.0000E+00  0.6554E+02
     66.590  0.0000E+00  0.6637E+02
     67.426  0.1650E-03  0.6735E+02
     68.263  0.0000E+00  0.6854E+02
     69.099  0.1673E+00  0.6952E+02
     69.936  0.0000E+00  0.7077E+02
     70.772  0.0000E+00  0.7147E+02
     71.608  0.1673E+00  0.7276E+02
     72.445  0.0000E+00  0.7376E+02
     73.281  0.3001E-04  0.7536E+02
     74.118  0.0000E+00  0.7678E+02
     74.954  0.0000E+00  0.7770E+02
     75.790  0.0000E+00  0.7937E+02
     76.627  0.1673E+00  0.8019E+02
     77.463  0.0000E+00  0.8109E+02
     78.300  0.0000E+00  0.8211E+02
     79.136  0.4551E-04  0.8266E+02
     79.973  0.0000E+00  0.8352E+02
     80.809  0.0000E+00  0.8558E+02
     81.645  0.0000E+00  0.8762E+02
     82.482  0.0000E+00  0.8851E+02
     83.318  0.0000E+00  0.8935E+02
     84.155  0.0000E+00  0.9068E+02
     84.991  0.0000E+00  0.9171E+02
     85.827  0.0000E+00  0.9253E+02
     86.664  0.4183E-01  0.9489E+02
     87.500  0.0000E+00  0.9573E+02
     88.337  0.0000E+00  0.9716E+02
     89.173  0.0000E+00  0.9807E+02
     90.009  0.1673E+00  0.9960E+02
     90.846  0.0000E+00  0.1006E+03
     91.682  0.0000E+00  0.1011E+03
     92.519  0.0000E+00  0.1026E+03
     93.355  0.0000E+00  0.1044E+03
     94.191  0.0000E+00  0.1063E+03
     95.028  0.0000E+00  0.1076E+03
     95.864  0.0000E+00  0.1086E+03
     96.701  0.0000E+00  0.1098E+03
     97.537  0.0000E+00  0.1109E+03
     98.373  0.0000E+00  0.1118E+03
     99.210  0.0000E+00  0.1128E+03
    100.046  0.2481E-05  0.1149E+03
    100.883  0.0000E+00  0.1157E+03
    101.719  0.0000E+00  0.1168E+03
    102.555  0.0000E+00  0.1186E+03
    103.392  0.0000E+00  0.1197E+03
    104.228  0.0000E+00  0.1216E+03
    105.065  0.0000E+00  0.1235E+03
    105.901  0.0000E+00  0.1241E+03
    106.738  0.0000E+00  0.1254E+03
    107.574  0.0000E+00  0.1262E+03
    108.410  0.0000E+00  0.1279E+03
    109.247  0.0000E+00  0.1293E+03
    110.083  0.0000E+00  0.1306E+03
    110.920  0.0000E+00  0.1320E+03
    111.756  0.0000E+00  0.1333E+03
    112.592  0.0000E+00  0.1343E+03
    113.429  0.4183E-01  0.1357E+03
    114.265  0.0000E+00  0.1368E+03
    115.102  0.0000E+00  0.1387E+03
    115.938  0.8366E-01  0.1409E+03
    116.774  0.0000E+00  0.1419E+03
    117.611  0.0000E+00  0.1441E+03
    118.447  0.0000E+00  0.1446E+03
    119.284  0.0000E+00  0.1460E+03
    120.120  0.0000E+00  0.1470E+03
    120.956  0.0000E+00  0.1484E+03
    121.793  0.0000E+00  0.1503E+03
    122.629  0.0000E+00  0.1509E+03
    123.466  0.0000E+00  0.1526E+03
    124.302  0.0000E+00  0.1544E+03
    125.138  0.0000E+00  0.1560E+03
    125.975  0.6192E-17  0.1570E+03
    126.811  0.1673E+00  0.1590E+03
    127.648  0.8366E-01  0.1610E+03
    128.484  0.0000E+00  0.1629E+03
    129.321  0.0000E+00  0.1639E+03
    130.157  0.0000E+00  0.1656E+03
    130.993  0.0000E+00  0.1668E+03
    131.830  0.0000E+00  0.1683E+03
    132.666  0.0000E+00  0.1690E+03
    133.503  0.0000E+00  0.1707E+03
    134.339  0.0000E+00  0.1721E+03
    135.175  0.0000E+00  0.1733E+03
    136.012  0.0000E+00  0.1745E+03
    136.848  0.0000E+00  0.1763E+03
    137.685  0.0000E+00  0.1784E+03
    138.521  0.0000E+00  0.1802E+03
    139.357  0.0000E+00  0.1813E+03
    140.194  0.0000E+00  0.1829E+03
    141.030  0.0000E+00  0.1846E+03
    141.867  0.0000E+00  0.1857E+03
    142.703  0.0000E+00  0.1875E+03
    143.539  0.0000E+00  0.1894E+03
    144.376  0.0000E+00  0.1913E+03
    145.212  0.0000E+00  0.1928E+03
    146.049  0.0000E+00  0.1941E+03
    146.885  0.0000E+00  0.1952E+03
    147.721  0.0000E+00  0.1970E+03
    148.558  0.0000E+00  0.1983E+03
    149.394  0.0000E+00  0.2000E+03
    150.231  0.0000E+00  0.2008E+03
    151.067  0.0000E+00  0.2027E+03
    151.904  0.0000E+00  0.2050E+03
    152.740  0.0000E+00  0.2066E+03
    153.576  0.0000E+00  0.2082E+03
    154.413  0.0000E+00  0.2096E+03
    155.249  0.0000E+00  0.2114E+03
    156.086  0.0000E+00  0.2136E+03
    156.922  0.0000E+00  0.2145E+03
    157.758  0.0000E+00  0.2161E+03
    158.595  0.0000E+00  0.2177E+03
    159.431  0.0000E+00  0.2191E+03
    160.268  0.0000E+00  0.2208E+03
    161.104  0.0000E+00  0.2223E+03
    161.940  0.0000E+00  0.2241E+03
    162.777  0.0000E+00  0.2255E+03
    163.613  0.8366E-01  0.2271E+03
    164.450  0.0000E+00  0.2287E+03
    165.286  0.0000E+00  0.2299E+03
    166.122  0.0000E+00  0.2317E+03
    166.959  0.0000E+00  0.2341E+03
    167.795  0.0000E+00  0.2358E+03
    168.632  0.0000E+00  0.2376E+03
    169.468  0.0000E+00  0.2394E+03
    170.304  0.0000E+00  0.2408E+03
    171.141  0.0000E+00  0.2433E+03
    171.977  0.0000E+00  0.2444E+03
    172.814  0.0000E+00  0.2460E+03
    173.650  0.1031E-12  0.2474E+03
    174.487  0.0000E+00  0.2487E+03
    175.323  0.0000E+00  0.2505E+03
    176.159  0.0000E+00  0.2517E+03
    176.996  0.0000E+00  0.2524E+03
    177.832  0.0000E+00  0.2529E+03
    178.669  0.0000E+00  0.2540E+03
    179.505  0.1652E+00  0.2551E+03
    180.341  0.0000E+00  0.2557E+03
    181.178  0.0000E+00  0.2559E+03
    182.014  0.0000E+00  0.2560E+03
    182.851  0.0000E+00  0.2560E+03
    183.687  0.0000E+00  0.2560E+03
    184.523  0.0000E+00  0.2560E+03
    185.360  0.0000E+00  0.2560E+03
    186.196  0.0000E+00  0.2560E+03
    187.033  0.0000E+00  0.2560E+03
    187.869  0.0000E+00  0.2560E+03
    188.705  0.0000E+00  0.2560E+03
    189.542  0.0000E+00  0.2560E+03
    190.378  0.0000E+00  0.2560E+03
    191.215  0.0000E+00  0.2560E+03
    192.051  0.0000E+00  0.2560E+03
    192.887  0.0000E+00  0.2560E+03
    193.724  0.0000E+00  0.2560E+03
